<LesHouchesEvents version="3.0">
<header>
<!--
#*********************************************************************
#                                                                    *
#                        MadGraph5_aMC@NLO                           *
#                                                                    *
#                           Going Beyond                             *
#                                                                    *
#                   http://madgraph.hep.uiuc.edu                     *
#                   http://madgraph.phys.ucl.ac.be                   *
#                   http://amcatnlo.cern.ch                          *
#                                                                    *
#                     The MadGraph5_aMC@NLO team                     *
#                                                                    *
#....................................................................*
#                                                                    *
# This file contains all the information necessary to reproduce      *
# the events generated:                                              *
#                                                                    *
# 1. software version                                                *
# 2. proc_card          : code generation info including model       *
# 3. param_card         : model primary parameters in the LH format  *
# 4. run_card           : running parameters (collider and cuts)     *
# 5. pythia_card        : present only if pythia has been run        *
# 6. pgs_card           : present only if pgs has been run           *
# 7. delphes_cards      : present only if delphes has been run       *
#                                                                    *
#                                                                    *
#*********************************************************************
-->
<MGVersion>
#5.2.2.3
</MGVersion>
<MG5ProcCard>
#************************************************************
#*                     MadGraph5_aMC@NLO                    *
#*                                                          *
#*                *                       *                 *
#*                  *        * *        *                   *
#*                    * * * * 5 * * * *                     *
#*                  *        * *        *                   *
#*                *                       *                 *
#*                                                          *
#*                                                          *
#*         VERSION 2.2.3                 2015-02-10         *
#*                                                          *
#*    The MadGraph5_aMC@NLO Development Team - Find us at   *
#*    https://server06.fynu.ucl.ac.be/projects/madgraph     *
#*                                                          *
#************************************************************
#*                                                          *
#*               Command File for MadGraph5_aMC@NLO         *
#*                                                          *
#*     run as ./bin/mg5_aMC  filename                       *
#*                                                          *
#************************************************************
set group_subprocesses Auto
set ignore_six_quark_processes False
set loop_optimized_output True
set gauge unitary
set complex_mass_scheme False
import model sm
define p = g u c d s u~ c~ d~ s~
define j = g u c d s u~ c~ d~ s~
define l+ = e+ mu+
define l- = e- mu-
define vl = ve vm vt
define vl~ = ve~ vm~ vt~
import model Zprime_UFO
generate p p > zph, zph > j j
add process p p > zph, zph > b b~
output Dijet_signal
</MG5ProcCard>
<MGProcCard>
#*********************************************************************
#                        MadGraph/MadEvent                           *
#                   http://madgraph.hep.uiuc.edu                     *
#                                                                    *
#                          proc_card.dat                             *
#*********************************************************************
#                                                                    *
#            This Files is generated by MADGRAPH 5                   *
#                                                                    *
# WARNING: This Files is generated for MADEVENT (compatibility issue)*
#          This files is NOT a valid MG4 proc_card.dat               *
#          Running this in MG4 will NEVER reproduce the result of MG5*
#                                                                    *
#*********************************************************************
#*********************************************************************
# Process(es) requested : mg2 input                                  *
#*********************************************************************
# Begin PROCESS # This is TAG. Do not modify this line
p p > zph , zph > j j           #Process
# Be carefull the coupling are here in MG5 convention
          
end_coup           # End the couplings input

done               # this tells MG there are no more procs
# End PROCESS  # This is TAG. Do not modify this line
#*********************************************************************
# Model information                                                  *
#*********************************************************************
# Begin MODEL  # This is TAG. Do not modify this line
Zprime_UFO
# End   MODEL  # This is TAG. Do not modify this line
#*********************************************************************
# Start multiparticle definitions                                    *
#*********************************************************************
# Begin MULTIPARTICLES # This is TAG. Do not modify this line

# End  MULTIPARTICLES # This is TAG. Do not modify this line
</MGProcCard>
<MGRunCard>
#*********************************************************************
#                       MadGraph5_aMC@NLO                            *
#                                                                    *
#                     run_card.dat MadEvent                          *
#                                                                    *
#  This file is used to set the parameters of the run.               *
#                                                                    *
#  Some notation/conventions:                                        *
#                                                                    *
#   Lines starting with a '# ' are info or comments                  *
#                                                                    *
#   mind the format:   value    = variable     ! comment             *
#*********************************************************************
#
#*******************                                                 
# Running parameters
#*******************                                                 
#                                                                    
#*********************************************************************
# Tag name for the run (one word)                                    *
#*********************************************************************
  tag_1     = run_tag ! name of the run 
#*********************************************************************
# Run to generate the grid pack                                      *
#*********************************************************************
  .false.     = gridpack  !True = setting up the grid pack
#*********************************************************************
# Number of events and rnd seed                                      *
# Warning: Do not generate more than 1M events in a single run       *
# If you want to run Pythia, avoid more than 50k events in a run.    *
#*********************************************************************
  2000 = nevents ! Number of unweighted events requested 
 1029 = iseed   ! rnd seed (0=assigned automatically=default))
#*********************************************************************
# Collider type and energy                                           *
# lpp: 0=No PDF, 1=proton, -1=antiproton, 2=photon from proton,      *
#                                         3=photon from electron     *
#*********************************************************************
        1     = lpp1    ! beam 1 type 
        1     = lpp2    ! beam 2 type
     4000     = ebeam1  ! beam 1 total energy in GeV
     4000     = ebeam2  ! beam 2 total energy in GeV
#*********************************************************************
# Beam polarization from -100 (left-handed) to 100 (right-handed)    *
#*********************************************************************
        0     = polbeam1 ! beam polarization for beam 1
        0     = polbeam2 ! beam polarization for beam 2
#*********************************************************************
# PDF CHOICE: this automatically fixes also alpha_s and its evol.    *
#*********************************************************************
 'nn23lo1'    = pdlabel     ! PDF set                                     
 230000    = lhaid     ! if pdlabel=lhapdf, this is the lhapdf number
#*********************************************************************
# Renormalization and factorization scales                           *
#*********************************************************************
 F        = fixed_ren_scale  ! if .true. use fixed ren scale
 F        = fixed_fac_scale  ! if .true. use fixed fac scale
 91.1880  = scale            ! fixed ren scale
 91.1880  = dsqrt_q2fact1    ! fixed fact scale for pdf1
 91.1880  = dsqrt_q2fact2    ! fixed fact scale for pdf2
 1        = scalefact        ! scale factor for event-by-event scales
#*********************************************************************
# Matching - Warning! ickkw > 1 is still beta
#*********************************************************************
 0        = ickkw            ! 0 no matching, 1 MLM, 2 CKKW matching
 1        = highestmult      ! for ickkw=2, highest mult group
 1        = ktscheme         ! for ickkw=1, 1 Durham kT, 2 Pythia pTE
 1        = alpsfact         ! scale factor for QCD emission vx
 F        = chcluster        ! cluster only according to channel diag
 T        = pdfwgt           ! for ickkw=1, perform pdf reweighting
 5        = asrwgtflavor     ! highest quark flavor for a_s reweight
 T        = clusinfo         ! include clustering tag in output
 3.0      = lhe_version       ! Change the way clustering information pass to shower.        
#*********************************************************************
#**********************************************************
#
#**********************************************************
# Automatic ptj and mjj cuts if xqcut > 0
# (turn off for VBF and single top processes)
#**********************************************************
   T  = auto_ptj_mjj  ! Automatic setting of ptj and mjj
#**********************************************************
#                                                                    
#**********************************
# BW cutoff (M+/-bwcutoff*Gamma)
#**********************************
  15  = bwcutoff      ! (M+/-bwcutoff*Gamma)
#**********************************************************
# Apply pt/E/eta/dr/mij cuts on decay products or not
# (note that etmiss/ptll/ptheavy/ht/sorted cuts always apply)
#**********************************************************
   T  = cut_decays    ! Cut decay products 
#*************************************************************
# Number of helicities to sum per event (0 = all helicities)
# 0 gives more stable result, but longer run time (needed for
# long decay chains e.g.).
# Use >=2 if most helicities contribute, e.g. pure QCD.
#*************************************************************
   0  = nhel          ! Number of helicities used per event
#*******************                                                 
# Standard Cuts
#*******************                                                 
#                                                                    
#*********************************************************************
# Minimum and maximum pt's (for max, -1 means no cut)                *
#*********************************************************************
 20  = ptj       ! minimum pt for the jets 
  0  = ptb       ! minimum pt for the b 
 10  = pta       ! minimum pt for the photons 
 10  = ptl       ! minimum pt for the charged leptons 
  0  = misset    ! minimum missing Et (sum of neutrino's momenta)
  0  = ptheavy   ! minimum pt for one heavy final state
 1.0 = ptonium   ! minimum pt for the quarkonium states
 -1  = ptjmax    ! maximum pt for the jets
 -1  = ptbmax    ! maximum pt for the b
 -1  = ptamax    ! maximum pt for the photons
 -1  = ptlmax    ! maximum pt for the charged leptons
 -1  = missetmax ! maximum missing Et (sum of neutrino's momenta)
#*********************************************************************
# Minimum and maximum E's (in the center of mass frame)              *
#*********************************************************************
  0  = ej     ! minimum E for the jets 
  0  = eb     ! minimum E for the b 
  0  = ea     ! minimum E for the photons 
  0  = el     ! minimum E for the charged leptons 
 -1   = ejmax ! maximum E for the jets
 -1   = ebmax ! maximum E for the b
 -1   = eamax ! maximum E for the photons
 -1   = elmax ! maximum E for the charged leptons
#*********************************************************************
# Maximum and minimum absolute rapidity (for max, -1 means no cut)   *
#*********************************************************************
   5  = etaj    ! max rap for the jets 
  -1  = etab    ! max rap for the b
 2.5  = etaa    ! max rap for the photons 
 2.5  = etal    ! max rap for the charged leptons 
 0.6  = etaonium ! max rap for the quarkonium states
   0  = etajmin ! min rap for the jets
   0  = etabmin ! min rap for the b
   0  = etaamin ! min rap for the photons
   0  = etalmin ! main rap for the charged leptons
#*********************************************************************
# Minimum and maximum DeltaR distance                                *
#*********************************************************************
 0.4 = drjj    ! min distance between jets 
 0   = drbb    ! min distance between b's 
 0.4 = drll    ! min distance between leptons 
 0.4 = draa    ! min distance between gammas 
 0   = drbj    ! min distance between b and jet 
 0.4 = draj    ! min distance between gamma and jet 
 0.4 = drjl    ! min distance between jet and lepton 
 0   = drab    ! min distance between gamma and b 
 0   = drbl    ! min distance between b and lepton 
 0.4 = dral    ! min distance between gamma and lepton 
 -1  = drjjmax ! max distance between jets
 -1  = drbbmax ! max distance between b's
 -1  = drllmax ! max distance between leptons
 -1  = draamax ! max distance between gammas
 -1  = drbjmax ! max distance between b and jet
 -1  = drajmax ! max distance between gamma and jet
 -1  = drjlmax ! max distance between jet and lepton
 -1  = drabmax ! max distance between gamma and b
 -1  = drblmax ! max distance between b and lepton
 -1  = dralmax ! maxdistance between gamma and lepton
#*********************************************************************
# Minimum and maximum invariant mass for pairs                       *
# WARNING: for four lepton final state mmll cut require to have      *
#          different lepton masses for each flavor!                  *           
#*********************************************************************
 0   = mmjj    ! min invariant mass of a jet pair 
 0   = mmbb    ! min invariant mass of a b pair 
 0   = mmaa    ! min invariant mass of gamma gamma pair
 0   = mmll    ! min invariant mass of l+l- (same flavour) lepton pair
 -1  = mmjjmax ! max invariant mass of a jet pair
 -1  = mmbbmax ! max invariant mass of a b pair
 -1  = mmaamax ! max invariant mass of gamma gamma pair
 -1  = mmllmax ! max invariant mass of l+l- (same flavour) lepton pair
#*********************************************************************
# Minimum and maximum invariant mass for all letpons                 *
#*********************************************************************
 0   = mmnl    ! min invariant mass for all letpons (l+- and vl) 
 -1  = mmnlmax ! max invariant mass for all letpons (l+- and vl) 
#*********************************************************************
# Minimum and maximum pt for 4-momenta sum of leptons                *
#*********************************************************************
 0   = ptllmin  ! Minimum pt for 4-momenta sum of leptons(l and vl)
 -1  = ptllmax  ! Maximum pt for 4-momenta sum of leptons(l and vl)
#*********************************************************************
# Inclusive cuts                                                     *
#*********************************************************************
 0  = xptj ! minimum pt for at least one jet  
 0  = xptb ! minimum pt for at least one b 
 0  = xpta ! minimum pt for at least one photon 
 0  = xptl ! minimum pt for at least one charged lepton 
#*********************************************************************
# Control the pt's of the jets sorted by pt                          *
#*********************************************************************
 0   = ptj1min ! minimum pt for the leading jet in pt
 0   = ptj2min ! minimum pt for the second jet in pt
 0   = ptj3min ! minimum pt for the third jet in pt
 0   = ptj4min ! minimum pt for the fourth jet in pt
 -1  = ptj1max ! maximum pt for the leading jet in pt 
 -1  = ptj2max ! maximum pt for the second jet in pt
 -1  = ptj3max ! maximum pt for the third jet in pt
 -1  = ptj4max ! maximum pt for the fourth jet in pt
 0   = cutuse  ! reject event if fails any (0) / all (1) jet pt cuts
#*********************************************************************
# Control the pt's of leptons sorted by pt                           *
#*********************************************************************
 0   = ptl1min ! minimum pt for the leading lepton in pt
 0   = ptl2min ! minimum pt for the second lepton in pt
 0   = ptl3min ! minimum pt for the third lepton in pt
 0   = ptl4min ! minimum pt for the fourth lepton in pt
 -1  = ptl1max ! maximum pt for the leading lepton in pt 
 -1  = ptl2max ! maximum pt for the second lepton in pt
 -1  = ptl3max ! maximum pt for the third lepton in pt
 -1  = ptl4max ! maximum pt for the fourth lepton in pt
#*********************************************************************
# Control the Ht(k)=Sum of k leading jets                            *
#*********************************************************************
 0   = htjmin ! minimum jet HT=Sum(jet pt)
 -1  = htjmax ! maximum jet HT=Sum(jet pt)
 0   = ihtmin  !inclusive Ht for all partons (including b)
 -1  = ihtmax  !inclusive Ht for all partons (including b)
 0   = ht2min ! minimum Ht for the two leading jets
 0   = ht3min ! minimum Ht for the three leading jets
 0   = ht4min ! minimum Ht for the four leading jets
 -1  = ht2max ! maximum Ht for the two leading jets
 -1  = ht3max ! maximum Ht for the three leading jets
 -1  = ht4max ! maximum Ht for the four leading jets
#***********************************************************************
# Photon-isolation cuts, according to hep-ph/9801442                   *
# When ptgmin=0, all the other parameters are ignored                  *
# When ptgmin>0, pta and draj are not going to be used                 *
#***********************************************************************
   0 = ptgmin ! Min photon transverse momentum
 0.4 = R0gamma ! Radius of isolation code
 1.0 = xn ! n parameter of eq.(3.4) in hep-ph/9801442
 1.0 = epsgamma ! epsilon_gamma parameter of eq.(3.4) in hep-ph/9801442
 .true. = isoEM ! isolate photons from EM energy (photons and leptons)
#*********************************************************************
# WBF cuts                                                           *
#*********************************************************************
 0   = xetamin ! minimum rapidity for two jets in the WBF case  
 0   = deltaeta ! minimum rapidity for two jets in the WBF case 
#*********************************************************************
# KT DURHAM CUT                                                      *
#*********************************************************************
 -1    =  ktdurham        
 0.4  =  dparameter 
#*********************************************************************
# maximal pdg code for quark to be considered as a light jet         *
# (otherwise b cuts are applied)                                     *
#*********************************************************************
 4 = maxjetflavor    ! Maximum jet pdg code
#*********************************************************************
# Jet measure cuts                                                   *
#*********************************************************************
 0   = xqcut   ! minimum kt jet measure between partons
#*********************************************************************
#
#*********************************************************************
# Store info for systematics studies                                 *
# WARNING: If use_syst is T, matched Pythia output is                *
#          meaningful ONLY if plotted taking matchscale              *
#          reweighting into account!                                 *
#*********************************************************************
   F  = use_syst      ! Enable systematics studies
#
#**************************************
# Parameter of the systematics study
#  will be used by SysCalc (if installed)
#**************************************                                  
#
0.5 1 2 = sys_scalefact  # factorization/renormalization scale factor
0.5 1 2 = sys_alpsfact  # \alpha_s emission scale factors
30 50 = sys_matchscale # variation of merging scale
# PDF sets and number of members (0 or none for all members).
CT10nlo.LHgrid = sys_pdf # matching scales
# MSTW2008nlo68cl.LHgrid 1  = sys_pdf
</MGRunCard>
<slha>
######################################################################
## PARAM_CARD AUTOMATICALY GENERATED BY MG5 FOLLOWING UFO MODEL   ####
######################################################################
##                                                                  ##
##  Width set on Auto will be computed following the information    ##
##        present in the decay.py files of the model.               ##
##        See  arXiv:1402.1178 for more details.                    ##
##                                                                  ##
######################################################################

###################################
## INFORMATION FOR CKMBLOCK
###################################
Block ckmblock 
    1 2.277360e-01 # cabi 

###################################
## INFORMATION FOR FRBLOCK
###################################
Block frblock 
    1 4.000000e-01 # gz 

###################################
## INFORMATION FOR MASS
###################################
Block mass 
    1 5.040000e-03 # MD 
    2 2.550000e-03 # MU 
    3 1.010000e-01 # MS 
    4 1.270000e+00 # MC 
    5 4.700000e+00 # MB 
    6 1.720000e+02 # MT 
   11 5.110000e-04 # Me 
   13 1.056600e-01 # MM 
   15 1.777000e+00 # MTA 
   23 9.118760e+01 # MZ 
   25 1.200000e+02 # MH 
  10030 2.800000e+03 # MZph 
  10031 3.000000e+02 # MZpl 
## Dependent parameters, given by model restrictions.
## Those values should be edited following the 
## analytical expression. MG5 ignores those values 
## but they are important for interfacing the output of MG5
## to external program such as Pythia.
  12 0.000000 # ve : 0.0 
  14 0.000000 # vm : 0.0 
  16 0.000000 # vt : 0.0 
  21 0.000000 # g : 0.0 
  22 0.000000 # a : 0.0 
  24 79.824360 # w+ : cmath.sqrt(MZ__exp__2/2. + cmath.sqrt(MZ__exp__4/4. - (aEW*cmath.pi*MZ__exp__2)/(Gf*sqrt__2))) 

###################################
## INFORMATION FOR SMINPUTS
###################################
Block sminputs 
    1 1.279000e+02 # aEWM1 
    2 1.166370e-05 # Gf 
    3 1.184000e-01 # aS 

###################################
## INFORMATION FOR YUKAWA
###################################
Block yukawa 
    1 5.040000e-03 # ymdo 
    2 2.550000e-03 # ymup 
    3 1.010000e-01 # yms 
    4 1.270000e+00 # ymc 
    5 4.700000e+00 # ymb 
    6 1.720000e+02 # ymt 
   11 5.110000e-04 # yme 
   13 1.056600e-01 # ymm 
   15 1.777000e+00 # ymtau 

###################################
## INFORMATION FOR DECAY
###################################
DECAY   6 1.508336e+00 # WT 
DECAY  23 2.495200e+00 # WZ 
DECAY  24 2.085000e+00 # WW 
DECAY  25 5.753088e-03 # WH 
## Dependent parameters, given by model restrictions.
## Those values should be edited following the 
## analytical expression. MG5 ignores those values 
## but they are important for interfacing the output of MG5
## to external program such as Pythia.
DECAY  1 0.000000 # d : 0.0 
DECAY  2 0.000000 # u : 0.0 
DECAY  3 0.000000 # s : 0.0 
DECAY  4 0.000000 # c : 0.0 
DECAY  5 0.000000 # b : 0.0 
DECAY  11 0.000000 # e- : 0.0 
DECAY  12 0.000000 # ve : 0.0 
DECAY  13 0.000000 # mu- : 0.0 
DECAY  14 0.000000 # vm : 0.0 
DECAY  15 0.000000 # ta- : 0.0 
DECAY  16 0.000000 # vt : 0.0 
DECAY  21 0.000000 # g : 0.0 
DECAY  22 0.000000 # a : 0.0 
DECAY  10030 0.308725 # zph : (gz__exp__2*MZph*(5 + cmath.sqrt(1 - (4*MT__exp__2)/MZph__exp__2)))/(144.*cmath.pi) 
DECAY  10031 0.132629 # zpl : (5*gz__exp__2*MZpl)/(144.*cmath.pi) 
#===========================================================
# QUANTUM NUMBERS OF NEW STATE(S) (NON SM PDG CODE)
#===========================================================

Block QNUMBERS 10030  # zph 
        1 0  # 3 times electric charge
        2 3  # number of spin states (2S+1)
        3 1  # colour rep (1: singlet, 3: triplet, 8: octet)
        4 0  # Particle/Antiparticle distinction (0=own anti)
Block QNUMBERS 10031  # zpl 
        1 0  # 3 times electric charge
        2 3  # number of spin states (2S+1)
        3 1  # colour rep (1: singlet, 3: triplet, 8: octet)
        4 0  # Particle/Antiparticle distinction (0=own anti)
</slha>
## END BANNER##
<MGGenerationInfo>
#  Number of Events        :         3911
#  Integrated weight (pb)  :  0.37680E-03
#  Max wgt                 :  0.14999E-06
#  Average wgt             :  0.96344E-07
</MGGenerationInfo>
</header>
<init>
     2212     2212  0.40000000000E+04  0.40000000000E+04 0 0  247000  247000 2   1
  0.37722261940E-03  0.81391186192E-06  0.14998880000E-06   0
</init>
<event>
 5   0  0.1461146E-06  0.2796578E+04  0.7818609E-02  0.8304331E-01
       -2   -1    0    0    0  501  0.00000000000E+00  0.00000000000E+00  0.11691726820E+04  0.11691726820E+04  0.25500000920E-02 0. -1.
        2   -1    0    0  501    0  0.00000000000E+00  0.00000000000E+00 -0.16723045155E+04  0.16723045155E+04  0.25500000920E-02 0.  1.
    10030    2    1    2    0    0  0.00000000000E+00  0.00000000000E+00 -0.50313183352E+03  0.28414771975E+04  0.27965784491E+04 0.  0.
        1    1    3    3  502    0  0.17467444893E+03  0.57124624637E+03  0.10330020695E+04  0.11932840034E+04  0.50400001928E-02 0. -1.
       -1    1    3    3    0  502 -0.17467444893E+03 -0.57124624637E+03 -0.15361339030E+04  0.16481931941E+04  0.50400001928E-02 0.  1.
</event>
<event>
 5   0  0.1461146E-06  0.2776924E+04  0.7818609E-02  0.8310469E-01
       -2   -1    0    0    0  501  0.00000000000E+00  0.00000000000E+00  0.10114406039E+04  0.10114406039E+04  0.25500000920E-02 0. -1.
        2   -1    0    0  501    0  0.00000000000E+00  0.00000000000E+00 -0.19060204426E+04  0.19060204426E+04  0.25500000920E-02 0.  1.
    10030    2    1    2    0    0  0.00000000000E+00  0.00000000000E+00 -0.89457983867E+03  0.29174610465E+04  0.27769238142E+04 0.  0.
        1    1    3    3  502    0  0.40161535474E+03  0.95263358243E+03 -0.14210297816E+04  0.17573079627E+04  0.50400001928E-02 0.  1.
       -1    1    3    3    0  502 -0.40161535474E+03 -0.95263358243E+03  0.52644994289E+03  0.11601530838E+04  0.50400001928E-02 0. -1.
</event>
<event>
 5   0  0.1499888E-06  0.2795156E+04  0.7818609E-02  0.8304774E-01
       -2   -1    0    0    0  501  0.00000000000E+00  0.00000000000E+00  0.17029561010E+04  0.17029561010E+04  0.25500000920E-02 0.  1.
        2   -1    0    0  501    0  0.00000000000E+00  0.00000000000E+00 -0.11469609480E+04  0.11469609480E+04  0.25500000920E-02 0. -1.
    10030    2    1    2    0    0  0.00000000000E+00  0.00000000000E+00  0.55599515304E+03  0.28499170490E+04  0.27951559127E+04 0.  0.
        3    1    3    3  502    0 -0.15914626975E+03 -0.12274698915E+04 -0.38372768871E+03  0.12958614197E+04  0.10100000352E+00 0. -1.
       -3    1    3    3    0  502  0.15914626975E+03  0.12274698915E+04  0.93972284175E+03  0.15540556294E+04  0.10100000352E+00 0.  1.
</event>
<event>
 5   0  0.1461146E-06  0.2795058E+04  0.7818609E-02  0.8304804E-01
        2   -1    0    0  501    0  0.00000000000E+00  0.00000000000E+00  0.55714762756E+03  0.55714762757E+03  0.25500000920E-02 0. -1.
       -2   -1    0    0    0  501  0.00000000000E+00  0.00000000000E+00 -0.35055101906E+04  0.35055101906E+04  0.25500000920E-02 0.  1.
    10030    2    1    2    0    0  0.00000000000E+00  0.00000000000E+00 -0.29483625631E+04  0.40626578182E+04  0.27950575566E+04 0.  0.
        1    1    3    3  502    0 -0.86493460689E+02  0.90182853799E+02  0.54901154488E+03  0.56305216658E+03  0.50400001928E-02 0. -1.
       -1    1    3    3    0  502  0.86493460689E+02 -0.90182853799E+02 -0.34973741079E+04  0.34996056516E+04  0.50400001928E-02 0.  1.
</event>
<event>
 5   0  0.1499888E-06  0.2797734E+04  0.7818609E-02  0.8303972E-01
        2   -1    0    0  501    0  0.00000000000E+00  0.00000000000E+00  0.14789224114E+04  0.14789224114E+04  0.25500000920E-02 0. -1.
       -2   -1    0    0    0  501  0.00000000000E+00  0.00000000000E+00 -0.13231448813E+04  0.13231448813E+04  0.25500000920E-02 0.  1.
    10030    2    1    2    0    0  0.00000000000E+00  0.00000000000E+00  0.15577753012E+03  0.28020672927E+04  0.27977338105E+04 0.  0.
        3    1    3    3  502    0 -0.49417294457E+03 -0.38419636456E+03 -0.11750544904E+04  0.13313777868E+04  0.10100000352E+00 0.  1.
       -3    1    3    3    0  502  0.49417294457E+03  0.38419636456E+03  0.13308320205E+04  0.14706895059E+04  0.10100000352E+00 0. -1.
</event>
<event>
 5   0  0.5362952E-07  0.2869269E+04  0.7818609E-02  0.8282080E-01
       -1   -1    0    0    0  501  0.00000000000E+00  0.00000000000E+00  0.13628200222E+04  0.13628200222E+04  0.50400001928E-02 0. -1.
        1   -1    0    0  501    0  0.00000000000E+00  0.00000000000E+00 -0.15102332715E+04  0.15102332715E+04  0.50400001928E-02 0.  1.
    10030    2    1    2    0    0  0.00000000000E+00  0.00000000000E+00 -0.14741324931E+03  0.28730532937E+04  0.28692689944E+04 0.  0.
        1    1    3    3  502    0  0.71693164187E+02  0.12673360776E+04 -0.74309074592E+03  0.14708720203E+04  0.50400001928E-02 0.  1.
       -1    1    3    3    0  502 -0.71693164187E+02 -0.12673360776E+04  0.59567749662E+03  0.14021812734E+04  0.50400001928E-02 0. -1.
</event>
<event>
 5   0  0.5551565E-07  0.2796918E+04  0.7818609E-02  0.8304226E-01
       -1   -1    0    0    0  501  0.00000000000E+00  0.00000000000E+00  0.18641416445E+04  0.18641416445E+04  0.50400001928E-02 0.  1.
        1   -1    0    0  501    0  0.00000000000E+00  0.00000000000E+00 -0.10491086656E+04  0.10491086656E+04  0.50400001928E-02 0. -1.
    10030    2    1    2    0    0  0.00000000000E+00  0.00000000000E+00  0.81503297890E+03  0.29132503101E+04  0.27969176986E+04 0.  0.
        3    1    3    3  502    0 -0.78115242133E+03  0.82839959331E+03 -0.43819182102E+03  0.12200233907E+04  0.10100000352E+00 0. -1.
       -3    1    3    3    0  502  0.78115242133E+03 -0.82839959331E+03  0.12532247999E+04  0.16932269195E+04  0.10100000352E+00 0.  1.
</event>
<event>
 5   0  0.1461146E-06  0.2779633E+04  0.7818609E-02  0.8309620E-01
       -2   -1    0    0    0  501  0.00000000000E+00  0.00000000000E+00  0.18114338419E+04  0.18114338419E+04  0.25500000920E-02 0. -1.
        2   -1    0    0  501    0  0.00000000000E+00  0.00000000000E+00 -0.10663319588E+04  0.10663319588E+04  0.25500000920E-02 0.  1.
    10030    2    1    2    0    0  0.00000000000E+00  0.00000000000E+00  0.74510188307E+03  0.28777658007E+04  0.27796329231E+04 0.  0.
        1    1    3    3  502    0  0.95183313803E+02  0.16072347123E+03  0.17983787535E+04  0.18080536603E+04  0.50400001928E-02 0. -1.
       -1    1    3    3    0  502 -0.95183313803E+02 -0.16072347123E+03 -0.10532768704E+04  0.10697121404E+04  0.50400001928E-02 0.  1.
</event>
<event>
 5   0  0.5214658E-07  0.2799652E+04  0.7818609E-02  0.8303376E-01
        1   -1    0    0  501    0  0.00000000000E+00  0.00000000000E+00  0.15959464624E+04  0.15959464625E+04  0.50400001928E-02 0. -1.
       -1   -1    0    0    0  501  0.00000000000E+00  0.00000000000E+00 -0.12278063074E+04  0.12278063074E+04  0.50400001928E-02 0.  1.
    10030    2    1    2    0    0  0.00000000000E+00  0.00000000000E+00  0.36814015503E+03  0.28237527699E+04  0.27996522162E+04 0.  0.
        2    1    3    3  502    0  0.77824796738E+03  0.97806997561E+03  0.81975136458E+03  0.14947518442E+04  0.25500000920E-02 0. -1.
       -2    1    3    3    0  502 -0.77824796738E+03 -0.97806997561E+03 -0.45161120955E+03  0.13290009257E+04  0.25500000920E-02 0.  1.
</event>
<event>
 5   0  0.1461146E-06  0.2801963E+04  0.7818609E-02  0.8302659E-01
       -2   -1    0    0    0  501  0.00000000000E+00  0.00000000000E+00  0.99014618895E+03  0.99014618896E+03  0.25500000920E-02 0.  1.
        2   -1    0    0  501    0  0.00000000000E+00  0.00000000000E+00 -0.19822823020E+04  0.19822823020E+04  0.25500000920E-02 0. -1.
    10030    2    1    2    0    0  0.00000000000E+00  0.00000000000E+00 -0.99213611308E+03  0.29724284910E+04  0.28019630738E+04 0.  0.
        1    1    3    3  502    0 -0.80729146490E+02  0.10401962542E+04  0.49581466897E+03  0.11551439860E+04  0.50400001928E-02 0.  1.
       -1    1    3    3    0  502  0.80729146490E+02 -0.10401962542E+04 -0.14879507820E+04  0.18172845050E+04  0.50400001928E-02 0. -1.
</event>
<event>
 5   0  0.5214658E-07  0.2806334E+04  0.7818609E-02  0.8301305E-01
       -1   -1    0    0    0  501  0.00000000000E+00  0.00000000000E+00  0.15948967711E+04  0.15948967711E+04  0.50400001928E-02 0. -1.
        1   -1    0    0  501    0  0.00000000000E+00  0.00000000000E+00 -0.12344855609E+04  0.12344855609E+04  0.50400001928E-02 0.  1.
    10030    2    1    2    0    0  0.00000000000E+00  0.00000000000E+00  0.36041121021E+03  0.28293823319E+04  0.28063335760E+04 0.  0.
        2    1    3    3  502    0  0.56501732255E+03  0.89502924944E+03  0.11089417964E+04  0.15329950554E+04  0.25500000920E-02 0. -1.
       -2    1    3    3    0  502 -0.56501732255E+03 -0.89502924944E+03 -0.74853058623E+03  0.12963872765E+04  0.25500000920E-02 0.  1.
</event>
<event>
 5   0  0.1439207E-06  0.2802734E+04  0.7818609E-02  0.8302420E-01
        2   -1    0    0  501    0  0.00000000000E+00  0.00000000000E+00  0.80086216603E+03  0.80086216603E+03  0.25500000920E-02 0.  1.
       -2   -1    0    0    0  501  0.00000000000E+00  0.00000000000E+00 -0.24521447084E+04  0.24521447084E+04  0.25500000920E-02 0. -1.
    10030    2    1    2    0    0  0.00000000000E+00  0.00000000000E+00 -0.16512825424E+04  0.32530068745E+04  0.28027343239E+04 0.  0.
        5    1    3    3  502    0 -0.11111572974E+04 -0.39194843349E+03 -0.17061443707E+04  0.20734620367E+04  0.46999998093E+01 0. -1.
       -5    1    3    3    0  502  0.11111572974E+04  0.39194843349E+03  0.54861828312E+02  0.11795448377E+04  0.46999998093E+01 0.  1.
</event>
<event>
 5   0  0.5297741E-07  0.2804255E+04  0.7818609E-02  0.8301949E-01
       -1   -1    0    0    0  501  0.00000000000E+00  0.00000000000E+00  0.96184361504E+03  0.96184361505E+03  0.50400001928E-02 0.  1.
        1   -1    0    0  501    0  0.00000000000E+00  0.00000000000E+00 -0.20439510157E+04  0.20439510157E+04  0.50400001928E-02 0. -1.
    10030    2    1    2    0    0  0.00000000000E+00  0.00000000000E+00 -0.10821074007E+04  0.30057946308E+04  0.28042547915E+04 0.  0.
        5    1    3    3  502    0 -0.46731259351E+03  0.12545732123E+04 -0.94450458427E+02  0.13421169785E+04  0.46999998093E+01 0.  1.
       -5    1    3    3    0  502  0.46731259351E+03 -0.12545732123E+04 -0.98765694227E+03  0.16636776523E+04  0.46999998093E+01 0. -1.
</event>
<event>
 5   0  0.5362952E-07  0.2790834E+04  0.7818609E-02  0.8306120E-01
        1   -1    0    0  501    0  0.00000000000E+00  0.00000000000E+00  0.20511861380E+04  0.20511861380E+04  0.50400001928E-02 0. -1.
       -1   -1    0    0    0  501  0.00000000000E+00  0.00000000000E+00 -0.94929879240E+03  0.94929879241E+03  0.50400001928E-02 0.  1.
    10030    2    1    2    0    0  0.00000000000E+00  0.00000000000E+00  0.11018873456E+04  0.30004849304E+04  0.27908339426E+04 0.  0.
        1    1    3    3  502    0  0.12242845904E+04  0.46763255755E+03  0.10661450568E+04  0.16894431773E+04  0.50400001928E-02 0.  1.
       -1    1    3    3    0  502 -0.12242845904E+04 -0.46763255755E+03  0.35742288710E+02  0.13110417531E+04  0.50400001928E-02 0. -1.
</event>
<event>
 5   0  0.5551565E-07  0.2796779E+04  0.7818609E-02  0.8304269E-01
       -1   -1    0    0    0  501  0.00000000000E+00  0.00000000000E+00  0.13395300365E+04  0.13395300365E+04  0.50400001928E-02 0.  1.
        1   -1    0    0  501    0  0.00000000000E+00  0.00000000000E+00 -0.14598353940E+04  0.14598353940E+04  0.50400001928E-02 0. -1.
    10030    2    1    2    0    0  0.00000000000E+00  0.00000000000E+00 -0.12030535753E+03  0.27993654305E+04  0.27967791179E+04 0.  0.
        3    1    3    3  502    0 -0.11100496547E+04 -0.59915842911E+03 -0.66427713378E+03  0.14256455309E+04  0.10100000352E+00 0. -1.
       -3    1    3    3    0  502  0.11100496547E+04  0.59915842911E+03  0.54397177625E+03  0.13737198996E+04  0.10100000352E+00 0.  1.
</event>
<event>
 5   0  0.5551565E-07  0.2797431E+04  0.7818609E-02  0.8304066E-01
        1   -1    0    0  501    0  0.00000000000E+00  0.00000000000E+00  0.21304176313E+04  0.21304176313E+04  0.50400001928E-02 0.  1.
       -1   -1    0    0    0  501  0.00000000000E+00  0.00000000000E+00 -0.91831999360E+03  0.91831999361E+03  0.50400001928E-02 0. -1.
    10030    2    1    2    0    0  0.00000000000E+00  0.00000000000E+00  0.12120976377E+04  0.30487376249E+04  0.27974310397E+04 0.  0.
        3    1    3    3  502    0  0.15053746412E+03 -0.83695053232E+03  0.18163334585E+04  0.20055460514E+04  0.10100000352E+00 0.  1.
       -3    1    3    3    0  502 -0.15053746412E+03  0.83695053232E+03 -0.60423582081E+03  0.10431915735E+04  0.10100000352E+00 0. -1.
</event>
<event>
 5   0  0.1461146E-06  0.2867809E+04  0.7818609E-02  0.8282520E-01
        2   -1    0    0  501    0  0.00000000000E+00  0.00000000000E+00  0.14983550736E+04  0.14983550736E+04  0.25500000920E-02 0. -1.
       -2   -1    0    0    0  501  0.00000000000E+00  0.00000000000E+00 -0.13722260085E+04  0.13722260085E+04  0.25500000920E-02 0.  1.
    10030    2    1    2    0    0  0.00000000000E+00  0.00000000000E+00  0.12612906506E+03  0.28705810821E+04  0.28678087816E+04 0.  0.
        1    1    3    3  502    0  0.33970935162E+03 -0.59702284691E+03  0.13229484650E+04  0.14906479680E+04  0.50400001928E-02 0. -1.
       -1    1    3    3    0  502 -0.33970935162E+03  0.59702284691E+03 -0.11968193999E+04  0.13799331141E+04  0.50400001928E-02 0.  1.
</event>
<event>
 5   0  0.5282098E-07  0.2801710E+04  0.7818609E-02  0.8302738E-01
       -1   -1    0    0    0  501  0.00000000000E+00  0.00000000000E+00  0.14326178808E+04  0.14326178808E+04  0.50400001928E-02 0. -1.
        1   -1    0    0  501    0  0.00000000000E+00  0.00000000000E+00 -0.13697961801E+04  0.13697961801E+04  0.50400001928E-02 0.  1.
    10030    2    1    2    0    0  0.00000000000E+00  0.00000000000E+00  0.62821700782E+02  0.28024140609E+04  0.28017098356E+04 0.  0.
        4    1    3    3  502    0 -0.64135327670E+03  0.10964199308E+04 -0.55943399116E+03  0.13879620648E+04  0.12699999809E+01 0.  1.
       -4    1    3    3    0  502  0.64135327670E+03 -0.10964199308E+04  0.62225569194E+03  0.14144519961E+04  0.12699999809E+01 0. -1.
</event>
<event>
 5   0  0.5362952E-07  0.2799622E+04  0.7818609E-02  0.8303386E-01
       -1   -1    0    0    0  501  0.00000000000E+00  0.00000000000E+00  0.18248180466E+04  0.18248180466E+04  0.50400001928E-02 0.  1.
        1   -1    0    0  501    0  0.00000000000E+00  0.00000000000E+00 -0.10737894946E+04  0.10737894946E+04  0.50400001928E-02 0. -1.
    10030    2    1    2    0    0  0.00000000000E+00  0.00000000000E+00  0.75102855194E+03  0.28986075412E+04  0.27996217230E+04 0.  0.
        1    1    3    3  502    0 -0.74941282848E+03  0.10647074831E+04  0.90774091054E+03  0.15872035701E+04  0.50400001928E-02 0.  1.
       -1    1    3    3    0  502  0.74941282848E+03 -0.10647074831E+04 -0.15671235860E+03  0.13114039711E+04  0.50400001928E-02 0. -1.
</event>
<event>
 5   0  0.1377807E-06  0.2800564E+04  0.7818609E-02  0.8303093E-01
        2   -1    0    0  501    0  0.00000000000E+00  0.00000000000E+00  0.14399214370E+04  0.14399214370E+04  0.25500000920E-02 0. -1.
       -2   -1    0    0    0  501  0.00000000000E+00  0.00000000000E+00 -0.13617338787E+04  0.13617338787E+04  0.25500000920E-02 0.  1.
    10030    2    1    2    0    0  0.00000000000E+00  0.00000000000E+00  0.78187558290E+02  0.28016553156E+04  0.28005640884E+04 0.  0.
        2    1    3    3  502    0 -0.49734809022E+03 -0.20881887414E+03 -0.12536285015E+04  0.13647508435E+04  0.25500000920E-02 0.  1.
       -2    1    3    3    0  502  0.49734809022E+03  0.20881887414E+03  0.13318160598E+04  0.14369044722E+04  0.25500000920E-02 0. -1.
</event>
<event>
 5   0  0.5551565E-07  0.2836083E+04  0.7818609E-02  0.8292153E-01
        1   -1    0    0  501    0  0.00000000000E+00  0.00000000000E+00  0.27986799283E+04  0.27986799283E+04  0.50400001928E-02 0.  1.
       -1   -1    0    0    0  501  0.00000000000E+00  0.00000000000E+00 -0.71849673560E+03  0.71849673562E+03  0.50400001928E-02 0. -1.
    10030    2    1    2    0    0  0.00000000000E+00  0.00000000000E+00  0.20801831927E+04  0.35171766639E+04  0.28360834914E+04 0.  0.
        3    1    3    3  502    0  0.12869810200E+04 -0.39779045737E+03  0.15895296239E+04  0.20835454949E+04  0.10100000352E+00 0.  1.
       -3    1    3    3    0  502 -0.12869810200E+04  0.39779045737E+03  0.49065356874E+03  0.14336311690E+04  0.10100000352E+00 0. -1.
</event>
<event>
 5   0  0.1499888E-06  0.2801104E+04  0.7818609E-02  0.8302926E-01
       -2   -1    0    0    0  501  0.00000000000E+00  0.00000000000E+00  0.12559762455E+04  0.12559762455E+04  0.25500000920E-02 0.  1.
        2   -1    0    0  501    0  0.00000000000E+00  0.00000000000E+00 -0.15617698722E+04  0.15617698722E+04  0.25500000920E-02 0. -1.
    10030    2    1    2    0    0  0.00000000000E+00  0.00000000000E+00 -0.30579362670E+03  0.28177461177E+04  0.28011039683E+04 0.  0.
        3    1    3    3  502    0 -0.36034205474E+03 -0.12742985532E+04  0.30573149997E+03  0.13591007907E+04  0.10100000352E+00 0. -1.
       -3    1    3    3    0  502  0.36034205474E+03  0.12742985532E+04 -0.61152512667E+03  0.14586453269E+04  0.10100000352E+00 0.  1.
</event>
<event>
 5   0  0.5362952E-07  0.2830524E+04  0.7818609E-02  0.8293854E-01
        1   -1    0    0  501    0  0.00000000000E+00  0.00000000000E+00  0.11685977818E+04  0.11685977818E+04  0.50400001928E-02 0.  1.
       -1   -1    0    0    0  501  0.00000000000E+00  0.00000000000E+00 -0.17139911256E+04  0.17139911256E+04  0.50400001928E-02 0. -1.
    10030    2    1    2    0    0  0.00000000000E+00  0.00000000000E+00 -0.54539334378E+03  0.28825889074E+04  0.28305237872E+04 0.  0.
        1    1    3    3  502    0 -0.37403351857E+03  0.10232194879E+04  0.64729551919E+03  0.12672295303E+04  0.50400001928E-02 0.  1.
       -1    1    3    3    0  502  0.37403351857E+03 -0.10232194879E+04 -0.11926888630E+04  0.16153593771E+04  0.50400001928E-02 0. -1.
</event>
<event>
 5   0  0.1377807E-06  0.2797760E+04  0.7818609E-02  0.8303964E-01
       -2   -1    0    0    0  501  0.00000000000E+00  0.00000000000E+00  0.13535504442E+04  0.13535504442E+04  0.25500000920E-02 0.  1.
        2   -1    0    0  501    0  0.00000000000E+00  0.00000000000E+00 -0.14457280810E+04  0.14457280810E+04  0.25500000920E-02 0. -1.
    10030    2    1    2    0    0  0.00000000000E+00  0.00000000000E+00 -0.92177636714E+02  0.27992785252E+04  0.27977604517E+04 0.  0.
        2    1    3    3  502    0 -0.11787320279E+04 -0.74773757377E+03 -0.13749052609E+03  0.14026490358E+04  0.25500000920E-02 0. -1.
       -2    1    3    3    0  502  0.11787320279E+04  0.74773757377E+03  0.45312889379E+02  0.13966294894E+04  0.25500000920E-02 0.  1.
</event>
<event>
 5   0  0.5214658E-07  0.2805355E+04  0.7818609E-02  0.8301608E-01
        1   -1    0    0  501    0  0.00000000000E+00  0.00000000000E+00  0.94303575067E+03  0.94303575068E+03  0.50400001928E-02 0. -1.
       -1   -1    0    0    0  501  0.00000000000E+00  0.00000000000E+00 -0.20863515623E+04  0.20863515623E+04  0.50400001928E-02 0.  1.
    10030    2    1    2    0    0  0.00000000000E+00  0.00000000000E+00 -0.11433158116E+04  0.30293873130E+04  0.28053549592E+04 0.  0.
        2    1    3    3  502    0 -0.24142117428E+03  0.80119470759E+03  0.64399024504E+03  0.10558979963E+04  0.25500000920E-02 0. -1.
       -2    1    3    3    0  502  0.24142117428E+03 -0.80119470759E+03 -0.17873060567E+04  0.19734893167E+04  0.25500000920E-02 0.  1.
</event>
<event>
 5   0  0.1499888E-06  0.2797464E+04  0.7818609E-02  0.8304056E-01
        2   -1    0    0  501    0  0.00000000000E+00  0.00000000000E+00  0.10840656038E+04  0.10840656038E+04  0.25500000920E-02 0.  1.
       -2   -1    0    0    0  501  0.00000000000E+00  0.00000000000E+00 -0.18047355708E+04  0.18047355708E+04  0.25500000920E-02 0. -1.
    10030    2    1    2    0    0  0.00000000000E+00  0.00000000000E+00 -0.72066996692E+03  0.28888011746E+04  0.27974643921E+04 0.  0.
        3    1    3    3  502    0 -0.43320755975E+03  0.39834192943E+03 -0.16706641511E+04  0.17712887394E+04  0.10100000352E+00 0. -1.
       -3    1    3    3    0  502  0.43320755975E+03 -0.39834192943E+03  0.94999418417E+03  0.11175124352E+04  0.10100000352E+00 0.  1.
</event>
<event>
 5   0  0.1439207E-06  0.2795494E+04  0.7818609E-02  0.8304669E-01
       -2   -1    0    0    0  501  0.00000000000E+00  0.00000000000E+00  0.10178444579E+04  0.10178444579E+04  0.25500000920E-02 0.  1.
        2   -1    0    0  501    0  0.00000000000E+00  0.00000000000E+00 -0.19194448817E+04  0.19194448817E+04  0.25500000920E-02 0. -1.
    10030    2    1    2    0    0  0.00000000000E+00  0.00000000000E+00 -0.90160042380E+03  0.29372893396E+04  0.27954937561E+04 0.  0.
        5    1    3    3  502    0  0.63892237244E+03 -0.11106633129E+04 -0.10375886987E+04  0.16487592881E+04  0.46999998093E+01 0. -1.
       -5    1    3    3    0  502 -0.63892237244E+03  0.11106633129E+04  0.13598827485E+03  0.12885300515E+04  0.46999998093E+01 0.  1.
</event>
<event>
 5   0  0.5214658E-07  0.2797476E+04  0.7818609E-02  0.8304052E-01
        1   -1    0    0  501    0  0.00000000000E+00  0.00000000000E+00  0.23786344657E+04  0.23786344657E+04  0.50400001928E-02 0. -1.
       -1   -1    0    0    0  501  0.00000000000E+00  0.00000000000E+00 -0.82251750404E+03  0.82251750406E+03  0.50400001928E-02 0.  1.
    10030    2    1    2    0    0  0.00000000000E+00  0.00000000000E+00  0.15561169617E+04  0.32011519698E+04  0.27974763511E+04 0.  0.
        2    1    3    3  502    0  0.79727193117E+02 -0.12311211602E+03  0.23698103010E+04  0.23743449373E+04  0.25500000920E-02 0. -1.
       -2    1    3    3    0  502 -0.79727193117E+02  0.12311211602E+03 -0.81369333936E+03  0.82680703248E+03  0.25500000920E-02 0.  1.
</event>
<event>
 5   0  0.1499888E-06  0.2800611E+04  0.7818609E-02  0.8303079E-01
        2   -1    0    0  501    0  0.00000000000E+00  0.00000000000E+00  0.17891092103E+04  0.17891092103E+04  0.25500000920E-02 0.  1.
       -2   -1    0    0    0  501  0.00000000000E+00  0.00000000000E+00 -0.10959953518E+04  0.10959953518E+04  0.25500000920E-02 0. -1.
    10030    2    1    2    0    0  0.00000000000E+00  0.00000000000E+00  0.69311385850E+03  0.28851045622E+04  0.28006109179E+04 0.  0.
        3    1    3    3  502    0 -0.41235332989E+03 -0.12218839718E+04 -0.21563610593E+03  0.13074917398E+04  0.10100000352E+00 0. -1.
       -3    1    3    3    0  502  0.41235332989E+03  0.12218839718E+04  0.90874996444E+03  0.15776128224E+04  0.10100000352E+00 0.  1.
</event>
<event>
 5   0  0.1461146E-06  0.2800987E+04  0.7818609E-02  0.8302962E-01
       -2   -1    0    0    0  501  0.00000000000E+00  0.00000000000E+00  0.10783173754E+04  0.10783173754E+04  0.25500000920E-02 0.  1.
        2   -1    0    0  501    0  0.00000000000E+00  0.00000000000E+00 -0.18189285028E+04  0.18189285028E+04  0.25500000920E-02 0. -1.
    10030    2    1    2    0    0  0.00000000000E+00  0.00000000000E+00 -0.74061112746E+03  0.28972458782E+04  0.28009871183E+04 0.  0.
        1    1    3    3  502    0  0.72517729180E+03 -0.10232662806E+04 -0.10149622826E+04  0.16134139025E+04  0.50400001928E-02 0. -1.
       -1    1    3    3    0  502 -0.72517729180E+03  0.10232662806E+04  0.27435115513E+03  0.12838319758E+04  0.50400001928E-02 0.  1.
</event>
<event>
 5   0  0.5297741E-07  0.2804666E+04  0.7818609E-02  0.8301821E-01
        1   -1    0    0  501    0  0.00000000000E+00  0.00000000000E+00  0.19136255614E+04  0.19136255615E+04  0.50400001928E-02 0.  1.
       -1   -1    0    0    0  501  0.00000000000E+00  0.00000000000E+00 -0.10276505939E+04  0.10276505939E+04  0.50400001928E-02 0. -1.
    10030    2    1    2    0    0  0.00000000000E+00  0.00000000000E+00  0.88597496754E+03  0.29412761554E+04  0.28046664292E+04 0.  0.
        5    1    3    3  502    0 -0.31594363121E+03  0.17915355545E+03 -0.97746031544E+03  0.10427689738E+04  0.46999998093E+01 0. -1.
       -5    1    3    3    0  502  0.31594363121E+03 -0.17915355545E+03  0.18634352830E+04  0.18985071815E+04  0.46999998093E+01 0.  1.
</event>
<event>
 5   0  0.1499888E-06  0.2802377E+04  0.7818609E-02  0.8302531E-01
       -2   -1    0    0    0  501  0.00000000000E+00  0.00000000000E+00  0.12301709692E+04  0.12301709692E+04  0.25500000920E-02 0.  1.
        2   -1    0    0  501    0  0.00000000000E+00  0.00000000000E+00 -0.15959802170E+04  0.15959802170E+04  0.25500000920E-02 0. -1.
    10030    2    1    2    0    0  0.00000000000E+00  0.00000000000E+00 -0.36580924778E+03  0.28261511862E+04  0.28023765132E+04 0.  0.
        3    1    3    3  502    0 -0.11608704932E+03  0.12891187520E+04  0.35832819098E+03  0.13430199040E+04  0.10100000352E+00 0.  1.
       -3    1    3    3    0  502  0.11608704932E+03 -0.12891187520E+04 -0.72413743876E+03  0.14831312822E+04  0.10100000352E+00 0. -1.
</event>
<event>
 5   0  0.5282098E-07  0.2801391E+04  0.7818609E-02  0.8302837E-01
       -1   -1    0    0    0  501  0.00000000000E+00  0.00000000000E+00  0.12478821908E+04  0.12478821908E+04  0.50400001928E-02 0.  1.
        1   -1    0    0  501    0  0.00000000000E+00  0.00000000000E+00 -0.15722217249E+04  0.15722217249E+04  0.50400001928E-02 0. -1.
    10030    2    1    2    0    0  0.00000000000E+00  0.00000000000E+00 -0.32433953407E+03  0.28201039157E+04  0.28013907192E+04 0.  0.
        4    1    3    3  502    0 -0.10091007885E+04  0.28604438708E+03  0.77238502951E+03  0.13025690152E+04  0.12699999809E+01 0.  1.
       -4    1    3    3    0  502  0.10091007885E+04 -0.28604438708E+03 -0.10967245636E+04  0.15175349004E+04  0.12699999809E+01 0. -1.
</event>
<event>
 5   0  0.5362952E-07  0.2799364E+04  0.7818609E-02  0.8303466E-01
       -1   -1    0    0    0  501  0.00000000000E+00  0.00000000000E+00  0.95381253430E+03  0.95381253431E+03  0.50400001928E-02 0. -1.
        1   -1    0    0  501    0  0.00000000000E+00  0.00000000000E+00 -0.20539776567E+04  0.20539776567E+04  0.50400001928E-02 0.  1.
    10030    2    1    2    0    0  0.00000000000E+00  0.00000000000E+00 -0.11001651224E+04  0.30077901910E+04  0.27993639521E+04 0.  0.
        1    1    3    3  502    0  0.26470371337E+03  0.82538059031E+03  0.63073719484E+03  0.10719844139E+04  0.50400001928E-02 0. -1.
       -1    1    3    3    0  502 -0.26470371337E+03 -0.82538059031E+03 -0.17309023172E+04  0.19358057771E+04  0.50400001928E-02 0.  1.
</event>
<event>
 5   0  0.5551565E-07  0.2804696E+04  0.7818609E-02  0.8301812E-01
        1   -1    0    0  501    0  0.00000000000E+00  0.00000000000E+00  0.13109374537E+04  0.13109374537E+04  0.50400001928E-02 0. -1.
       -1   -1    0    0    0  501  0.00000000000E+00  0.00000000000E+00 -0.15001330487E+04  0.15001330487E+04  0.50400001928E-02 0.  1.
    10030    2    1    2    0    0  0.00000000000E+00  0.00000000000E+00 -0.18919559503E+03  0.28110705024E+04  0.28046964891E+04 0.  0.
        3    1    3    3  502    0  0.82007464234E+03  0.11360383888E+04 -0.15368046431E+03  0.14095117364E+04  0.10100000352E+00 0. -1.
       -3    1    3    3    0  502 -0.82007464234E+03 -0.11360383888E+04 -0.35515130721E+02  0.14015587660E+04  0.10100000352E+00 0.  1.
</event>
<event>
 5   0  0.1394410E-06  0.2804814E+04  0.7818609E-02  0.8301775E-01
       -2   -1    0    0    0  501  0.00000000000E+00  0.00000000000E+00  0.12621930202E+04  0.12621930202E+04  0.25500000920E-02 0. -1.
        2   -1    0    0  501    0  0.00000000000E+00  0.00000000000E+00 -0.15581972942E+04  0.15581972942E+04  0.25500000920E-02 0.  1.
    10030    2    1    2    0    0  0.00000000000E+00  0.00000000000E+00 -0.29600427404E+03  0.28203903144E+04  0.28048142533E+04 0.  0.
        4    1    3    3  502    0 -0.53388283181E+02 -0.13470503273E+04  0.24060128565E+03  0.13694106341E+04  0.12699999809E+01 0. -1.
       -4    1    3    3    0  502  0.53388283181E+02  0.13470503273E+04 -0.53660555969E+03  0.14509796803E+04  0.12699999809E+01 0.  1.
</event>
<event>
 5   0  0.1394410E-06  0.2800238E+04  0.7818609E-02  0.8303194E-01
       -2   -1    0    0    0  501  0.00000000000E+00  0.00000000000E+00  0.14176243507E+04  0.14176243507E+04  0.25500000920E-02 0. -1.
        2   -1    0    0  501    0  0.00000000000E+00  0.00000000000E+00 -0.13828301493E+04  0.13828301493E+04  0.25500000920E-02 0.  1.
    10030    2    1    2    0    0  0.00000000000E+00  0.00000000000E+00  0.34794201371E+02  0.28004545000E+04  0.28002383417E+04 0.  0.
        4    1    3    3  502    0  0.64072396013E+03  0.11153791522E+04 -0.53557797676E+03  0.13933568202E+04  0.12699999809E+01 0.  1.
       -4    1    3    3    0  502 -0.64072396013E+03 -0.11153791522E+04  0.57037217813E+03  0.14070976799E+04  0.12699999809E+01 0. -1.
</event>
<event>
 5   0  0.5214658E-07  0.2804585E+04  0.7818609E-02  0.8301846E-01
       -1   -1    0    0    0  501  0.00000000000E+00  0.00000000000E+00  0.11309727848E+04  0.11309727848E+04  0.50400001928E-02 0.  1.
        1   -1    0    0  501    0  0.00000000000E+00  0.00000000000E+00 -0.17387016109E+04  0.17387016109E+04  0.50400001928E-02 0. -1.
    10030    2    1    2    0    0  0.00000000000E+00  0.00000000000E+00 -0.60772882608E+03  0.28696743957E+04  0.28045849624E+04 0.  0.
        2    1    3    3  502    0  0.83468447047E+03  0.12378558197E+03  0.84213024350E+03  0.11921427694E+04  0.25500000920E-02 0. -1.
       -2    1    3    3    0  502 -0.83468447047E+03 -0.12378558197E+03 -0.14498590696E+04  0.16775316263E+04  0.25500000920E-02 0.  1.
</event>
<event>
 5   0  0.5297741E-07  0.2796799E+04  0.7818609E-02  0.8304263E-01
        1   -1    0    0  501    0  0.00000000000E+00  0.00000000000E+00  0.69184960377E+03  0.69184960379E+03  0.50400001928E-02 0.  1.
       -1   -1    0    0    0  501  0.00000000000E+00  0.00000000000E+00 -0.28265119278E+04  0.28265119278E+04  0.50400001928E-02 0. -1.
    10030    2    1    2    0    0  0.00000000000E+00  0.00000000000E+00 -0.21346623240E+04  0.35183615316E+04  0.27967989969E+04 0.  0.
        5    1    3    3  502    0  0.70891412842E+03 -0.47963815379E+03  0.32381379100E+03  0.91514450295E+03  0.46999998093E+01 0.  1.
       -5    1    3    3    0  502 -0.70891412842E+03  0.47963815379E+03 -0.24584761150E+04  0.26032170286E+04  0.46999998093E+01 0. -1.
</event>
<event>
 5   0  0.5297741E-07  0.2794534E+04  0.7818609E-02  0.8304967E-01
       -1   -1    0    0    0  501  0.00000000000E+00  0.00000000000E+00  0.11563146389E+04  0.11563146389E+04  0.50400001928E-02 0.  1.
        1   -1    0    0  501    0  0.00000000000E+00  0.00000000000E+00 -0.16884288525E+04  0.16884288525E+04  0.50400001928E-02 0. -1.
    10030    2    1    2    0    0  0.00000000000E+00  0.00000000000E+00 -0.53211421361E+03  0.28447434914E+04  0.27945339496E+04 0.  0.
        5    1    3    3  502    0 -0.57974522570E+03 -0.12635694652E+04 -0.12346688669E+03  0.13956999972E+04  0.46999998093E+01 0. -1.
       -5    1    3    3    0  502  0.57974522570E+03  0.12635694652E+04 -0.40864732692E+03  0.14490434942E+04  0.46999998093E+01 0.  1.
</event>
<event>
 5   0  0.1377807E-06  0.2800037E+04  0.7818609E-02  0.8303257E-01
       -2   -1    0    0    0  501  0.00000000000E+00  0.00000000000E+00  0.12475870286E+04  0.12475870286E+04  0.25500000920E-02 0. -1.
        2   -1    0    0  501    0  0.00000000000E+00  0.00000000000E+00 -0.15710737943E+04  0.15710737943E+04  0.25500000920E-02 0.  1.
    10030    2    1    2    0    0  0.00000000000E+00  0.00000000000E+00 -0.32348676566E+03  0.28186608228E+04  0.28000366331E+04 0.  0.
        2    1    3    3  502    0  0.36474884198E+03  0.33184983655E+02 -0.15219929311E+04  0.15654409740E+04  0.25500000920E-02 0.  1.
       -2    1    3    3    0  502 -0.36474884198E+03 -0.33184983655E+02  0.11985061654E+04  0.12532198488E+04  0.25500000920E-02 0. -1.
</event>
<event>
 5   0  0.1499888E-06  0.2809697E+04  0.7818609E-02  0.8300264E-01
        2   -1    0    0  501    0  0.00000000000E+00  0.00000000000E+00  0.26449595086E+04  0.26449595086E+04  0.25500000920E-02 0. -1.
       -2   -1    0    0    0  501  0.00000000000E+00  0.00000000000E+00 -0.74617377574E+03  0.74617377575E+03  0.25500000920E-02 0.  1.
    10030    2    1    2    0    0  0.00000000000E+00  0.00000000000E+00  0.18987857328E+04  0.33911332843E+04  0.28096970820E+04 0.  0.
        3    1    3    3  502    0  0.13540389088E+04  0.18386047822E+03  0.55575051253E+03  0.14751558170E+04  0.10100000352E+00 0. -1.
       -3    1    3    3    0  502 -0.13540389088E+04 -0.18386047822E+03  0.13430352203E+04  0.19159774673E+04  0.10100000352E+00 0.  1.
</event>
<event>
 5   0  0.1461146E-06  0.2800910E+04  0.7818609E-02  0.8302986E-01
       -2   -1    0    0    0  501  0.00000000000E+00  0.00000000000E+00  0.10803560078E+04  0.10803560078E+04  0.25500000920E-02 0. -1.
        2   -1    0    0  501    0  0.00000000000E+00  0.00000000000E+00 -0.18153956153E+04  0.18153956153E+04  0.25500000920E-02 0.  1.
    10030    2    1    2    0    0  0.00000000000E+00  0.00000000000E+00 -0.73503960754E+03  0.28957516231E+04  0.28009095376E+04 0.  0.
        1    1    3    3  502    0  0.12992014165E+04 -0.40891451837E+03 -0.70433989887E+03  0.15333721326E+04  0.50400001928E-02 0.  1.
       -1    1    3    3    0  502 -0.12992014165E+04  0.40891451837E+03 -0.30699708671E+02  0.13623794905E+04  0.50400001928E-02 0. -1.
</event>
<event>
 5   0  0.1377807E-06  0.2805346E+04  0.7818609E-02  0.8301610E-01
       -2   -1    0    0    0  501  0.00000000000E+00  0.00000000000E+00  0.11925826902E+04  0.11925826902E+04  0.25500000920E-02 0.  1.
        2   -1    0    0  501    0  0.00000000000E+00  0.00000000000E+00 -0.16497740872E+04  0.16497740872E+04  0.25500000920E-02 0. -1.
    10030    2    1    2    0    0  0.00000000000E+00  0.00000000000E+00 -0.45719139698E+03  0.28423567774E+04  0.28053463381E+04 0.  0.
        2    1    3    3  502    0  0.51614110786E+03  0.42401057215E+03  0.10210885907E+04  0.12201674141E+04  0.25500000920E-02 0.  1.
       -2    1    3    3    0  502 -0.51614110786E+03 -0.42401057215E+03 -0.14782799876E+04  0.16221893633E+04  0.25500000920E-02 0. -1.
</event>
<event>
 5   0  0.1499888E-06  0.2801570E+04  0.7818609E-02  0.8302781E-01
       -2   -1    0    0    0  501  0.00000000000E+00  0.00000000000E+00  0.10181778653E+04  0.10181778653E+04  0.25500000920E-02 0. -1.
        2   -1    0    0  501    0  0.00000000000E+00  0.00000000000E+00 -0.19271665499E+04  0.19271665499E+04  0.25500000920E-02 0.  1.
    10030    2    1    2    0    0  0.00000000000E+00  0.00000000000E+00 -0.90898868466E+03  0.29453444152E+04  0.28015697913E+04 0.  0.
        3    1    3    3  502    0  0.26143518401E+02 -0.39623087345E+03  0.95776676855E+03  0.10368218660E+04  0.10100000352E+00 0. -1.
       -3    1    3    3    0  502 -0.26143518401E+02  0.39623087345E+03 -0.18667554532E+04  0.19085225492E+04  0.10100000352E+00 0.  1.
</event>
<event>
 5   0  0.5551565E-07  0.2805876E+04  0.7818609E-02  0.8301447E-01
        1   -1    0    0  501    0  0.00000000000E+00  0.00000000000E+00  0.16098966262E+04  0.16098966262E+04  0.50400001928E-02 0. -1.
       -1   -1    0    0    0  501  0.00000000000E+00  0.00000000000E+00 -0.12225844178E+04  0.12225844178E+04  0.50400001928E-02 0.  1.
    10030    2    1    2    0    0  0.00000000000E+00  0.00000000000E+00  0.38731220838E+03  0.28324810440E+04  0.28058756419E+04 0.  0.
        3    1    3    3  502    0 -0.35645516693E+03 -0.42280437962E+02  0.15627558886E+04  0.16034506225E+04  0.10100000352E+00 0. -1.
       -3    1    3    3    0  502  0.35645516693E+03  0.42280437962E+02 -0.11754436802E+04  0.12290304215E+04  0.10100000352E+00 0.  1.
</event>
<event>
 5   0  0.1439207E-06  0.2799025E+04  0.7818609E-02  0.8303571E-01
        2   -1    0    0  501    0  0.00000000000E+00  0.00000000000E+00  0.23984632639E+04  0.23984632639E+04  0.25500000920E-02 0.  1.
       -2   -1    0    0    0  501  0.00000000000E+00  0.00000000000E+00 -0.81662107527E+03  0.81662107527E+03  0.25500000920E-02 0. -1.
    10030    2    1    2    0    0  0.00000000000E+00  0.00000000000E+00  0.15818421887E+04  0.32150843392E+04  0.27990252943E+04 0.  0.
        5    1    3    3  502    0  0.40797708821E+03  0.10494027034E+04  0.17456940899E+04  0.20772966288E+04  0.46999998093E+01 0. -1.
       -5    1    3    3    0  502 -0.40797708821E+03 -0.10494027034E+04 -0.16385190127E+03  0.11377877104E+04  0.46999998093E+01 0.  1.
</event>
<event>
 5   0  0.5297741E-07  0.2798538E+04  0.7818609E-02  0.8303722E-01
       -1   -1    0    0    0  501  0.00000000000E+00  0.00000000000E+00  0.10912037091E+04  0.10912037091E+04  0.50400001928E-02 0. -1.
        1   -1    0    0  501    0  0.00000000000E+00  0.00000000000E+00 -0.17943064426E+04  0.17943064426E+04  0.50400001928E-02 0.  1.
    10030    2    1    2    0    0  0.00000000000E+00  0.00000000000E+00 -0.70310273347E+03  0.28855101517E+04  0.27985380794E+04 0.  0.
        5    1    3    3  502    0 -0.43312729712E+03 -0.67462941753E+03  0.83091432491E+03  0.11546275641E+04  0.46999998093E+01 0. -1.
       -5    1    3    3    0  502  0.43312729712E+03  0.67462941753E+03 -0.15340170584E+04  0.17308825876E+04  0.46999998093E+01 0.  1.
</event>
<event>
 5   0  0.5551565E-07  0.2801095E+04  0.7818609E-02  0.8302928E-01
       -1   -1    0    0    0  501  0.00000000000E+00  0.00000000000E+00  0.18338083885E+04  0.18338083885E+04  0.50400001928E-02 0. -1.
        1   -1    0    0  501    0  0.00000000000E+00  0.00000000000E+00 -0.10696502570E+04  0.10696502570E+04  0.50400001928E-02 0.  1.
    10030    2    1    2    0    0  0.00000000000E+00  0.00000000000E+00  0.76415813145E+03  0.29034586455E+04  0.28010952244E+04 0.  0.
        3    1    3    3  502    0 -0.79493948337E+03  0.80222987327E+03 -0.47645982908E+03  0.12257714023E+04  0.10100000352E+00 0.  1.
       -3    1    3    3    0  502  0.79493948337E+03 -0.80222987327E+03  0.12406179605E+04  0.16776872432E+04  0.10100000352E+00 0. -1.
</event>
<event>
 5   0  0.1499888E-06  0.2801013E+04  0.7818609E-02  0.8302954E-01
        2   -1    0    0  501    0  0.00000000000E+00  0.00000000000E+00  0.21891565540E+04  0.21891565540E+04  0.25500000920E-02 0.  1.
       -2   -1    0    0    0  501  0.00000000000E+00  0.00000000000E+00 -0.89597017601E+03  0.89597017602E+03  0.25500000920E-02 0. -1.
    10030    2    1    2    0    0  0.00000000000E+00  0.00000000000E+00  0.12931863780E+04  0.30851267301E+04  0.28010133759E+04 0.  0.
        3    1    3    3  502    0 -0.50730436952E+03 -0.53191912112E+03  0.19596203367E+04  0.20929423186E+04  0.10100000352E+00 0.  1.
       -3    1    3    3    0  502  0.50730436952E+03  0.53191912112E+03 -0.66643395871E+03  0.99218441143E+03  0.10100000352E+00 0. -1.
</event>
<event>
 5   0  0.5362952E-07  0.2802035E+04  0.7818609E-02  0.8302637E-01
       -1   -1    0    0    0  501  0.00000000000E+00  0.00000000000E+00  0.14118271113E+04  0.14118271114E+04  0.50400001928E-02 0.  1.
        1   -1    0    0  501    0  0.00000000000E+00  0.00000000000E+00 -0.13902908369E+04  0.13902908369E+04  0.50400001928E-02 0. -1.
    10030    2    1    2    0    0  0.00000000000E+00  0.00000000000E+00  0.21536274461E+02  0.28021179483E+04  0.28020351862E+04 0.  0.
        1    1    3    3  502    0  0.97868120781E+03  0.39729145442E+03 -0.90968986653E+03  0.13939845980E+04  0.50400001928E-02 0. -1.
       -1    1    3    3    0  502 -0.97868120781E+03 -0.39729145442E+03  0.93122614099E+03  0.14081333502E+04  0.50400001928E-02 0.  1.
</event>
<event>
 5   0  0.5551565E-07  0.2801310E+04  0.7818609E-02  0.8302862E-01
       -1   -1    0    0    0  501  0.00000000000E+00  0.00000000000E+00  0.10265197761E+04  0.10265197761E+04  0.50400001928E-02 0. -1.
        1   -1    0    0  501    0  0.00000000000E+00  0.00000000000E+00 -0.19111517075E+04  0.19111517075E+04  0.50400001928E-02 0.  1.
    10030    2    1    2    0    0  0.00000000000E+00  0.00000000000E+00 -0.88463193135E+03  0.29376714836E+04  0.28013104240E+04 0.  0.
        3    1    3    3  502    0 -0.58852561233E+03 -0.55772133798E+03  0.75539116643E+03  0.11081657420E+04  0.10100000352E+00 0. -1.
       -3    1    3    3    0  502  0.58852561233E+03  0.55772133798E+03 -0.16400230978E+04  0.18295057416E+04  0.10100000352E+00 0.  1.
</event>
<event>
 5   0  0.5282098E-07  0.2876157E+04  0.7818609E-02  0.8280007E-01
       -1   -1    0    0    0  501  0.00000000000E+00  0.00000000000E+00  0.15016025580E+04  0.15016025580E+04  0.50400001928E-02 0. -1.
        1   -1    0    0  501    0  0.00000000000E+00  0.00000000000E+00 -0.13772413831E+04  0.13772413831E+04  0.50400001928E-02 0.  1.
    10030    2    1    2    0    0  0.00000000000E+00  0.00000000000E+00  0.12436117486E+03  0.28788439411E+04  0.28761565909E+04 0.  0.
        4    1    3    3  502    0  0.10015533146E+04 -0.47500426072E+03 -0.85482468886E+03  0.13998088981E+04  0.12699999809E+01 0.  1.
       -4    1    3    3    0  502 -0.10015533146E+04  0.47500426072E+03  0.97918586372E+03  0.14790350430E+04  0.12699999809E+01 0. -1.
</event>
<event>
 5   0  0.5297741E-07  0.2792131E+04  0.7818609E-02  0.8305715E-01
        1   -1    0    0  501    0  0.00000000000E+00  0.00000000000E+00  0.74635442247E+03  0.74635442249E+03  0.50400001928E-02 0.  1.
       -1   -1    0    0    0  501  0.00000000000E+00  0.00000000000E+00 -0.26113588875E+04  0.26113588875E+04  0.50400001928E-02 0. -1.
    10030    2    1    2    0    0  0.00000000000E+00  0.00000000000E+00 -0.18650044651E+04  0.33577133100E+04  0.27921312680E+04 0.  0.
        5    1    3    3  502    0 -0.90208291357E+03  0.10514857024E+04 -0.72560060889E+03  0.15639354523E+04  0.46999998093E+01 0.  1.
       -5    1    3    3    0  502  0.90208291357E+03 -0.10514857024E+04 -0.11394038562E+04  0.17937778577E+04  0.46999998093E+01 0. -1.
</event>
<event>
 5   0  0.1394410E-06  0.2803201E+04  0.7818609E-02  0.8302275E-01
       -2   -1    0    0    0  501  0.00000000000E+00  0.00000000000E+00  0.13377310944E+04  0.13377310944E+04  0.25500000920E-02 0. -1.
        2   -1    0    0  501    0  0.00000000000E+00  0.00000000000E+00 -0.14685196825E+04  0.14685196825E+04  0.25500000920E-02 0.  1.
    10030    2    1    2    0    0  0.00000000000E+00  0.00000000000E+00 -0.13078858816E+03  0.28062507769E+04  0.28032013428E+04 0.  0.
        4    1    3    3  502    0  0.18651744818E+03 -0.55083296622E+03  0.12112486852E+04  0.13436259545E+04  0.12699999809E+01 0. -1.
       -4    1    3    3    0  502 -0.18651744818E+03  0.55083296622E+03 -0.13420372734E+04  0.14626248224E+04  0.12699999809E+01 0.  1.
</event>
<event>
 5   0  0.1461146E-06  0.2796539E+04  0.7818609E-02  0.8304344E-01
       -2   -1    0    0    0  501  0.00000000000E+00  0.00000000000E+00  0.71154345795E+03  0.71154345795E+03  0.25500000920E-02 0.  1.
        2   -1    0    0  501    0  0.00000000000E+00  0.00000000000E+00 -0.27477698290E+04  0.27477698290E+04  0.25500000920E-02 0. -1.
    10030    2    1    2    0    0  0.00000000000E+00  0.00000000000E+00 -0.20362263711E+04  0.34593132870E+04  0.27965390366E+04 0.  0.
        1    1    3    3  502    0  0.71369843121E+03 -0.10892539453E+04 -0.38819322196E+03  0.13588721741E+04  0.50400001928E-02 0.  1.
       -1    1    3    3    0  502 -0.71369843121E+03  0.10892539453E+04 -0.16480331491E+04  0.21004411129E+04  0.50400001928E-02 0. -1.
</event>
<event>
 5   0  0.5282098E-07  0.2805793E+04  0.7818609E-02  0.8301472E-01
       -1   -1    0    0    0  501  0.00000000000E+00  0.00000000000E+00  0.10229888361E+04  0.10229888361E+04  0.50400001928E-02 0. -1.
        1   -1    0    0  501    0  0.00000000000E+00  0.00000000000E+00 -0.19238903402E+04  0.19238903402E+04  0.50400001928E-02 0.  1.
    10030    2    1    2    0    0  0.00000000000E+00  0.00000000000E+00 -0.90090150410E+03  0.29468791762E+04  0.28057928219E+04 0.  0.
        4    1    3    3  502    0  0.63877807248E+03  0.52301713301E+03 -0.16417396394E+04  0.18376329894E+04  0.12699999809E+01 0.  1.
       -4    1    3    3    0  502 -0.63877807248E+03 -0.52301713301E+03  0.74083813532E+03  0.11092461868E+04  0.12699999809E+01 0. -1.
</event>
<event>
 5   0  0.1377807E-06  0.2802742E+04  0.7818609E-02  0.8302418E-01
        2   -1    0    0  501    0  0.00000000000E+00  0.00000000000E+00  0.17380075857E+04  0.17380075857E+04  0.25500000920E-02 0.  1.
       -2   -1    0    0    0  501  0.00000000000E+00  0.00000000000E+00 -0.11299379963E+04  0.11299379963E+04  0.25500000920E-02 0. -1.
    10030    2    1    2    0    0  0.00000000000E+00  0.00000000000E+00  0.60806958944E+03  0.28679455820E+04  0.28027420922E+04 0.  0.
        2    1    3    3  502    0  0.52728908359E+03  0.10503154791E+04  0.10851040952E+04  0.15995772194E+04  0.25500000920E-02 0.  1.
       -2    1    3    3    0  502 -0.52728908359E+03 -0.10503154791E+04 -0.47703450578E+03  0.12683683626E+04  0.25500000920E-02 0. -1.
</event>
<event>
 5   0  0.5297741E-07  0.2793948E+04  0.7818609E-02  0.8305150E-01
       -1   -1    0    0    0  501  0.00000000000E+00  0.00000000000E+00  0.10094566288E+04  0.10094566288E+04  0.50400001928E-02 0.  1.
        1   -1    0    0  501    0  0.00000000000E+00  0.00000000000E+00 -0.19332543050E+04  0.19332543050E+04  0.50400001928E-02 0. -1.
    10030    2    1    2    0    0  0.00000000000E+00  0.00000000000E+00 -0.92379767622E+03  0.29427109339E+04  0.27939480120E+04 0.  0.
        5    1    3    3  502    0 -0.10162686614E+04  0.58881320346E+03  0.33468517711E+03  0.12212858955E+04  0.46999998093E+01 0.  1.
       -5    1    3    3    0  502  0.10162686614E+04 -0.58881320346E+03 -0.12584828533E+04  0.17214250384E+04  0.46999998093E+01 0. -1.
</event>
<event>
 5   0  0.1377807E-06  0.2813911E+04  0.7818609E-02  0.8298963E-01
        2   -1    0    0  501    0  0.00000000000E+00  0.00000000000E+00  0.18101082734E+04  0.18101082734E+04  0.25500000920E-02 0. -1.
       -2   -1    0    0    0  501  0.00000000000E+00  0.00000000000E+00 -0.10935938438E+04  0.10935938438E+04  0.25500000920E-02 0.  1.
    10030    2    1    2    0    0  0.00000000000E+00  0.00000000000E+00  0.71651442961E+03  0.29037021173E+04  0.28139106343E+04 0.  0.
        2    1    3    3  502    0 -0.36143488481E+03 -0.91830908470E+03  0.13930505907E+04  0.17071955656E+04  0.25500000920E-02 0. -1.
       -2    1    3    3    0  502  0.36143488481E+03  0.91830908470E+03 -0.67653616106E+03  0.11965065517E+04  0.25500000920E-02 0.  1.
</event>
<event>
 5   0  0.5282098E-07  0.2803175E+04  0.7818609E-02  0.8302283E-01
       -1   -1    0    0    0  501  0.00000000000E+00  0.00000000000E+00  0.11201836571E+04  0.11201836571E+04  0.50400001928E-02 0.  1.
        1   -1    0    0  501    0  0.00000000000E+00  0.00000000000E+00 -0.17536830849E+04  0.17536830849E+04  0.50400001928E-02 0. -1.
    10030    2    1    2    0    0  0.00000000000E+00  0.00000000000E+00 -0.63349942778E+03  0.28738667420E+04  0.28031747226E+04 0.  0.
        4    1    3    3  502    0  0.31035841201E+03 -0.11921658918E+04 -0.10020863963E+04  0.15880052317E+04  0.12699999809E+01 0. -1.
       -4    1    3    3    0  502 -0.31035841201E+03  0.11921658918E+04  0.36858696847E+03  0.12858615103E+04  0.12699999809E+01 0.  1.
</event>
<event>
 5   0  0.5282098E-07  0.2799143E+04  0.7818609E-02  0.8303534E-01
        1   -1    0    0  501    0  0.00000000000E+00  0.00000000000E+00  0.24525005919E+04  0.24525005919E+04  0.50400001928E-02 0.  1.
       -1   -1    0    0    0  501  0.00000000000E+00  0.00000000000E+00 -0.79869519233E+03  0.79869519234E+03  0.50400001928E-02 0. -1.
    10030    2    1    2    0    0  0.00000000000E+00  0.00000000000E+00  0.16538053996E+04  0.32511957842E+04  0.27991430345E+04 0.  0.
        4    1    3    3  502    0 -0.29585225036E+03 -0.56321077971E+03  0.22748490334E+04  0.23621335005E+04  0.12699999809E+01 0.  1.
       -4    1    3    3    0  502  0.29585225036E+03  0.56321077971E+03 -0.62104363382E+03  0.88906228378E+03  0.12699999809E+01 0. -1.
</event>
<event>
 5   0  0.5282098E-07  0.2802293E+04  0.7818609E-02  0.8302557E-01
        1   -1    0    0  501    0  0.00000000000E+00  0.00000000000E+00  0.13230882165E+04  0.13230882165E+04  0.50400001928E-02 0.  1.
       -1   -1    0    0    0  501  0.00000000000E+00  0.00000000000E+00 -0.14838100091E+04  0.14838100091E+04  0.50400001928E-02 0. -1.
    10030    2    1    2    0    0  0.00000000000E+00  0.00000000000E+00 -0.16072179266E+03  0.28068982256E+04  0.28022930172E+04 0.  0.
        4    1    3    3  502    0  0.33174596003E+03  0.15953427786E+03 -0.14345084086E+04  0.14809870206E+04  0.12699999809E+01 0. -1.
       -4    1    3    3    0  502 -0.33174596003E+03 -0.15953427786E+03  0.12737866159E+04  0.13259112050E+04  0.12699999809E+01 0.  1.
</event>
<event>
 5   0  0.1377807E-06  0.2799938E+04  0.7818609E-02  0.8303288E-01
       -2   -1    0    0    0  501  0.00000000000E+00  0.00000000000E+00  0.13245201469E+04  0.13245201469E+04  0.25500000920E-02 0. -1.
        2   -1    0    0  501    0  0.00000000000E+00  0.00000000000E+00 -0.14797158341E+04  0.14797158341E+04  0.25500000920E-02 0.  1.
    10030    2    1    2    0    0  0.00000000000E+00  0.00000000000E+00 -0.15519568721E+03  0.28042359810E+04  0.27999381664E+04 0.  0.
        2    1    3    3  502    0  0.17371099464E+03 -0.85256489611E+03  0.10208404080E+04  0.13413267873E+04  0.25500000920E-02 0. -1.
       -2    1    3    3    0  502 -0.17371099464E+03  0.85256489611E+03 -0.11760360952E+04  0.14629091937E+04  0.25500000920E-02 0.  1.
</event>
<event>
 5   0  0.4710000E-07  0.2797379E+04  0.7818609E-02  0.8304082E-01
        3   -1    0    0  501    0  0.00000000000E+00  0.00000000000E+00  0.19228954128E+04  0.19228954155E+04  0.10100000352E+00 0. -1.
       -3   -1    0    0    0  501  0.00000000000E+00  0.00000000000E+00 -0.10173890661E+04  0.10173890711E+04  0.10100000352E+00 0.  1.
    10030    2    1    2    0    0  0.00000000000E+00  0.00000000000E+00  0.90550634675E+03  0.29402844866E+04  0.27973793304E+04 0.  0.
        4    1    3    3  502    0  0.41417395109E+03 -0.13263418731E+04  0.62095422557E+03  0.15219423738E+04  0.12699999809E+01 0. -1.
       -4    1    3    3    0  502 -0.41417395109E+03  0.13263418731E+04  0.28455212118E+03  0.14183421127E+04  0.12699999809E+01 0.  1.
</event>
<event>
 5   0  0.1439207E-06  0.2802149E+04  0.7818609E-02  0.8302602E-01
       -2   -1    0    0    0  501  0.00000000000E+00  0.00000000000E+00  0.83889369414E+03  0.83889369415E+03  0.25500000920E-02 0. -1.
        2   -1    0    0  501    0  0.00000000000E+00  0.00000000000E+00 -0.23399978642E+04  0.23399978642E+04  0.25500000920E-02 0.  1.
    10030    2    1    2    0    0  0.00000000000E+00  0.00000000000E+00 -0.15011041701E+04  0.31788915584E+04  0.28021487845E+04 0.  0.
        5    1    3    3  502    0  0.40197983413E+03 -0.13418668793E+04 -0.71860869171E+03  0.15743617916E+04  0.46999998093E+01 0.  1.
       -5    1    3    3    0  502 -0.40197983413E+03  0.13418668793E+04 -0.78249547837E+03  0.16045297668E+04  0.46999998093E+01 0. -1.
</event>
<event>
 5   0  0.1439207E-06  0.2808011E+04  0.7818609E-02  0.8300786E-01
       -2   -1    0    0    0  501  0.00000000000E+00  0.00000000000E+00  0.13576892212E+04  0.13576892212E+04  0.25500000920E-02 0.  1.
        2   -1    0    0  501    0  0.00000000000E+00  0.00000000000E+00 -0.14519019776E+04  0.14519019776E+04  0.25500000920E-02 0. -1.
    10030    2    1    2    0    0  0.00000000000E+00  0.00000000000E+00 -0.94212756438E+02  0.28095911988E+04  0.28080111575E+04 0.  0.
        5    1    3    3  502    0  0.57553440372E+03 -0.11753387957E+04  0.46165632490E+03  0.13877354888E+04  0.46999998093E+01 0.  1.
       -5    1    3    3    0  502 -0.57553440372E+03  0.11753387957E+04 -0.55586908133E+03  0.14218557100E+04  0.46999998093E+01 0. -1.
</event>
<event>
 5   0  0.1394410E-06  0.2801885E+04  0.7818609E-02  0.8302683E-01
       -2   -1    0    0    0  501  0.00000000000E+00  0.00000000000E+00  0.90450795601E+03  0.90450795601E+03  0.25500000920E-02 0.  1.
        2   -1    0    0  501    0  0.00000000000E+00  0.00000000000E+00 -0.21698433407E+04  0.21698433407E+04  0.25500000920E-02 0. -1.
    10030    2    1    2    0    0  0.00000000000E+00  0.00000000000E+00 -0.12653353847E+04  0.30743512967E+04  0.28018854830E+04 0.  0.
        4    1    3    3  502    0 -0.83049949089E+03 -0.90369485987E+03  0.10847569802E+03  0.12321373276E+04  0.12699999809E+01 0.  1.
       -4    1    3    3    0  502  0.83049949089E+03  0.90369485987E+03 -0.13738110827E+04  0.18422139691E+04  0.12699999809E+01 0. -1.
</event>
<event>
 5   0  0.5282098E-07  0.2781154E+04  0.7818609E-02  0.8309143E-01
        1   -1    0    0  501    0  0.00000000000E+00  0.00000000000E+00  0.14547429327E+04  0.14547429327E+04  0.50400001928E-02 0. -1.
       -1   -1    0    0    0  501  0.00000000000E+00  0.00000000000E+00 -0.13292414389E+04  0.13292414389E+04  0.50400001928E-02 0.  1.
    10030    2    1    2    0    0  0.00000000000E+00  0.00000000000E+00  0.12550149373E+03  0.27839843716E+04  0.27811541411E+04 0.  0.
        4    1    3    3  502    0 -0.74486855306E+03 -0.94491172178E+03 -0.63510693209E+03  0.13605328924E+04  0.12699999809E+01 0.  1.
       -4    1    3    3    0  502  0.74486855306E+03  0.94491172178E+03  0.76060842581E+03  0.14234514792E+04  0.12699999809E+01 0. -1.
</event>
<event>
 5   0  0.5214658E-07  0.2745100E+04  0.7818609E-02  0.8320518E-01
       -1   -1    0    0    0  501  0.00000000000E+00  0.00000000000E+00  0.10435153576E+04  0.10435153576E+04  0.50400001928E-02 0.  1.
        1   -1    0    0  501    0  0.00000000000E+00  0.00000000000E+00 -0.18053343266E+04  0.18053343266E+04  0.50400001928E-02 0. -1.
    10030    2    1    2    0    0  0.00000000000E+00  0.00000000000E+00 -0.76181896894E+03  0.28488496842E+04  0.27451004320E+04 0.  0.
        2    1    3    3  502    0 -0.97556839892E+03 -0.28325864976E+03 -0.13387913709E+04  0.16805747524E+04  0.25500000920E-02 0. -1.
       -2    1    3    3    0  502  0.97556839892E+03  0.28325864976E+03  0.57697240196E+03  0.11682749318E+04  0.25500000920E-02 0.  1.
</event>
<event>
 5   0  0.1377807E-06  0.2798043E+04  0.7818609E-02  0.8303876E-01
       -2   -1    0    0    0  501  0.00000000000E+00  0.00000000000E+00  0.83057227608E+03  0.83057227608E+03  0.25500000920E-02 0. -1.
        2   -1    0    0  501    0  0.00000000000E+00  0.00000000000E+00 -0.23565207557E+04  0.23565207557E+04  0.25500000920E-02 0.  1.
    10030    2    1    2    0    0  0.00000000000E+00  0.00000000000E+00 -0.15259484796E+04  0.31870930318E+04  0.27980427500E+04 0.  0.
        2    1    3    3  502    0 -0.29736978203E+03 -0.94967801356E+03  0.35708498501E+03  0.10572732869E+04  0.25500000920E-02 0. -1.
       -2    1    3    3    0  502  0.29736978203E+03  0.94967801356E+03 -0.18830334646E+04  0.21298197449E+04  0.25500000920E-02 0.  1.
</event>
<event>
 5   0  0.5214658E-07  0.2804091E+04  0.7818609E-02  0.8302000E-01
        1   -1    0    0  501    0  0.00000000000E+00  0.00000000000E+00  0.27121641857E+04  0.27121641857E+04  0.50400001928E-02 0. -1.
       -1   -1    0    0    0  501  0.00000000000E+00  0.00000000000E+00 -0.72478321455E+03  0.72478321457E+03  0.50400001928E-02 0.  1.
    10030    2    1    2    0    0  0.00000000000E+00  0.00000000000E+00  0.19873809712E+04  0.34369474003E+04  0.28040906383E+04 0.  0.
        2    1    3    3  502    0  0.13973680433E+04 -0.87544115632E+02  0.10840069659E+04  0.17706983150E+04  0.25500000920E-02 0.  1.
       -2    1    3    3    0  502 -0.13973680433E+04  0.87544115632E+02  0.90337400528E+03  0.16662490853E+04  0.25500000920E-02 0. -1.
</event>
<event>
 5   0  0.1499888E-06  0.2797783E+04  0.7818609E-02  0.8303957E-01
       -2   -1    0    0    0  501  0.00000000000E+00  0.00000000000E+00  0.10395873996E+04  0.10395873996E+04  0.25500000920E-02 0. -1.
        2   -1    0    0  501    0  0.00000000000E+00  0.00000000000E+00 -0.18823785236E+04  0.18823785236E+04  0.25500000920E-02 0.  1.
    10030    2    1    2    0    0  0.00000000000E+00  0.00000000000E+00 -0.84279112395E+03  0.29219659232E+04  0.27977826895E+04 0.  0.
        3    1    3    3  502    0 -0.38146293049E+03 -0.28989913341E+03  0.95122428065E+03  0.10650742308E+04  0.10100000352E+00 0. -1.
       -3    1    3    3    0  502  0.38146293049E+03  0.28989913341E+03 -0.17940154046E+04  0.18568916923E+04  0.10100000352E+00 0.  1.
</event>
<event>
 5   0  0.1439207E-06  0.2798960E+04  0.7818609E-02  0.8303591E-01
        2   -1    0    0  501    0  0.00000000000E+00  0.00000000000E+00  0.18054217815E+04  0.18054217815E+04  0.25500000920E-02 0. -1.
       -2   -1    0    0    0  501  0.00000000000E+00  0.00000000000E+00 -0.10848125470E+04  0.10848125470E+04  0.25500000920E-02 0.  1.
    10030    2    1    2    0    0  0.00000000000E+00  0.00000000000E+00  0.72060923455E+03  0.28902343285E+04  0.27989599506E+04 0.  0.
        5    1    3    3  502    0 -0.55943643359E+03  0.10561943143E+04  0.11120607722E+04  0.16325491735E+04  0.46999998093E+01 0. -1.
       -5    1    3    3    0  502  0.55943643359E+03 -0.10561943143E+04 -0.39145153767E+03  0.12576851550E+04  0.46999998093E+01 0.  1.
</event>
<event>
 5   0  0.5297741E-07  0.2802463E+04  0.7818609E-02  0.8302504E-01
       -1   -1    0    0    0  501  0.00000000000E+00  0.00000000000E+00  0.85994804076E+03  0.85994804077E+03  0.50400001928E-02 0.  1.
        1   -1    0    0  501    0  0.00000000000E+00  0.00000000000E+00 -0.22832194208E+04  0.22832194208E+04  0.50400001928E-02 0. -1.
    10030    2    1    2    0    0  0.00000000000E+00  0.00000000000E+00 -0.14232713800E+04  0.31431674615E+04  0.28024632505E+04 0.  0.
        5    1    3    3  502    0  0.12124191439E+04 -0.18936830717E+03  0.47071382958E+02  0.12280302689E+04  0.46999998093E+01 0.  1.
       -5    1    3    3    0  502 -0.12124191439E+04  0.18936830717E+03 -0.14703427630E+04  0.19151371927E+04  0.46999998093E+01 0. -1.
</event>
<event>
 5   0  0.5551565E-07  0.2802752E+04  0.7818609E-02  0.8302414E-01
       -1   -1    0    0    0  501  0.00000000000E+00  0.00000000000E+00  0.10852181830E+04  0.10852181830E+04  0.50400001928E-02 0. -1.
        1   -1    0    0  501    0  0.00000000000E+00  0.00000000000E+00 -0.18096410446E+04  0.18096410446E+04  0.50400001928E-02 0.  1.
    10030    2    1    2    0    0  0.00000000000E+00  0.00000000000E+00 -0.72442286164E+03  0.28948592277E+04  0.28027524802E+04 0.  0.
        3    1    3    3  502    0  0.39790075380E+03 -0.50943098017E+03  0.92203661252E+03  0.11260534883E+04  0.10100000352E+00 0. -1.
       -3    1    3    3    0  502 -0.39790075380E+03  0.50943098017E+03 -0.16464594742E+04  0.17688057394E+04  0.10100000352E+00 0.  1.
</event>
<event>
 5   0  0.1499888E-06  0.2789852E+04  0.7818609E-02  0.8306426E-01
       -2   -1    0    0    0  501  0.00000000000E+00  0.00000000000E+00  0.11763813085E+04  0.11763813085E+04  0.25500000920E-02 0.  1.
        2   -1    0    0  501    0  0.00000000000E+00  0.00000000000E+00 -0.16540707209E+04  0.16540707209E+04  0.25500000920E-02 0. -1.
    10030    2    1    2    0    0  0.00000000000E+00  0.00000000000E+00 -0.47768941247E+03  0.28304520294E+04  0.27898515222E+04 0.  0.
        3    1    3    3  502    0 -0.14504523487E+03  0.82626487365E+03 -0.13695438518E+04  0.16060517220E+04  0.10100000352E+00 0. -1.
       -3    1    3    3    0  502  0.14504523487E+03 -0.82626487365E+03  0.89185443931E+03  0.12244003074E+04  0.10100000352E+00 0.  1.
</event>
<event>
 5   0  0.1461146E-06  0.2803741E+04  0.7818609E-02  0.8302108E-01
        2   -1    0    0  501    0  0.00000000000E+00  0.00000000000E+00  0.26399358249E+04  0.26399358249E+04  0.25500000920E-02 0. -1.
       -2   -1    0    0    0  501  0.00000000000E+00  0.00000000000E+00 -0.74442770910E+03  0.74442770910E+03  0.25500000920E-02 0.  1.
    10030    2    1    2    0    0  0.00000000000E+00  0.00000000000E+00  0.18955081158E+04  0.33843635340E+04  0.28037413421E+04 0.  0.
        1    1    3    3  502    0  0.10069246424E+04  0.64106759263E+03  0.18350883840E+04  0.21891583476E+04  0.50400001928E-02 0. -1.
       -1    1    3    3    0  502 -0.10069246424E+04 -0.64106759263E+03  0.60419731849E+02  0.11952051865E+04  0.50400001928E-02 0.  1.
</event>
<event>
 5   0  0.1461146E-06  0.2803761E+04  0.7818609E-02  0.8302102E-01
        2   -1    0    0  501    0  0.00000000000E+00  0.00000000000E+00  0.22004919596E+04  0.22004919596E+04  0.25500000920E-02 0. -1.
       -2   -1    0    0    0  501  0.00000000000E+00  0.00000000000E+00 -0.89310450556E+03  0.89310450556E+03  0.25500000920E-02 0.  1.
    10030    2    1    2    0    0  0.00000000000E+00  0.00000000000E+00  0.13073874540E+04  0.30935964652E+04  0.28037612477E+04 0.  0.
        1    1    3    3  502    0 -0.13286242181E+04  0.23285461487E+03  0.10750116007E+04  0.17248517404E+04  0.50400001928E-02 0. -1.
       -1    1    3    3    0  502  0.13286242181E+04 -0.23285461487E+03  0.23237585331E+03  0.13687447248E+04  0.50400001928E-02 0.  1.
</event>
<event>
 5   0  0.1377807E-06  0.2771689E+04  0.7818609E-02  0.8312112E-01
        2   -1    0    0  501    0  0.00000000000E+00  0.00000000000E+00  0.11969760931E+04  0.11969760931E+04  0.25500000920E-02 0. -1.
       -2   -1    0    0    0  501  0.00000000000E+00  0.00000000000E+00 -0.16045141326E+04  0.16045141326E+04  0.25500000920E-02 0.  1.
    10030    2    1    2    0    0  0.00000000000E+00  0.00000000000E+00 -0.40753803946E+03  0.28014902257E+04  0.27716890575E+04 0.  0.
        2    1    3    3  502    0  0.19793969713E+03 -0.40781684709E+03 -0.15274568444E+04  0.15933044643E+04  0.25500000920E-02 0.  1.
       -2    1    3    3    0  502 -0.19793969713E+03  0.40781684709E+03  0.11199188049E+04  0.12081857614E+04  0.25500000920E-02 0. -1.
</event>
<event>
 5   0  0.5362952E-07  0.2802982E+04  0.7818609E-02  0.8302343E-01
       -1   -1    0    0    0  501  0.00000000000E+00  0.00000000000E+00  0.78342765214E+03  0.78342765216E+03  0.50400001928E-02 0.  1.
        1   -1    0    0  501    0  0.00000000000E+00  0.00000000000E+00 -0.25071587251E+04  0.25071587252E+04  0.50400001928E-02 0. -1.
    10030    2    1    2    0    0  0.00000000000E+00  0.00000000000E+00 -0.17237310730E+04  0.32905863773E+04  0.28029823215E+04 0.  0.
        1    1    3    3  502    0  0.38161032448E+03  0.54893195660E+03  0.58416643346E+03  0.88780806188E+03  0.50400001928E-02 0.  1.
       -1    1    3    3    0  502 -0.38161032448E+03 -0.54893195660E+03 -0.23078975065E+04  0.24027783154E+04  0.50400001928E-02 0. -1.
</event>
<event>
 5   0  0.1461146E-06  0.2800120E+04  0.7818609E-02  0.8303231E-01
       -2   -1    0    0    0  501  0.00000000000E+00  0.00000000000E+00  0.19643521125E+04  0.19643521125E+04  0.25500000920E-02 0. -1.
        2   -1    0    0  501    0  0.00000000000E+00  0.00000000000E+00 -0.99786981497E+03  0.99786981497E+03  0.25500000920E-02 0.  1.
    10030    2    1    2    0    0  0.00000000000E+00  0.00000000000E+00  0.96648229750E+03  0.29622219274E+04  0.28001197682E+04 0.  0.
        1    1    3    3  502    0  0.13239554347E+03 -0.37437057436E+03  0.19035307504E+04  0.19445079647E+04  0.50400001928E-02 0. -1.
       -1    1    3    3    0  502 -0.13239554347E+03  0.37437057436E+03 -0.93704845291E+03  0.10177139628E+04  0.50400001928E-02 0.  1.
</event>
<event>
 5   0  0.1394410E-06  0.2800154E+04  0.7818609E-02  0.8303220E-01
       -2   -1    0    0    0  501  0.00000000000E+00  0.00000000000E+00  0.13716097380E+04  0.13716097380E+04  0.25500000920E-02 0. -1.
        2   -1    0    0  501    0  0.00000000000E+00  0.00000000000E+00 -0.14291355070E+04  0.14291355070E+04  0.25500000920E-02 0.  1.
    10030    2    1    2    0    0  0.00000000000E+00  0.00000000000E+00 -0.57525768953E+02  0.28007452450E+04  0.28001544088E+04 0.  0.
        4    1    3    3  502    0  0.19622558443E+03 -0.10438631870E+04 -0.94112843657E+03  0.14191121098E+04  0.12699999809E+01 0. -1.
       -4    1    3    3    0  502 -0.19622558443E+03  0.10438631870E+04  0.88360266762E+03  0.13816331352E+04  0.12699999809E+01 0.  1.
</event>
<event>
 5   0  0.1499888E-06  0.2799742E+04  0.7818609E-02  0.8303349E-01
       -2   -1    0    0    0  501  0.00000000000E+00  0.00000000000E+00  0.76617944522E+03  0.76617944523E+03  0.25500000920E-02 0. -1.
        2   -1    0    0  501    0  0.00000000000E+00  0.00000000000E+00 -0.25576755871E+04  0.25576755871E+04  0.25500000920E-02 0.  1.
    10030    2    1    2    0    0  0.00000000000E+00  0.00000000000E+00 -0.17914961418E+04  0.33238550323E+04  0.27997417469E+04 0.  0.
        3    1    3    3  502    0 -0.26280235518E+03 -0.14998693356E+03  0.72688947876E+03  0.78735600757E+03  0.10100000352E+00 0. -1.
       -3    1    3    3    0  502  0.26280235518E+03  0.14998693356E+03 -0.25183856206E+04  0.25364990247E+04  0.10100000352E+00 0.  1.
</event>
<event>
 5   0  0.5297741E-07  0.2761287E+04  0.7818609E-02  0.8315389E-01
       -1   -1    0    0    0  501  0.00000000000E+00  0.00000000000E+00  0.10721344595E+04  0.10721344596E+04  0.50400001928E-02 0.  1.
        1   -1    0    0  501    0  0.00000000000E+00  0.00000000000E+00 -0.17779271665E+04  0.17779271665E+04  0.50400001928E-02 0. -1.
    10030    2    1    2    0    0  0.00000000000E+00  0.00000000000E+00 -0.70579270692E+03  0.28500616260E+04  0.27612873677E+04 0.  0.
        5    1    3    3  502    0  0.99030156831E+02 -0.11132406303E+04  0.48374555151E+03  0.12178438001E+04  0.46999998093E+01 0.  1.
       -5    1    3    3    0  502 -0.99030156831E+02  0.11132406303E+04 -0.11895382584E+04  0.16322178259E+04  0.46999998093E+01 0. -1.
</event>
<event>
 5   0  0.5214658E-07  0.2777185E+04  0.7818609E-02  0.8310387E-01
       -1   -1    0    0    0  501  0.00000000000E+00  0.00000000000E+00  0.73492308467E+03  0.73492308469E+03  0.50400001928E-02 0.  1.
        1   -1    0    0  501    0  0.00000000000E+00  0.00000000000E+00 -0.26236611475E+04  0.26236611475E+04  0.50400001928E-02 0. -1.
    10030    2    1    2    0    0  0.00000000000E+00  0.00000000000E+00 -0.18887380628E+04  0.33585842322E+04  0.27771850091E+04 0.  0.
        2    1    3    3  502    0 -0.71668255674E+03  0.51394762583E+03  0.35274554746E+03  0.94984497182E+03  0.25500000920E-02 0.  1.
       -2    1    3    3    0  502  0.71668255674E+03 -0.51394762583E+03 -0.22414836103E+04  0.24087392603E+04  0.25500000920E-02 0. -1.
</event>
<event>
 5   0  0.1461146E-06  0.2794840E+04  0.7818609E-02  0.8304872E-01
        2   -1    0    0  501    0  0.00000000000E+00  0.00000000000E+00  0.17145825213E+04  0.17145825213E+04  0.25500000920E-02 0.  1.
       -2   -1    0    0    0  501  0.00000000000E+00  0.00000000000E+00 -0.11389263637E+04  0.11389263637E+04  0.25500000920E-02 0. -1.
    10030    2    1    2    0    0  0.00000000000E+00  0.00000000000E+00  0.57565615769E+03  0.28535088850E+04  0.27948404149E+04 0.  0.
        1    1    3    3  502    0 -0.80118715622E+03  0.45908349203E+03  0.13587139211E+04  0.16427909274E+04  0.50400001928E-02 0.  1.
       -1    1    3    3    0  502  0.80118715622E+03 -0.45908349203E+03 -0.78305776339E+03  0.12107179576E+04  0.50400001928E-02 0. -1.
</event>
<event>
 5   0  0.1394410E-06  0.2801860E+04  0.7818609E-02  0.8302691E-01
        2   -1    0    0  501    0  0.00000000000E+00  0.00000000000E+00  0.22056597632E+04  0.22056597632E+04  0.25500000920E-02 0. -1.
       -2   -1    0    0    0  501  0.00000000000E+00  0.00000000000E+00 -0.88980417933E+03  0.88980417933E+03  0.25500000920E-02 0.  1.
    10030    2    1    2    0    0  0.00000000000E+00  0.00000000000E+00  0.13158555838E+04  0.30954639425E+04  0.28018602931E+04 0.  0.
        4    1    3    3  502    0 -0.13688978534E+04  0.25064048706E+03  0.48012310549E+03  0.14721487004E+04  0.12699999809E+01 0.  1.
       -4    1    3    3    0  502  0.13688978534E+04 -0.25064048706E+03  0.83573247836E+03  0.16233152421E+04  0.12699999809E+01 0. -1.
</event>
<event>
 5   0  0.1499888E-06  0.2798797E+04  0.7818609E-02  0.8303642E-01
        2   -1    0    0  501    0  0.00000000000E+00  0.00000000000E+00  0.16352138122E+04  0.16352138122E+04  0.25500000920E-02 0. -1.
       -2   -1    0    0    0  501  0.00000000000E+00  0.00000000000E+00 -0.11975901788E+04  0.11975901788E+04  0.25500000920E-02 0.  1.
    10030    2    1    2    0    0  0.00000000000E+00  0.00000000000E+00  0.43762363345E+03  0.28328039910E+04  0.27987968856E+04 0.  0.
        3    1    3    3  502    0 -0.10916268909E+04 -0.78411106831E+03  0.61320855509E+03  0.14773300845E+04  0.10100000352E+00 0. -1.
       -3    1    3    3    0  502  0.10916268909E+04  0.78411106831E+03 -0.17558492163E+03  0.13554739065E+04  0.10100000352E+00 0.  1.
</event>
<event>
 5   0  0.5362952E-07  0.2803023E+04  0.7818609E-02  0.8302331E-01
       -1   -1    0    0    0  501  0.00000000000E+00  0.00000000000E+00  0.18223037697E+04  0.18223037697E+04  0.50400001928E-02 0.  1.
        1   -1    0    0  501    0  0.00000000000E+00  0.00000000000E+00 -0.10778852022E+04  0.10778852022E+04  0.50400001928E-02 0. -1.
    10030    2    1    2    0    0  0.00000000000E+00  0.00000000000E+00  0.74441856744E+03  0.29001889719E+04  0.28030228449E+04 0.  0.
        1    1    3    3  502    0  0.88498952041E+03  0.40886358641E+03 -0.66960020310E+03  0.11826835230E+04  0.50400001928E-02 0. -1.
       -1    1    3    3    0  502 -0.88498952041E+03 -0.40886358641E+03  0.14140187705E+04  0.17175054489E+04  0.50400001928E-02 0.  1.
</event>
<event>
 5   0  0.1377807E-06  0.2797932E+04  0.7818609E-02  0.8303911E-01
       -2   -1    0    0    0  501  0.00000000000E+00  0.00000000000E+00  0.77930511838E+03  0.77930511838E+03  0.25500000920E-02 0.  1.
        2   -1    0    0  501    0  0.00000000000E+00  0.00000000000E+00 -0.25113481989E+04  0.25113481989E+04  0.25500000920E-02 0. -1.
    10030    2    1    2    0    0  0.00000000000E+00  0.00000000000E+00 -0.17320430806E+04  0.32906533173E+04  0.27979324548E+04 0.  0.
        2    1    3    3  502    0 -0.82387337730E+03 -0.92140227328E+03 -0.95376858998E+02  0.12396960258E+04  0.25500000920E-02 0.  1.
       -2    1    3    3    0  502  0.82387337730E+03  0.92140227328E+03 -0.16366662216E+04  0.20509572916E+04  0.25500000920E-02 0. -1.
</event>
<event>
 5   0  0.5362952E-07  0.2798723E+04  0.7818609E-02  0.8303665E-01
       -1   -1    0    0    0  501  0.00000000000E+00  0.00000000000E+00  0.14772949313E+04  0.14772949313E+04  0.50400001928E-02 0. -1.
        1   -1    0    0  501    0  0.00000000000E+00  0.00000000000E+00 -0.13255390671E+04  0.13255390671E+04  0.50400001928E-02 0.  1.
    10030    2    1    2    0    0  0.00000000000E+00  0.00000000000E+00  0.15175586417E+03  0.28028339984E+04  0.27987226694E+04 0.  0.
        1    1    3    3  502    0 -0.13645254852E+04  0.73365111900E+02  0.37781694252E+03  0.14177651010E+04  0.50400001928E-02 0. -1.
       -1    1    3    3    0  502  0.13645254852E+04 -0.73365111900E+02 -0.22606107835E+03  0.13850688974E+04  0.50400001928E-02 0.  1.
</event>
<event>
 5   0  0.5214658E-07  0.2799876E+04  0.7818609E-02  0.8303307E-01
       -1   -1    0    0    0  501  0.00000000000E+00  0.00000000000E+00  0.10557026348E+04  0.10557026348E+04  0.50400001928E-02 0.  1.
        1   -1    0    0  501    0  0.00000000000E+00  0.00000000000E+00 -0.18564194397E+04  0.18564194397E+04  0.50400001928E-02 0. -1.
    10030    2    1    2    0    0  0.00000000000E+00  0.00000000000E+00 -0.80071680486E+03  0.29121220745E+04  0.27998763500E+04 0.  0.
        2    1    3    3  502    0 -0.13649253940E+03  0.13870076068E+04 -0.26313523539E+03  0.14183301685E+04  0.25500000920E-02 0.  1.
       -2    1    3    3    0  502  0.13649253940E+03 -0.13870076068E+04 -0.53758156947E+03  0.14937919061E+04  0.25500000920E-02 0. -1.
</event>
<event>
 5   0  0.1439207E-06  0.2809570E+04  0.7818609E-02  0.8300303E-01
        2   -1    0    0  501    0  0.00000000000E+00  0.00000000000E+00  0.21769179956E+04  0.21769179956E+04  0.25500000920E-02 0.  1.
       -2   -1    0    0    0  501  0.00000000000E+00  0.00000000000E+00 -0.90652074370E+03  0.90652074370E+03  0.25500000920E-02 0. -1.
    10030    2    1    2    0    0  0.00000000000E+00  0.00000000000E+00  0.12703972519E+04  0.30834387393E+04  0.28095703019E+04 0.  0.
        5    1    3    3  502    0  0.25228875142E+03  0.15701550251E+03  0.21420212345E+04  0.21625402981E+04  0.46999998093E+01 0.  1.
       -5    1    3    3    0  502 -0.25228875142E+03 -0.15701550251E+03 -0.87162398252E+03  0.92089844121E+03  0.46999998093E+01 0. -1.
</event>
<event>
 5   0  0.5362952E-07  0.2799727E+04  0.7818609E-02  0.8303353E-01
        1   -1    0    0  501    0  0.00000000000E+00  0.00000000000E+00  0.21407138205E+04  0.21407138205E+04  0.50400001928E-02 0. -1.
       -1   -1    0    0    0  501  0.00000000000E+00  0.00000000000E+00 -0.91540406758E+03  0.91540406760E+03  0.50400001928E-02 0.  1.
    10030    2    1    2    0    0  0.00000000000E+00  0.00000000000E+00  0.12253097529E+04  0.30561178881E+04  0.27997272287E+04 0.  0.
        1    1    3    3  502    0 -0.46756194607E+03  0.63929459700E+03 -0.64730419075E+03  0.10228951415E+04  0.50400001928E-02 0.  1.
       -1    1    3    3    0  502  0.46756194607E+03 -0.63929459700E+03  0.18726139437E+04  0.20332227466E+04  0.50400001928E-02 0. -1.
</event>
<event>
 5   0  0.1394410E-06  0.2801353E+04  0.7818609E-02  0.8302849E-01
        2   -1    0    0  501    0  0.00000000000E+00  0.00000000000E+00  0.12048188705E+04  0.12048188705E+04  0.25500000920E-02 0. -1.
       -2   -1    0    0    0  501  0.00000000000E+00  0.00000000000E+00 -0.16283728357E+04  0.16283728357E+04  0.25500000920E-02 0.  1.
    10030    2    1    2    0    0  0.00000000000E+00  0.00000000000E+00 -0.42355396517E+03  0.28331917062E+04  0.28013527594E+04 0.  0.
        4    1    3    3  502    0  0.28269746860E+03 -0.61338026105E+03  0.10292553133E+04  0.12310651145E+04  0.12699999809E+01 0. -1.
       -4    1    3    3    0  502 -0.28269746860E+03  0.61338026105E+03 -0.14528092784E+04  0.16021265917E+04  0.12699999809E+01 0.  1.
</event>
<event>
 5   0  0.4710000E-07  0.2799604E+04  0.7818609E-02  0.8303391E-01
        3   -1    0    0  501    0  0.00000000000E+00  0.00000000000E+00  0.12353551977E+04  0.12353552018E+04  0.10100000352E+00 0.  1.
       -3   -1    0    0    0  501  0.00000000000E+00  0.00000000000E+00 -0.15861399104E+04  0.15861399136E+04  0.10100000352E+00 0. -1.
    10030    2    1    2    0    0  0.00000000000E+00  0.00000000000E+00 -0.35078471264E+03  0.28214951154E+04  0.27996043956E+04 0.  0.
        1    1    3    3  502    0  0.13718402418E+04  0.10019435100E+03  0.86372337951E+02  0.13782034457E+04  0.50400001928E-02 0.  1.
       -1    1    3    3    0  502 -0.13718402418E+04 -0.10019435100E+03 -0.43715705059E+03  0.14432916697E+04  0.50400001928E-02 0. -1.
</event>
<event>
 5   0  0.1499888E-06  0.2801892E+04  0.7818609E-02  0.8302681E-01
        2   -1    0    0  501    0  0.00000000000E+00  0.00000000000E+00  0.24347733611E+04  0.24347733611E+04  0.25500000920E-02 0.  1.
       -2   -1    0    0    0  501  0.00000000000E+00  0.00000000000E+00 -0.80609113495E+03  0.80609113495E+03  0.25500000920E-02 0. -1.
    10030    2    1    2    0    0  0.00000000000E+00  0.00000000000E+00  0.16286822262E+04  0.32408644961E+04  0.28018916624E+04 0.  0.
        3    1    3    3  502    0  0.13684660653E+04  0.45208308862E+02  0.47140050459E+03  0.14480889506E+04  0.10100000352E+00 0. -1.
       -3    1    3    3    0  502 -0.13684660653E+04 -0.45208308862E+02  0.11572817216E+04  0.17927755454E+04  0.10100000352E+00 0.  1.
</event>
<event>
 5   0  0.1499888E-06  0.2801994E+04  0.7818609E-02  0.8302650E-01
        2   -1    0    0  501    0  0.00000000000E+00  0.00000000000E+00  0.13258573532E+04  0.13258573532E+04  0.25500000920E-02 0. -1.
       -2   -1    0    0    0  501  0.00000000000E+00  0.00000000000E+00 -0.14803949481E+04  0.14803949481E+04  0.25500000920E-02 0.  1.
    10030    2    1    2    0    0  0.00000000000E+00  0.00000000000E+00 -0.15453759494E+03  0.28062523013E+04  0.28019939525E+04 0.  0.
        3    1    3    3  502    0  0.69464683910E+03  0.60654471789E+03  0.97901970427E+03  0.13449573664E+04  0.10100000352E+00 0. -1.
       -3    1    3    3    0  502 -0.69464683910E+03 -0.60654471789E+03 -0.11335572992E+04  0.14612949349E+04  0.10100000352E+00 0.  1.
</event>
<event>
 5   0  0.5551565E-07  0.2797841E+04  0.7818609E-02  0.8303939E-01
       -1   -1    0    0    0  501  0.00000000000E+00  0.00000000000E+00  0.17584876515E+04  0.17584876515E+04  0.50400001928E-02 0. -1.
        1   -1    0    0  501    0  0.00000000000E+00  0.00000000000E+00 -0.11128755714E+04  0.11128755714E+04  0.50400001928E-02 0.  1.
    10030    2    1    2    0    0  0.00000000000E+00  0.00000000000E+00  0.64561208010E+03  0.28713632229E+04  0.27978405601E+04 0.  0.
        3    1    3    3  502    0 -0.29286344276E+03  0.41546293946E+03 -0.10147459330E+04  0.11349395441E+04  0.10100000352E+00 0.  1.
       -3    1    3    3    0  502  0.29286344276E+03 -0.41546293946E+03  0.16603580131E+04  0.17364236787E+04  0.10100000352E+00 0. -1.
</event>
<event>
 5   0  0.1377807E-06  0.2798819E+04  0.7818609E-02  0.8303635E-01
       -2   -1    0    0    0  501  0.00000000000E+00  0.00000000000E+00  0.87533855364E+03  0.87533855364E+03  0.25500000920E-02 0. -1.
        2   -1    0    0  501    0  0.00000000000E+00  0.00000000000E+00 -0.22372455027E+04  0.22372455027E+04  0.25500000920E-02 0.  1.
    10030    2    1    2    0    0  0.00000000000E+00  0.00000000000E+00 -0.13619069491E+04  0.31125840563E+04  0.27988192099E+04 0.  0.
        2    1    3    3  502    0  0.98411588951E+02 -0.13763330060E+04 -0.94026710361E+03  0.16697543563E+04  0.25500000920E-02 0.  1.
       -2    1    3    3    0  502 -0.98411588951E+02  0.13763330060E+04 -0.42163984545E+03  0.14428297001E+04  0.25500000920E-02 0. -1.
</event>
<event>
 5   0  0.1394410E-06  0.2797525E+04  0.7818609E-02  0.8304037E-01
       -2   -1    0    0    0  501  0.00000000000E+00  0.00000000000E+00  0.12211081977E+04  0.12211081977E+04  0.25500000920E-02 0. -1.
        2   -1    0    0  501    0  0.00000000000E+00  0.00000000000E+00 -0.16022626931E+04  0.16022626931E+04  0.25500000920E-02 0.  1.
    10030    2    1    2    0    0  0.00000000000E+00  0.00000000000E+00 -0.38115449541E+03  0.28233708908E+04  0.27975246984E+04 0.  0.
        4    1    3    3  502    0  0.13759197591E+04 -0.74192997932E+02 -0.43337151363E+03  0.14444626219E+04  0.12699999809E+01 0.  1.
       -4    1    3    3    0  502 -0.13759197591E+04  0.74192997932E+02  0.52217018222E+02  0.13789082690E+04  0.12699999809E+01 0. -1.
</event>
<event>
 5   0  0.1394410E-06  0.2778040E+04  0.7818609E-02  0.8310119E-01
       -2   -1    0    0    0  501  0.00000000000E+00  0.00000000000E+00  0.98343938885E+03  0.98343938885E+03  0.25500000920E-02 0. -1.
        2   -1    0    0  501    0  0.00000000000E+00  0.00000000000E+00 -0.19618667869E+04  0.19618667869E+04  0.25500000920E-02 0.  1.
    10030    2    1    2    0    0  0.00000000000E+00  0.00000000000E+00 -0.97842739805E+03  0.29453061757E+04  0.27780403697E+04 0.  0.
        4    1    3    3  502    0  0.90755319121E+03  0.10340260498E+04 -0.28662536561E+03  0.14053534714E+04  0.12699999809E+01 0.  1.
       -4    1    3    3    0  502 -0.90755319121E+03 -0.10340260498E+04 -0.69180203244E+03  0.15399527043E+04  0.12699999809E+01 0. -1.
</event>
<event>
 5   0  0.5282098E-07  0.2765140E+04  0.7818609E-02  0.8314173E-01
        1   -1    0    0  501    0  0.00000000000E+00  0.00000000000E+00  0.11959503553E+04  0.11959503553E+04  0.50400001928E-02 0.  1.
       -1   -1    0    0    0  501  0.00000000000E+00  0.00000000000E+00 -0.15983107561E+04  0.15983107561E+04  0.50400001928E-02 0. -1.
    10030    2    1    2    0    0  0.00000000000E+00  0.00000000000E+00 -0.40236040083E+03  0.27942611114E+04  0.27651403701E+04 0.  0.
        4    1    3    3  502    0  0.29069868340E+03 -0.95093967344E+03  0.76951223402E+03  0.12573554304E+04  0.12699999809E+01 0.  1.
       -4    1    3    3    0  502 -0.29069868340E+03  0.95093967344E+03 -0.11718726349E+04  0.15369056810E+04  0.12699999809E+01 0. -1.
</event>
<event>
 5   0  0.5297741E-07  0.2803556E+04  0.7818609E-02  0.8302165E-01
       -1   -1    0    0    0  501  0.00000000000E+00  0.00000000000E+00  0.13018025711E+04  0.13018025711E+04  0.50400001928E-02 0.  1.
        1   -1    0    0  501    0  0.00000000000E+00  0.00000000000E+00 -0.15094315797E+04  0.15094315797E+04  0.50400001928E-02 0. -1.
    10030    2    1    2    0    0  0.00000000000E+00  0.00000000000E+00 -0.20762900857E+03  0.28112341508E+04  0.28035562498E+04 0.  0.
        5    1    3    3  502    0  0.81508587793E+03  0.43011840744E+03  0.95529443569E+03  0.13273945840E+04  0.46999998093E+01 0.  1.
       -5    1    3    3    0  502 -0.81508587793E+03 -0.43011840744E+03 -0.11629234443E+04  0.14838395668E+04  0.46999998093E+01 0. -1.
</event>
<event>
 5   0  0.5362952E-07  0.2811184E+04  0.7818609E-02  0.8299805E-01
       -1   -1    0    0    0  501  0.00000000000E+00  0.00000000000E+00  0.12762887107E+04  0.12762887107E+04  0.50400001928E-02 0.  1.
        1   -1    0    0  501    0  0.00000000000E+00  0.00000000000E+00 -0.15479954479E+04  0.15479954480E+04  0.50400001928E-02 0. -1.
    10030    2    1    2    0    0  0.00000000000E+00  0.00000000000E+00 -0.27170673722E+03  0.28242841587E+04  0.28111841736E+04 0.  0.
        1    1    3    3  502    0 -0.12667873177E+03 -0.43421342003E+03  0.12011751525E+04  0.12835149170E+04  0.50400001928E-02 0.  1.
       -1    1    3    3    0  502  0.12667873177E+03  0.43421342003E+03 -0.14728818897E+04  0.15407692417E+04  0.50400001928E-02 0. -1.
</event>
<event>
 5   0  0.5282098E-07  0.2799141E+04  0.7818609E-02  0.8303535E-01
       -1   -1    0    0    0  501  0.00000000000E+00  0.00000000000E+00  0.83271072442E+03  0.83271072443E+03  0.50400001928E-02 0.  1.
        1   -1    0    0  501    0  0.00000000000E+00  0.00000000000E+00 -0.23523142197E+04  0.23523142197E+04  0.50400001928E-02 0. -1.
    10030    2    1    2    0    0  0.00000000000E+00  0.00000000000E+00 -0.15196034953E+04  0.31850249442E+04  0.27991407810E+04 0.  0.
        4    1    3    3  502    0 -0.67294626207E+03 -0.56802610468E+03  0.47794797578E+03  0.10019711611E+04  0.12699999809E+01 0.  1.
       -4    1    3    3    0  502  0.67294626207E+03  0.56802610468E+03 -0.19975514711E+04  0.21830537831E+04  0.12699999809E+01 0. -1.
</event>
<event>
 5   0  0.5362952E-07  0.2791539E+04  0.7818609E-02  0.8305900E-01
       -1   -1    0    0    0  501  0.00000000000E+00  0.00000000000E+00  0.12676280668E+04  0.12676280669E+04  0.50400001928E-02 0. -1.
        1   -1    0    0  501    0  0.00000000000E+00  0.00000000000E+00 -0.15368642183E+04  0.15368642183E+04  0.50400001928E-02 0.  1.
    10030    2    1    2    0    0  0.00000000000E+00  0.00000000000E+00 -0.26923615147E+03  0.28044922852E+04  0.27915388001E+04 0.  0.
        1    1    3    3  502    0  0.70596702037E+03 -0.11771393517E+04 -0.38902372175E+03  0.14266695284E+04  0.50400001928E-02 0.  1.
       -1    1    3    3    0  502 -0.70596702037E+03  0.11771393517E+04  0.11978757029E+03  0.13778227568E+04  0.50400001928E-02 0. -1.
</event>
<event>
 5   0  0.1377807E-06  0.2818221E+04  0.7818609E-02  0.8297634E-01
        2   -1    0    0  501    0  0.00000000000E+00  0.00000000000E+00  0.18457358517E+04  0.18457358517E+04  0.25500000920E-02 0. -1.
       -2   -1    0    0    0  501  0.00000000000E+00  0.00000000000E+00 -0.10757724328E+04  0.10757724328E+04  0.25500000920E-02 0.  1.
    10030    2    1    2    0    0  0.00000000000E+00  0.00000000000E+00  0.76996341889E+03  0.29215082846E+04  0.28182205362E+04 0.  0.
        2    1    3    3  502    0 -0.27122939392E+03 -0.13356899284E+04  0.75580515940E+03  0.15584846512E+04  0.25500000920E-02 0. -1.
       -2    1    3    3    0  502  0.27122939392E+03  0.13356899284E+04  0.14158259490E+02  0.13630236334E+04  0.25500000920E-02 0.  1.
</event>
<event>
 5   0  0.5282098E-07  0.2800689E+04  0.7818609E-02  0.8303054E-01
        1   -1    0    0  501    0  0.00000000000E+00  0.00000000000E+00  0.15727436195E+04  0.15727436195E+04  0.50400001928E-02 0.  1.
       -1   -1    0    0    0  501  0.00000000000E+00  0.00000000000E+00 -0.12468435428E+04  0.12468435428E+04  0.50400001928E-02 0. -1.
    10030    2    1    2    0    0  0.00000000000E+00  0.00000000000E+00  0.32590007672E+03  0.28195871623E+04  0.28006893626E+04 0.  0.
        4    1    3    3  502    0 -0.13932558227E+04 -0.21044373640E+02  0.30302535043E+03  0.14259840914E+04  0.12699999809E+01 0.  1.
       -4    1    3    3    0  502  0.13932558227E+04  0.21044373640E+02  0.22874726291E+02  0.13936030708E+04  0.12699999809E+01 0. -1.
</event>
<event>
 5   0  0.1377807E-06  0.2778198E+04  0.7818609E-02  0.8310069E-01
       -2   -1    0    0    0  501  0.00000000000E+00  0.00000000000E+00  0.98669612331E+03  0.98669612331E+03  0.25500000920E-02 0. -1.
        2   -1    0    0  501    0  0.00000000000E+00  0.00000000000E+00 -0.19556127087E+04  0.19556127087E+04  0.25500000920E-02 0.  1.
    10030    2    1    2    0    0  0.00000000000E+00  0.00000000000E+00 -0.96891658543E+03  0.29423088321E+04  0.27781976016E+04 0.  0.
        2    1    3    3  502    0 -0.36546976998E+02 -0.13503953703E+04 -0.82713308921E+03  0.15839988904E+04  0.25500000920E-02 0.  1.
       -2    1    3    3    0  502  0.36546976998E+02  0.13503953703E+04 -0.14178349622E+03  0.13583099416E+04  0.25500000920E-02 0. -1.
</event>
<event>
 5   0  0.5362952E-07  0.2798227E+04  0.7818609E-02  0.8303819E-01
        1   -1    0    0  501    0  0.00000000000E+00  0.00000000000E+00  0.16383243550E+04  0.16383243550E+04  0.50400001928E-02 0.  1.
       -1   -1    0    0    0  501  0.00000000000E+00  0.00000000000E+00 -0.11948293501E+04  0.11948293502E+04  0.50400001928E-02 0. -1.
    10030    2    1    2    0    0  0.00000000000E+00  0.00000000000E+00  0.44349500486E+03  0.28331537052E+04  0.27982265987E+04 0.  0.
        1    1    3    3  502    0  0.10082973866E+04  0.36330674362E+02 -0.75964699625E+03  0.12629517396E+04  0.50400001928E-02 0. -1.
       -1    1    3    3    0  502 -0.10082973866E+04 -0.36330674362E+02  0.12031420011E+04  0.15702019655E+04  0.50400001928E-02 0.  1.
</event>
<event>
 5   0  0.5551565E-07  0.2799550E+04  0.7818609E-02  0.8303408E-01
        1   -1    0    0  501    0  0.00000000000E+00  0.00000000000E+00  0.18812047996E+04  0.18812047996E+04  0.50400001928E-02 0. -1.
       -1   -1    0    0    0  501  0.00000000000E+00  0.00000000000E+00 -0.10415504712E+04  0.10415504712E+04  0.50400001928E-02 0.  1.
    10030    2    1    2    0    0  0.00000000000E+00  0.00000000000E+00  0.83965432841E+03  0.29227552708E+04  0.27995497820E+04 0.  0.
        3    1    3    3  502    0  0.56576848022E+03 -0.39166022783E+03 -0.85278432034E+03  0.10957795465E+04  0.10100000352E+00 0.  1.
       -3    1    3    3    0  502 -0.56576848022E+03  0.39166022783E+03  0.16924386487E+04  0.18269757243E+04  0.10100000352E+00 0. -1.
</event>
<event>
 5   0  0.1377807E-06  0.2798403E+04  0.7818609E-02  0.8303764E-01
       -2   -1    0    0    0  501  0.00000000000E+00  0.00000000000E+00  0.92367585284E+03  0.92367585284E+03  0.25500000920E-02 0. -1.
        2   -1    0    0  501    0  0.00000000000E+00  0.00000000000E+00 -0.21195365957E+04  0.21195365957E+04  0.25500000920E-02 0.  1.
    10030    2    1    2    0    0  0.00000000000E+00  0.00000000000E+00 -0.11958607429E+04  0.30432124485E+04  0.27984029536E+04 0.  0.
        2    1    3    3  502    0 -0.55883980624E+03  0.54212960963E+03 -0.18621991645E+04  0.20184132805E+04  0.25500000920E-02 0.  1.
       -2    1    3    3    0  502  0.55883980624E+03 -0.54212960963E+03  0.66633842163E+03  0.10247991680E+04  0.25500000920E-02 0. -1.
</event>
<event>
 5   0  0.1461146E-06  0.2800585E+04  0.7818609E-02  0.8303087E-01
       -2   -1    0    0    0  501  0.00000000000E+00  0.00000000000E+00  0.99646539103E+03  0.99646539104E+03  0.25500000920E-02 0.  1.
        2   -1    0    0  501    0  0.00000000000E+00  0.00000000000E+00 -0.19677739035E+04  0.19677739035E+04  0.25500000920E-02 0. -1.
    10030    2    1    2    0    0  0.00000000000E+00  0.00000000000E+00 -0.97130851242E+03  0.29642392945E+04  0.28005846477E+04 0.  0.
        1    1    3    3  502    0 -0.67548624506E+03 -0.92120886958E+03 -0.13428639250E+04  0.17630062308E+04  0.50400001928E-02 0. -1.
       -1    1    3    3    0  502  0.67548624506E+03  0.92120886958E+03  0.37155541260E+03  0.12012330637E+04  0.50400001928E-02 0.  1.
</event>
<event>
 5   0  0.1439207E-06  0.2803074E+04  0.7818609E-02  0.8302315E-01
       -2   -1    0    0    0  501  0.00000000000E+00  0.00000000000E+00  0.97704575365E+03  0.97704575365E+03  0.25500000920E-02 0. -1.
        2   -1    0    0  501    0  0.00000000000E+00  0.00000000000E+00 -0.20104539478E+04  0.20104539478E+04  0.25500000920E-02 0.  1.
    10030    2    1    2    0    0  0.00000000000E+00  0.00000000000E+00 -0.10334081942E+04  0.29874997015E+04  0.28030736648E+04 0.  0.
        5    1    3    3  502    0 -0.96973099904E+03 -0.66202621074E+03  0.29890810672E+03  0.12116208402E+04  0.46999998093E+01 0. -1.
       -5    1    3    3    0  502  0.96973099904E+03  0.66202621074E+03 -0.13323163009E+04  0.17758788612E+04  0.46999998093E+01 0.  1.
</event>
<event>
 5   0  0.5282098E-07  0.2797962E+04  0.7818609E-02  0.8303901E-01
        1   -1    0    0  501    0  0.00000000000E+00  0.00000000000E+00  0.10244952135E+04  0.10244952135E+04  0.50400001928E-02 0. -1.
       -1   -1    0    0    0  501  0.00000000000E+00  0.00000000000E+00 -0.19103534872E+04  0.19103534872E+04  0.50400001928E-02 0.  1.
    10030    2    1    2    0    0  0.00000000000E+00  0.00000000000E+00 -0.88585827373E+03  0.29348487007E+04  0.27979621182E+04 0.  0.
        4    1    3    3  502    0  0.10843859495E+04 -0.12957032392E+03  0.47418354719E+03  0.11906019510E+04  0.12699999809E+01 0. -1.
       -4    1    3    3    0  502 -0.10843859495E+04  0.12957032392E+03 -0.13600418209E+04  0.17442467497E+04  0.12699999809E+01 0.  1.
</event>
<event>
 5   0  0.5362952E-07  0.2800720E+04  0.7818609E-02  0.8303045E-01
        1   -1    0    0  501    0  0.00000000000E+00  0.00000000000E+00  0.15014479289E+04  0.15014479289E+04  0.50400001928E-02 0. -1.
       -1   -1    0    0    0  501  0.00000000000E+00  0.00000000000E+00 -0.13060780045E+04  0.13060780045E+04  0.50400001928E-02 0.  1.
    10030    2    1    2    0    0  0.00000000000E+00  0.00000000000E+00  0.19536992441E+03  0.28075259334E+04  0.28007199895E+04 0.  0.
        1    1    3    3  502    0  0.13646423687E+04 -0.10469352682E+03 -0.19934334914E+03  0.13830933807E+04  0.50400001928E-02 0. -1.
       -1    1    3    3    0  502 -0.13646423687E+04  0.10469352682E+03  0.39471327355E+03  0.14244325527E+04  0.50400001928E-02 0.  1.
</event>
<event>
 5   0  0.5297741E-07  0.2799511E+04  0.7818609E-02  0.8303420E-01
        1   -1    0    0  501    0  0.00000000000E+00  0.00000000000E+00  0.16197995732E+04  0.16197995732E+04  0.50400001928E-02 0.  1.
       -1   -1    0    0    0  501  0.00000000000E+00  0.00000000000E+00 -0.12096036195E+04  0.12096036195E+04  0.50400001928E-02 0. -1.
    10030    2    1    2    0    0  0.00000000000E+00  0.00000000000E+00  0.41019595376E+03  0.28294031927E+04  0.27995109763E+04 0.  0.
        5    1    3    3  502    0 -0.99167451063E+02 -0.21785142362E+03  0.15989539828E+04  0.16167774600E+04  0.46999998093E+01 0.  1.
       -5    1    3    3    0  502  0.99167451063E+02  0.21785142362E+03 -0.11887580290E+04  0.12126257327E+04  0.46999998093E+01 0. -1.
</event>
<event>
 5   0  0.1499888E-06  0.2813149E+04  0.7818609E-02  0.8299198E-01
       -2   -1    0    0    0  501  0.00000000000E+00  0.00000000000E+00  0.11112263520E+04  0.11112263520E+04  0.25500000920E-02 0. -1.
        2   -1    0    0  501    0  0.00000000000E+00  0.00000000000E+00 -0.17804220964E+04  0.17804220964E+04  0.25500000920E-02 0.  1.
    10030    2    1    2    0    0  0.00000000000E+00  0.00000000000E+00 -0.66919574438E+03  0.28916484484E+04  0.28131490904E+04 0.  0.
        3    1    3    3  502    0 -0.13765473045E+04  0.27970769696E+03 -0.40966350219E+03  0.14631961839E+04  0.10100000352E+00 0.  1.
       -3    1    3    3    0  502  0.13765473045E+04 -0.27970769696E+03 -0.25953224219E+03  0.14284522646E+04  0.10100000352E+00 0. -1.
</event>
<event>
 5   0  0.1377807E-06  0.2798798E+04  0.7818609E-02  0.8303642E-01
       -2   -1    0    0    0  501  0.00000000000E+00  0.00000000000E+00  0.13647248850E+04  0.13647248850E+04  0.25500000920E-02 0.  1.
        2   -1    0    0  501    0  0.00000000000E+00  0.00000000000E+00 -0.14349544727E+04  0.14349544727E+04  0.25500000920E-02 0. -1.
    10030    2    1    2    0    0  0.00000000000E+00  0.00000000000E+00 -0.70229587659E+02  0.27996793577E+04  0.27987983691E+04 0.  0.
        2    1    3    3  502    0  0.12757157618E+04  0.48125249726E+03  0.28004533620E+03  0.13919339285E+04  0.25500000920E-02 0.  1.
       -2    1    3    3    0  502 -0.12757157618E+04 -0.48125249726E+03 -0.35027492386E+03  0.14077454292E+04  0.25500000920E-02 0. -1.
</event>
<event>
 5   0  0.5214658E-07  0.2800461E+04  0.7818609E-02  0.8303125E-01
       -1   -1    0    0    0  501  0.00000000000E+00  0.00000000000E+00  0.12006451389E+04  0.12006451389E+04  0.50400001928E-02 0. -1.
        1   -1    0    0  501    0  0.00000000000E+00  0.00000000000E+00 -0.16329938517E+04  0.16329938517E+04  0.50400001928E-02 0.  1.
    10030    2    1    2    0    0  0.00000000000E+00  0.00000000000E+00 -0.43234871281E+03  0.28336389907E+04  0.28004614834E+04 0.  0.
        2    1    3    3  502    0 -0.27299583483E+01 -0.42047477120E+03  0.11352533599E+04  0.12106224337E+04  0.25500000920E-02 0. -1.
       -2    1    3    3    0  502  0.27299583483E+01  0.42047477120E+03 -0.15676020727E+04  0.16230165570E+04  0.25500000920E-02 0.  1.
</event>
<event>
 5   0  0.5214658E-07  0.2800952E+04  0.7818609E-02  0.8302973E-01
        1   -1    0    0  501    0  0.00000000000E+00  0.00000000000E+00  0.20403245628E+04  0.20403245628E+04  0.50400001928E-02 0. -1.
       -1   -1    0    0    0  501  0.00000000000E+00  0.00000000000E+00 -0.96128507884E+03  0.96128507886E+03  0.50400001928E-02 0.  1.
    10030    2    1    2    0    0  0.00000000000E+00  0.00000000000E+00  0.10790394839E+04  0.30016096416E+04  0.28009523796E+04 0.  0.
        2    1    3    3  502    0 -0.45517292320E+03 -0.12841714024E+04  0.19217813955E+03  0.13759400489E+04  0.25500000920E-02 0.  1.
       -2    1    3    3    0  502  0.45517292320E+03  0.12841714024E+04  0.88686134437E+03  0.16256695928E+04  0.25500000920E-02 0. -1.
</event>
<event>
 5   0  0.1394410E-06  0.2808416E+04  0.7818609E-02  0.8300660E-01
       -2   -1    0    0    0  501  0.00000000000E+00  0.00000000000E+00  0.66299782353E+03  0.66299782353E+03  0.25500000920E-02 0.  1.
        2   -1    0    0  501    0  0.00000000000E+00  0.00000000000E+00 -0.29740669577E+04  0.29740669577E+04  0.25500000920E-02 0. -1.
    10030    2    1    2    0    0  0.00000000000E+00  0.00000000000E+00 -0.23110691341E+04  0.36370647812E+04  0.28084158666E+04 0.  0.
        4    1    3    3  502    0  0.13291468059E+04  0.32141531193E+03 -0.74221125222E+03  0.15558978727E+04  0.12699999809E+01 0.  1.
       -4    1    3    3    0  502 -0.13291468059E+04 -0.32141531193E+03 -0.15688578819E+04  0.20811669085E+04  0.12699999809E+01 0. -1.
</event>
<event>
 5   0  0.5551565E-07  0.2800282E+04  0.7818609E-02  0.8303181E-01
       -1   -1    0    0    0  501  0.00000000000E+00  0.00000000000E+00  0.12189322003E+04  0.12189322003E+04  0.50400001928E-02 0.  1.
        1   -1    0    0  501    0  0.00000000000E+00  0.00000000000E+00 -0.16082881451E+04  0.16082881451E+04  0.50400001928E-02 0. -1.
    10030    2    1    2    0    0  0.00000000000E+00  0.00000000000E+00 -0.38935594480E+03  0.28272203455E+04  0.28002815627E+04 0.  0.
        3    1    3    3  502    0  0.10918276800E+04  0.74254502856E+03  0.27556375385E+03  0.13488499527E+04  0.10100000352E+00 0.  1.
       -3    1    3    3    0  502 -0.10918276800E+04 -0.74254502856E+03 -0.66491969865E+03  0.14783703928E+04  0.10100000352E+00 0. -1.
</event>
<event>
 5   0  0.1461146E-06  0.2711464E+04  0.7818609E-02  0.8331295E-01
        2   -1    0    0  501    0  0.00000000000E+00  0.00000000000E+00  0.14704353748E+04  0.14704353748E+04  0.25500000920E-02 0.  1.
       -2   -1    0    0    0  501  0.00000000000E+00  0.00000000000E+00 -0.12499766541E+04  0.12499766541E+04  0.25500000920E-02 0. -1.
    10030    2    1    2    0    0  0.00000000000E+00  0.00000000000E+00  0.22045872071E+03  0.27204120289E+04  0.27114644676E+04 0.  0.
        1    1    3    3  502    0  0.21584493068E+03  0.10765365810E+04  0.90814604721E+03  0.14248681649E+04  0.50400001928E-02 0. -1.
       -1    1    3    3    0  502 -0.21584493068E+03 -0.10765365810E+04 -0.68768732649E+03  0.12955438639E+04  0.50400001928E-02 0.  1.
</event>
<event>
 5   0  0.5214658E-07  0.2795060E+04  0.7818609E-02  0.8304804E-01
        1   -1    0    0  501    0  0.00000000000E+00  0.00000000000E+00  0.12120761431E+04  0.12120761431E+04  0.50400001928E-02 0.  1.
       -1   -1    0    0    0  501  0.00000000000E+00  0.00000000000E+00 -0.16113594545E+04  0.16113594545E+04  0.50400001928E-02 0. -1.
    10030    2    1    2    0    0  0.00000000000E+00  0.00000000000E+00 -0.39928331144E+03  0.28234355976E+04  0.27950601802E+04 0.  0.
        2    1    3    3  502    0  0.12902360882E+03  0.12629340489E+04 -0.78990316203E+03  0.14951911279E+04  0.25500000920E-02 0. -1.
       -2    1    3    3    0  502 -0.12902360882E+03 -0.12629340489E+04  0.39061985058E+03  0.13282444697E+04  0.25500000920E-02 0.  1.
</event>
<event>
 5   0  0.5282098E-07  0.2807139E+04  0.7818609E-02  0.8301055E-01
       -1   -1    0    0    0  501  0.00000000000E+00  0.00000000000E+00  0.75328677425E+03  0.75328677426E+03  0.50400001928E-02 0. -1.
        1   -1    0    0  501    0  0.00000000000E+00  0.00000000000E+00 -0.26152160140E+04  0.26152160140E+04  0.50400001928E-02 0.  1.
    10030    2    1    2    0    0  0.00000000000E+00  0.00000000000E+00 -0.18619292398E+04  0.33685027883E+04  0.28071392094E+04 0.  0.
        4    1    3    3  502    0 -0.26740897342E+03  0.12490270182E+04 -0.23288112622E+03  0.12983879556E+04  0.12699999809E+01 0. -1.
       -4    1    3    3    0  502  0.26740897342E+03 -0.12490270182E+04 -0.16290481135E+04  0.20701148327E+04  0.12699999809E+01 0.  1.
</event>
<event>
 5   0  0.1394410E-06  0.2801532E+04  0.7818609E-02  0.8302793E-01
        2   -1    0    0  501    0  0.00000000000E+00  0.00000000000E+00  0.21990655424E+04  0.21990655424E+04  0.25500000920E-02 0.  1.
       -2   -1    0    0    0  501  0.00000000000E+00  0.00000000000E+00 -0.89226320242E+03  0.89226320242E+03  0.25500000920E-02 0. -1.
    10030    2    1    2    0    0  0.00000000000E+00  0.00000000000E+00  0.13068023400E+04  0.30913287449E+04  0.28015319118E+04 0.  0.
        4    1    3    3  502    0 -0.66440238043E+03 -0.15478871091E+03  0.20033732033E+04  0.21163402072E+04  0.12699999809E+01 0.  1.
       -4    1    3    3    0  502  0.66440238043E+03  0.15478871091E+03 -0.69657086325E+03  0.97498853766E+03  0.12699999809E+01 0. -1.
</event>
<event>
 5   0  0.1377807E-06  0.2797920E+04  0.7818609E-02  0.8303914E-01
        2   -1    0    0  501    0  0.00000000000E+00  0.00000000000E+00  0.23172377671E+04  0.23172377671E+04  0.25500000920E-02 0. -1.
       -2   -1    0    0    0  501  0.00000000000E+00  0.00000000000E+00 -0.84457836177E+03  0.84457836178E+03  0.25500000920E-02 0.  1.
    10030    2    1    2    0    0  0.00000000000E+00  0.00000000000E+00  0.14726594054E+04  0.31618161289E+04  0.27979198539E+04 0.  0.
        2    1    3    3  502    0  0.10828137916E+04  0.84503064314E+03  0.43622199949E+03  0.14411287687E+04  0.25500000920E-02 0.  1.
       -2    1    3    3    0  502 -0.10828137916E+04 -0.84503064314E+03  0.10364374059E+04  0.17206873602E+04  0.25500000920E-02 0. -1.
</event>
<event>
 5   0  0.5297741E-07  0.2794211E+04  0.7818609E-02  0.8305068E-01
        1   -1    0    0  501    0  0.00000000000E+00  0.00000000000E+00  0.11294635766E+04  0.11294635766E+04  0.50400001928E-02 0. -1.
       -1   -1    0    0    0  501  0.00000000000E+00  0.00000000000E+00 -0.17281691906E+04  0.17281691906E+04  0.50400001928E-02 0.  1.
    10030    2    1    2    0    0  0.00000000000E+00  0.00000000000E+00 -0.59870561396E+03  0.28576327672E+04  0.27942112698E+04 0.  0.
        5    1    3    3  502    0 -0.10929794450E+04  0.21632845875E+03 -0.11613842444E+04  0.16094214869E+04  0.46999998093E+01 0.  1.
       -5    1    3    3    0  502  0.10929794450E+04 -0.21632845875E+03  0.56267863048E+03  0.12482112804E+04  0.46999998093E+01 0. -1.
</event>
<event>
 5   0  0.1439207E-06  0.2799041E+04  0.7818609E-02  0.8303566E-01
       -2   -1    0    0    0  501  0.00000000000E+00  0.00000000000E+00  0.77398803936E+03  0.77398803936E+03  0.25500000920E-02 0. -1.
        2   -1    0    0  501    0  0.00000000000E+00  0.00000000000E+00 -0.25306045802E+04  0.25306045802E+04  0.25500000920E-02 0.  1.
    10030    2    1    2    0    0  0.00000000000E+00  0.00000000000E+00 -0.17566165409E+04  0.33045926196E+04  0.27990410340E+04 0.  0.
        5    1    3    3  502    0  0.53653168814E+03 -0.12889292570E+04 -0.99296003854E+03  0.17132415504E+04  0.46999998093E+01 0. -1.
       -5    1    3    3    0  502 -0.53653168814E+03  0.12889292570E+04 -0.76365650232E+03  0.15913510692E+04  0.46999998093E+01 0.  1.
</event>
<event>
 5   0  0.1377807E-06  0.2800020E+04  0.7818609E-02  0.8303262E-01
       -2   -1    0    0    0  501  0.00000000000E+00  0.00000000000E+00  0.11993750341E+04  0.11993750341E+04  0.25500000920E-02 0.  1.
        2   -1    0    0  501    0  0.00000000000E+00  0.00000000000E+00 -0.16342080362E+04  0.16342080362E+04  0.25500000920E-02 0. -1.
    10030    2    1    2    0    0  0.00000000000E+00  0.00000000000E+00 -0.43483300212E+03  0.28335830703E+04  0.28000202279E+04 0.  0.
        2    1    3    3  502    0 -0.16058979492E+03 -0.12225919263E+04 -0.88831725617E+03  0.15197459156E+04  0.25500000920E-02 0. -1.
       -2    1    3    3    0  502  0.16058979492E+03  0.12225919263E+04  0.45348425405E+03  0.13138371547E+04  0.25500000920E-02 0.  1.
</event>
<event>
 5   0  0.5214658E-07  0.2798086E+04  0.7818609E-02  0.8303863E-01
       -1   -1    0    0    0  501  0.00000000000E+00  0.00000000000E+00  0.15294062051E+04  0.15294062051E+04  0.50400001928E-02 0. -1.
        1   -1    0    0  501    0  0.00000000000E+00  0.00000000000E+00 -0.12797917731E+04  0.12797917731E+04  0.50400001928E-02 0.  1.
    10030    2    1    2    0    0  0.00000000000E+00  0.00000000000E+00  0.24961443206E+03  0.28091979782E+04  0.27980861167E+04 0.  0.
        2    1    3    3  502    0 -0.55520799291E+03 -0.20445040232E+03 -0.11480072276E+04  0.12915016364E+04  0.25500000920E-02 0.  1.
       -2    1    3    3    0  502  0.55520799291E+03  0.20445040232E+03  0.13976216596E+04  0.15176963418E+04  0.25500000920E-02 0. -1.
</event>
<event>
 5   0  0.5551565E-07  0.2803489E+04  0.7818609E-02  0.8302186E-01
        1   -1    0    0  501    0  0.00000000000E+00  0.00000000000E+00  0.14307055318E+04  0.14307055319E+04  0.50400001928E-02 0. -1.
       -1   -1    0    0    0  501  0.00000000000E+00  0.00000000000E+00 -0.13733699465E+04  0.13733699465E+04  0.50400001928E-02 0.  1.
    10030    2    1    2    0    0  0.00000000000E+00  0.00000000000E+00  0.57335585321E+02  0.28040754784E+04  0.28034892401E+04 0.  0.
        3    1    3    3  502    0 -0.32035053126E+03 -0.90256916740E+02  0.13906122506E+04  0.14298857352E+04  0.10100000352E+00 0. -1.
       -3    1    3    3    0  502  0.32035053126E+03  0.90256916740E+02 -0.13332766653E+04  0.13741897432E+04  0.10100000352E+00 0.  1.
</event>
<event>
 5   0  0.1461146E-06  0.2799814E+04  0.7818609E-02  0.8303326E-01
       -2   -1    0    0    0  501  0.00000000000E+00  0.00000000000E+00  0.12355317027E+04  0.12355317027E+04  0.25500000920E-02 0. -1.
        2   -1    0    0  501    0  0.00000000000E+00  0.00000000000E+00 -0.15861504569E+04  0.15861504569E+04  0.25500000920E-02 0.  1.
    10030    2    1    2    0    0  0.00000000000E+00  0.00000000000E+00 -0.35061875425E+03  0.28216821596E+04  0.27998136901E+04 0.  0.
        1    1    3    3  502    0  0.18546621301E+03 -0.43721373349E+03  0.11518612112E+04  0.12459284950E+04  0.50400001928E-02 0. -1.
       -1    1    3    3    0  502 -0.18546621301E+03  0.43721373349E+03 -0.15024799654E+04  0.15757536646E+04  0.50400001928E-02 0.  1.
</event>
<event>
 5   0  0.5551565E-07  0.2796986E+04  0.7818609E-02  0.8304205E-01
        1   -1    0    0  501    0  0.00000000000E+00  0.00000000000E+00  0.16913989974E+04  0.16913989974E+04  0.50400001928E-02 0. -1.
       -1   -1    0    0    0  501  0.00000000000E+00  0.00000000000E+00 -0.11563109760E+04  0.11563109760E+04  0.50400001928E-02 0.  1.
    10030    2    1    2    0    0  0.00000000000E+00  0.00000000000E+00  0.53508802144E+03  0.28477099734E+04  0.27969863965E+04 0.  0.
        3    1    3    3  502    0  0.11731845890E+04  0.21796747014E+03 -0.47500481824E+03  0.12843291967E+04  0.10100000352E+00 0.  1.
       -3    1    3    3    0  502 -0.11731845890E+04 -0.21796747014E+03  0.10100928397E+04  0.15633807767E+04  0.10100000352E+00 0. -1.
</event>
<event>
 5   0  0.1377807E-06  0.2807316E+04  0.7818609E-02  0.8301001E-01
       -2   -1    0    0    0  501  0.00000000000E+00  0.00000000000E+00  0.10922696649E+04  0.10922696649E+04  0.25500000920E-02 0.  1.
        2   -1    0    0  501    0  0.00000000000E+00  0.00000000000E+00 -0.18038175061E+04  0.18038175061E+04  0.25500000920E-02 0. -1.
    10030    2    1    2    0    0  0.00000000000E+00  0.00000000000E+00 -0.71154784117E+03  0.28960871710E+04  0.28073155454E+04 0.  0.
        2    1    3    3  502    0 -0.10026920807E+04  0.89174924435E+03 -0.78068055877E+03  0.15524400982E+04  0.25500000920E-02 0.  1.
       -2    1    3    3    0  502  0.10026920807E+04 -0.89174924435E+03  0.69132717594E+02  0.13436470728E+04  0.25500000920E-02 0. -1.
</event>
<event>
 5   0  0.1499888E-06  0.2805184E+04  0.7818609E-02  0.8301661E-01
       -2   -1    0    0    0  501  0.00000000000E+00  0.00000000000E+00  0.13293370760E+04  0.13293370760E+04  0.25500000920E-02 0.  1.
        2   -1    0    0  501    0  0.00000000000E+00  0.00000000000E+00 -0.14798840611E+04  0.14798840611E+04  0.25500000920E-02 0. -1.
    10030    2    1    2    0    0  0.00000000000E+00  0.00000000000E+00 -0.15054698505E+03  0.28092211371E+04  0.28051843081E+04 0.  0.
        3    1    3    3  502    0  0.12233837191E+04  0.53272123254E+03  0.35755804419E+03  0.13814149995E+04  0.10100000352E+00 0.  1.
       -3    1    3    3    0  502 -0.12233837191E+04 -0.53272123254E+03 -0.50810502924E+03  0.14278061376E+04  0.10100000352E+00 0. -1.
</event>
<event>
 5   0  0.1461146E-06  0.2796330E+04  0.7818609E-02  0.8304409E-01
       -2   -1    0    0    0  501  0.00000000000E+00  0.00000000000E+00  0.89859601156E+03  0.89859601157E+03  0.25500000920E-02 0.  1.
        2   -1    0    0  501    0  0.00000000000E+00  0.00000000000E+00 -0.21754668641E+04  0.21754668641E+04  0.25500000920E-02 0. -1.
    10030    2    1    2    0    0  0.00000000000E+00  0.00000000000E+00 -0.12768708525E+04  0.30740628757E+04  0.27963303434E+04 0.  0.
        1    1    3    3  502    0  0.38904574407E+03 -0.10586794560E+04 -0.15467608491E+04  0.19143217874E+04  0.50400001928E-02 0. -1.
       -1    1    3    3    0  502 -0.38904574407E+03  0.10586794560E+04  0.26988999656E+03  0.11597410882E+04  0.50400001928E-02 0.  1.
</event>
<event>
 5   0  0.1439207E-06  0.2812986E+04  0.7818609E-02  0.8299248E-01
        2   -1    0    0  501    0  0.00000000000E+00  0.00000000000E+00  0.17212663586E+04  0.17212663586E+04  0.25500000920E-02 0. -1.
       -2   -1    0    0    0  501  0.00000000000E+00  0.00000000000E+00 -0.11492828915E+04  0.11492828915E+04  0.25500000920E-02 0.  1.
    10030    2    1    2    0    0  0.00000000000E+00  0.00000000000E+00  0.57198346701E+03  0.28705492501E+04  0.28129855867E+04 0.  0.
        5    1    3    3  502    0  0.77804607426E+03 -0.52339637505E+03 -0.78374440324E+03  0.12221198136E+04  0.46999998093E+01 0.  1.
       -5    1    3    3    0  502 -0.77804607426E+03  0.52339637505E+03  0.13557278702E+04  0.16484294365E+04  0.46999998093E+01 0. -1.
</event>
<event>
 5   0  0.5282098E-07  0.2796600E+04  0.7818609E-02  0.8304325E-01
       -1   -1    0    0    0  501  0.00000000000E+00  0.00000000000E+00  0.83306985754E+03  0.83306985755E+03  0.50400001928E-02 0. -1.
        1   -1    0    0  501    0  0.00000000000E+00  0.00000000000E+00 -0.23470339225E+04  0.23470339225E+04  0.50400001928E-02 0.  1.
    10030    2    1    2    0    0  0.00000000000E+00  0.00000000000E+00 -0.15139640650E+04  0.31801037801E+04  0.27966002328E+04 0.  0.
        4    1    3    3  502    0 -0.97426228160E+01 -0.12438258906E+04 -0.14833627642E+04  0.19358627193E+04  0.12699999809E+01 0.  1.
       -4    1    3    3    0  502  0.97426228160E+01  0.12438258906E+04 -0.30601300777E+02  0.12442410608E+04  0.12699999809E+01 0. -1.
</event>
<event>
 5   0  0.5297741E-07  0.2798585E+04  0.7818609E-02  0.8303708E-01
       -1   -1    0    0    0  501  0.00000000000E+00  0.00000000000E+00  0.12248495736E+04  0.12248495736E+04  0.50400001928E-02 0.  1.
        1   -1    0    0  501    0  0.00000000000E+00  0.00000000000E+00 -0.15985792098E+04  0.15985792098E+04  0.50400001928E-02 0. -1.
    10030    2    1    2    0    0  0.00000000000E+00  0.00000000000E+00 -0.37372963616E+03  0.28234287834E+04  0.27985846876E+04 0.  0.
        5    1    3    3  502    0  0.72514743566E+03 -0.88365852101E+03  0.62733472281E+03  0.13039409993E+04  0.46999998093E+01 0.  1.
       -5    1    3    3    0  502 -0.72514743566E+03  0.88365852101E+03 -0.10010643590E+04  0.15194877841E+04  0.46999998093E+01 0. -1.
</event>
<event>
 5   0  0.1394410E-06  0.2804223E+04  0.7818609E-02  0.8301958E-01
       -2   -1    0    0    0  501  0.00000000000E+00  0.00000000000E+00  0.14110906153E+04  0.14110906153E+04  0.25500000920E-02 0.  1.
        2   -1    0    0  501    0  0.00000000000E+00  0.00000000000E+00 -0.13931896009E+04  0.13931896009E+04  0.25500000920E-02 0. -1.
    10030    2    1    2    0    0  0.00000000000E+00  0.00000000000E+00  0.17901014357E+02  0.28042802162E+04  0.28042230804E+04 0.  0.
        4    1    3    3  502    0  0.33853479211E+03  0.33000020069E+02 -0.13513052586E+04  0.13934569680E+04  0.12699999809E+01 0. -1.
       -4    1    3    3    0  502 -0.33853479211E+03 -0.33000020069E+02  0.13692062730E+04  0.14108232482E+04  0.12699999809E+01 0.  1.
</event>
<event>
 5   0  0.5282098E-07  0.2799805E+04  0.7818609E-02  0.8303329E-01
       -1   -1    0    0    0  501  0.00000000000E+00  0.00000000000E+00  0.11444464829E+04  0.11444464829E+04  0.50400001928E-02 0. -1.
        1   -1    0    0  501    0  0.00000000000E+00  0.00000000000E+00 -0.17123801184E+04  0.17123801184E+04  0.50400001928E-02 0.  1.
    10030    2    1    2    0    0  0.00000000000E+00  0.00000000000E+00 -0.56793363557E+03  0.28568266013E+04  0.27998052817E+04 0.  0.
        4    1    3    3  502    0 -0.75819662452E+02  0.70012660130E+03 -0.15184833522E+04  0.16738336784E+04  0.12699999809E+01 0.  1.
       -4    1    3    3    0  502  0.75819662452E+02 -0.70012660130E+03  0.95054971662E+03  0.11829929229E+04  0.12699999809E+01 0. -1.
</event>
<event>
 5   0  0.5362952E-07  0.2799313E+04  0.7818609E-02  0.8303482E-01
       -1   -1    0    0    0  501  0.00000000000E+00  0.00000000000E+00  0.12080003653E+04  0.12080003653E+04  0.50400001928E-02 0.  1.
        1   -1    0    0  501    0  0.00000000000E+00  0.00000000000E+00 -0.16217197987E+04  0.16217197987E+04  0.50400001928E-02 0. -1.
    10030    2    1    2    0    0  0.00000000000E+00  0.00000000000E+00 -0.41371943338E+03  0.28297201640E+04  0.27993128509E+04 0.  0.
        1    1    3    3  502    0 -0.16903045132E+03 -0.10750322535E+04 -0.10966325503E+04  0.15449493810E+04  0.50400001928E-02 0. -1.
       -1    1    3    3    0  502  0.16903045132E+03  0.10750322535E+04  0.68291311692E+03  0.12847707830E+04  0.50400001928E-02 0.  1.
</event>
<event>
 5   0  0.1461146E-06  0.2797154E+04  0.7818609E-02  0.8304152E-01
       -2   -1    0    0    0  501  0.00000000000E+00  0.00000000000E+00  0.11125467955E+04  0.11125467955E+04  0.25500000920E-02 0.  1.
        2   -1    0    0  501    0  0.00000000000E+00  0.00000000000E+00 -0.17581445394E+04  0.17581445394E+04  0.25500000920E-02 0. -1.
    10030    2    1    2    0    0  0.00000000000E+00  0.00000000000E+00 -0.64559774392E+03  0.28706913350E+04  0.27971543207E+04 0.  0.
        1    1    3    3  502    0 -0.12899371683E+04  0.27334405297E+03  0.15568035154E+03  0.13277391465E+04  0.50400001928E-02 0.  1.
       -1    1    3    3    0  502  0.12899371683E+04 -0.27334405297E+03 -0.80127809546E+03  0.15429521884E+04  0.50400001928E-02 0. -1.
</event>
<event>
 5   0  0.5297741E-07  0.2793019E+04  0.7818609E-02  0.8305439E-01
        1   -1    0    0  501    0  0.00000000000E+00  0.00000000000E+00  0.16963545154E+04  0.16963545154E+04  0.50400001928E-02 0.  1.
       -1   -1    0    0    0  501  0.00000000000E+00  0.00000000000E+00 -0.11496642441E+04  0.11496642441E+04  0.50400001928E-02 0. -1.
    10030    2    1    2    0    0  0.00000000000E+00  0.00000000000E+00  0.54669027133E+03  0.28460187595E+04  0.27930185331E+04 0.  0.
        5    1    3    3  502    0  0.11329408743E+04  0.74029618305E+03 -0.77606782564E+02  0.13555952073E+04  0.46999998093E+01 0.  1.
       -5    1    3    3    0  502 -0.11329408743E+04 -0.74029618305E+03  0.62429705389E+03  0.14904235522E+04  0.46999998093E+01 0. -1.
</event>
<event>
 5   0  0.1394410E-06  0.2796393E+04  0.7818609E-02  0.8304389E-01
        2   -1    0    0  501    0  0.00000000000E+00  0.00000000000E+00  0.14552499010E+04  0.14552499010E+04  0.25500000920E-02 0.  1.
       -2   -1    0    0    0  501  0.00000000000E+00  0.00000000000E+00 -0.13433802808E+04  0.13433802808E+04  0.25500000920E-02 0. -1.
    10030    2    1    2    0    0  0.00000000000E+00  0.00000000000E+00  0.11186962014E+03  0.27986301818E+04  0.27963934062E+04 0.  0.
        4    1    3    3  502    0  0.12317844324E+04 -0.62518390327E+03  0.27245158287E+03  0.14079699140E+04  0.12699999809E+01 0.  1.
       -4    1    3    3    0  502 -0.12317844324E+04  0.62518390327E+03 -0.16058196273E+03  0.13906602678E+04  0.12699999809E+01 0. -1.
</event>
<event>
 5   0  0.1461146E-06  0.2805989E+04  0.7818609E-02  0.8301411E-01
       -2   -1    0    0    0  501  0.00000000000E+00  0.00000000000E+00  0.10402838061E+04  0.10402838061E+04  0.25500000920E-02 0.  1.
        2   -1    0    0  501    0  0.00000000000E+00  0.00000000000E+00 -0.18921697361E+04  0.18921697361E+04  0.25500000920E-02 0. -1.
    10030    2    1    2    0    0  0.00000000000E+00  0.00000000000E+00 -0.85188593003E+03  0.29324535421E+04  0.28059889770E+04 0.  0.
        1    1    3    3  502    0 -0.99323744579E+03  0.98672714143E+03 -0.52082272721E+03  0.14937896065E+04  0.50400001928E-02 0.  1.
       -1    1    3    3    0  502  0.99323744579E+03 -0.98672714143E+03 -0.33106320282E+03  0.14386639356E+04  0.50400001928E-02 0. -1.
</event>
<event>
 5   0  0.1499888E-06  0.2797652E+04  0.7818609E-02  0.8303998E-01
        2   -1    0    0  501    0  0.00000000000E+00  0.00000000000E+00  0.74519524231E+03  0.74519524231E+03  0.25500000920E-02 0.  1.
       -2   -1    0    0    0  501  0.00000000000E+00  0.00000000000E+00 -0.26257731116E+04  0.26257731116E+04  0.25500000920E-02 0. -1.
    10030    2    1    2    0    0  0.00000000000E+00  0.00000000000E+00 -0.18805778693E+04  0.33709683539E+04  0.27976516082E+04 0.  0.
        3    1    3    3  502    0  0.10386219287E+04 -0.27015823448E+03 -0.20213668582E+04  0.22885901704E+04  0.10100000352E+00 0. -1.
       -3    1    3    3    0  502 -0.10386219287E+04  0.27015823448E+03  0.14078898895E+03  0.10823781835E+04  0.10100000352E+00 0.  1.
</event>
<event>
 5   0  0.1377807E-06  0.2793813E+04  0.7818609E-02  0.8305192E-01
       -2   -1    0    0    0  501  0.00000000000E+00  0.00000000000E+00  0.79365766448E+03  0.79365766449E+03  0.25500000920E-02 0. -1.
        2   -1    0    0  501    0  0.00000000000E+00  0.00000000000E+00 -0.24586776858E+04  0.24586776858E+04  0.25500000920E-02 0.  1.
    10030    2    1    2    0    0  0.00000000000E+00  0.00000000000E+00 -0.16650200213E+04  0.32523353503E+04  0.27938134439E+04 0.  0.
        2    1    3    3  502    0 -0.35772687584E+03  0.37835281418E+03 -0.23414854025E+04  0.23986815670E+04  0.25500000920E-02 0.  1.
       -2    1    3    3    0  502  0.35772687584E+03 -0.37835281418E+03  0.67646538121E+03  0.85365378326E+03  0.25500000920E-02 0. -1.
</event>
<event>
 5   0  0.1461146E-06  0.2802735E+04  0.7818609E-02  0.8302420E-01
        2   -1    0    0  501    0  0.00000000000E+00  0.00000000000E+00  0.13455260109E+04  0.13455260109E+04  0.25500000920E-02 0.  1.
       -2   -1    0    0    0  501  0.00000000000E+00  0.00000000000E+00 -0.14595263262E+04  0.14595263262E+04  0.25500000920E-02 0. -1.
    10030    2    1    2    0    0  0.00000000000E+00  0.00000000000E+00 -0.11400031528E+03  0.28050523370E+04  0.28027348326E+04 0.  0.
        1    1    3    3  502    0 -0.72635274238E+03  0.11470233374E+04  0.29053298191E+03  0.13884020515E+04  0.50400001928E-02 0. -1.
       -1    1    3    3    0  502  0.72635274238E+03 -0.11470233374E+04 -0.40453329719E+03  0.14166502855E+04  0.50400001928E-02 0.  1.
</event>
<event>
 5   0  0.1439207E-06  0.2799967E+04  0.7818609E-02  0.8303279E-01
        2   -1    0    0  501    0  0.00000000000E+00  0.00000000000E+00  0.10027553761E+04  0.10027553761E+04  0.25500000920E-02 0.  1.
       -2   -1    0    0    0  501  0.00000000000E+00  0.00000000000E+00 -0.19545677858E+04  0.19545677859E+04  0.25500000920E-02 0. -1.
    10030    2    1    2    0    0  0.00000000000E+00  0.00000000000E+00 -0.95181240978E+03  0.29573231619E+04  0.27999666821E+04 0.  0.
        5    1    3    3  502    0 -0.48460502699E+03 -0.46985004144E+03 -0.17713468054E+04  0.18955982403E+04  0.46999998093E+01 0. -1.
       -5    1    3    3    0  502  0.48460502699E+03  0.46985004144E+03  0.81953439561E+03  0.10617249216E+04  0.46999998093E+01 0.  1.
</event>
<event>
 5   0  0.1377807E-06  0.2787290E+04  0.7818609E-02  0.8307225E-01
       -2   -1    0    0    0  501  0.00000000000E+00  0.00000000000E+00  0.13833044490E+04  0.13833044490E+04  0.25500000920E-02 0. -1.
        2   -1    0    0  501    0  0.00000000000E+00  0.00000000000E+00 -0.14040632164E+04  0.14040632164E+04  0.25500000920E-02 0.  1.
    10030    2    1    2    0    0  0.00000000000E+00  0.00000000000E+00 -0.20758767436E+02  0.27873676654E+04  0.27872903645E+04 0.  0.
        2    1    3    3  502    0 -0.11738418089E+04 -0.70836175487E+03  0.23975937012E+03  0.13918209381E+04  0.25500000920E-02 0. -1.
       -2    1    3    3    0  502  0.11738418089E+04  0.70836175487E+03 -0.26051813756E+03  0.13955467273E+04  0.25500000920E-02 0.  1.
</event>
<event>
 5   0  0.5551565E-07  0.2786563E+04  0.7818609E-02  0.8307452E-01
        1   -1    0    0  501    0  0.00000000000E+00  0.00000000000E+00  0.14366326982E+04  0.14366326982E+04  0.50400001928E-02 0. -1.
       -1   -1    0    0    0  501  0.00000000000E+00  0.00000000000E+00 -0.13512380309E+04  0.13512380309E+04  0.50400001928E-02 0.  1.
    10030    2    1    2    0    0  0.00000000000E+00  0.00000000000E+00  0.85394667265E+02  0.27878707291E+04  0.27865625694E+04 0.  0.
        3    1    3    3  502    0  0.53472253206E+03  0.13090556952E+03 -0.12378130022E+04  0.13547123285E+04  0.10100000352E+00 0.  1.
       -3    1    3    3    0  502 -0.53472253206E+03 -0.13090556952E+03  0.13232076695E+04  0.14331584006E+04  0.10100000352E+00 0. -1.
</event>
<event>
 5   0  0.5362952E-07  0.2799959E+04  0.7818609E-02  0.8303281E-01
        1   -1    0    0  501    0  0.00000000000E+00  0.00000000000E+00  0.12939014478E+04  0.12939014478E+04  0.50400001928E-02 0. -1.
       -1   -1    0    0    0  501  0.00000000000E+00  0.00000000000E+00 -0.15147543928E+04  0.15147543929E+04  0.50400001928E-02 0.  1.
    10030    2    1    2    0    0  0.00000000000E+00  0.00000000000E+00 -0.22085294506E+03  0.28086558407E+04  0.27999592154E+04 0.  0.
        1    1    3    3  502    0 -0.11099723251E+04  0.61827353967E+03  0.47931297949E+03  0.13579549568E+04  0.50400001928E-02 0.  1.
       -1    1    3    3    0  502  0.11099723251E+04 -0.61827353967E+03 -0.70016592455E+03  0.14507008838E+04  0.50400001928E-02 0. -1.
</event>
<event>
 5   0  0.1377807E-06  0.2801370E+04  0.7818609E-02  0.8302843E-01
       -2   -1    0    0    0  501  0.00000000000E+00  0.00000000000E+00  0.80556673360E+03  0.80556673360E+03  0.25500000920E-02 0. -1.
        2   -1    0    0  501    0  0.00000000000E+00  0.00000000000E+00 -0.24354519250E+04  0.24354519250E+04  0.25500000920E-02 0.  1.
    10030    2    1    2    0    0  0.00000000000E+00  0.00000000000E+00 -0.16298851914E+04  0.32410186586E+04  0.28013704161E+04 0.  0.
        2    1    3    3  502    0 -0.11665171799E+04 -0.35337019990E+03 -0.16497600645E+02  0.12189770301E+04  0.25500000920E-02 0. -1.
       -2    1    3    3    0  502  0.11665171799E+04  0.35337019990E+03 -0.16133875907E+04  0.20220416284E+04  0.25500000920E-02 0.  1.
</event>
<event>
 5   0  0.1439207E-06  0.2799581E+04  0.7818609E-02  0.8303398E-01
        2   -1    0    0  501    0  0.00000000000E+00  0.00000000000E+00  0.19569903495E+04  0.19569903495E+04  0.25500000920E-02 0. -1.
       -2   -1    0    0    0  501  0.00000000000E+00  0.00000000000E+00 -0.10012383010E+04  0.10012383010E+04  0.25500000920E-02 0.  1.
    10030    2    1    2    0    0  0.00000000000E+00  0.00000000000E+00  0.95575204857E+03  0.29582286505E+04  0.27995811777E+04 0.  0.
        5    1    3    3  502    0 -0.92170587388E+03  0.84628035467E+03  0.11408538643E+04  0.16933108947E+04  0.46999998093E+01 0. -1.
       -5    1    3    3    0  502  0.92170587388E+03 -0.84628035467E+03 -0.18510181569E+03  0.12649177558E+04  0.46999998093E+01 0.  1.
</event>
<event>
 5   0  0.1439207E-06  0.2806920E+04  0.7818609E-02  0.8301123E-01
        2   -1    0    0  501    0  0.00000000000E+00  0.00000000000E+00  0.11490685835E+04  0.11490685836E+04  0.25500000920E-02 0. -1.
       -2   -1    0    0    0  501  0.00000000000E+00  0.00000000000E+00 -0.17141703322E+04  0.17141703322E+04  0.25500000920E-02 0.  1.
    10030    2    1    2    0    0  0.00000000000E+00  0.00000000000E+00 -0.56510174862E+03  0.28632389157E+04  0.28069195041E+04 0.  0.
        5    1    3    3  502    0  0.11710521606E+04  0.50612440621E+03 -0.87922504754E+03  0.15493817643E+04  0.46999998093E+01 0.  1.
       -5    1    3    3    0  502 -0.11710521606E+04 -0.50612440621E+03  0.31412329891E+03  0.13138571514E+04  0.46999998093E+01 0. -1.
</event>
<event>
 5   0  0.5282098E-07  0.2803654E+04  0.7818609E-02  0.8302135E-01
       -1   -1    0    0    0  501  0.00000000000E+00  0.00000000000E+00  0.13534755214E+04  0.13534755214E+04  0.50400001928E-02 0. -1.
        1   -1    0    0  501    0  0.00000000000E+00  0.00000000000E+00 -0.14519056232E+04  0.14519056232E+04  0.50400001928E-02 0.  1.
    10030    2    1    2    0    0  0.00000000000E+00  0.00000000000E+00 -0.98430101869E+02  0.28053811446E+04  0.28036538448E+04 0.  0.
        4    1    3    3  502    0 -0.89111758258E+03  0.15841800924E+03 -0.11203559009E+04  0.14402728107E+04  0.12699999809E+01 0.  1.
       -4    1    3    3    0  502  0.89111758258E+03 -0.15841800924E+03  0.10219257990E+04  0.13651083339E+04  0.12699999809E+01 0. -1.
</event>
<event>
 5   0  0.5297741E-07  0.2801794E+04  0.7818609E-02  0.8302712E-01
       -1   -1    0    0    0  501  0.00000000000E+00  0.00000000000E+00  0.10182345489E+04  0.10182345489E+04  0.50400001928E-02 0. -1.
        1   -1    0    0  501    0  0.00000000000E+00  0.00000000000E+00 -0.19273681632E+04  0.19273681632E+04  0.50400001928E-02 0.  1.
    10030    2    1    2    0    0  0.00000000000E+00  0.00000000000E+00 -0.90913361428E+03  0.29456027122E+04  0.28017943196E+04 0.  0.
        5    1    3    3  502    0 -0.13599366240E+04 -0.30237779988E+03 -0.29994373985E+03  0.14250783460E+04  0.46999998093E+01 0. -1.
       -5    1    3    3    0  502  0.13599366240E+04  0.30237779988E+03 -0.60918987443E+03  0.15205243662E+04  0.46999998093E+01 0.  1.
</event>
<event>
 5   0  0.1461146E-06  0.2789422E+04  0.7818609E-02  0.8306560E-01
        2   -1    0    0  501    0  0.00000000000E+00  0.00000000000E+00  0.20698380270E+04  0.20698380270E+04  0.25500000920E-02 0.  1.
       -2   -1    0    0    0  501  0.00000000000E+00  0.00000000000E+00 -0.93979307757E+03  0.93979307757E+03  0.25500000920E-02 0. -1.
    10030    2    1    2    0    0  0.00000000000E+00  0.00000000000E+00  0.11300449494E+04  0.30096311046E+04  0.27894224846E+04 0.  0.
        1    1    3    3  502    0  0.44854916353E+03 -0.10748709177E+04  0.13928445239E+04  0.18156430568E+04  0.50400001928E-02 0.  1.
       -1    1    3    3    0  502 -0.44854916353E+03  0.10748709177E+04 -0.26279957453E+03  0.11939880478E+04  0.50400001928E-02 0. -1.
</event>
<event>
 5   0  0.1394410E-06  0.2773635E+04  0.7818609E-02  0.8311501E-01
       -2   -1    0    0    0  501  0.00000000000E+00  0.00000000000E+00  0.84538056779E+03  0.84538056779E+03  0.25500000920E-02 0. -1.
        2   -1    0    0  501    0  0.00000000000E+00  0.00000000000E+00 -0.22750265368E+04  0.22750265368E+04  0.25500000920E-02 0.  1.
    10030    2    1    2    0    0  0.00000000000E+00  0.00000000000E+00 -0.14296459690E+04  0.31204071046E+04  0.27736353224E+04 0.  0.
        4    1    3    3  502    0 -0.92814998387E+03 -0.44460315229E+02  0.44336342989E+03  0.10295687719E+04  0.12699999809E+01 0. -1.
       -4    1    3    3    0  502  0.92814998387E+03  0.44460315229E+02 -0.18730093989E+04  0.20908383327E+04  0.12699999809E+01 0.  1.
</event>
<event>
 5   0  0.1377807E-06  0.2796557E+04  0.7818609E-02  0.8304338E-01
       -2   -1    0    0    0  501  0.00000000000E+00  0.00000000000E+00  0.17427065883E+04  0.17427065883E+04  0.25500000920E-02 0.  1.
        2   -1    0    0  501    0  0.00000000000E+00  0.00000000000E+00 -0.11219230575E+04  0.11219230575E+04  0.25500000920E-02 0. -1.
    10030    2    1    2    0    0  0.00000000000E+00  0.00000000000E+00  0.62078353078E+03  0.28646296457E+04  0.27965569573E+04 0.  0.
        2    1    3    3  502    0 -0.93282030265E+03  0.10138838026E+04  0.65686392836E+02  0.13792856065E+04  0.25500000920E-02 0. -1.
       -2    1    3    3    0  502  0.93282030265E+03 -0.10138838026E+04  0.55509713794E+03  0.14853440392E+04  0.25500000920E-02 0.  1.
</event>
<event>
 5   0  0.1377807E-06  0.2802187E+04  0.7818609E-02  0.8302590E-01
       -2   -1    0    0    0  501  0.00000000000E+00  0.00000000000E+00  0.96147335622E+03  0.96147335623E+03  0.25500000920E-02 0.  1.
        2   -1    0    0  501    0  0.00000000000E+00  0.00000000000E+00 -0.20417233325E+04  0.20417233325E+04  0.25500000920E-02 0. -1.
    10030    2    1    2    0    0  0.00000000000E+00  0.00000000000E+00 -0.10802499762E+04  0.30031966887E+04  0.28021867068E+04 0.  0.
        2    1    3    3  502    0 -0.54754144905E+02  0.11304877684E+04 -0.14252377992E+04  0.18199734600E+04  0.25500000920E-02 0.  1.
       -2    1    3    3    0  502  0.54754144905E+02 -0.11304877684E+04  0.34498782299E+03  0.11832232287E+04  0.25500000920E-02 0. -1.
</event>
<event>
 5   0  0.5214658E-07  0.2799560E+04  0.7818609E-02  0.8303405E-01
       -1   -1    0    0    0  501  0.00000000000E+00  0.00000000000E+00  0.10463574687E+04  0.10463574687E+04  0.50400001928E-02 0. -1.
        1   -1    0    0  501    0  0.00000000000E+00  0.00000000000E+00 -0.18725767587E+04  0.18725767587E+04  0.50400001928E-02 0.  1.
    10030    2    1    2    0    0  0.00000000000E+00  0.00000000000E+00 -0.82621928997E+03  0.29189342274E+04  0.27995604492E+04 0.  0.
        2    1    3    3  502    0 -0.87121626289E+03  0.46021289516E+03 -0.14497745373E+04  0.17529004235E+04  0.25500000920E-02 0.  1.
       -2    1    3    3    0  502  0.87121626289E+03 -0.46021289516E+03  0.62355524731E+03  0.11660338040E+04  0.25500000920E-02 0. -1.
</event>
<event>
 5   0  0.5551565E-07  0.2817211E+04  0.7818609E-02  0.8297945E-01
        1   -1    0    0  501    0  0.00000000000E+00  0.00000000000E+00  0.14980990104E+04  0.14980990104E+04  0.50400001928E-02 0.  1.
       -1   -1    0    0    0  501  0.00000000000E+00  0.00000000000E+00 -0.13244582597E+04  0.13244582597E+04  0.50400001928E-02 0. -1.
    10030    2    1    2    0    0  0.00000000000E+00  0.00000000000E+00  0.17364075068E+03  0.28225572701E+04  0.28172111090E+04 0.  0.
        3    1    3    3  502    0  0.81824506942E+03  0.11134368709E+04 -0.18738300184E+03  0.13944099321E+04  0.10100000352E+00 0. -1.
       -3    1    3    3    0  502 -0.81824506942E+03 -0.11134368709E+04  0.36102375252E+03  0.14281473380E+04  0.10100000352E+00 0.  1.
</event>
<event>
 5   0  0.1439207E-06  0.2791409E+04  0.7818609E-02  0.8305941E-01
       -2   -1    0    0    0  501  0.00000000000E+00  0.00000000000E+00  0.10532451339E+04  0.10532451339E+04  0.25500000920E-02 0. -1.
        2   -1    0    0  501    0  0.00000000000E+00  0.00000000000E+00 -0.18495133800E+04  0.18495133800E+04  0.25500000920E-02 0.  1.
    10030    2    1    2    0    0  0.00000000000E+00  0.00000000000E+00 -0.79626824611E+03  0.29027585138E+04  0.27914089399E+04 0.  0.
        5    1    3    3  502    0 -0.88935353611E+03 -0.44535837339E+03  0.62004259635E+03  0.11720787961E+04  0.46999998093E+01 0. -1.
       -5    1    3    3    0  502  0.88935353611E+03  0.44535837339E+03 -0.14163108425E+04  0.17306797177E+04  0.46999998093E+01 0.  1.
</event>
<event>
 5   0  0.1461146E-06  0.2792940E+04  0.7818609E-02  0.8305463E-01
       -2   -1    0    0    0  501  0.00000000000E+00  0.00000000000E+00  0.19771967013E+04  0.19771967013E+04  0.25500000920E-02 0. -1.
        2   -1    0    0  501    0  0.00000000000E+00  0.00000000000E+00 -0.98630995922E+03  0.98630995922E+03  0.25500000920E-02 0.  1.
    10030    2    1    2    0    0  0.00000000000E+00  0.00000000000E+00  0.99088674206E+03  0.29635066605E+04  0.27929402413E+04 0.  0.
        1    1    3    3  502    0  0.42417349286E+03  0.10452563660E+03 -0.91193784891E+03  0.10111772352E+04  0.50400001928E-02 0.  1.
       -1    1    3    3    0  502 -0.42417349286E+03 -0.10452563660E+03  0.19028245910E+04  0.19523294253E+04  0.50400001928E-02 0. -1.
</event>
<event>
 5   0  0.5282098E-07  0.2798980E+04  0.7818609E-02  0.8303585E-01
        1   -1    0    0  501    0  0.00000000000E+00  0.00000000000E+00  0.10493694835E+04  0.10493694835E+04  0.50400001928E-02 0.  1.
       -1   -1    0    0    0  501  0.00000000000E+00  0.00000000000E+00 -0.18664281418E+04  0.18664281418E+04  0.50400001928E-02 0. -1.
    10030    2    1    2    0    0  0.00000000000E+00  0.00000000000E+00 -0.81705865836E+03  0.29157976253E+04  0.27989803395E+04 0.  0.
        4    1    3    3  502    0 -0.82612144622E+03 -0.31946776383E+03 -0.15372799962E+04  0.17741949430E+04  0.12699999809E+01 0. -1.
       -4    1    3    3    0  502  0.82612144622E+03  0.31946776383E+03  0.72022133784E+03  0.11416026824E+04  0.12699999809E+01 0.  1.
</event>
<event>
 5   0  0.5551565E-07  0.2801716E+04  0.7818609E-02  0.8302736E-01
        1   -1    0    0  501    0  0.00000000000E+00  0.00000000000E+00  0.13440562645E+04  0.13440562645E+04  0.50400001928E-02 0. -1.
       -1   -1    0    0    0  501  0.00000000000E+00  0.00000000000E+00 -0.14600602971E+04  0.14600602972E+04  0.50400001928E-02 0.  1.
    10030    2    1    2    0    0  0.00000000000E+00  0.00000000000E+00 -0.11600403264E+03  0.28041165617E+04  0.28017160377E+04 0.  0.
        3    1    3    3  502    0 -0.91310175875E+03 -0.13712721125E+03 -0.11123962215E+04  0.14456777157E+04  0.10100000352E+00 0.  1.
       -3    1    3    3    0  502  0.91310175875E+03  0.13712721125E+03  0.99639218888E+03  0.13584388459E+04  0.10100000352E+00 0. -1.
</event>
<event>
 5   0  0.1439207E-06  0.2800487E+04  0.7818609E-02  0.8303117E-01
        2   -1    0    0  501    0  0.00000000000E+00  0.00000000000E+00  0.12236530045E+04  0.12236530045E+04  0.25500000920E-02 0. -1.
       -2   -1    0    0    0  501  0.00000000000E+00  0.00000000000E+00 -0.16023188113E+04  0.16023188113E+04  0.25500000920E-02 0.  1.
    10030    2    1    2    0    0  0.00000000000E+00  0.00000000000E+00 -0.37866580677E+03  0.28259718158E+04  0.28004872631E+04 0.  0.
        5    1    3    3  502    0  0.62610264458E+03  0.10657855946E+04 -0.85316174252E+03  0.15019355859E+04  0.46999998093E+01 0. -1.
       -5    1    3    3    0  502 -0.62610264458E+03 -0.10657855946E+04  0.47449593575E+03  0.13240362300E+04  0.46999998093E+01 0.  1.
</event>
<event>
 5   0  0.4710000E-07  0.2799430E+04  0.7818609E-02  0.8303445E-01
        4   -1    0    0  501    0  0.00000000000E+00  0.00000000000E+00  0.11108450069E+04  0.11108457329E+04  0.12699999809E+01 0. -1.
       -4   -1    0    0    0  501  0.00000000000E+00  0.00000000000E+00 -0.17637031648E+04  0.17637036220E+04  0.12699999809E+01 0.  1.
    10030    2    1    2    0    0  0.00000000000E+00  0.00000000000E+00 -0.65285815789E+03  0.28745493549E+04  0.27994303384E+04 0.  0.
        3    1    3    3  502    0 -0.34353017619E+03 -0.13111616282E+04 -0.68515243289E+03  0.15187467411E+04  0.10100000352E+00 0.  1.
       -3    1    3    3    0  502  0.34353017619E+03  0.13111616282E+04  0.32294274995E+02  0.13558026138E+04  0.10100000352E+00 0. -1.
</event>
<event>
 5   0  0.1377807E-06  0.2797370E+04  0.7818609E-02  0.8304085E-01
       -2   -1    0    0    0  501  0.00000000000E+00  0.00000000000E+00  0.11131673484E+04  0.11131673484E+04  0.25500000920E-02 0.  1.
        2   -1    0    0  501    0  0.00000000000E+00  0.00000000000E+00 -0.17574352508E+04  0.17574352508E+04  0.25500000920E-02 0. -1.
    10030    2    1    2    0    0  0.00000000000E+00  0.00000000000E+00 -0.64426790242E+03  0.28706025992E+04  0.27973698634E+04 0.  0.
        2    1    3    3  502    0 -0.11614898649E+03 -0.12245256466E+04 -0.10054227822E+04  0.15886562300E+04  0.25500000920E-02 0.  1.
       -2    1    3    3    0  502  0.11614898649E+03  0.12245256466E+04  0.36115487974E+03  0.12819463692E+04  0.25500000920E-02 0. -1.
</event>
<event>
 5   0  0.1394410E-06  0.2798224E+04  0.7818609E-02  0.8303820E-01
       -2   -1    0    0    0  501  0.00000000000E+00  0.00000000000E+00  0.14655368778E+04  0.14655368778E+04  0.25500000920E-02 0. -1.
        2   -1    0    0  501    0  0.00000000000E+00  0.00000000000E+00 -0.13356981480E+04  0.13356981480E+04  0.25500000920E-02 0.  1.
    10030    2    1    2    0    0  0.00000000000E+00  0.00000000000E+00  0.12983872980E+03  0.28012350258E+04  0.27982243609E+04 0.  0.
        4    1    3    3  502    0  0.88004462688E+03  0.31790026640E+03 -0.97637965229E+03  0.13523527509E+04  0.12699999809E+01 0.  1.
       -4    1    3    3    0  502 -0.88004462688E+03 -0.31790026640E+03  0.11062183821E+04  0.14488822749E+04  0.12699999809E+01 0. -1.
</event>
<event>
 5   0  0.5362952E-07  0.2801040E+04  0.7818609E-02  0.8302945E-01
        1   -1    0    0  501    0  0.00000000000E+00  0.00000000000E+00  0.17141022279E+04  0.17141022280E+04  0.50400001928E-02 0.  1.
       -1   -1    0    0    0  501  0.00000000000E+00  0.00000000000E+00 -0.11443056872E+04  0.11443056872E+04  0.50400001928E-02 0. -1.
    10030    2    1    2    0    0  0.00000000000E+00  0.00000000000E+00  0.56979654071E+03  0.28584079152E+04  0.28010404695E+04 0.  0.
        1    1    3    3  502    0 -0.35523405485E+03 -0.34006973165E+03  0.16230977226E+04  0.16959613419E+04  0.50400001928E-02 0.  1.
       -1    1    3    3    0  502  0.35523405485E+03  0.34006973165E+03 -0.10533011819E+04  0.11624465733E+04  0.50400001928E-02 0. -1.
</event>
<event>
 5   0  0.5362952E-07  0.2799555E+04  0.7818609E-02  0.8303406E-01
       -1   -1    0    0    0  501  0.00000000000E+00  0.00000000000E+00  0.30987546127E+04  0.30987546127E+04  0.50400001928E-02 0. -1.
        1   -1    0    0  501    0  0.00000000000E+00  0.00000000000E+00 -0.63231120594E+03  0.63231120596E+03  0.50400001928E-02 0.  1.
    10030    2    1    2    0    0  0.00000000000E+00  0.00000000000E+00  0.24664434068E+04  0.37310658187E+04  0.27995551548E+04 0.  0.
        1    1    3    3  502    0 -0.48697311615E+03 -0.11377481552E+04  0.21048790363E+04  0.24417472101E+04  0.50400001928E-02 0. -1.
       -1    1    3    3    0  502  0.48697311615E+03  0.11377481552E+04  0.36156437048E+03  0.12893186086E+04  0.50400001928E-02 0.  1.
</event>
<event>
 5   0  0.5297741E-07  0.2797395E+04  0.7818609E-02  0.8304078E-01
        1   -1    0    0  501    0  0.00000000000E+00  0.00000000000E+00  0.16504528570E+04  0.16504528570E+04  0.50400001928E-02 0. -1.
       -1   -1    0    0    0  501  0.00000000000E+00  0.00000000000E+00 -0.11853438885E+04  0.11853438885E+04  0.50400001928E-02 0.  1.
    10030    2    1    2    0    0  0.00000000000E+00  0.00000000000E+00  0.46510896846E+03  0.28357967455E+04  0.27973946503E+04 0.  0.
        5    1    3    3  502    0  0.11505709971E+04 -0.77641795448E+03  0.57870451249E+02  0.13892478319E+04  0.46999998093E+01 0.  1.
       -5    1    3    3    0  502 -0.11505709971E+04  0.77641795448E+03  0.40723851721E+03  0.14465489136E+04  0.46999998093E+01 0. -1.
</event>
<event>
 5   0  0.1461146E-06  0.2801920E+04  0.7818609E-02  0.8302673E-01
        2   -1    0    0  501    0  0.00000000000E+00  0.00000000000E+00  0.12878264384E+04  0.12878264384E+04  0.25500000920E-02 0. -1.
       -2   -1    0    0    0  501  0.00000000000E+00  0.00000000000E+00 -0.15240321038E+04  0.15240321038E+04  0.25500000920E-02 0.  1.
    10030    2    1    2    0    0  0.00000000000E+00  0.00000000000E+00 -0.23620566538E+03  0.28118585422E+04  0.28019199391E+04 0.  0.
        1    1    3    3  502    0 -0.89280058740E+03  0.10790895656E+04 -0.15230681318E+03  0.14088025216E+04  0.50400001928E-02 0.  1.
       -1    1    3    3    0  502  0.89280058740E+03 -0.10790895656E+04 -0.83898852196E+02  0.14030560206E+04  0.50400001928E-02 0. -1.
</event>
<event>
 5   0  0.1394410E-06  0.2800453E+04  0.7818609E-02  0.8303128E-01
       -2   -1    0    0    0  501  0.00000000000E+00  0.00000000000E+00  0.78187774536E+03  0.78187774537E+03  0.25500000920E-02 0. -1.
        2   -1    0    0  501    0  0.00000000000E+00  0.00000000000E+00 -0.25075970271E+04  0.25075970271E+04  0.25500000920E-02 0.  1.
    10030    2    1    2    0    0  0.00000000000E+00  0.00000000000E+00 -0.17257192817E+04  0.32894747725E+04  0.28004530418E+04 0.  0.
        4    1    3    3  502    0 -0.41433955186E+03 -0.55307648958E+03 -0.22933268075E+04  0.23951869084E+04  0.12699999809E+01 0.  1.
       -4    1    3    3    0  502  0.41433955186E+03  0.55307648958E+03  0.56760752575E+03  0.89428786403E+03  0.12699999809E+01 0. -1.
</event>
<event>
 5   0  0.5282098E-07  0.2798624E+04  0.7818609E-02  0.8303696E-01
       -1   -1    0    0    0  501  0.00000000000E+00  0.00000000000E+00  0.16469353242E+04  0.16469353242E+04  0.50400001928E-02 0.  1.
        1   -1    0    0  501    0  0.00000000000E+00  0.00000000000E+00 -0.11889200165E+04  0.11889200165E+04  0.50400001928E-02 0. -1.
    10030    2    1    2    0    0  0.00000000000E+00  0.00000000000E+00  0.45801530769E+03  0.28358553408E+04  0.27986242141E+04 0.  0.
        4    1    3    3  502    0 -0.13987969012E+03  0.23426133402E+03 -0.11617038965E+04  0.11933156567E+04  0.12699999809E+01 0. -1.
       -4    1    3    3    0  502  0.13987969012E+03 -0.23426133402E+03  0.16197192042E+04  0.16425396841E+04  0.12699999809E+01 0.  1.
</event>
<event>
 5   0  0.5297741E-07  0.2797102E+04  0.7818609E-02  0.8304169E-01
        1   -1    0    0  501    0  0.00000000000E+00  0.00000000000E+00  0.84913328734E+03  0.84913328736E+03  0.50400001928E-02 0.  1.
       -1   -1    0    0    0  501  0.00000000000E+00  0.00000000000E+00 -0.23034604209E+04  0.23034604209E+04  0.50400001928E-02 0. -1.
    10030    2    1    2    0    0  0.00000000000E+00  0.00000000000E+00 -0.14543271335E+04  0.31525937083E+04  0.27971020142E+04 0.  0.
        5    1    3    3  502    0 -0.85051490204E+03 -0.72843144733E+03 -0.16714594652E+04  0.20119112321E+04  0.46999998093E+01 0. -1.
       -5    1    3    3    0  502  0.85051490204E+03  0.72843144733E+03  0.21713233161E+03  0.11406824762E+04  0.46999998093E+01 0.  1.
</event>
<event>
 5   0  0.1461146E-06  0.2794059E+04  0.7818609E-02  0.8305115E-01
        2   -1    0    0  501    0  0.00000000000E+00  0.00000000000E+00  0.12766892136E+04  0.12766892136E+04  0.25500000920E-02 0.  1.
       -2   -1    0    0    0  501  0.00000000000E+00  0.00000000000E+00 -0.15287131643E+04  0.15287131643E+04  0.25500000920E-02 0. -1.
    10030    2    1    2    0    0  0.00000000000E+00  0.00000000000E+00 -0.25202395073E+03  0.28054023779E+04  0.27940591315E+04 0.  0.
        1    1    3    3  502    0  0.80262779124E+02  0.28656714344E+03 -0.14965181717E+04  0.15258209200E+04  0.50400001928E-02 0. -1.
       -1    1    3    3    0  502 -0.80262779124E+02 -0.28656714344E+03  0.12444942210E+04  0.12795814580E+04  0.50400001928E-02 0.  1.
</event>
<event>
 5   0  0.5551565E-07  0.2803757E+04  0.7818609E-02  0.8302103E-01
        1   -1    0    0  501    0  0.00000000000E+00  0.00000000000E+00  0.19752477199E+04  0.19752477199E+04  0.50400001928E-02 0. -1.
       -1   -1    0    0    0  501  0.00000000000E+00  0.00000000000E+00 -0.99494509170E+03  0.99494509171E+03  0.50400001928E-02 0.  1.
    10030    2    1    2    0    0  0.00000000000E+00  0.00000000000E+00  0.98030262822E+03  0.29701928116E+04  0.28037567825E+04 0.  0.
        3    1    3    3  502    0 -0.89756704945E+03 -0.10764150533E+04  0.45720808396E+03  0.14742235982E+04  0.10100000352E+00 0. -1.
       -3    1    3    3    0  502  0.89756704945E+03  0.10764150533E+04  0.52309454426E+03  0.14959692135E+04  0.10100000352E+00 0.  1.
</event>
<event>
 5   0  0.1377807E-06  0.2812288E+04  0.7818609E-02  0.8299464E-01
       -2   -1    0    0    0  501  0.00000000000E+00  0.00000000000E+00  0.76816450867E+03  0.76816450868E+03  0.25500000920E-02 0. -1.
        2   -1    0    0  501    0  0.00000000000E+00  0.00000000000E+00 -0.25739809181E+04  0.25739809181E+04  0.25500000920E-02 0.  1.
    10030    2    1    2    0    0  0.00000000000E+00  0.00000000000E+00 -0.18058164094E+04  0.33421454268E+04  0.28122878852E+04 0.  0.
        2    1    3    3  502    0 -0.85133101520E+03  0.83651886086E+03 -0.17864258041E+04  0.21484518741E+04  0.25500000920E-02 0.  1.
       -2    1    3    3    0  502  0.85133101520E+03 -0.83651886086E+03 -0.19390605347E+02  0.11936935526E+04  0.25500000920E-02 0. -1.
</event>
<event>
 5   0  0.1377807E-06  0.2806586E+04  0.7818609E-02  0.8301227E-01
        2   -1    0    0  501    0  0.00000000000E+00  0.00000000000E+00  0.12801923111E+04  0.12801923111E+04  0.25500000920E-02 0.  1.
       -2   -1    0    0    0  501  0.00000000000E+00  0.00000000000E+00 -0.15382306304E+04  0.15382306304E+04  0.25500000920E-02 0. -1.
    10030    2    1    2    0    0  0.00000000000E+00  0.00000000000E+00 -0.25803831928E+03  0.28184229414E+04  0.28065858445E+04 0.  0.
        2    1    3    3  502    0 -0.64522480551E+02 -0.49851884317E+03 -0.14447154916E+04  0.15296689312E+04  0.25500000920E-02 0. -1.
       -2    1    3    3    0  502  0.64522480551E+02  0.49851884317E+03  0.11866771723E+04  0.12887540102E+04  0.25500000920E-02 0.  1.
</event>
<event>
 5   0  0.1394410E-06  0.2799657E+04  0.7818609E-02  0.8303375E-01
       -2   -1    0    0    0  501  0.00000000000E+00  0.00000000000E+00  0.15503655121E+04  0.15503655121E+04  0.25500000920E-02 0.  1.
        2   -1    0    0  501    0  0.00000000000E+00  0.00000000000E+00 -0.12639086155E+04  0.12639086155E+04  0.25500000920E-02 0. -1.
    10030    2    1    2    0    0  0.00000000000E+00  0.00000000000E+00  0.28645689659E+03  0.28142741277E+04  0.27996573562E+04 0.  0.
        4    1    3    3  502    0  0.20266378656E+03 -0.10357257235E+04  0.10676592078E+04  0.15012322210E+04  0.12699999809E+01 0.  1.
       -4    1    3    3    0  502 -0.20266378656E+03  0.10357257235E+04 -0.78120231120E+03  0.13130419066E+04  0.12699999809E+01 0. -1.
</event>
<event>
 5   0  0.1439207E-06  0.2802684E+04  0.7818609E-02  0.8302436E-01
       -2   -1    0    0    0  501  0.00000000000E+00  0.00000000000E+00  0.13535918978E+04  0.13535918978E+04  0.25500000920E-02 0.  1.
        2   -1    0    0  501    0  0.00000000000E+00  0.00000000000E+00 -0.14507766129E+04  0.14507766129E+04  0.25500000920E-02 0. -1.
    10030    2    1    2    0    0  0.00000000000E+00  0.00000000000E+00 -0.97184715056E+02  0.28043685107E+04  0.28026840483E+04 0.  0.
        5    1    3    3  502    0  0.44426154241E+03 -0.13186322578E+04 -0.21475850650E+03  0.14079427032E+04  0.46999998093E+01 0. -1.
       -5    1    3    3    0  502 -0.44426154241E+03  0.13186322578E+04  0.11757379144E+03  0.13964258075E+04  0.46999998093E+01 0.  1.
</event>
<event>
 5   0  0.1461146E-06  0.2801634E+04  0.7818609E-02  0.8302761E-01
        2   -1    0    0  501    0  0.00000000000E+00  0.00000000000E+00  0.27275998291E+04  0.27275998291E+04  0.25500000920E-02 0.  1.
       -2   -1    0    0    0  501  0.00000000000E+00  0.00000000000E+00 -0.71941925880E+03  0.71941925880E+03  0.25500000920E-02 0. -1.
    10030    2    1    2    0    0  0.00000000000E+00  0.00000000000E+00  0.20081805703E+04  0.34470190879E+04  0.28016337001E+04 0.  0.
        1    1    3    3  502    0 -0.90781186809E+03  0.80038750372E+03  0.13623232539E+03  0.12179087776E+04  0.50400001928E-02 0. -1.
       -1    1    3    3    0  502  0.90781186809E+03 -0.80038750372E+03  0.18719482449E+04  0.22291103103E+04  0.50400001928E-02 0.  1.
</event>
<event>
 5   0  0.1439207E-06  0.2796592E+04  0.7818609E-02  0.8304327E-01
       -2   -1    0    0    0  501  0.00000000000E+00  0.00000000000E+00  0.71614572814E+03  0.71614572814E+03  0.25500000920E-02 0.  1.
        2   -1    0    0  501    0  0.00000000000E+00  0.00000000000E+00 -0.27302154780E+04  0.27302154780E+04  0.25500000920E-02 0. -1.
    10030    2    1    2    0    0  0.00000000000E+00  0.00000000000E+00 -0.20140697499E+04  0.34463612062E+04  0.27965923203E+04 0.  0.
        5    1    3    3  502    0  0.14852669618E+03 -0.13899744891E+04 -0.10482917185E+04  0.17472912971E+04  0.46999998093E+01 0. -1.
       -5    1    3    3    0  502 -0.14852669618E+03  0.13899744891E+04 -0.96577803142E+03  0.16990699091E+04  0.46999998093E+01 0.  1.
</event>
<event>
 5   0  0.5282098E-07  0.2795027E+04  0.7818609E-02  0.8304814E-01
       -1   -1    0    0    0  501  0.00000000000E+00  0.00000000000E+00  0.13125899013E+04  0.13125899013E+04  0.50400001928E-02 0. -1.
        1   -1    0    0  501    0  0.00000000000E+00  0.00000000000E+00 -0.14879320355E+04  0.14879320355E+04  0.50400001928E-02 0.  1.
    10030    2    1    2    0    0  0.00000000000E+00  0.00000000000E+00 -0.17534213413E+03  0.28005219368E+04  0.27950274157E+04 0.  0.
        4    1    3    3  502    0  0.15818391938E+03 -0.52309156310E+03 -0.13764328365E+04  0.14809510127E+04  0.12699999809E+01 0.  1.
       -4    1    3    3    0  502 -0.15818391938E+03  0.52309156310E+03  0.12010907023E+04  0.13195709241E+04  0.12699999809E+01 0. -1.
</event>
<event>
 5   0  0.5297741E-07  0.2794560E+04  0.7818609E-02  0.8304959E-01
        1   -1    0    0  501    0  0.00000000000E+00  0.00000000000E+00  0.12658711047E+04  0.12658711047E+04  0.50400001928E-02 0.  1.
       -1   -1    0    0    0  501  0.00000000000E+00  0.00000000000E+00 -0.15423302232E+04  0.15423302233E+04  0.50400001928E-02 0. -1.
    10030    2    1    2    0    0  0.00000000000E+00  0.00000000000E+00 -0.27645911853E+03  0.28082013280E+04  0.27945599035E+04 0.  0.
        5    1    3    3  502    0 -0.55693669656E+03  0.83094478994E+03  0.84209468831E+03  0.13075906401E+04  0.46999998093E+01 0.  1.
       -5    1    3    3    0  502  0.55693669656E+03 -0.83094478994E+03 -0.11185538068E+04  0.15006106879E+04  0.46999998093E+01 0. -1.
</event>
<event>
 5   0  0.1394410E-06  0.2803029E+04  0.7818609E-02  0.8302329E-01
        2   -1    0    0  501    0  0.00000000000E+00  0.00000000000E+00  0.78255541463E+03  0.78255541463E+03  0.25500000920E-02 0. -1.
       -2   -1    0    0    0  501  0.00000000000E+00  0.00000000000E+00 -0.25100364066E+04  0.25100364066E+04  0.25500000920E-02 0.  1.
    10030    2    1    2    0    0  0.00000000000E+00  0.00000000000E+00 -0.17274809920E+04  0.32925918212E+04  0.28030287768E+04 0.  0.
        4    1    3    3  502    0  0.50058610475E+03 -0.44562333922E+03 -0.23096040576E+04  0.24048781933E+04  0.12699999809E+01 0.  1.
       -4    1    3    3    0  502 -0.50058610475E+03  0.44562333922E+03  0.58212306566E+03  0.88771362793E+03  0.12699999809E+01 0. -1.
</event>
<event>
 5   0  0.1377807E-06  0.2808575E+04  0.7818609E-02  0.8300611E-01
       -2   -1    0    0    0  501  0.00000000000E+00  0.00000000000E+00  0.10885107151E+04  0.10885107151E+04  0.25500000920E-02 0. -1.
        2   -1    0    0  501    0  0.00000000000E+00  0.00000000000E+00 -0.18116717025E+04  0.18116717025E+04  0.25500000920E-02 0.  1.
    10030    2    1    2    0    0  0.00000000000E+00  0.00000000000E+00 -0.72316098745E+03  0.29001824176E+04  0.28085754826E+04 0.  0.
        2    1    3    3  502    0 -0.10531421104E+04  0.64224340963E+03 -0.10546188704E+04  0.16229004479E+04  0.25500000920E-02 0.  1.
       -2    1    3    3    0  502  0.10531421104E+04 -0.64224340963E+03  0.33145788290E+03  0.12772819697E+04  0.25500000920E-02 0. -1.
</event>
<event>
 5   0  0.5297741E-07  0.2805507E+04  0.7818609E-02  0.8301561E-01
       -1   -1    0    0    0  501  0.00000000000E+00  0.00000000000E+00  0.99830838697E+03  0.99830838699E+03  0.50400001928E-02 0. -1.
        1   -1    0    0  501    0  0.00000000000E+00  0.00000000000E+00 -0.19710521177E+04  0.19710521177E+04  0.50400001928E-02 0.  1.
    10030    2    1    2    0    0  0.00000000000E+00  0.00000000000E+00 -0.97274373070E+03  0.29693605047E+04  0.28055073411E+04 0.  0.
        5    1    3    3  502    0  0.73956464591E+03 -0.10030665461E+04  0.19512648670E+03  0.12614257003E+04  0.46999998093E+01 0. -1.
       -5    1    3    3    0  502 -0.73956464591E+03  0.10030665461E+04 -0.11678702174E+04  0.17079348044E+04  0.46999998093E+01 0.  1.
</event>
<event>
 5   0  0.5282098E-07  0.2801053E+04  0.7818609E-02  0.8302941E-01
       -1   -1    0    0    0  501  0.00000000000E+00  0.00000000000E+00  0.12395856828E+04  0.12395856828E+04  0.50400001928E-02 0. -1.
        1   -1    0    0  501    0  0.00000000000E+00  0.00000000000E+00 -0.15823631415E+04  0.15823631415E+04  0.50400001928E-02 0.  1.
    10030    2    1    2    0    0  0.00000000000E+00  0.00000000000E+00 -0.34277745869E+03  0.28219488244E+04  0.28010531557E+04 0.  0.
        4    1    3    3  502    0  0.13479477789E+04 -0.25523465401E+03 -0.45520851906E+03  0.14454495329E+04  0.12699999809E+01 0.  1.
       -4    1    3    3    0  502 -0.13479477789E+04  0.25523465401E+03  0.11243106037E+03  0.13764992915E+04  0.12699999809E+01 0. -1.
</event>
<event>
 5   0  0.1439207E-06  0.2805776E+04  0.7818609E-02  0.8301477E-01
        2   -1    0    0  501    0  0.00000000000E+00  0.00000000000E+00  0.20138273130E+04  0.20138273130E+04  0.25500000920E-02 0. -1.
       -2   -1    0    0    0  501  0.00000000000E+00  0.00000000000E+00 -0.97729068244E+03  0.97729068245E+03  0.25500000920E-02 0.  1.
    10030    2    1    2    0    0  0.00000000000E+00  0.00000000000E+00  0.10365366305E+04  0.29911179954E+04  0.28057759490E+04 0.  0.
        5    1    3    3  502    0 -0.10884734541E+04 -0.47251030282E+02 -0.42389084228E+03  0.11690648641E+04  0.46999998093E+01 0.  1.
       -5    1    3    3    0  502  0.10884734541E+04  0.47251030282E+02  0.14604274728E+04  0.18220531314E+04  0.46999998093E+01 0. -1.
</event>
<event>
 5   0  0.5214658E-07  0.2798246E+04  0.7818609E-02  0.8303813E-01
       -1   -1    0    0    0  501  0.00000000000E+00  0.00000000000E+00  0.83892340008E+03  0.83892340010E+03  0.50400001928E-02 0. -1.
        1   -1    0    0  501    0  0.00000000000E+00  0.00000000000E+00 -0.23334016877E+04  0.23334016877E+04  0.50400001928E-02 0.  1.
    10030    2    1    2    0    0  0.00000000000E+00  0.00000000000E+00 -0.14944782876E+04  0.31723250878E+04  0.27982460775E+04 0.  0.
        2    1    3    3  502    0  0.10960689535E+03  0.11952305046E+04 -0.15623532781E+04  0.19701617691E+04  0.25500000920E-02 0.  1.
       -2    1    3    3    0  502 -0.10960689535E+03 -0.11952305046E+04  0.67874990541E+02  0.12021633187E+04  0.25500000920E-02 0. -1.
</event>
<event>
 5   0  0.5551565E-07  0.2799549E+04  0.7818609E-02  0.8303408E-01
       -1   -1    0    0    0  501  0.00000000000E+00  0.00000000000E+00  0.15895311631E+04  0.15895311631E+04  0.50400001928E-02 0.  1.
        1   -1    0    0  501    0  0.00000000000E+00  0.00000000000E+00 -0.12326710675E+04  0.12326710675E+04  0.50400001928E-02 0. -1.
    10030    2    1    2    0    0  0.00000000000E+00  0.00000000000E+00  0.35686009559E+03  0.28222022306E+04  0.27995493034E+04 0.  0.
        3    1    3    3  502    0  0.11368121365E+04  0.66309558974E+03 -0.30222088685E+03  0.13503240609E+04  0.10100000352E+00 0. -1.
       -3    1    3    3    0  502 -0.11368121365E+04 -0.66309558974E+03  0.65908098244E+03  0.14718781697E+04  0.10100000352E+00 0.  1.
</event>
<event>
 5   0  0.5362952E-07  0.2803167E+04  0.7818609E-02  0.8302286E-01
        1   -1    0    0  501    0  0.00000000000E+00  0.00000000000E+00  0.12949273034E+04  0.12949273034E+04  0.50400001928E-02 0. -1.
       -1   -1    0    0    0  501  0.00000000000E+00  0.00000000000E+00 -0.15170243902E+04  0.15170243902E+04  0.50400001928E-02 0.  1.
    10030    2    1    2    0    0  0.00000000000E+00  0.00000000000E+00 -0.22209708678E+03  0.28119516936E+04  0.28031669967E+04 0.  0.
        1    1    3    3  502    0 -0.94516778453E+03 -0.10332746682E+04 -0.16986352119E+03  0.14106212450E+04  0.50400001928E-02 0.  1.
       -1    1    3    3    0  502  0.94516778453E+03  0.10332746682E+04 -0.52233565596E+02  0.14013304486E+04  0.50400001928E-02 0. -1.
</event>
<event>
 5   0  0.1461146E-06  0.2793780E+04  0.7818609E-02  0.8305202E-01
        2   -1    0    0  501    0  0.00000000000E+00  0.00000000000E+00  0.11617023322E+04  0.11617023322E+04  0.25500000920E-02 0.  1.
       -2   -1    0    0    0  501  0.00000000000E+00  0.00000000000E+00 -0.16796918741E+04  0.16796918741E+04  0.25500000920E-02 0. -1.
    10030    2    1    2    0    0  0.00000000000E+00  0.00000000000E+00 -0.51798954195E+03  0.28413942063E+04  0.27937802115E+04 0.  0.
        1    1    3    3  502    0 -0.10441217976E+04  0.78230343383E+03 -0.76661325682E+03  0.15132365566E+04  0.50400001928E-02 0.  1.
       -1    1    3    3    0  502  0.10441217976E+04 -0.78230343383E+03  0.24862371487E+03  0.13281576497E+04  0.50400001928E-02 0. -1.
</event>
<event>
 5   0  0.1499888E-06  0.2802733E+04  0.7818609E-02  0.8302420E-01
       -2   -1    0    0    0  501  0.00000000000E+00  0.00000000000E+00  0.20868926589E+04  0.20868926589E+04  0.25500000920E-02 0.  1.
        2   -1    0    0  501    0  0.00000000000E+00  0.00000000000E+00 -0.94102982002E+03  0.94102982002E+03  0.25500000920E-02 0. -1.
    10030    2    1    2    0    0  0.00000000000E+00  0.00000000000E+00  0.11458628388E+04  0.30279224789E+04  0.28027331112E+04 0.  0.
        3    1    3    3  502    0 -0.42725311496E+03 -0.41440353904E+03 -0.79768398235E+03  0.99527647581E+03  0.10100000352E+00 0. -1.
       -3    1    3    3    0  502  0.42725311496E+03  0.41440353904E+03  0.19435468212E+04  0.20326460031E+04  0.10100000352E+00 0.  1.
</event>
<event>
 5   0  0.1439207E-06  0.2801327E+04  0.7818609E-02  0.8302857E-01
        2   -1    0    0  501    0  0.00000000000E+00  0.00000000000E+00  0.17360933086E+04  0.17360933086E+04  0.25500000920E-02 0.  1.
       -2   -1    0    0    0  501  0.00000000000E+00  0.00000000000E+00 -0.11300416272E+04  0.11300416272E+04  0.25500000920E-02 0. -1.
    10030    2    1    2    0    0  0.00000000000E+00  0.00000000000E+00  0.60605168138E+03  0.28661349359E+04  0.28013266197E+04 0.  0.
        5    1    3    3  502    0 -0.14664052703E+03  0.13885394146E+04  0.18959867362E+03  0.14090829987E+04  0.46999998093E+01 0. -1.
       -5    1    3    3    0  502  0.14664052703E+03 -0.13885394146E+04  0.41645300776E+03  0.14570519372E+04  0.46999998093E+01 0.  1.
</event>
<event>
 5   0  0.1394410E-06  0.2797230E+04  0.7818609E-02  0.8304129E-01
        2   -1    0    0  501    0  0.00000000000E+00  0.00000000000E+00  0.19001958727E+04  0.19001958727E+04  0.25500000920E-02 0. -1.
       -2   -1    0    0    0  501  0.00000000000E+00  0.00000000000E+00 -0.10294329600E+04  0.10294329600E+04  0.25500000920E-02 0.  1.
    10030    2    1    2    0    0  0.00000000000E+00  0.00000000000E+00  0.87076291264E+03  0.29296288327E+04  0.27972302456E+04 0.  0.
        4    1    3    3  502    0  0.17575648764E+02  0.12621765176E+04 -0.19539088510E+03  0.12773322496E+04  0.12699999809E+01 0.  1.
       -4    1    3    3    0  502 -0.17575648764E+02 -0.12621765176E+04  0.10661537977E+04  0.16522965831E+04  0.12699999809E+01 0. -1.
</event>
<event>
 5   0  0.1461146E-06  0.2853271E+04  0.7818609E-02  0.8286918E-01
        2   -1    0    0  501    0  0.00000000000E+00  0.00000000000E+00  0.26920319178E+04  0.26920319178E+04  0.25500000920E-02 0. -1.
       -2   -1    0    0    0  501  0.00000000000E+00  0.00000000000E+00 -0.75604172723E+03  0.75604172724E+03  0.25500000920E-02 0.  1.
    10030    2    1    2    0    0  0.00000000000E+00  0.00000000000E+00  0.19359901906E+04  0.34480736450E+04  0.28532707274E+04 0.  0.
        1    1    3    3  502    0 -0.13244338808E+04 -0.48376287034E+03  0.12303648634E+04  0.18713495976E+04  0.50400001928E-02 0. -1.
       -1    1    3    3    0  502  0.13244338808E+04  0.48376287034E+03  0.70562532720E+03  0.15767240474E+04  0.50400001928E-02 0.  1.
</event>
<event>
 5   0  0.5214658E-07  0.2814600E+04  0.7818609E-02  0.8298750E-01
       -1   -1    0    0    0  501  0.00000000000E+00  0.00000000000E+00  0.69978132199E+03  0.69978132201E+03  0.50400001928E-02 0.  1.
        1   -1    0    0  501    0  0.00000000000E+00  0.00000000000E+00 -0.28301610817E+04  0.28301610817E+04  0.50400001928E-02 0. -1.
    10030    2    1    2    0    0  0.00000000000E+00  0.00000000000E+00 -0.21303797597E+04  0.35299424037E+04  0.28146004073E+04 0.  0.
        2    1    3    3  502    0  0.82021874375E+03 -0.44219261115E+03 -0.23878323654E+04  0.25632082432E+04  0.25500000920E-02 0.  1.
       -2    1    3    3    0  502 -0.82021874375E+03  0.44219261115E+03  0.25745260564E+03  0.96673416052E+03  0.25500000920E-02 0. -1.
</event>
<event>
 5   0  0.5551565E-07  0.2805003E+04  0.7818609E-02  0.8301717E-01
       -1   -1    0    0    0  501  0.00000000000E+00  0.00000000000E+00  0.13062240667E+04  0.13062240668E+04  0.50400001928E-02 0.  1.
        1   -1    0    0  501    0  0.00000000000E+00  0.00000000000E+00 -0.15058749288E+04  0.15058749289E+04  0.50400001928E-02 0. -1.
    10030    2    1    2    0    0  0.00000000000E+00  0.00000000000E+00 -0.19965086210E+03  0.28120989956E+04  0.28050027263E+04 0.  0.
        3    1    3    3  502    0 -0.68357069394E+03 -0.87185697093E+03  0.76235409238E+03  0.13448372555E+04  0.10100000352E+00 0.  1.
       -3    1    3    3    0  502  0.68357069394E+03  0.87185697093E+03 -0.96200495448E+03  0.14672617401E+04  0.10100000352E+00 0. -1.
</event>
<event>
 5   0  0.1499888E-06  0.2796863E+04  0.7818609E-02  0.8304243E-01
        2   -1    0    0  501    0  0.00000000000E+00  0.00000000000E+00  0.22412610993E+04  0.22412610993E+04  0.25500000920E-02 0. -1.
       -2   -1    0    0    0  501  0.00000000000E+00  0.00000000000E+00 -0.87254940243E+03  0.87254940244E+03  0.25500000920E-02 0.  1.
    10030    2    1    2    0    0  0.00000000000E+00  0.00000000000E+00  0.13687116969E+04  0.31138105018E+04  0.27968632665E+04 0.  0.
        3    1    3    3  502    0 -0.48838234265E+03 -0.22493362969E+02  0.21430154316E+04  0.21980760710E+04  0.10100000352E+00 0. -1.
       -3    1    3    3    0  502  0.48838234265E+03  0.22493362969E+02 -0.77430373464E+03  0.91573443075E+03  0.10100000352E+00 0.  1.
</event>
<event>
 5   0  0.1499888E-06  0.2803731E+04  0.7818609E-02  0.8302111E-01
       -2   -1    0    0    0  501  0.00000000000E+00  0.00000000000E+00  0.11915123663E+04  0.11915123663E+04  0.25500000920E-02 0.  1.
        2   -1    0    0  501    0  0.00000000000E+00  0.00000000000E+00 -0.16493555539E+04  0.16493555539E+04  0.25500000920E-02 0. -1.
    10030    2    1    2    0    0  0.00000000000E+00  0.00000000000E+00 -0.45784318763E+03  0.28408679201E+04  0.28037314699E+04 0.  0.
        3    1    3    3  502    0  0.84805443813E+03  0.10758106765E+04 -0.53062820420E+03  0.14690579440E+04  0.10100000352E+00 0. -1.
       -3    1    3    3    0  502 -0.84805443813E+03 -0.10758106765E+04  0.72785016571E+02  0.13718099761E+04  0.10100000352E+00 0.  1.
</event>
<event>
 5   0  0.5282098E-07  0.2792611E+04  0.7818609E-02  0.8305566E-01
       -1   -1    0    0    0  501  0.00000000000E+00  0.00000000000E+00  0.13013523978E+04  0.13013523978E+04  0.50400001928E-02 0. -1.
        1   -1    0    0  501    0  0.00000000000E+00  0.00000000000E+00 -0.14981865343E+04  0.14981865343E+04  0.50400001928E-02 0.  1.
    10030    2    1    2    0    0  0.00000000000E+00  0.00000000000E+00 -0.19683413651E+03  0.27995389320E+04  0.27926107059E+04 0.  0.
        4    1    3    3  502    0 -0.45248774941E+03 -0.77097238267E+03  0.97686858110E+03  0.13241666873E+04  0.12699999809E+01 0. -1.
       -4    1    3    3    0  502  0.45248774941E+03  0.77097238267E+03 -0.11737027176E+04  0.14753722447E+04  0.12699999809E+01 0.  1.
</event>
<event>
 5   0  0.5362952E-07  0.2797408E+04  0.7818609E-02  0.8304074E-01
        1   -1    0    0  501    0  0.00000000000E+00  0.00000000000E+00  0.29948782264E+04  0.29948782264E+04  0.50400001928E-02 0. -1.
       -1   -1    0    0    0  501  0.00000000000E+00  0.00000000000E+00 -0.65323941823E+03  0.65323941825E+03  0.50400001928E-02 0.  1.
    10030    2    1    2    0    0  0.00000000000E+00  0.00000000000E+00  0.23416388081E+04  0.36481176446E+04  0.27974077360E+04 0.  0.
        1    1    3    3  502    0  0.87129516792E+03 -0.71956008334E+02  0.25946502595E+04  0.27379815387E+04  0.50400001928E-02 0. -1.
       -1    1    3    3    0  502 -0.87129516792E+03  0.71956008334E+02 -0.25301145140E+03  0.91013610594E+03  0.50400001928E-02 0.  1.
</event>
<event>
 5   0  0.1439207E-06  0.2799004E+04  0.7818609E-02  0.8303578E-01
        2   -1    0    0  501    0  0.00000000000E+00  0.00000000000E+00  0.19981934609E+04  0.19981934609E+04  0.25500000920E-02 0. -1.
       -2   -1    0    0    0  501  0.00000000000E+00  0.00000000000E+00 -0.98018803631E+03  0.98018803631E+03  0.25500000920E-02 0.  1.
    10030    2    1    2    0    0  0.00000000000E+00  0.00000000000E+00  0.10180054246E+04  0.29783814972E+04  0.27990036260E+04 0.  0.
        5    1    3    3  502    0 -0.12580839475E+03 -0.15904405401E+03 -0.96446313489E+03  0.98556277926E+03  0.46999998093E+01 0.  1.
       -5    1    3    3    0  502  0.12580839475E+03  0.15904405401E+03  0.19824685595E+04  0.19928187180E+04  0.46999998093E+01 0. -1.
</event>
<event>
 5   0  0.5282098E-07  0.2800927E+04  0.7818609E-02  0.8302981E-01
       -1   -1    0    0    0  501  0.00000000000E+00  0.00000000000E+00  0.81433820735E+03  0.81433820736E+03  0.50400001928E-02 0. -1.
        1   -1    0    0  501    0  0.00000000000E+00  0.00000000000E+00 -0.24084567389E+04  0.24084567389E+04  0.50400001928E-02 0.  1.
    10030    2    1    2    0    0  0.00000000000E+00  0.00000000000E+00 -0.15941185316E+04  0.32227949463E+04  0.28009272345E+04 0.  0.
        4    1    3    3  502    0 -0.12099897369E+04  0.56444790212E+03 -0.31076846806E+03  0.13708593113E+04  0.12699999809E+01 0. -1.
       -4    1    3    3    0  502  0.12099897369E+04 -0.56444790212E+03 -0.12833500635E+04  0.18519356350E+04  0.12699999809E+01 0.  1.
</event>
<event>
 5   0  0.5362952E-07  0.2799803E+04  0.7818609E-02  0.8303330E-01
       -1   -1    0    0    0  501  0.00000000000E+00  0.00000000000E+00  0.68779281859E+03  0.68779281861E+03  0.50400001928E-02 0.  1.
        1   -1    0    0  501    0  0.00000000000E+00  0.00000000000E+00 -0.28492943413E+04  0.28492943414E+04  0.50400001928E-02 0. -1.
    10030    2    1    2    0    0  0.00000000000E+00  0.00000000000E+00 -0.21615015228E+04  0.35370871600E+04  0.27998029831E+04 0.  0.
        1    1    3    3  502    0  0.69890006310E+03  0.21386053009E+03 -0.25891140255E+04  0.26902990654E+04  0.50400001928E-02 0.  1.
       -1    1    3    3    0  502 -0.69890006310E+03 -0.21386053009E+03  0.42761250271E+03  0.84678809453E+03  0.50400001928E-02 0. -1.
</event>
<event>
 5   0  0.1394410E-06  0.2794708E+04  0.7818609E-02  0.8304913E-01
       -2   -1    0    0    0  501  0.00000000000E+00  0.00000000000E+00  0.92550763871E+03  0.92550763872E+03  0.25500000920E-02 0.  1.
        2   -1    0    0  501    0  0.00000000000E+00  0.00000000000E+00 -0.21097591171E+04  0.21097591171E+04  0.25500000920E-02 0. -1.
    10030    2    1    2    0    0  0.00000000000E+00  0.00000000000E+00 -0.11842514784E+04  0.30352667558E+04  0.27947079838E+04 0.  0.
        4    1    3    3  502    0  0.97808465146E+03 -0.96876028828E+03 -0.33180589447E+03  0.14160659752E+04  0.12699999809E+01 0. -1.
       -4    1    3    3    0  502 -0.97808465146E+03  0.96876028828E+03 -0.85244558390E+03  0.16192007806E+04  0.12699999809E+01 0.  1.
</event>
<event>
 5   0  0.5551565E-07  0.2795499E+04  0.7818609E-02  0.8304667E-01
        1   -1    0    0  501    0  0.00000000000E+00  0.00000000000E+00  0.20546640749E+04  0.20546640749E+04  0.50400001928E-02 0.  1.
       -1   -1    0    0    0  501  0.00000000000E+00  0.00000000000E+00 -0.95086299202E+03  0.95086299204E+03  0.50400001928E-02 0. -1.
    10030    2    1    2    0    0  0.00000000000E+00  0.00000000000E+00  0.11038010829E+04  0.30055270669E+04  0.27954992612E+04 0.  0.
        3    1    3    3  502    0 -0.12383236478E+04 -0.54436372317E+03  0.17341987134E+03  0.13637638292E+04  0.10100000352E+00 0. -1.
       -3    1    3    3    0  502  0.12383236478E+04  0.54436372317E+03  0.93038121153E+03  0.16417632377E+04  0.10100000352E+00 0.  1.
</event>
<event>
 5   0  0.5362952E-07  0.2822064E+04  0.7818609E-02  0.8296451E-01
        1   -1    0    0  501    0  0.00000000000E+00  0.00000000000E+00  0.98839894914E+03  0.98839894915E+03  0.50400001928E-02 0.  1.
       -1   -1    0    0    0  501  0.00000000000E+00  0.00000000000E+00 -0.20143796056E+04  0.20143796056E+04  0.50400001928E-02 0. -1.
    10030    2    1    2    0    0  0.00000000000E+00  0.00000000000E+00 -0.10259806565E+04  0.30027785548E+04  0.28220635609E+04 0.  0.
        1    1    3    3  502    0 -0.14095265789E+04  0.28487478762E+02 -0.45063768055E+03  0.14800848058E+04  0.50400001928E-02 0.  1.
       -1    1    3    3    0  502  0.14095265789E+04 -0.28487478762E+02 -0.57534297592E+03  0.15226937490E+04  0.50400001928E-02 0. -1.
</event>
<event>
 5   0  0.5362952E-07  0.2797058E+04  0.7818609E-02  0.8304182E-01
        1   -1    0    0  501    0  0.00000000000E+00  0.00000000000E+00  0.16030780700E+04  0.16030780700E+04  0.50400001928E-02 0. -1.
       -1   -1    0    0    0  501  0.00000000000E+00  0.00000000000E+00 -0.12200795047E+04  0.12200795047E+04  0.50400001928E-02 0.  1.
    10030    2    1    2    0    0  0.00000000000E+00  0.00000000000E+00  0.38299856531E+03  0.28231575748E+04  0.27970575237E+04 0.  0.
        1    1    3    3  502    0  0.63277791797E+03  0.86128391141E+03  0.11019501053E+04  0.15350934512E+04  0.50400001928E-02 0. -1.
       -1    1    3    3    0  502 -0.63277791797E+03 -0.86128391141E+03 -0.71895153995E+03  0.12880641235E+04  0.50400001928E-02 0.  1.
</event>
<event>
 5   0  0.5297741E-07  0.2810853E+04  0.7818609E-02  0.8299907E-01
       -1   -1    0    0    0  501  0.00000000000E+00  0.00000000000E+00  0.13654126635E+04  0.13654126635E+04  0.50400001928E-02 0. -1.
        1   -1    0    0  501    0  0.00000000000E+00  0.00000000000E+00 -0.14466127215E+04  0.14466127215E+04  0.50400001928E-02 0.  1.
    10030    2    1    2    0    0  0.00000000000E+00  0.00000000000E+00 -0.81200058022E+02  0.28120253849E+04  0.28108527738E+04 0.  0.
        5    1    3    3  502    0 -0.49578560618E+03 -0.11226010071E+04  0.64464180985E+03  0.13862256460E+04  0.46999998093E+01 0. -1.
       -5    1    3    3    0  502  0.49578560618E+03  0.11226010071E+04 -0.72584186787E+03  0.14257997390E+04  0.46999998093E+01 0.  1.
</event>
<event>
 5   0  0.5297741E-07  0.2782543E+04  0.7818609E-02  0.8308709E-01
        1   -1    0    0  501    0  0.00000000000E+00  0.00000000000E+00  0.15017190219E+04  0.15017190219E+04  0.50400001928E-02 0. -1.
       -1   -1    0    0    0  501  0.00000000000E+00  0.00000000000E+00 -0.12889466457E+04  0.12889466457E+04  0.50400001928E-02 0.  1.
    10030    2    1    2    0    0  0.00000000000E+00  0.00000000000E+00  0.21277237618E+03  0.27906656676E+04  0.27825425036E+04 0.  0.
        5    1    3    3  502    0 -0.17644887420E+02 -0.33203331403E+03 -0.12485040600E+04  0.12920301627E+04  0.46999998093E+01 0.  1.
       -5    1    3    3    0  502  0.17644887420E+02  0.33203331403E+03  0.14612764361E+04  0.14986355049E+04  0.46999998093E+01 0. -1.
</event>
<event>
 5   0  0.5214658E-07  0.2801384E+04  0.7818609E-02  0.8302839E-01
       -1   -1    0    0    0  501  0.00000000000E+00  0.00000000000E+00  0.12310942032E+04  0.12310942032E+04  0.50400001928E-02 0. -1.
        1   -1    0    0  501    0  0.00000000000E+00  0.00000000000E+00 -0.15936534761E+04  0.15936534761E+04  0.50400001928E-02 0.  1.
    10030    2    1    2    0    0  0.00000000000E+00  0.00000000000E+00 -0.36255927286E+03  0.28247476793E+04  0.28013836270E+04 0.  0.
        2    1    3    3  502    0 -0.26060852205E+03  0.22811427804E+02  0.12062420328E+04  0.12342840049E+04  0.25500000920E-02 0. -1.
       -2    1    3    3    0  502  0.26060852205E+03 -0.22811427804E+02 -0.15688013057E+04  0.15904636744E+04  0.25500000920E-02 0.  1.
</event>
<event>
 5   0  0.5214658E-07  0.2800821E+04  0.7818609E-02  0.8303014E-01
       -1   -1    0    0    0  501  0.00000000000E+00  0.00000000000E+00  0.85593478691E+03  0.85593478693E+03  0.50400001928E-02 0. -1.
        1   -1    0    0  501    0  0.00000000000E+00  0.00000000000E+00 -0.22912366591E+04  0.22912366591E+04  0.50400001928E-02 0.  1.
    10030    2    1    2    0    0  0.00000000000E+00  0.00000000000E+00 -0.14353018722E+04  0.31471714460E+04  0.28008207094E+04 0.  0.
        2    1    3    3  502    0  0.29517691854E+03 -0.13472706399E+04 -0.44498882758E+03  0.14492351938E+04  0.25500000920E-02 0. -1.
       -2    1    3    3    0  502 -0.29517691854E+03  0.13472706399E+04 -0.99031304461E+03  0.16979362522E+04  0.25500000920E-02 0.  1.
</event>
<event>
 5   0  0.5214658E-07  0.2809152E+04  0.7818609E-02  0.8300433E-01
       -1   -1    0    0    0  501  0.00000000000E+00  0.00000000000E+00  0.14599151905E+04  0.14599151905E+04  0.50400001928E-02 0.  1.
        1   -1    0    0  501    0  0.00000000000E+00  0.00000000000E+00 -0.13513340569E+04  0.13513340569E+04  0.50400001928E-02 0. -1.
    10030    2    1    2    0    0  0.00000000000E+00  0.00000000000E+00  0.10858113362E+03  0.28112492474E+04  0.28091515567E+04 0.  0.
        2    1    3    3  502    0  0.78769217579E+03  0.28772570255E+03  0.11818919467E+04  0.14491768758E+04  0.25500000920E-02 0.  1.
       -2    1    3    3    0  502 -0.78769217579E+03 -0.28772570255E+03 -0.10733108131E+04  0.13620723715E+04  0.25500000920E-02 0. -1.
</event>
<event>
 5   0  0.1439207E-06  0.2800013E+04  0.7818609E-02  0.8303264E-01
       -2   -1    0    0    0  501  0.00000000000E+00  0.00000000000E+00  0.15083284450E+04  0.15083284450E+04  0.25500000920E-02 0.  1.
        2   -1    0    0  501    0  0.00000000000E+00  0.00000000000E+00 -0.12994635441E+04  0.12994635441E+04  0.25500000920E-02 0. -1.
    10030    2    1    2    0    0  0.00000000000E+00  0.00000000000E+00  0.20886490087E+03  0.28077919891E+04  0.28000127334E+04 0.  0.
        5    1    3    3  502    0  0.83368909836E+03  0.90747607331E+03  0.77069196240E+03  0.14534574391E+04  0.46999998093E+01 0.  1.
       -5    1    3    3    0  502 -0.83368909836E+03 -0.90747607331E+03 -0.56182706153E+03  0.13543345500E+04  0.46999998093E+01 0. -1.
</event>
<event>
 5   0  0.5362952E-07  0.2792790E+04  0.7818609E-02  0.8305510E-01
        1   -1    0    0  501    0  0.00000000000E+00  0.00000000000E+00  0.28451594861E+04  0.28451594861E+04  0.50400001928E-02 0. -1.
       -1   -1    0    0    0  501  0.00000000000E+00  0.00000000000E+00 -0.68534618687E+03  0.68534618689E+03  0.50400001928E-02 0.  1.
    10030    2    1    2    0    0  0.00000000000E+00  0.00000000000E+00  0.21598132992E+04  0.35305056730E+04  0.27927901496E+04 0.  0.
        1    1    3    3  502    0 -0.50211065817E+03 -0.10179270285E+04  0.21081733298E+04  0.23943026828E+04  0.50400001928E-02 0. -1.
       -1    1    3    3    0  502  0.50211065817E+03  0.10179270285E+04  0.51639969448E+02  0.11362029902E+04  0.50400001928E-02 0.  1.
</event>
<event>
 5   0  0.4710000E-07  0.2801494E+04  0.7818609E-02  0.8302805E-01
       -3   -1    0    0    0  501  0.00000000000E+00  0.00000000000E+00  0.84912488902E+03  0.84912489503E+03  0.10100000352E+00 0. -1.
        3   -1    0    0  501    0  0.00000000000E+00  0.00000000000E+00 -0.23107220148E+04  0.23107220170E+04  0.10100000352E+00 0.  1.
    10030    2    1    2    0    0  0.00000000000E+00  0.00000000000E+00 -0.14615971258E+04  0.31598469121E+04  0.28014935926E+04 0.  0.
        3    1    3    3  502    0 -0.11466140792E+03  0.78885588676E+03 -0.20299348361E+04  0.21808430246E+04  0.10100000352E+00 0.  1.
       -3    1    3    3    0  502  0.11466140792E+03 -0.78885588676E+03  0.56833771034E+03  0.97900388750E+03  0.10100000352E+00 0. -1.
</event>
<event>
 5   0  0.1439207E-06  0.2760426E+04  0.7818609E-02  0.8315661E-01
       -2   -1    0    0    0  501  0.00000000000E+00  0.00000000000E+00  0.12147300657E+04  0.12147300657E+04  0.25500000920E-02 0.  1.
        2   -1    0    0  501    0  0.00000000000E+00  0.00000000000E+00 -0.15682400083E+04  0.15682400083E+04  0.25500000920E-02 0. -1.
    10030    2    1    2    0    0  0.00000000000E+00  0.00000000000E+00 -0.35350994262E+03  0.27829700740E+04  0.27604262629E+04 0.  0.
        5    1    3    3  502    0  0.50339907368E+02  0.82727325317E+03  0.93591183474E+03  0.12501472690E+04  0.46999998093E+01 0.  1.
       -5    1    3    3    0  502 -0.50339907368E+02 -0.82727325317E+03 -0.12894217774E+04  0.15328228050E+04  0.46999998093E+01 0. -1.
</event>
<event>
 5   0  0.5282098E-07  0.2800418E+04  0.7818609E-02  0.8303138E-01
        1   -1    0    0  501    0  0.00000000000E+00  0.00000000000E+00  0.17593958181E+04  0.17593958181E+04  0.50400001928E-02 0.  1.
       -1   -1    0    0    0  501  0.00000000000E+00  0.00000000000E+00 -0.11143517928E+04  0.11143517928E+04  0.50400001928E-02 0. -1.
    10030    2    1    2    0    0  0.00000000000E+00  0.00000000000E+00  0.64504402535E+03  0.28737476109E+04  0.28004184574E+04 0.  0.
        4    1    3    3  502    0  0.13935799623E+04  0.70342047862E+02  0.20297626929E+03  0.14100404582E+04  0.12699999809E+01 0. -1.
       -4    1    3    3    0  502 -0.13935799623E+04 -0.70342047862E+02  0.44206775606E+03  0.14637071527E+04  0.12699999809E+01 0.  1.
</event>
<event>
 5   0  0.1394410E-06  0.2801224E+04  0.7818609E-02  0.8302889E-01
        2   -1    0    0  501    0  0.00000000000E+00  0.00000000000E+00  0.14891409323E+04  0.14891409323E+04  0.25500000920E-02 0. -1.
       -2   -1    0    0    0  501  0.00000000000E+00  0.00000000000E+00 -0.13173458695E+04  0.13173458695E+04  0.25500000920E-02 0.  1.
    10030    2    1    2    0    0  0.00000000000E+00  0.00000000000E+00  0.17179506287E+03  0.28064868018E+04  0.28012237727E+04 0.  0.
        4    1    3    3  502    0  0.80854076481E+03  0.20999697521E+03 -0.10404367108E+04  0.13342964663E+04  0.12699999809E+01 0.  1.
       -4    1    3    3    0  502 -0.80854076481E+03 -0.20999697521E+03  0.12122317737E+04  0.14721903355E+04  0.12699999809E+01 0. -1.
</event>
<event>
 5   0  0.1461146E-06  0.2804152E+04  0.7818609E-02  0.8301980E-01
       -2   -1    0    0    0  501  0.00000000000E+00  0.00000000000E+00  0.14460986953E+04  0.14460986953E+04  0.25500000920E-02 0.  1.
        2   -1    0    0  501    0  0.00000000000E+00  0.00000000000E+00 -0.13593934791E+04  0.13593934791E+04  0.25500000920E-02 0. -1.
    10030    2    1    2    0    0  0.00000000000E+00  0.00000000000E+00  0.86705216256E+02  0.28054921744E+04  0.28041520191E+04 0.  0.
        1    1    3    3  502    0  0.12683907555E+04 -0.25971096924E+03 -0.49500514550E+03  0.13861078567E+04  0.50400001928E-02 0. -1.
       -1    1    3    3    0  502 -0.12683907555E+04  0.25971096924E+03  0.58171036176E+03  0.14193843177E+04  0.50400001928E-02 0.  1.
</event>
<event>
 5   0  0.5551565E-07  0.2795775E+04  0.7818609E-02  0.8304581E-01
        1   -1    0    0  501    0  0.00000000000E+00  0.00000000000E+00  0.20043030418E+04  0.20043030418E+04  0.50400001928E-02 0. -1.
       -1   -1    0    0    0  501  0.00000000000E+00  0.00000000000E+00 -0.97494740453E+03  0.97494740454E+03  0.50400001928E-02 0.  1.
    10030    2    1    2    0    0  0.00000000000E+00  0.00000000000E+00  0.10293556372E+04  0.29792504463E+04  0.27957754191E+04 0.  0.
        3    1    3    3  502    0  0.46897448334E+03  0.11592620910E+04 -0.15103081018E+03  0.12596173933E+04  0.10100000352E+00 0.  1.
       -3    1    3    3    0  502 -0.46897448334E+03 -0.11592620910E+04  0.11803864474E+04  0.17196330530E+04  0.10100000352E+00 0. -1.
</event>
<event>
 5   0  0.1499888E-06  0.2762380E+04  0.7818609E-02  0.8315044E-01
       -2   -1    0    0    0  501  0.00000000000E+00  0.00000000000E+00  0.90160911879E+03  0.90160911880E+03  0.25500000920E-02 0. -1.
        2   -1    0    0  501    0  0.00000000000E+00  0.00000000000E+00 -0.21158673054E+04  0.21158673054E+04  0.25500000920E-02 0.  1.
    10030    2    1    2    0    0  0.00000000000E+00  0.00000000000E+00 -0.12142581867E+04  0.30174764242E+04  0.27623795950E+04 0.  0.
        3    1    3    3  502    0 -0.10933052327E+04  0.67539131868E+03 -0.11600502553E+04  0.17312383921E+04  0.10100000352E+00 0.  1.
       -3    1    3    3    0  502  0.10933052327E+04 -0.67539131868E+03 -0.54207931365E+02  0.12862380321E+04  0.10100000352E+00 0. -1.
</event>
<event>
 5   0  0.5282098E-07  0.2806275E+04  0.7818609E-02  0.8301323E-01
        1   -1    0    0  501    0  0.00000000000E+00  0.00000000000E+00  0.20008096121E+04  0.20008096121E+04  0.50400001928E-02 0.  1.
       -1   -1    0    0    0  501  0.00000000000E+00  0.00000000000E+00 -0.98399941622E+03  0.98399941623E+03  0.50400001928E-02 0. -1.
    10030    2    1    2    0    0  0.00000000000E+00  0.00000000000E+00  0.10168101959E+04  0.29848090283E+04  0.28062754607E+04 0.  0.
        4    1    3    3  502    0  0.20016543706E+03  0.11755295292E+04  0.12949500287E+04  0.17603502680E+04  0.12699999809E+01 0.  1.
       -4    1    3    3    0  502 -0.20016543706E+03 -0.11755295292E+04 -0.27813983280E+03  0.12244587604E+04  0.12699999809E+01 0. -1.
</event>
<event>
 5   0  0.1377807E-06  0.2800421E+04  0.7818609E-02  0.8303138E-01
       -2   -1    0    0    0  501  0.00000000000E+00  0.00000000000E+00  0.29779015622E+04  0.29779015622E+04  0.25500000920E-02 0.  1.
        2   -1    0    0  501    0  0.00000000000E+00  0.00000000000E+00 -0.65837968256E+03  0.65837968257E+03  0.25500000920E-02 0. -1.
    10030    2    1    2    0    0  0.00000000000E+00  0.00000000000E+00  0.23195218797E+04  0.36362812448E+04  0.28004213149E+04 0.  0.
        2    1    3    3  502    0 -0.30380732337E+03 -0.39711753942E+03  0.28580315158E+04  0.29014385010E+04  0.25500000920E-02 0.  1.
       -2    1    3    3    0  502  0.30380732337E+03  0.39711753942E+03 -0.53850963614E+03  0.73484274377E+03  0.25500000920E-02 0. -1.
</event>
<event>
 5   0  0.5282098E-07  0.2798849E+04  0.7818609E-02  0.8303626E-01
        1   -1    0    0  501    0  0.00000000000E+00  0.00000000000E+00  0.20230395212E+04  0.20230395212E+04  0.50400001928E-02 0.  1.
       -1   -1    0    0    0  501  0.00000000000E+00  0.00000000000E+00 -0.96804305782E+03  0.96804305783E+03  0.50400001928E-02 0. -1.
    10030    2    1    2    0    0  0.00000000000E+00  0.00000000000E+00  0.10549964634E+04  0.29910825791E+04  0.27988493095E+04 0.  0.
        4    1    3    3  502    0 -0.11659726151E+04  0.67559309497E+03  0.12412231787E+03  0.13532649895E+04  0.12699999809E+01 0. -1.
       -4    1    3    3    0  502  0.11659726151E+04 -0.67559309497E+03  0.93087414555E+03  0.16378175896E+04  0.12699999809E+01 0.  1.
</event>
<event>
 5   0  0.5282098E-07  0.2799179E+04  0.7818609E-02  0.8303523E-01
        1   -1    0    0  501    0  0.00000000000E+00  0.00000000000E+00  0.91415621342E+03  0.91415621344E+03  0.50400001928E-02 0. -1.
       -1   -1    0    0    0  501  0.00000000000E+00  0.00000000000E+00 -0.21427962892E+04  0.21427962892E+04  0.50400001928E-02 0.  1.
    10030    2    1    2    0    0  0.00000000000E+00  0.00000000000E+00 -0.12286400758E+04  0.30569525026E+04  0.27991788381E+04 0.  0.
        4    1    3    3  502    0 -0.10046658905E+04  0.94719058086E+03 -0.36450749283E+03  0.14280724328E+04  0.12699999809E+01 0.  1.
       -4    1    3    3    0  502  0.10046658905E+04 -0.94719058086E+03 -0.86413258293E+03  0.16288800698E+04  0.12699999809E+01 0. -1.
</event>
<event>
 5   0  0.5214658E-07  0.2802085E+04  0.7818609E-02  0.8302621E-01
        1   -1    0    0  501    0  0.00000000000E+00  0.00000000000E+00  0.96387061712E+03  0.96387061713E+03  0.50400001928E-02 0.  1.
       -1   -1    0    0    0  501  0.00000000000E+00  0.00000000000E+00 -0.20364969400E+04  0.20364969400E+04  0.50400001928E-02 0. -1.
    10030    2    1    2    0    0  0.00000000000E+00  0.00000000000E+00 -0.10726263229E+04  0.30003675571E+04  0.28020846257E+04 0.  0.
        2    1    3    3  502    0 -0.13837805889E+04  0.19670290792E+03 -0.43261594853E+03  0.14631122005E+04  0.25500000920E-02 0. -1.
       -2    1    3    3    0  502  0.13837805889E+04 -0.19670290792E+03 -0.64001037432E+03  0.15372553566E+04  0.25500000920E-02 0.  1.
</event>
<event>
 5   0  0.1377807E-06  0.2800750E+04  0.7818609E-02  0.8303036E-01
        2   -1    0    0  501    0  0.00000000000E+00  0.00000000000E+00  0.16253041734E+04  0.16253041734E+04  0.25500000920E-02 0. -1.
       -2   -1    0    0    0  501  0.00000000000E+00  0.00000000000E+00 -0.12065738438E+04  0.12065738438E+04  0.25500000920E-02 0.  1.
    10030    2    1    2    0    0  0.00000000000E+00  0.00000000000E+00  0.41873032958E+03  0.28318780171E+04  0.28007495452E+04 0.  0.
        2    1    3    3  502    0  0.12940676257E+04 -0.60502310955E+02  0.74704412451E+03  0.14954418991E+04  0.25500000920E-02 0.  1.
       -2    1    3    3    0  502 -0.12940676257E+04  0.60502310955E+02 -0.32831379493E+03  0.13364361180E+04  0.25500000920E-02 0. -1.
</event>
<event>
 5   0  0.1461146E-06  0.2786731E+04  0.7818609E-02  0.8307400E-01
       -2   -1    0    0    0  501  0.00000000000E+00  0.00000000000E+00  0.11461480105E+04  0.11461480105E+04  0.25500000920E-02 0.  1.
        2   -1    0    0  501    0  0.00000000000E+00  0.00000000000E+00 -0.16939067828E+04  0.16939067829E+04  0.25500000920E-02 0. -1.
    10030    2    1    2    0    0  0.00000000000E+00  0.00000000000E+00 -0.54775877234E+03  0.28400547934E+04  0.27867313392E+04 0.  0.
        1    1    3    3  502    0 -0.82569422787E+03  0.95871042648E+03  0.32087219956E+03  0.13053182019E+04  0.50400001928E-02 0.  1.
       -1    1    3    3    0  502  0.82569422787E+03 -0.95871042648E+03 -0.86863097189E+03  0.15347365914E+04  0.50400001928E-02 0. -1.
</event>
<event>
 5   0  0.4710000E-07  0.2803364E+04  0.7818609E-02  0.8302225E-01
       -4   -1    0    0    0  501  0.00000000000E+00  0.00000000000E+00  0.15245568211E+04  0.15245573500E+04  0.12699999809E+01 0.  1.
        4   -1    0    0  501    0  0.00000000000E+00  0.00000000000E+00 -0.12887097785E+04  0.12887104042E+04  0.12699999809E+01 0. -1.
    10030    2    1    2    0    0  0.00000000000E+00  0.00000000000E+00  0.23584704260E+03  0.28132677543E+04  0.28033643413E+04 0.  0.
        5    1    3    3  502    0  0.58132471123E+03 -0.12695189423E+04  0.24113368618E+03  0.14169630586E+04  0.46999998093E+01 0.  1.
       -5    1    3    3    0  502 -0.58132471123E+03  0.12695189423E+04 -0.52866435790E+01  0.13963046957E+04  0.46999998093E+01 0. -1.
</event>
<event>
 5   0  0.1461146E-06  0.2795510E+04  0.7818609E-02  0.8304664E-01
        2   -1    0    0  501    0  0.00000000000E+00  0.00000000000E+00  0.15798589480E+04  0.15798589480E+04  0.25500000920E-02 0.  1.
       -2   -1    0    0    0  501  0.00000000000E+00  0.00000000000E+00 -0.12366418390E+04  0.12366418390E+04  0.25500000920E-02 0. -1.
    10030    2    1    2    0    0  0.00000000000E+00  0.00000000000E+00  0.34321710903E+03  0.28165007870E+04  0.27955104541E+04 0.  0.
        1    1    3    3  502    0 -0.13677414252E+04  0.38594776034E+02 -0.11604090218E+03  0.13731976020E+04  0.50400001928E-02 0. -1.
       -1    1    3    3    0  502  0.13677414252E+04 -0.38594776034E+02  0.45925801122E+03  0.14433031850E+04  0.50400001928E-02 0.  1.
</event>
<event>
 5   0  0.5362952E-07  0.2822388E+04  0.7818609E-02  0.8296351E-01
       -1   -1    0    0    0  501  0.00000000000E+00  0.00000000000E+00  0.29820233799E+04  0.29820233799E+04  0.50400001928E-02 0.  1.
        1   -1    0    0  501    0  0.00000000000E+00  0.00000000000E+00 -0.66782452894E+03  0.66782452896E+03  0.50400001928E-02 0. -1.
    10030    2    1    2    0    0  0.00000000000E+00  0.00000000000E+00  0.23141988509E+04  0.36498479088E+04  0.28223878961E+04 0.  0.
        1    1    3    3  502    0  0.26739297844E+03 -0.13653564711E+04  0.14624948449E+04  0.20185609898E+04  0.50400001928E-02 0.  1.
       -1    1    3    3    0  502 -0.26739297844E+03  0.13653564711E+04  0.85170400603E+03  0.16312869190E+04  0.50400001928E-02 0. -1.
</event>
<event>
 5   0  0.1439207E-06  0.2808034E+04  0.7818609E-02  0.8300778E-01
        2   -1    0    0  501    0  0.00000000000E+00  0.00000000000E+00  0.15853775141E+04  0.15853775141E+04  0.25500000920E-02 0. -1.
       -2   -1    0    0    0  501  0.00000000000E+00  0.00000000000E+00 -0.12434034368E+04  0.12434034368E+04  0.25500000920E-02 0.  1.
    10030    2    1    2    0    0  0.00000000000E+00  0.00000000000E+00  0.34197407728E+03  0.28287809509E+04  0.28080340808E+04 0.  0.
        5    1    3    3  502    0 -0.23356745769E+03 -0.35345993463E+02 -0.12232321930E+04  0.12458419581E+04  0.46999998093E+01 0.  1.
       -5    1    3    3    0  502  0.23356745769E+03  0.35345993463E+02  0.15652062703E+04  0.15829389928E+04  0.46999998093E+01 0. -1.
</event>
<event>
 5   0  0.1394410E-06  0.2788485E+04  0.7818609E-02  0.8306852E-01
        2   -1    0    0  501    0  0.00000000000E+00  0.00000000000E+00  0.13310055058E+04  0.13310055058E+04  0.25500000920E-02 0. -1.
       -2   -1    0    0    0  501  0.00000000000E+00  0.00000000000E+00 -0.14604840870E+04  0.14604840870E+04  0.25500000920E-02 0.  1.
    10030    2    1    2    0    0  0.00000000000E+00  0.00000000000E+00 -0.12947858124E+03  0.27914895928E+04  0.27884851522E+04 0.  0.
        4    1    3    3  502    0 -0.10217187805E+03  0.57069562604E+03 -0.13340873953E+04  0.14546213876E+04  0.12699999809E+01 0.  1.
       -4    1    3    3    0  502  0.10217187805E+03 -0.57069562604E+03  0.12046088141E+04  0.13368682052E+04  0.12699999809E+01 0. -1.
</event>
<event>
 5   0  0.1394410E-06  0.2795614E+04  0.7818609E-02  0.8304631E-01
       -2   -1    0    0    0  501  0.00000000000E+00  0.00000000000E+00  0.15880848767E+04  0.15880848767E+04  0.25500000920E-02 0. -1.
        2   -1    0    0  501    0  0.00000000000E+00  0.00000000000E+00 -0.12303270074E+04  0.12303270074E+04  0.25500000920E-02 0.  1.
    10030    2    1    2    0    0  0.00000000000E+00  0.00000000000E+00  0.35775786929E+03  0.28184118840E+04  0.27956135024E+04 0.  0.
        4    1    3    3  502    0 -0.69961246248E+02  0.32992888087E+03  0.15464495193E+04  0.15827998518E+04  0.12699999809E+01 0. -1.
       -4    1    3    3    0  502  0.69961246248E+02 -0.32992888087E+03 -0.11886916500E+04  0.12356120322E+04  0.12699999809E+01 0.  1.
</event>
<event>
 5   0  0.5214658E-07  0.2784606E+04  0.7818609E-02  0.8308064E-01
       -1   -1    0    0    0  501  0.00000000000E+00  0.00000000000E+00  0.98026090054E+03  0.98026090056E+03  0.50400001928E-02 0.  1.
        1   -1    0    0  501    0  0.00000000000E+00  0.00000000000E+00 -0.19775421804E+04  0.19775421804E+04  0.50400001928E-02 0. -1.
    10030    2    1    2    0    0  0.00000000000E+00  0.00000000000E+00 -0.99728127986E+03  0.29578030810E+04  0.27846057377E+04 0.  0.
        2    1    3    3  502    0 -0.12071951562E+04  0.52052641531E+03 -0.11602938158E+02  0.13146872337E+04  0.25500000920E-02 0.  1.
       -2    1    3    3    0  502  0.12071951562E+04 -0.52052641531E+03 -0.98567834170E+03  0.16431158473E+04  0.25500000920E-02 0. -1.
</event>
<event>
 5   0  0.5551565E-07  0.2800471E+04  0.7818609E-02  0.8303122E-01
        1   -1    0    0  501    0  0.00000000000E+00  0.00000000000E+00  0.21833071142E+04  0.21833071143E+04  0.50400001928E-02 0. -1.
       -1   -1    0    0    0  501  0.00000000000E+00  0.00000000000E+00 -0.89802295382E+03  0.89802295383E+03  0.50400001928E-02 0.  1.
    10030    2    1    2    0    0  0.00000000000E+00  0.00000000000E+00  0.12852841604E+04  0.30813300681E+04  0.28004713202E+04 0.  0.
        3    1    3    3  502    0  0.10723650065E+04  0.66252779038E+03  0.13135032379E+04  0.18204945884E+04  0.10100000352E+00 0. -1.
       -3    1    3    3    0  502 -0.10723650065E+04 -0.66252779038E+03 -0.28219077506E+02  0.12608354797E+04  0.10100000352E+00 0.  1.
</event>
<event>
 5   0  0.5297741E-07  0.2800420E+04  0.7818609E-02  0.8303138E-01
        1   -1    0    0  501    0  0.00000000000E+00  0.00000000000E+00  0.10648600958E+04  0.10648600959E+04  0.50400001928E-02 0. -1.
       -1   -1    0    0    0  501  0.00000000000E+00  0.00000000000E+00 -0.18411700074E+04  0.18411700074E+04  0.50400001928E-02 0.  1.
    10030    2    1    2    0    0  0.00000000000E+00  0.00000000000E+00 -0.77630991160E+03  0.29060301033E+04  0.28004203046E+04 0.  0.
        5    1    3    3  502    0 -0.21443383671E+03 -0.28364264354E+03 -0.17935295857E+04  0.18284434595E+04  0.46999998093E+01 0.  1.
       -5    1    3    3    0  502  0.21443383671E+03  0.28364264354E+03  0.10172196741E+04  0.10775866438E+04  0.46999998093E+01 0. -1.
</event>
<event>
 5   0  0.1394410E-06  0.2798540E+04  0.7818609E-02  0.8303722E-01
        2   -1    0    0  501    0  0.00000000000E+00  0.00000000000E+00  0.90221874388E+03  0.90221874389E+03  0.25500000920E-02 0. -1.
       -2   -1    0    0    0  501  0.00000000000E+00  0.00000000000E+00 -0.21701578005E+04  0.21701578005E+04  0.25500000920E-02 0.  1.
    10030    2    1    2    0    0  0.00000000000E+00  0.00000000000E+00 -0.12679390566E+04  0.30723765444E+04  0.27985403658E+04 0.  0.
        4    1    3    3  502    0  0.90948578467E+03  0.22297396652E+03 -0.17754553100E+04  0.20072680322E+04  0.12699999809E+01 0.  1.
       -4    1    3    3    0  502 -0.90948578467E+03 -0.22297396652E+03  0.50751625344E+03  0.10651085122E+04  0.12699999809E+01 0. -1.
</event>
<event>
 5   0  0.1439207E-06  0.2800515E+04  0.7818609E-02  0.8303109E-01
       -2   -1    0    0    0  501  0.00000000000E+00  0.00000000000E+00  0.76481380450E+03  0.76481380451E+03  0.25500000920E-02 0.  1.
        2   -1    0    0  501    0  0.00000000000E+00  0.00000000000E+00 -0.25636578423E+04  0.25636578423E+04  0.25500000920E-02 0. -1.
    10030    2    1    2    0    0  0.00000000000E+00  0.00000000000E+00 -0.17988440378E+04  0.33284716468E+04  0.28005148868E+04 0.  0.
        5    1    3    3  502    0  0.18252332091E+03 -0.13494492425E+04 -0.12870527345E+04  0.18737275288E+04  0.46999998093E+01 0. -1.
       -5    1    3    3    0  502 -0.18252332091E+03  0.13494492425E+04 -0.51179130337E+03  0.14547441181E+04  0.46999998093E+01 0.  1.
</event>
<event>
 5   0  0.1461146E-06  0.2771364E+04  0.7818609E-02  0.8312214E-01
        2   -1    0    0  501    0  0.00000000000E+00  0.00000000000E+00  0.10265247486E+04  0.10265247486E+04  0.25500000920E-02 0.  1.
       -2   -1    0    0    0  501  0.00000000000E+00  0.00000000000E+00 -0.18705003087E+04  0.18705003087E+04  0.25500000920E-02 0. -1.
    10030    2    1    2    0    0  0.00000000000E+00  0.00000000000E+00 -0.84397556007E+03  0.28970250572E+04  0.27713641833E+04 0.  0.
        1    1    3    3  502    0  0.10992835008E+04  0.47422857666E+03  0.30735720344E+03  0.12360361680E+04  0.50400001928E-02 0.  1.
       -1    1    3    3    0  502 -0.10992835008E+04 -0.47422857666E+03 -0.11513327635E+04  0.16609888893E+04  0.50400001928E-02 0. -1.
</event>
<event>
 5   0  0.1461146E-06  0.2793684E+04  0.7818609E-02  0.8305232E-01
       -2   -1    0    0    0  501  0.00000000000E+00  0.00000000000E+00  0.10870535436E+04  0.10870535436E+04  0.25500000920E-02 0.  1.
        2   -1    0    0  501    0  0.00000000000E+00  0.00000000000E+00 -0.17949134878E+04  0.17949134878E+04  0.25500000920E-02 0. -1.
    10030    2    1    2    0    0  0.00000000000E+00  0.00000000000E+00 -0.70785994424E+03  0.28819670314E+04  0.27936836380E+04 0.  0.
        1    1    3    3  502    0  0.63483811259E+03  0.81079315475E+03 -0.13275570617E+04  0.16801228292E+04  0.50400001928E-02 0. -1.
       -1    1    3    3    0  502 -0.63483811259E+03 -0.81079315475E+03  0.61969711744E+03  0.12018442022E+04  0.50400001928E-02 0.  1.
</event>
<event>
 5   0  0.4710000E-07  0.2799094E+04  0.7818609E-02  0.8303550E-01
       -3   -1    0    0    0  501  0.00000000000E+00  0.00000000000E+00  0.11859032090E+04  0.11859032133E+04  0.10100000352E+00 0. -1.
        3   -1    0    0  501    0  0.00000000000E+00  0.00000000000E+00 -0.16516795818E+04  0.16516795849E+04  0.10100000352E+00 0.  1.
    10030    2    1    2    0    0  0.00000000000E+00  0.00000000000E+00 -0.46577637288E+03  0.28375827982E+04  0.27990942298E+04 0.  0.
        2    1    3    3  502    0 -0.49291567298E+03 -0.80776359002E+03 -0.12782237213E+04  0.15903784958E+04  0.25500000920E-02 0.  1.
       -2    1    3    3    0  502  0.49291567298E+03  0.80776359002E+03  0.81244734843E+03  0.12472043024E+04  0.25500000920E-02 0. -1.
</event>
<event>
 5   0  0.4710000E-07  0.2797218E+04  0.7818609E-02  0.8304133E-01
       -3   -1    0    0    0  501  0.00000000000E+00  0.00000000000E+00  0.15363875878E+04  0.15363875911E+04  0.10100000352E+00 0.  1.
        3   -1    0    0  501    0  0.00000000000E+00  0.00000000000E+00 -0.12731856133E+04  0.12731856173E+04  0.10100000352E+00 0. -1.
    10030    2    1    2    0    0  0.00000000000E+00  0.00000000000E+00  0.26320197444E+03  0.28095732084E+04  0.27972176058E+04 0.  0.
        4    1    3    3  502    0  0.38936205101E+03 -0.11253556872E+04  0.86837824112E+03  0.14738082006E+04  0.12699999809E+01 0.  1.
       -4    1    3    3    0  502 -0.38936205101E+03  0.11253556872E+04 -0.60517626668E+03  0.13357650078E+04  0.12699999809E+01 0. -1.
</event>
<event>
 5   0  0.1394410E-06  0.2792282E+04  0.7818609E-02  0.8305669E-01
       -2   -1    0    0    0  501  0.00000000000E+00  0.00000000000E+00  0.74403400569E+03  0.74403400570E+03  0.25500000920E-02 0. -1.
        2   -1    0    0  501    0  0.00000000000E+00  0.00000000000E+00 -0.26197854760E+04  0.26197854760E+04  0.25500000920E-02 0.  1.
    10030    2    1    2    0    0  0.00000000000E+00  0.00000000000E+00 -0.18757514703E+04  0.33638194817E+04  0.27922818495E+04 0.  0.
        4    1    3    3  502    0  0.48228019843E+03 -0.12426185641E+04 -0.14382374465E+04  0.19609241828E+04  0.12699999809E+01 0.  1.
       -4    1    3    3    0  502 -0.48228019843E+03  0.12426185641E+04 -0.43751402382E+03  0.14028952988E+04  0.12699999809E+01 0. -1.
</event>
<event>
 5   0  0.5282098E-07  0.2797201E+04  0.7818609E-02  0.8304138E-01
       -1   -1    0    0    0  501  0.00000000000E+00  0.00000000000E+00  0.10440591022E+04  0.10440591022E+04  0.50400001928E-02 0. -1.
        1   -1    0    0  501    0  0.00000000000E+00  0.00000000000E+00 -0.18735367737E+04  0.18735367738E+04  0.50400001928E-02 0.  1.
    10030    2    1    2    0    0  0.00000000000E+00  0.00000000000E+00 -0.82947767158E+03  0.29175958759E+04  0.27972008308E+04 0.  0.
        4    1    3    3  502    0 -0.29765493860E+03  0.32903180279E+03  0.96870554244E+03  0.10654822526E+04  0.12699999809E+01 0. -1.
       -4    1    3    3    0  502  0.29765493860E+03 -0.32903180279E+03 -0.17981832140E+04  0.18521136233E+04  0.12699999809E+01 0.  1.
</event>
<event>
 5   0  0.1394410E-06  0.2804175E+04  0.7818609E-02  0.8301973E-01
       -2   -1    0    0    0  501  0.00000000000E+00  0.00000000000E+00  0.12145082716E+04  0.12145082716E+04  0.25500000920E-02 0.  1.
        2   -1    0    0  501    0  0.00000000000E+00  0.00000000000E+00 -0.16186381012E+04  0.16186381012E+04  0.25500000920E-02 0. -1.
    10030    2    1    2    0    0  0.00000000000E+00  0.00000000000E+00 -0.40412982957E+03  0.28331463728E+04  0.28041750036E+04 0.  0.
        4    1    3    3  502    0  0.88609888640E+03  0.24799800195E+03  0.86677486519E+03  0.12641101713E+04  0.12699999809E+01 0.  1.
       -4    1    3    3    0  502 -0.88609888640E+03 -0.24799800195E+03 -0.12709046948E+04  0.15690362015E+04  0.12699999809E+01 0. -1.
</event>
<event>
 5   0  0.5551565E-07  0.2797836E+04  0.7818609E-02  0.8303940E-01
        1   -1    0    0  501    0  0.00000000000E+00  0.00000000000E+00  0.14735571351E+04  0.14735571351E+04  0.50400001928E-02 0. -1.
       -1   -1    0    0    0  501  0.00000000000E+00  0.00000000000E+00 -0.13280597734E+04  0.13280597734E+04  0.50400001928E-02 0.  1.
    10030    2    1    2    0    0  0.00000000000E+00  0.00000000000E+00  0.14549736172E+03  0.28016169085E+04  0.27978362747E+04 0.  0.
        3    1    3    3  502    0 -0.84312167121E+03 -0.12827268464E+03  0.11831492272E+04  0.14584752785E+04  0.10100000352E+00 0. -1.
       -3    1    3    3    0  502  0.84312167121E+03  0.12827268464E+03 -0.10376518655E+04  0.13431416300E+04  0.10100000352E+00 0.  1.
</event>
<event>
 5   0  0.5282098E-07  0.2798313E+04  0.7818609E-02  0.8303792E-01
        1   -1    0    0  501    0  0.00000000000E+00  0.00000000000E+00  0.18838616888E+04  0.18838616888E+04  0.50400001928E-02 0.  1.
       -1   -1    0    0    0  501  0.00000000000E+00  0.00000000000E+00 -0.10391630448E+04  0.10391630448E+04  0.50400001928E-02 0. -1.
    10030    2    1    2    0    0  0.00000000000E+00  0.00000000000E+00  0.84469864401E+03  0.29230247335E+04  0.27983133837E+04 0.  0.
        4    1    3    3  502    0 -0.65404162189E+03 -0.66681753329E+03 -0.66581727189E+03  0.11470528838E+04  0.12699999809E+01 0. -1.
       -4    1    3    3    0  502  0.65404162189E+03  0.66681753329E+03  0.15105159159E+04  0.17759718497E+04  0.12699999809E+01 0.  1.
</event>
<event>
 5   0  0.5214658E-07  0.2800756E+04  0.7818609E-02  0.8303034E-01
       -1   -1    0    0    0  501  0.00000000000E+00  0.00000000000E+00  0.10079707165E+04  0.10079707165E+04  0.50400001928E-02 0. -1.
        1   -1    0    0  501    0  0.00000000000E+00  0.00000000000E+00 -0.19455507836E+04  0.19455507836E+04  0.50400001928E-02 0.  1.
    10030    2    1    2    0    0  0.00000000000E+00  0.00000000000E+00 -0.93758006709E+03  0.29535215001E+04  0.28007557676E+04 0.  0.
        2    1    3    3  502    0 -0.53534003862E+03  0.93490838610E+03  0.47466816269E+03  0.11772648436E+04  0.25500000920E-02 0. -1.
       -2    1    3    3    0  502  0.53534003862E+03 -0.93490838610E+03 -0.14122482298E+04  0.17762566565E+04  0.25500000920E-02 0.  1.
</event>
<event>
 5   0  0.1461146E-06  0.2780701E+04  0.7818609E-02  0.8309285E-01
        2   -1    0    0  501    0  0.00000000000E+00  0.00000000000E+00  0.12819590143E+04  0.12819590143E+04  0.25500000920E-02 0.  1.
       -2   -1    0    0    0  501  0.00000000000E+00  0.00000000000E+00 -0.15079068398E+04  0.15079068398E+04  0.25500000920E-02 0. -1.
    10030    2    1    2    0    0  0.00000000000E+00  0.00000000000E+00 -0.22594782551E+03  0.27898658540E+04  0.27807011820E+04 0.  0.
        1    1    3    3  502    0  0.10814073881E+04 -0.86999337834E+03 -0.19536856006E+03  0.14016059688E+04  0.50400001928E-02 0. -1.
       -1    1    3    3    0  502 -0.10814073881E+04  0.86999337834E+03 -0.30579265449E+02  0.13882598852E+04  0.50400001928E-02 0.  1.
</event>
<event>
 5   0  0.5362952E-07  0.2796163E+04  0.7818609E-02  0.8304460E-01
        1   -1    0    0  501    0  0.00000000000E+00  0.00000000000E+00  0.16731559180E+04  0.16731559180E+04  0.50400001928E-02 0. -1.
       -1   -1    0    0    0  501  0.00000000000E+00  0.00000000000E+00 -0.11682309769E+04  0.11682309769E+04  0.50400001928E-02 0.  1.
    10030    2    1    2    0    0  0.00000000000E+00  0.00000000000E+00  0.50492494109E+03  0.28413868950E+04  0.27961634950E+04 0.  0.
        1    1    3    3  502    0  0.12150736970E+04  0.68489471946E+03  0.15527194576E+03  0.14034223324E+04  0.50400001928E-02 0.  1.
       -1    1    3    3    0  502 -0.12150736970E+04 -0.68489471946E+03  0.34965299533E+03  0.14379645625E+04  0.50400001928E-02 0. -1.
</event>
<event>
 5   0  0.1461146E-06  0.2810667E+04  0.7818609E-02  0.8299964E-01
       -2   -1    0    0    0  501  0.00000000000E+00  0.00000000000E+00  0.69431354972E+03  0.69431354972E+03  0.25500000920E-02 0. -1.
        2   -1    0    0  501    0  0.00000000000E+00  0.00000000000E+00 -0.28444818353E+04  0.28444818353E+04  0.25500000920E-02 0.  1.
    10030    2    1    2    0    0  0.00000000000E+00  0.00000000000E+00 -0.21501682856E+04  0.35387953850E+04  0.28106670242E+04 0.  0.
        1    1    3    3  502    0  0.78119006460E+03  0.26589104423E+03  0.35715075609E+03  0.89917330200E+03  0.50400001928E-02 0. -1.
       -1    1    3    3    0  502 -0.78119006460E+03 -0.26589104423E+03 -0.25073190416E+04  0.26396220830E+04  0.50400001928E-02 0.  1.
</event>
<event>
 5   0  0.1377807E-06  0.2808034E+04  0.7818609E-02  0.8300778E-01
        2   -1    0    0  501    0  0.00000000000E+00  0.00000000000E+00  0.15868635003E+04  0.15868635003E+04  0.25500000920E-02 0. -1.
       -2   -1    0    0    0  501  0.00000000000E+00  0.00000000000E+00 -0.12422391886E+04  0.12422391886E+04  0.25500000920E-02 0.  1.
    10030    2    1    2    0    0  0.00000000000E+00  0.00000000000E+00  0.34462431177E+03  0.28291026889E+04  0.28080342071E+04 0.  0.
        2    1    3    3  502    0  0.85076697177E+03 -0.11146913831E+04  0.24300058315E+03  0.14231621845E+04  0.25500000920E-02 0. -1.
       -2    1    3    3    0  502 -0.85076697177E+03  0.11146913831E+04  0.10162372862E+03  0.14059405045E+04  0.25500000920E-02 0.  1.
</event>
<event>
 5   0  0.1394410E-06  0.2803519E+04  0.7818609E-02  0.8302177E-01
       -2   -1    0    0    0  501  0.00000000000E+00  0.00000000000E+00  0.11498084934E+04  0.11498084934E+04  0.25500000920E-02 0.  1.
        2   -1    0    0  501    0  0.00000000000E+00  0.00000000000E+00 -0.17089194679E+04  0.17089194679E+04  0.25500000920E-02 0. -1.
    10030    2    1    2    0    0  0.00000000000E+00  0.00000000000E+00 -0.55911097453E+03  0.28587279614E+04  0.28035193017E+04 0.  0.
        4    1    3    3  502    0 -0.80134476322E+03  0.79528971062E+03 -0.11267533790E+04  0.15950592288E+04  0.12699999809E+01 0. -1.
       -4    1    3    3    0  502  0.80134476322E+03 -0.79528971062E+03  0.56764240449E+03  0.12636687326E+04  0.12699999809E+01 0.  1.
</event>
<event>
 5   0  0.5282098E-07  0.2800236E+04  0.7818609E-02  0.8303195E-01
       -1   -1    0    0    0  501  0.00000000000E+00  0.00000000000E+00  0.12351952199E+04  0.12351952199E+04  0.50400001928E-02 0.  1.
        1   -1    0    0  501    0  0.00000000000E+00  0.00000000000E+00 -0.15870607455E+04  0.15870607456E+04  0.50400001928E-02 0. -1.
    10030    2    1    2    0    0  0.00000000000E+00  0.00000000000E+00 -0.35186552561E+03  0.28222559655E+04  0.28002355948E+04 0.  0.
        4    1    3    3  502    0  0.51502843667E+03 -0.27126435039E+03 -0.14593235313E+04  0.15711350738E+04  0.12699999809E+01 0. -1.
       -4    1    3    3    0  502 -0.51502843667E+03  0.27126435039E+03  0.11074580057E+04  0.12511208917E+04  0.12699999809E+01 0.  1.
</event>
<event>
 5   0  0.5362952E-07  0.2808541E+04  0.7818609E-02  0.8300622E-01
        1   -1    0    0  501    0  0.00000000000E+00  0.00000000000E+00  0.89330289363E+03  0.89330289364E+03  0.50400001928E-02 0. -1.
       -1   -1    0    0    0  501  0.00000000000E+00  0.00000000000E+00 -0.22075100027E+04  0.22075100027E+04  0.50400001928E-02 0.  1.
    10030    2    1    2    0    0  0.00000000000E+00  0.00000000000E+00 -0.13142071091E+04  0.31008128964E+04  0.28085405984E+04 0.  0.
        1    1    3    3  502    0  0.34549311073E+02 -0.49139432865E+02 -0.22060908790E+04  0.22069085403E+04  0.50400001928E-02 0.  1.
       -1    1    3    3    0  502 -0.34549311073E+02  0.49139432865E+02  0.89188376991E+03  0.89390435608E+03  0.50400001928E-02 0. -1.
</event>
<event>
 5   0  0.1394410E-06  0.2801437E+04  0.7818609E-02  0.8302822E-01
        2   -1    0    0  501    0  0.00000000000E+00  0.00000000000E+00  0.11066402827E+04  0.11066402827E+04  0.25500000920E-02 0.  1.
       -2   -1    0    0    0  501  0.00000000000E+00  0.00000000000E+00 -0.17729446849E+04  0.17729446849E+04  0.25500000920E-02 0. -1.
    10030    2    1    2    0    0  0.00000000000E+00  0.00000000000E+00 -0.66630440218E+03  0.28795849676E+04  0.28014367794E+04 0.  0.
        4    1    3    3  502    0  0.11429850553E+04  0.80847802066E+03 -0.37864570811E+03  0.14503191827E+04  0.12699999809E+01 0.  1.
       -4    1    3    3    0  502 -0.11429850553E+04 -0.80847802066E+03 -0.28765869407E+03  0.14292657849E+04  0.12699999809E+01 0. -1.
</event>
<event>
 5   0  0.1439207E-06  0.2775279E+04  0.7818609E-02  0.8310985E-01
       -2   -1    0    0    0  501  0.00000000000E+00  0.00000000000E+00  0.95478392804E+03  0.95478392804E+03  0.25500000920E-02 0. -1.
        2   -1    0    0  501    0  0.00000000000E+00  0.00000000000E+00 -0.20167323291E+04  0.20167323291E+04  0.25500000920E-02 0.  1.
    10030    2    1    2    0    0  0.00000000000E+00  0.00000000000E+00 -0.10619484011E+04  0.29715162571E+04  0.27752791679E+04 0.  0.
        5    1    3    3  502    0  0.10855102835E+04  0.86440002024E+03 -0.53230915750E+03  0.14862352101E+04  0.46999998093E+01 0. -1.
       -5    1    3    3    0  502 -0.10855102835E+04 -0.86440002024E+03 -0.52963924355E+03  0.14852810471E+04  0.46999998093E+01 0.  1.
</event>
<event>
 5   0  0.5214658E-07  0.2800324E+04  0.7818609E-02  0.8303168E-01
        1   -1    0    0  501    0  0.00000000000E+00  0.00000000000E+00  0.18579889174E+04  0.18579889174E+04  0.50400001928E-02 0. -1.
       -1   -1    0    0    0  501  0.00000000000E+00  0.00000000000E+00 -0.10551482281E+04  0.10551482281E+04  0.50400001928E-02 0.  1.
    10030    2    1    2    0    0  0.00000000000E+00  0.00000000000E+00  0.80284068934E+03  0.29131371455E+04  0.28003240626E+04 0.  0.
        2    1    3    3  502    0 -0.10014020400E+04 -0.59154435425E+03 -0.40955090061E+03  0.12330704396E+04  0.25500000920E-02 0.  1.
       -2    1    3    3    0  502  0.10014020400E+04  0.59154435425E+03  0.12123915899E+04  0.16800667059E+04  0.25500000920E-02 0. -1.
</event>
<event>
 5   0  0.5551565E-07  0.2800128E+04  0.7818609E-02  0.8303229E-01
       -1   -1    0    0    0  501  0.00000000000E+00  0.00000000000E+00  0.81048945533E+03  0.81048945534E+03  0.50400001928E-02 0.  1.
        1   -1    0    0  501    0  0.00000000000E+00  0.00000000000E+00 -0.24185125905E+04  0.24185125905E+04  0.50400001928E-02 0. -1.
    10030    2    1    2    0    0  0.00000000000E+00  0.00000000000E+00 -0.16080231351E+04  0.32290020458E+04  0.28001278201E+04 0.  0.
        3    1    3    3  502    0  0.12751236130E+04 -0.25524980808E+03 -0.14021975285E+04  0.19123939479E+04  0.10100000352E+00 0. -1.
       -3    1    3    3    0  502 -0.12751236130E+04  0.25524980808E+03 -0.20582560667E+03  0.13166080979E+04  0.10100000352E+00 0.  1.
</event>
<event>
 5   0  0.1377807E-06  0.2793695E+04  0.7818609E-02  0.8305228E-01
        2   -1    0    0  501    0  0.00000000000E+00  0.00000000000E+00  0.17052314310E+04  0.17052314310E+04  0.25500000920E-02 0. -1.
       -2   -1    0    0    0  501  0.00000000000E+00  0.00000000000E+00 -0.11442339064E+04  0.11442339064E+04  0.25500000920E-02 0.  1.
    10030    2    1    2    0    0  0.00000000000E+00  0.00000000000E+00  0.56099752463E+03  0.28494653374E+04  0.27936954892E+04 0.  0.
        2    1    3    3  502    0  0.40141703558E+02 -0.13838555454E+04  0.46999262038E+03  0.14620398729E+04  0.25500000920E-02 0.  1.
       -2    1    3    3    0  502 -0.40141703558E+02  0.13838555454E+04  0.91004904255E+02  0.13874254644E+04  0.25500000920E-02 0. -1.
</event>
<event>
 5   0  0.1394410E-06  0.2805619E+04  0.7818609E-02  0.8301526E-01
       -2   -1    0    0    0  501  0.00000000000E+00  0.00000000000E+00  0.10252317113E+04  0.10252317113E+04  0.25500000920E-02 0.  1.
        2   -1    0    0  501    0  0.00000000000E+00  0.00000000000E+00 -0.19194431040E+04  0.19194431040E+04  0.25500000920E-02 0. -1.
    10030    2    1    2    0    0  0.00000000000E+00  0.00000000000E+00 -0.89421139270E+03  0.29446748152E+04  0.28056186043E+04 0.  0.
        4    1    3    3  502    0  0.50698187874E+03  0.93883364325E+03  0.50876552861E+03  0.11820673462E+04  0.12699999809E+01 0. -1.
       -4    1    3    3    0  502 -0.50698187874E+03 -0.93883364325E+03 -0.14029769213E+04  0.17626074690E+04  0.12699999809E+01 0.  1.
</event>
<event>
 5   0  0.5362952E-07  0.2801594E+04  0.7818609E-02  0.8302774E-01
        1   -1    0    0  501    0  0.00000000000E+00  0.00000000000E+00  0.18301254093E+04  0.18301254093E+04  0.50400001928E-02 0. -1.
       -1   -1    0    0    0  501  0.00000000000E+00  0.00000000000E+00 -0.10721843652E+04  0.10721843652E+04  0.50400001928E-02 0.  1.
    10030    2    1    2    0    0  0.00000000000E+00  0.00000000000E+00  0.75794104413E+03  0.29023097745E+04  0.28015937251E+04 0.  0.
        1    1    3    3  502    0  0.75099222209E+03 -0.44304227600E+03  0.15147209437E+04  0.17477572238E+04  0.50400001928E-02 0. -1.
       -1    1    3    3    0  502 -0.75099222209E+03  0.44304227600E+03 -0.75677989957E+03  0.11545525507E+04  0.50400001928E-02 0.  1.
</event>
<event>
 5   0  0.5362952E-07  0.2811171E+04  0.7818609E-02  0.8299809E-01
        1   -1    0    0  501    0  0.00000000000E+00  0.00000000000E+00  0.13142383892E+04  0.13142383892E+04  0.50400001928E-02 0. -1.
       -1   -1    0    0    0  501  0.00000000000E+00  0.00000000000E+00 -0.15032813859E+04  0.15032813859E+04  0.50400001928E-02 0.  1.
    10030    2    1    2    0    0  0.00000000000E+00  0.00000000000E+00 -0.18904299669E+03  0.28175197751E+04  0.28111706509E+04 0.  0.
        1    1    3    3  502    0 -0.83470435896E+03 -0.25176374360E+03  0.10104901291E+04  0.13346185412E+04  0.50400001928E-02 0. -1.
       -1    1    3    3    0  502  0.83470435896E+03  0.25176374360E+03 -0.11995331258E+04  0.14829012339E+04  0.50400001928E-02 0.  1.
</event>
<event>
 5   0  0.1499888E-06  0.2798917E+04  0.7818609E-02  0.8303605E-01
       -2   -1    0    0    0  501  0.00000000000E+00  0.00000000000E+00  0.11595800076E+04  0.11595800076E+04  0.25500000920E-02 0.  1.
        2   -1    0    0  501    0  0.00000000000E+00  0.00000000000E+00 -0.16889598574E+04  0.16889598574E+04  0.25500000920E-02 0. -1.
    10030    2    1    2    0    0  0.00000000000E+00  0.00000000000E+00 -0.52937984987E+03  0.28485398650E+04  0.27989169936E+04 0.  0.
        3    1    3    3  502    0 -0.72542085885E+03  0.11529310901E+04  0.61933888051E+02  0.13635693374E+04  0.10100000352E+00 0.  1.
       -3    1    3    3    0  502  0.72542085885E+03 -0.11529310901E+04 -0.59131373793E+03  0.14849705276E+04  0.10100000352E+00 0. -1.
</event>
<event>
 5   0  0.5282098E-07  0.2800090E+04  0.7818609E-02  0.8303240E-01
       -1   -1    0    0    0  501  0.00000000000E+00  0.00000000000E+00  0.15535574912E+04  0.15535574912E+04  0.50400001928E-02 0.  1.
        1   -1    0    0  501    0  0.00000000000E+00  0.00000000000E+00 -0.12617016385E+04  0.12617016385E+04  0.50400001928E-02 0. -1.
    10030    2    1    2    0    0  0.00000000000E+00  0.00000000000E+00  0.29185585271E+03  0.28152591296E+04  0.28000900215E+04 0.  0.
        4    1    3    3  502    0 -0.94206342985E+03  0.20058770198E+03 -0.87565007830E+03  0.13017233211E+04  0.12699999809E+01 0. -1.
       -4    1    3    3    0  502  0.94206342985E+03 -0.20058770198E+03  0.11675059310E+04  0.15135358086E+04  0.12699999809E+01 0.  1.
</event>
<event>
 5   0  0.5362952E-07  0.2800756E+04  0.7818609E-02  0.8303034E-01
       -1   -1    0    0    0  501  0.00000000000E+00  0.00000000000E+00  0.12375223848E+04  0.12375223848E+04  0.50400001928E-02 0. -1.
        1   -1    0    0  501    0  0.00000000000E+00  0.00000000000E+00 -0.15846654156E+04  0.15846654156E+04  0.50400001928E-02 0.  1.
    10030    2    1    2    0    0  0.00000000000E+00  0.00000000000E+00 -0.34714303086E+03  0.28221878004E+04  0.28007562723E+04 0.  0.
        1    1    3    3  502    0 -0.93163846870E+03  0.40116032004E+03 -0.11464537441E+04  0.15307632169E+04  0.50400001928E-02 0.  1.
       -1    1    3    3    0  502  0.93163846870E+03 -0.40116032004E+03  0.79931071323E+03  0.12914245836E+04  0.50400001928E-02 0. -1.
</event>
<event>
 5   0  0.5362952E-07  0.2773226E+04  0.7818609E-02  0.8311629E-01
        1   -1    0    0  501    0  0.00000000000E+00  0.00000000000E+00  0.33846192936E+04  0.33846192936E+04  0.50400001928E-02 0. -1.
       -1   -1    0    0    0  501  0.00000000000E+00  0.00000000000E+00 -0.56806835814E+03  0.56806835816E+03  0.50400001928E-02 0.  1.
    10030    2    1    2    0    0  0.00000000000E+00  0.00000000000E+00  0.28165509354E+04  0.39526876517E+04  0.27732256490E+04 0.  0.
        1    1    3    3  502    0  0.66874886618E+03  0.42918828657E+02 -0.32194413860E+03  0.74344811539E+03  0.50400001928E-02 0.  1.
       -1    1    3    3    0  502 -0.66874886618E+03 -0.42918828657E+02  0.31384950740E+04  0.32092395363E+04  0.50400001928E-02 0. -1.
</event>
<event>
 5   0  0.5551565E-07  0.2789173E+04  0.7818609E-02  0.8306638E-01
        1   -1    0    0  501    0  0.00000000000E+00  0.00000000000E+00  0.15736930169E+04  0.15736930169E+04  0.50400001928E-02 0.  1.
       -1   -1    0    0    0  501  0.00000000000E+00  0.00000000000E+00 -0.12358647897E+04  0.12358647897E+04  0.50400001928E-02 0. -1.
    10030    2    1    2    0    0  0.00000000000E+00  0.00000000000E+00  0.33782822722E+03  0.28095578066E+04  0.27891732032E+04 0.  0.
        3    1    3    3  502    0 -0.21141703473E+03  0.44181043825E+03  0.14842052616E+04  0.15629327863E+04  0.10100000352E+00 0.  1.
       -3    1    3    3    0  502  0.21141703473E+03 -0.44181043825E+03 -0.11463770344E+04  0.12466250202E+04  0.10100000352E+00 0. -1.
</event>
<event>
 5   0  0.4710000E-07  0.2742406E+04  0.7818609E-02  0.8321375E-01
       -4   -1    0    0    0  501  0.00000000000E+00  0.00000000000E+00  0.12297141788E+04  0.12297148346E+04  0.12699999809E+01 0. -1.
        4   -1    0    0  501    0  0.00000000000E+00  0.00000000000E+00 -0.15289703389E+04  0.15289708664E+04  0.12699999809E+01 0.  1.
    10030    2    1    2    0    0  0.00000000000E+00  0.00000000000E+00 -0.29925616011E+03  0.27586857010E+04  0.27424063425E+04 0.  0.
        4    1    3    3  502    0 -0.54739047287E+03  0.12466823071E+04 -0.31289811717E+03  0.13970540252E+04  0.12699999809E+01 0.  1.
       -4    1    3    3    0  502  0.54739047287E+03 -0.12466823071E+04  0.13641957065E+02  0.13616316758E+04  0.12699999809E+01 0. -1.
</event>
<event>
 5   0  0.5282098E-07  0.2804174E+04  0.7818609E-02  0.8301974E-01
        1   -1    0    0  501    0  0.00000000000E+00  0.00000000000E+00  0.16716930338E+04  0.16716930338E+04  0.50400001928E-02 0. -1.
       -1   -1    0    0    0  501  0.00000000000E+00  0.00000000000E+00 -0.11759620283E+04  0.11759620283E+04  0.50400001928E-02 0.  1.
    10030    2    1    2    0    0  0.00000000000E+00  0.00000000000E+00  0.49573100549E+03  0.28476550622E+04  0.28041736971E+04 0.  0.
        4    1    3    3  502    0  0.15001368728E+03 -0.69920591939E+03  0.14725727859E+04  0.16370293971E+04  0.12699999809E+01 0. -1.
       -4    1    3    3    0  502 -0.15001368728E+03  0.69920591939E+03 -0.97684178045E+03  0.12106256651E+04  0.12699999809E+01 0.  1.
</event>
<event>
 5   0  0.5362952E-07  0.2806940E+04  0.7818609E-02  0.8301117E-01
        1   -1    0    0  501    0  0.00000000000E+00  0.00000000000E+00  0.20380521201E+04  0.20380521201E+04  0.50400001928E-02 0. -1.
       -1   -1    0    0    0  501  0.00000000000E+00  0.00000000000E+00 -0.96647604367E+03  0.96647604369E+03  0.50400001928E-02 0.  1.
    10030    2    1    2    0    0  0.00000000000E+00  0.00000000000E+00  0.10715760764E+04  0.30045281638E+04  0.28069403626E+04 0.  0.
        1    1    3    3  502    0 -0.51601146613E+03  0.44678004702E+02  0.19320102791E+04  0.20002319055E+04  0.50400001928E-02 0. -1.
       -1    1    3    3    0  502  0.51601146613E+03 -0.44678004702E+02 -0.86043420266E+03  0.10042962583E+04  0.50400001928E-02 0.  1.
</event>
<event>
 5   0  0.5551565E-07  0.2798714E+04  0.7818609E-02  0.8303668E-01
        1   -1    0    0  501    0  0.00000000000E+00  0.00000000000E+00  0.16724600829E+04  0.16724600829E+04  0.50400001928E-02 0.  1.
       -1   -1    0    0    0  501  0.00000000000E+00  0.00000000000E+00 -0.11708502120E+04  0.11708502120E+04  0.50400001928E-02 0. -1.
    10030    2    1    2    0    0  0.00000000000E+00  0.00000000000E+00  0.50160987089E+03  0.28433102950E+04  0.27987141639E+04 0.  0.
        3    1    3    3  502    0 -0.10899589940E+04 -0.84731927553E+03  0.48300691664E+03  0.14626196550E+04  0.10100000352E+00 0.  1.
       -3    1    3    3    0  502  0.10899589940E+04  0.84731927553E+03  0.18602954251E+02  0.13806906400E+04  0.10100000352E+00 0. -1.
</event>
<event>
 5   0  0.1439207E-06  0.2799919E+04  0.7818609E-02  0.8303294E-01
       -2   -1    0    0    0  501  0.00000000000E+00  0.00000000000E+00  0.57231298421E+03  0.57231298422E+03  0.25500000920E-02 0.  1.
        2   -1    0    0  501    0  0.00000000000E+00  0.00000000000E+00 -0.34245001748E+04  0.34245001748E+04  0.25500000920E-02 0. -1.
    10030    2    1    2    0    0  0.00000000000E+00  0.00000000000E+00 -0.28521871906E+04  0.39968131591E+04  0.27999185092E+04 0.  0.
        5    1    3    3  502    0  0.13490701501E+04 -0.32388983868E+03 -0.11591560827E+04  0.18079158751E+04  0.46999998093E+01 0.  1.
       -5    1    3    3    0  502 -0.13490701501E+04  0.32388983868E+03 -0.16930311079E+04  0.21888972840E+04  0.46999998093E+01 0. -1.
</event>
<event>
 5   0  0.1394410E-06  0.2793001E+04  0.7818609E-02  0.8305445E-01
       -2   -1    0    0    0  501  0.00000000000E+00  0.00000000000E+00  0.10165301570E+04  0.10165301570E+04  0.25500000920E-02 0. -1.
        2   -1    0    0  501    0  0.00000000000E+00  0.00000000000E+00 -0.19184999415E+04  0.19184999415E+04  0.25500000920E-02 0.  1.
    10030    2    1    2    0    0  0.00000000000E+00  0.00000000000E+00 -0.90196978445E+03  0.29350300985E+04  0.27930005706E+04 0.  0.
        4    1    3    3  502    0 -0.21771441991E+03 -0.26810255999E+03 -0.18729133533E+04  0.19044906388E+04  0.12699999809E+01 0.  1.
       -4    1    3    3    0  502  0.21771441991E+03  0.26810255999E+03  0.97094356885E+03  0.10305394598E+04  0.12699999809E+01 0. -1.
</event>
<event>
 5   0  0.5297741E-07  0.2799607E+04  0.7818609E-02  0.8303390E-01
       -1   -1    0    0    0  501  0.00000000000E+00  0.00000000000E+00  0.19336750141E+04  0.19336750141E+04  0.50400001928E-02 0.  1.
        1   -1    0    0  501    0  0.00000000000E+00  0.00000000000E+00 -0.10133292118E+04  0.10133292118E+04  0.50400001928E-02 0. -1.
    10030    2    1    2    0    0  0.00000000000E+00  0.00000000000E+00  0.92034580237E+03  0.29470042259E+04  0.27996066709E+04 0.  0.
        5    1    3    3  502    0  0.63980466854E+03  0.38104666163E+03  0.17078536223E+04  0.18631512707E+04  0.46999998093E+01 0.  1.
       -5    1    3    3    0  502 -0.63980466854E+03 -0.38104666163E+03 -0.78750781991E+03  0.10838529553E+04  0.46999998093E+01 0. -1.
</event>
<event>
 5   0  0.1394410E-06  0.2798824E+04  0.7818609E-02  0.8303634E-01
       -2   -1    0    0    0  501  0.00000000000E+00  0.00000000000E+00  0.15622734168E+04  0.15622734168E+04  0.25500000920E-02 0.  1.
        2   -1    0    0  501    0  0.00000000000E+00  0.00000000000E+00 -0.12535281376E+04  0.12535281376E+04  0.25500000920E-02 0. -1.
    10030    2    1    2    0    0  0.00000000000E+00  0.00000000000E+00  0.30874527917E+03  0.28158015544E+04  0.27988238149E+04 0.  0.
        4    1    3    3  502    0  0.33978465603E+03 -0.13554548854E+04  0.22993157962E+03  0.14161856175E+04  0.12699999809E+01 0.  1.
       -4    1    3    3    0  502 -0.33978465603E+03  0.13554548854E+04  0.78813699549E+02  0.13996159370E+04  0.12699999809E+01 0. -1.
</event>
<event>
 5   0  0.5551565E-07  0.2815866E+04  0.7818609E-02  0.8298360E-01
       -1   -1    0    0    0  501  0.00000000000E+00  0.00000000000E+00  0.17617282464E+04  0.17617282464E+04  0.50400001928E-02 0.  1.
        1   -1    0    0  501    0  0.00000000000E+00  0.00000000000E+00 -0.11251878250E+04  0.11251878250E+04  0.50400001928E-02 0. -1.
    10030    2    1    2    0    0  0.00000000000E+00  0.00000000000E+00  0.63654042137E+03  0.28869160714E+04  0.28158658873E+04 0.  0.
        3    1    3    3  502    0  0.40524018028E+03  0.97317351029E+03  0.12750863593E+04  0.16544278524E+04  0.10100000352E+00 0.  1.
       -3    1    3    3    0  502 -0.40524018028E+03 -0.97317351029E+03 -0.63854593796E+03  0.12324882190E+04  0.10100000352E+00 0. -1.
</event>
<event>
 5   0  0.1377807E-06  0.2798679E+04  0.7818609E-02  0.8303679E-01
       -2   -1    0    0    0  501  0.00000000000E+00  0.00000000000E+00  0.12796546821E+04  0.12796546821E+04  0.25500000920E-02 0. -1.
        2   -1    0    0  501    0  0.00000000000E+00  0.00000000000E+00 -0.15302185658E+04  0.15302185658E+04  0.25500000920E-02 0.  1.
    10030    2    1    2    0    0  0.00000000000E+00  0.00000000000E+00 -0.25056388364E+03  0.28098732479E+04  0.27986792259E+04 0.  0.
        2    1    3    3  502    0  0.49776814478E+03  0.49777435226E+02  0.11868118474E+04  0.12879337251E+04  0.25500000920E-02 0. -1.
       -2    1    3    3    0  502 -0.49776814478E+03 -0.49777435226E+02 -0.14373757311E+04  0.15219395229E+04  0.25500000920E-02 0.  1.
</event>
<event>
 5   0  0.1461146E-06  0.2797244E+04  0.7818609E-02  0.8304125E-01
        2   -1    0    0  501    0  0.00000000000E+00  0.00000000000E+00  0.15561105102E+04  0.15561105102E+04  0.25500000920E-02 0. -1.
       -2   -1    0    0    0  501  0.00000000000E+00  0.00000000000E+00 -0.12570723135E+04  0.12570723135E+04  0.25500000920E-02 0.  1.
    10030    2    1    2    0    0  0.00000000000E+00  0.00000000000E+00  0.29903819676E+03  0.28131828237E+04  0.27972439573E+04 0.  0.
        1    1    3    3  502    0  0.70502487410E+03  0.57893757906E+03 -0.91667009915E+03  0.12932566892E+04  0.50400001928E-02 0.  1.
       -1    1    3    3    0  502 -0.70502487410E+03 -0.57893757906E+03  0.12157082959E+04  0.15199261345E+04  0.50400001928E-02 0. -1.
</event>
<event>
 5   0  0.5282098E-07  0.2800860E+04  0.7818609E-02  0.8303002E-01
       -1   -1    0    0    0  501  0.00000000000E+00  0.00000000000E+00  0.16461068835E+04  0.16461068835E+04  0.50400001928E-02 0. -1.
        1   -1    0    0  501    0  0.00000000000E+00  0.00000000000E+00 -0.11914192951E+04  0.11914192951E+04  0.50400001928E-02 0.  1.
    10030    2    1    2    0    0  0.00000000000E+00  0.00000000000E+00  0.45468758840E+03  0.28375261786E+04  0.28008595129E+04 0.  0.
        4    1    3    3  502    0  0.77269949850E+03 -0.77798846439E+03 -0.65519259667E+03  0.12773447136E+04  0.12699999809E+01 0.  1.
       -4    1    3    3    0  502 -0.77269949850E+03  0.77798846439E+03  0.11098801851E+04  0.15601814650E+04  0.12699999809E+01 0. -1.
</event>
<event>
 5   0  0.1461146E-06  0.2789470E+04  0.7818609E-02  0.8306545E-01
       -2   -1    0    0    0  501  0.00000000000E+00  0.00000000000E+00  0.26188185068E+04  0.26188185068E+04  0.25500000920E-02 0.  1.
        2   -1    0    0  501    0  0.00000000000E+00  0.00000000000E+00 -0.74281049769E+03  0.74281049770E+03  0.25500000920E-02 0. -1.
    10030    2    1    2    0    0  0.00000000000E+00  0.00000000000E+00  0.18760080091E+04  0.33616290045E+04  0.27894701134E+04 0.  0.
        1    1    3    3  502    0  0.11027934578E+04  0.76313674144E+03  0.47634192894E+03  0.14231769848E+04  0.50400001928E-02 0.  1.
       -1    1    3    3    0  502 -0.11027934578E+04 -0.76313674144E+03  0.13996660801E+04  0.19384520197E+04  0.50400001928E-02 0. -1.
</event>
<event>
 5   0  0.5214658E-07  0.2808132E+04  0.7818609E-02  0.8300748E-01
        1   -1    0    0  501    0  0.00000000000E+00  0.00000000000E+00  0.12503242524E+04  0.12503242524E+04  0.50400001928E-02 0.  1.
       -1   -1    0    0    0  501  0.00000000000E+00  0.00000000000E+00 -0.15767115321E+04  0.15767115321E+04  0.50400001928E-02 0. -1.
    10030    2    1    2    0    0  0.00000000000E+00  0.00000000000E+00 -0.32638727971E+03  0.28270357845E+04  0.28081315266E+04 0.  0.
        2    1    3    3  502    0  0.46277685403E+03  0.11794660736E+04  0.44593996277E+03  0.13431921254E+04  0.25500000920E-02 0. -1.
       -2    1    3    3    0  502 -0.46277685403E+03 -0.11794660736E+04 -0.77232724248E+03  0.14838436592E+04  0.25500000920E-02 0.  1.
</event>
<event>
 5   0  0.1394410E-06  0.2802664E+04  0.7818609E-02  0.8302442E-01
       -2   -1    0    0    0  501  0.00000000000E+00  0.00000000000E+00  0.10989985580E+04  0.10989985580E+04  0.25500000920E-02 0. -1.
        2   -1    0    0  501    0  0.00000000000E+00  0.00000000000E+00 -0.17868371762E+04  0.17868371762E+04  0.25500000920E-02 0.  1.
    10030    2    1    2    0    0  0.00000000000E+00  0.00000000000E+00 -0.68783861817E+03  0.28858357342E+04  0.28026640755E+04 0.  0.
        4    1    3    3  502    0  0.36080280846E+03  0.11892446772E+04  0.32278953208E+03  0.12840078908E+04  0.12699999809E+01 0. -1.
       -4    1    3    3    0  502 -0.36080280846E+03 -0.11892446772E+04 -0.10106281503E+04  0.16018278434E+04  0.12699999809E+01 0.  1.
</event>
<event>
 5   0  0.1499888E-06  0.2797277E+04  0.7818609E-02  0.8304114E-01
       -2   -1    0    0    0  501  0.00000000000E+00  0.00000000000E+00  0.89495930831E+03  0.89495930831E+03  0.25500000920E-02 0.  1.
        2   -1    0    0  501    0  0.00000000000E+00  0.00000000000E+00 -0.21857855386E+04  0.21857855386E+04  0.25500000920E-02 0. -1.
    10030    2    1    2    0    0  0.00000000000E+00  0.00000000000E+00 -0.12908262303E+04  0.30807448470E+04  0.27972766140E+04 0.  0.
        3    1    3    3  502    0 -0.91524448089E+03 -0.89044273440E+03 -0.16947616544E+02  0.12770465751E+04  0.10100000352E+00 0.  1.
       -3    1    3    3    0  502  0.91524448089E+03  0.89044273440E+03 -0.12738786138E+04  0.18036982719E+04  0.10100000352E+00 0. -1.
</event>
<event>
 5   0  0.5214658E-07  0.2803793E+04  0.7818609E-02  0.8302092E-01
       -1   -1    0    0    0  501  0.00000000000E+00  0.00000000000E+00  0.18676060829E+04  0.18676060829E+04  0.50400001928E-02 0.  1.
        1   -1    0    0  501    0  0.00000000000E+00  0.00000000000E+00 -0.10523173998E+04  0.10523173998E+04  0.50400001928E-02 0. -1.
    10030    2    1    2    0    0  0.00000000000E+00  0.00000000000E+00  0.81528868308E+03  0.29199234827E+04  0.28037934139E+04 0.  0.
        2    1    3    3  502    0  0.10412193416E+04 -0.83665884575E+03  0.85092517305E+03  0.15837327400E+04  0.25500000920E-02 0. -1.
       -2    1    3    3    0  502 -0.10412193416E+04  0.83665884575E+03 -0.35636489969E+02  0.13361907427E+04  0.25500000920E-02 0.  1.
</event>
<event>
 5   0  0.5282098E-07  0.2800165E+04  0.7818609E-02  0.8303217E-01
       -1   -1    0    0    0  501  0.00000000000E+00  0.00000000000E+00  0.56004544389E+03  0.56004544392E+03  0.50400001928E-02 0.  1.
        1   -1    0    0  501    0  0.00000000000E+00  0.00000000000E+00 -0.35001288822E+04  0.35001288822E+04  0.50400001928E-02 0. -1.
    10030    2    1    2    0    0  0.00000000000E+00  0.00000000000E+00 -0.29400834383E+04  0.40601743261E+04  0.28001651620E+04 0.  0.
        4    1    3    3  502    0 -0.51746333765E+03  0.12428923446E+04 -0.20272554094E+04  0.24335808584E+04  0.12699999809E+01 0. -1.
       -4    1    3    3    0  502  0.51746333765E+03 -0.12428923446E+04 -0.91282802885E+03  0.16265934677E+04  0.12699999809E+01 0.  1.
</event>
<event>
 5   0  0.5551565E-07  0.2800083E+04  0.7818609E-02  0.8303243E-01
        1   -1    0    0  501    0  0.00000000000E+00  0.00000000000E+00  0.27532142869E+04  0.27532142869E+04  0.50400001928E-02 0. -1.
       -1   -1    0    0    0  501  0.00000000000E+00  0.00000000000E+00 -0.71193750607E+03  0.71193750609E+03  0.50400001928E-02 0.  1.
    10030    2    1    2    0    0  0.00000000000E+00  0.00000000000E+00  0.20412767809E+04  0.34651517930E+04  0.28000832224E+04 0.  0.
        3    1    3    3  502    0  0.46348955992E+03 -0.11938570349E+04  0.32059357085E+03  0.13201884107E+04  0.10100000352E+00 0.  1.
       -3    1    3    3    0  502 -0.46348955992E+03  0.11938570349E+04  0.17206832100E+04  0.21449633823E+04  0.10100000352E+00 0. -1.
</event>
<event>
 5   0  0.5551565E-07  0.2799828E+04  0.7818609E-02  0.8303322E-01
        1   -1    0    0  501    0  0.00000000000E+00  0.00000000000E+00  0.22518829358E+04  0.22518829358E+04  0.50400001928E-02 0.  1.
       -1   -1    0    0    0  501  0.00000000000E+00  0.00000000000E+00 -0.87027564028E+03  0.87027564030E+03  0.50400001928E-02 0. -1.
    10030    2    1    2    0    0  0.00000000000E+00  0.00000000000E+00  0.13816072955E+04  0.31221585761E+04  0.27998277546E+04 0.  0.
        3    1    3    3  502    0 -0.77107932964E+03 -0.69500680266E+03  0.17381675120E+04  0.20245552841E+04  0.10100000352E+00 0.  1.
       -3    1    3    3    0  502  0.77107932964E+03  0.69500680266E+03 -0.35656021653E+03  0.10976032920E+04  0.10100000352E+00 0. -1.
</event>
<event>
 5   0  0.1461146E-06  0.2798213E+04  0.7818609E-02  0.8303823E-01
       -2   -1    0    0    0  501  0.00000000000E+00  0.00000000000E+00  0.94315185425E+03  0.94315185425E+03  0.25500000920E-02 0.  1.
        2   -1    0    0  501    0  0.00000000000E+00  0.00000000000E+00 -0.20754861496E+04  0.20754861496E+04  0.25500000920E-02 0. -1.
    10030    2    1    2    0    0  0.00000000000E+00  0.00000000000E+00 -0.11323342953E+04  0.30186380038E+04  0.27982127228E+04 0.  0.
        1    1    3    3  502    0  0.30319976097E+03  0.26857753674E+03 -0.20108518805E+04  0.20512409107E+04  0.50400001928E-02 0. -1.
       -1    1    3    3    0  502 -0.30319976097E+03 -0.26857753674E+03  0.87851758519E+03  0.96739709314E+03  0.50400001928E-02 0.  1.
</event>
<event>
 5   0  0.1439207E-06  0.2806502E+04  0.7818609E-02  0.8301253E-01
       -2   -1    0    0    0  501  0.00000000000E+00  0.00000000000E+00  0.18030999939E+04  0.18030999939E+04  0.25500000920E-02 0.  1.
        2   -1    0    0  501    0  0.00000000000E+00  0.00000000000E+00 -0.10920708221E+04  0.10920708221E+04  0.25500000920E-02 0. -1.
    10030    2    1    2    0    0  0.00000000000E+00  0.00000000000E+00  0.71102917179E+03  0.28951708160E+04  0.28065016606E+04 0.  0.
        5    1    3    3  502    0 -0.63180484682E+03 -0.17824019191E+03  0.16349175974E+04  0.17617958369E+04  0.46999998093E+01 0.  1.
       -5    1    3    3    0  502  0.63180484682E+03  0.17824019191E+03 -0.92388842561E+03  0.11333749792E+04  0.46999998093E+01 0. -1.
</event>
<event>
 5   0  0.1377807E-06  0.2821755E+04  0.7818609E-02  0.8296546E-01
        2   -1    0    0  501    0  0.00000000000E+00  0.00000000000E+00  0.11902884728E+04  0.11902884728E+04  0.25500000920E-02 0.  1.
       -2   -1    0    0    0  501  0.00000000000E+00  0.00000000000E+00 -0.16723475132E+04  0.16723475132E+04  0.25500000920E-02 0. -1.
    10030    2    1    2    0    0  0.00000000000E+00  0.00000000000E+00 -0.48205904038E+03  0.28626359861E+04  0.28217554590E+04 0.  0.
        2    1    3    3  502    0  0.11248606853E+04 -0.85162327951E+03 -0.23952614138E+03  0.14310648287E+04  0.25500000920E-02 0. -1.
       -2    1    3    3    0  502 -0.11248606853E+04  0.85162327951E+03 -0.24253289900E+03  0.14315711574E+04  0.25500000920E-02 0.  1.
</event>
<event>
 5   0  0.5362952E-07  0.2802494E+04  0.7818609E-02  0.8302494E-01
       -1   -1    0    0    0  501  0.00000000000E+00  0.00000000000E+00  0.15055681507E+04  0.15055681508E+04  0.50400001928E-02 0. -1.
        1   -1    0    0  501    0  0.00000000000E+00  0.00000000000E+00 -0.13041545514E+04  0.13041545515E+04  0.50400001928E-02 0.  1.
    10030    2    1    2    0    0  0.00000000000E+00  0.00000000000E+00  0.20141359930E+03  0.28097227022E+04  0.28024942864E+04 0.  0.
        1    1    3    3  502    0 -0.60625722020E+03  0.37058035913E+02  0.13667276309E+04  0.14956154359E+04  0.50400001928E-02 0. -1.
       -1    1    3    3    0  502  0.60625722020E+03 -0.37058035913E+02 -0.11653140316E+04  0.13141072663E+04  0.50400001928E-02 0.  1.
</event>
<event>
 5   0  0.1377807E-06  0.2815325E+04  0.7818609E-02  0.8298526E-01
        2   -1    0    0  501    0  0.00000000000E+00  0.00000000000E+00  0.23189083040E+04  0.23189083040E+04  0.25500000920E-02 0.  1.
       -2   -1    0    0    0  501  0.00000000000E+00  0.00000000000E+00 -0.85450288081E+03  0.85450288081E+03  0.25500000920E-02 0. -1.
    10030    2    1    2    0    0  0.00000000000E+00  0.00000000000E+00  0.14644054232E+04  0.31734111848E+04  0.28153250797E+04 0.  0.
        2    1    3    3  502    0 -0.85158537856E+03  0.50134580047E+03  0.18621912437E+04  0.21081512035E+04  0.25500000920E-02 0.  1.
       -2    1    3    3    0  502  0.85158537856E+03 -0.50134580047E+03 -0.39778582058E+03  0.10652599813E+04  0.25500000920E-02 0. -1.
</event>
<event>
 5   0  0.5362952E-07  0.2794939E+04  0.7818609E-02  0.8304841E-01
       -1   -1    0    0    0  501  0.00000000000E+00  0.00000000000E+00  0.15162292822E+04  0.15162292822E+04  0.50400001928E-02 0. -1.
        1   -1    0    0  501    0  0.00000000000E+00  0.00000000000E+00 -0.12880113984E+04  0.12880113984E+04  0.50400001928E-02 0.  1.
    10030    2    1    2    0    0  0.00000000000E+00  0.00000000000E+00  0.22821788378E+03  0.28042406806E+04  0.27949387099E+04 0.  0.
        1    1    3    3  502    0  0.57061109503E+03 -0.12291672739E+04  0.45652381796E+03  0.14299871347E+04  0.50400001928E-02 0.  1.
       -1    1    3    3    0  502 -0.57061109503E+03  0.12291672739E+04 -0.22830593418E+03  0.13742535459E+04  0.50400001928E-02 0. -1.
</event>
<event>
 5   0  0.5297741E-07  0.2799838E+04  0.7818609E-02  0.8303319E-01
       -1   -1    0    0    0  501  0.00000000000E+00  0.00000000000E+00  0.12069838465E+04  0.12069838465E+04  0.50400001928E-02 0. -1.
        1   -1    0    0  501    0  0.00000000000E+00  0.00000000000E+00 -0.16236949190E+04  0.16236949191E+04  0.50400001928E-02 0.  1.
    10030    2    1    2    0    0  0.00000000000E+00  0.00000000000E+00 -0.41671107254E+03  0.28306787656E+04  0.27998382374E+04 0.  0.
        5    1    3    3  502    0 -0.38384222872E+03  0.45705485726E+03 -0.14886046735E+04  0.16038079570E+04  0.46999998093E+01 0.  1.
       -5    1    3    3    0  502  0.38384222872E+03 -0.45705485726E+03  0.10718936009E+04  0.12268708085E+04  0.46999998093E+01 0. -1.
</event>
<event>
 5   0  0.1394410E-06  0.2802992E+04  0.7818609E-02  0.8302340E-01
        2   -1    0    0  501    0  0.00000000000E+00  0.00000000000E+00  0.12199267059E+04  0.12199267059E+04  0.25500000920E-02 0.  1.
       -2   -1    0    0    0  501  0.00000000000E+00  0.00000000000E+00 -0.16100888867E+04  0.16100888867E+04  0.25500000920E-02 0. -1.
    10030    2    1    2    0    0  0.00000000000E+00  0.00000000000E+00 -0.39016218089E+03  0.28300155926E+04  0.28029915674E+04 0.  0.
        4    1    3    3  502    0  0.10417481474E+04 -0.94400479467E+02 -0.11368323055E+04  0.15448430201E+04  0.12699999809E+01 0. -1.
       -4    1    3    3    0  502 -0.10417481474E+04  0.94400479467E+02  0.74667012465E+03  0.12851725725E+04  0.12699999809E+01 0.  1.
</event>
<event>
 5   0  0.5551565E-07  0.2797486E+04  0.7818609E-02  0.8304049E-01
        1   -1    0    0  501    0  0.00000000000E+00  0.00000000000E+00  0.12656554067E+04  0.12656554067E+04  0.50400001928E-02 0.  1.
       -1   -1    0    0    0  501  0.00000000000E+00  0.00000000000E+00 -0.15458253666E+04  0.15458253667E+04  0.50400001928E-02 0. -1.
    10030    2    1    2    0    0  0.00000000000E+00  0.00000000000E+00 -0.28016995998E+03  0.28114807733E+04  0.27974861809E+04 0.  0.
        3    1    3    3  502    0  0.18563370187E+03  0.10846017736E+04 -0.10079216213E+04  0.14922221294E+04  0.10100000352E+00 0. -1.
       -3    1    3    3    0  502 -0.18563370187E+03 -0.10846017736E+04  0.72775166136E+03  0.13192586439E+04  0.10100000352E+00 0.  1.
</event>
<event>
 5   0  0.4710000E-07  0.2798770E+04  0.7818609E-02  0.8303650E-01
       -3   -1    0    0    0  501  0.00000000000E+00  0.00000000000E+00  0.14423829715E+04  0.14423829751E+04  0.10100000352E+00 0. -1.
        3   -1    0    0  501    0  0.00000000000E+00  0.00000000000E+00 -0.13576692504E+04  0.13576692542E+04  0.10100000352E+00 0.  1.
    10030    2    1    2    0    0  0.00000000000E+00  0.00000000000E+00  0.84713721119E+02  0.28000522292E+04  0.27987704572E+04 0.  0.
        3    1    3    3  502    0  0.11743638735E+04  0.69565232501E+03  0.35106963451E+03  0.14093660146E+04  0.10100000352E+00 0. -1.
       -3    1    3    3    0  502 -0.11743638735E+04 -0.69565232501E+03 -0.26635591339E+03  0.13906862146E+04  0.10100000352E+00 0.  1.
</event>
<event>
 5   0  0.5362952E-07  0.2800532E+04  0.7818609E-02  0.8303103E-01
       -1   -1    0    0    0  501  0.00000000000E+00  0.00000000000E+00  0.13685621650E+04  0.13685621650E+04  0.50400001928E-02 0.  1.
        1   -1    0    0  501    0  0.00000000000E+00  0.00000000000E+00 -0.14327047451E+04  0.14327047451E+04  0.50400001928E-02 0. -1.
    10030    2    1    2    0    0  0.00000000000E+00  0.00000000000E+00 -0.64142580083E+02  0.28012669102E+04  0.28005324550E+04 0.  0.
        1    1    3    3  502    0  0.74677151893E+03  0.36894476006E+03 -0.11579585805E+04  0.14264136888E+04  0.50400001928E-02 0. -1.
       -1    1    3    3    0  502 -0.74677151893E+03 -0.36894476006E+03  0.10938160004E+04  0.13748532214E+04  0.50400001928E-02 0.  1.
</event>
<event>
 5   0  0.5214658E-07  0.2795338E+04  0.7818609E-02  0.8304717E-01
        1   -1    0    0  501    0  0.00000000000E+00  0.00000000000E+00  0.17129099232E+04  0.17129099232E+04  0.50400001928E-02 0.  1.
       -1   -1    0    0    0  501  0.00000000000E+00  0.00000000000E+00 -0.11404440836E+04  0.11404440836E+04  0.50400001928E-02 0. -1.
    10030    2    1    2    0    0  0.00000000000E+00  0.00000000000E+00  0.57246583955E+03  0.28533540068E+04  0.27953375379E+04 0.  0.
        2    1    3    3  502    0  0.76761363519E+03 -0.40112129813E+03  0.14059729401E+04  0.16513294333E+04  0.25500000920E-02 0.  1.
       -2    1    3    3    0  502 -0.76761363519E+03  0.40112129813E+03 -0.83350710059E+03  0.12020245736E+04  0.25500000920E-02 0. -1.
</event>
<event>
 5   0  0.5282098E-07  0.2788691E+04  0.7818609E-02  0.8306788E-01
       -1   -1    0    0    0  501  0.00000000000E+00  0.00000000000E+00  0.18182480788E+04  0.18182480788E+04  0.50400001928E-02 0.  1.
        1   -1    0    0  501    0  0.00000000000E+00  0.00000000000E+00 -0.10692705242E+04  0.10692705242E+04  0.50400001928E-02 0. -1.
    10030    2    1    2    0    0  0.00000000000E+00  0.00000000000E+00  0.74897755459E+03  0.28875186030E+04  0.27886907870E+04 0.  0.
        4    1    3    3  502    0 -0.81853704822E+03 -0.11174259027E+04  0.20896775424E+03  0.14008257145E+04  0.12699999809E+01 0.  1.
       -4    1    3    3    0  502  0.81853704822E+03  0.11174259027E+04  0.54000980035E+03  0.14866928885E+04  0.12699999809E+01 0. -1.
</event>
<event>
 5   0  0.4710000E-07  0.2753551E+04  0.7818609E-02  0.8317836E-01
       -3   -1    0    0    0  501  0.00000000000E+00  0.00000000000E+00  0.10420293571E+04  0.10420293620E+04  0.10100000352E+00 0. -1.
        3   -1    0    0  501    0  0.00000000000E+00  0.00000000000E+00 -0.18190575795E+04  0.18190575823E+04  0.10100000352E+00 0.  1.
    10030    2    1    2    0    0  0.00000000000E+00  0.00000000000E+00 -0.77702822236E+03  0.28610869443E+04  0.27535514603E+04 0.  0.
        2    1    3    3  502    0 -0.37135901226E+03  0.57865934824E+03  0.85086240417E+03  0.10939474339E+04  0.25500000920E-02 0. -1.
       -2    1    3    3    0  502  0.37135901226E+03 -0.57865934824E+03 -0.16278906265E+04  0.17671395104E+04  0.25500000920E-02 0.  1.
</event>
<event>
 5   0  0.1461146E-06  0.2797494E+04  0.7818609E-02  0.8304047E-01
        2   -1    0    0  501    0  0.00000000000E+00  0.00000000000E+00  0.14731779786E+04  0.14731779786E+04  0.25500000920E-02 0.  1.
       -2   -1    0    0    0  501  0.00000000000E+00  0.00000000000E+00 -0.13280770510E+04  0.13280770510E+04  0.25500000920E-02 0. -1.
    10030    2    1    2    0    0  0.00000000000E+00  0.00000000000E+00  0.14510092759E+03  0.28012550296E+04  0.27974944972E+04 0.  0.
        1    1    3    3  502    0 -0.66765463651E+03  0.90930495377E+03 -0.75554104223E+03  0.13577335818E+04  0.50400001928E-02 0. -1.
       -1    1    3    3    0  502  0.66765463651E+03 -0.90930495377E+03  0.90064196982E+03  0.14435214479E+04  0.50400001928E-02 0.  1.
</event>
<event>
 5   0  0.5214658E-07  0.2797083E+04  0.7818609E-02  0.8304175E-01
        1   -1    0    0  501    0  0.00000000000E+00  0.00000000000E+00  0.12735819406E+04  0.12735819406E+04  0.50400001928E-02 0.  1.
       -1   -1    0    0    0  501  0.00000000000E+00  0.00000000000E+00 -0.15357615004E+04  0.15357615004E+04  0.50400001928E-02 0. -1.
    10030    2    1    2    0    0  0.00000000000E+00  0.00000000000E+00 -0.26217955981E+03  0.28093434410E+04  0.27970828461E+04 0.  0.
        2    1    3    3  502    0  0.13698164662E+04  0.58656659657E+02  0.14594594496E+03  0.13788175998E+04  0.25500000920E-02 0.  1.
       -2    1    3    3    0  502 -0.13698164662E+04 -0.58656659657E+02 -0.40812550477E+03  0.14305258412E+04  0.25500000920E-02 0. -1.
</event>
<event>
 5   0  0.1499888E-06  0.2810527E+04  0.7818609E-02  0.8300007E-01
        2   -1    0    0  501    0  0.00000000000E+00  0.00000000000E+00  0.24787240779E+04  0.24787240779E+04  0.25500000920E-02 0.  1.
       -2   -1    0    0    0  501  0.00000000000E+00  0.00000000000E+00 -0.79668649381E+03  0.79668649382E+03  0.25500000920E-02 0. -1.
    10030    2    1    2    0    0  0.00000000000E+00  0.00000000000E+00  0.16820375841E+04  0.32754105717E+04  0.28105273489E+04 0.  0.
        3    1    3    3  502    0 -0.12750278159E+03  0.98201243121E+03  0.20030190023E+04  0.22344329277E+04  0.10100000352E+00 0.  1.
       -3    1    3    3    0  502  0.12750278159E+03 -0.98201243121E+03 -0.32098141824E+03  0.10409776441E+04  0.10100000352E+00 0. -1.
</event>
<event>
 5   0  0.5282098E-07  0.2796046E+04  0.7818609E-02  0.8304497E-01
       -1   -1    0    0    0  501  0.00000000000E+00  0.00000000000E+00  0.10273884692E+04  0.10273884692E+04  0.50400001928E-02 0.  1.
        1   -1    0    0  501    0  0.00000000000E+00  0.00000000000E+00 -0.19023655820E+04  0.19023655820E+04  0.50400001928E-02 0. -1.
    10030    2    1    2    0    0  0.00000000000E+00  0.00000000000E+00 -0.87497711278E+03  0.29297540512E+04  0.27960461106E+04 0.  0.
        4    1    3    3  502    0  0.26156681845E+03  0.84254500452E+03  0.69888582309E+03  0.11254964646E+04  0.12699999809E+01 0.  1.
       -4    1    3    3    0  502 -0.26156681845E+03 -0.84254500452E+03 -0.15738629359E+04  0.18042575866E+04  0.12699999809E+01 0. -1.
</event>
<event>
 5   0  0.1461146E-06  0.2802161E+04  0.7818609E-02  0.8302598E-01
       -2   -1    0    0    0  501  0.00000000000E+00  0.00000000000E+00  0.15434330085E+04  0.15434330085E+04  0.25500000920E-02 0. -1.
        2   -1    0    0  501    0  0.00000000000E+00  0.00000000000E+00 -0.12718572472E+04  0.12718572472E+04  0.25500000920E-02 0.  1.
    10030    2    1    2    0    0  0.00000000000E+00  0.00000000000E+00  0.27157576128E+03  0.28152902557E+04  0.28021609214E+04 0.  0.
        1    1    3    3  502    0 -0.50631969187E+03 -0.12968185789E+04  0.29441495405E+03  0.14229470201E+04  0.50400001928E-02 0.  1.
       -1    1    3    3    0  502  0.50631969187E+03  0.12968185789E+04 -0.22839192774E+02  0.13923432355E+04  0.50400001928E-02 0. -1.
</event>
<event>
 5   0  0.5551565E-07  0.2800066E+04  0.7818609E-02  0.8303248E-01
        1   -1    0    0  501    0  0.00000000000E+00  0.00000000000E+00  0.16387136571E+04  0.16387136571E+04  0.50400001928E-02 0.  1.
       -1   -1    0    0    0  501  0.00000000000E+00  0.00000000000E+00 -0.11961162565E+04  0.11961162565E+04  0.50400001928E-02 0. -1.
    10030    2    1    2    0    0  0.00000000000E+00  0.00000000000E+00  0.44259740067E+03  0.28348299136E+04  0.28000657457E+04 0.  0.
        3    1    3    3  502    0  0.65530678967E+03 -0.12179256016E+04  0.10610392073E+01  0.13830296077E+04  0.10100000352E+00 0.  1.
       -3    1    3    3    0  502 -0.65530678967E+03  0.12179256016E+04  0.44153636147E+03  0.14518003060E+04  0.10100000352E+00 0. -1.
</event>
<event>
 5   0  0.1394410E-06  0.2800265E+04  0.7818609E-02  0.8303186E-01
        2   -1    0    0  501    0  0.00000000000E+00  0.00000000000E+00  0.21022287546E+04  0.21022287546E+04  0.25500000920E-02 0.  1.
       -2   -1    0    0    0  501  0.00000000000E+00  0.00000000000E+00 -0.93252050614E+03  0.93252050615E+03  0.25500000920E-02 0. -1.
    10030    2    1    2    0    0  0.00000000000E+00  0.00000000000E+00  0.11697082485E+04  0.30347492608E+04  0.28002652891E+04 0.  0.
        4    1    3    3  502    0  0.13363498789E+03  0.80884573026E+03 -0.64521292161E+03  0.10432598202E+04  0.12699999809E+01 0. -1.
       -4    1    3    3    0  502 -0.13363498789E+03 -0.80884573026E+03  0.18149211701E+04  0.19914894406E+04  0.12699999809E+01 0.  1.
</event>
<event>
 5   0  0.1377807E-06  0.2791212E+04  0.7818609E-02  0.8306002E-01
        2   -1    0    0  501    0  0.00000000000E+00  0.00000000000E+00  0.24354066656E+04  0.24354066656E+04  0.25500000920E-02 0.  1.
       -2   -1    0    0    0  501  0.00000000000E+00  0.00000000000E+00 -0.79974968267E+03  0.79974968268E+03  0.25500000920E-02 0. -1.
    10030    2    1    2    0    0  0.00000000000E+00  0.00000000000E+00  0.16356569830E+04  0.32351563483E+04  0.27912117140E+04 0.  0.
        2    1    3    3  502    0 -0.12066305454E+04 -0.93742160803E+02  0.16233236812E+04  0.20248270642E+04  0.25500000920E-02 0.  1.
       -2    1    3    3    0  502  0.12066305454E+04  0.93742160803E+02  0.12333301724E+02  0.12103292841E+04  0.25500000920E-02 0. -1.
</event>
<event>
 5   0  0.1439207E-06  0.2797393E+04  0.7818609E-02  0.8304078E-01
        2   -1    0    0  501    0  0.00000000000E+00  0.00000000000E+00  0.14101205106E+04  0.14101205107E+04  0.25500000920E-02 0.  1.
       -2   -1    0    0    0  501  0.00000000000E+00  0.00000000000E+00 -0.13873646110E+04  0.13873646110E+04  0.25500000920E-02 0. -1.
    10030    2    1    2    0    0  0.00000000000E+00  0.00000000000E+00  0.22755899655E+02  0.27974851216E+04  0.27973925672E+04 0.  0.
        5    1    3    3  502    0 -0.11135713088E+04  0.84633212009E+03  0.14553971792E+02  0.13987683959E+04  0.46999998093E+01 0.  1.
       -5    1    3    3    0  502  0.11135713088E+04 -0.84633212009E+03  0.82019278639E+01  0.13987167257E+04  0.46999998093E+01 0. -1.
</event>
<event>
 5   0  0.1377807E-06  0.2819540E+04  0.7818609E-02  0.8297228E-01
       -2   -1    0    0    0  501  0.00000000000E+00  0.00000000000E+00  0.11902054732E+04  0.11902054732E+04  0.25500000920E-02 0.  1.
        2   -1    0    0  501    0  0.00000000000E+00  0.00000000000E+00 -0.16698385789E+04  0.16698385789E+04  0.25500000920E-02 0. -1.
    10030    2    1    2    0    0  0.00000000000E+00  0.00000000000E+00 -0.47963310570E+03  0.28600440520E+04  0.28195396900E+04 0.  0.
        2    1    3    3  502    0 -0.27797765731E+03 -0.11454249281E+04 -0.10243489450E+04  0.15615891281E+04  0.25500000920E-02 0. -1.
       -2    1    3    3    0  502  0.27797765731E+03  0.11454249281E+04  0.54471583931E+03  0.12984549239E+04  0.25500000920E-02 0.  1.
</event>
<event>
 5   0  0.1499888E-06  0.2799750E+04  0.7818609E-02  0.8303346E-01
       -2   -1    0    0    0  501  0.00000000000E+00  0.00000000000E+00  0.94452448505E+03  0.94452448505E+03  0.25500000920E-02 0.  1.
        2   -1    0    0  501    0  0.00000000000E+00  0.00000000000E+00 -0.20747477012E+04  0.20747477012E+04  0.25500000920E-02 0. -1.
    10030    2    1    2    0    0  0.00000000000E+00  0.00000000000E+00 -0.11302232162E+04  0.30192721863E+04  0.27997499918E+04 0.  0.
        3    1    3    3  502    0 -0.21237517319E+03  0.43862942691E+03  0.85009102855E+03  0.97987435692E+03  0.10100000352E+00 0.  1.
       -3    1    3    3    0  502  0.21237517319E+03 -0.43862942691E+03 -0.19803142447E+04  0.20393978293E+04  0.10100000352E+00 0. -1.
</event>
<event>
 5   0  0.1499888E-06  0.2797837E+04  0.7818609E-02  0.8303940E-01
        2   -1    0    0  501    0  0.00000000000E+00  0.00000000000E+00  0.14865059134E+04  0.14865059134E+04  0.25500000920E-02 0. -1.
       -2   -1    0    0    0  501  0.00000000000E+00  0.00000000000E+00 -0.13164916910E+04  0.13164916910E+04  0.25500000920E-02 0.  1.
    10030    2    1    2    0    0  0.00000000000E+00  0.00000000000E+00  0.17001422244E+03  0.28029976044E+04  0.27978367955E+04 0.  0.
        3    1    3    3  502    0  0.12614591342E+04  0.82107411527E+02  0.68523818749E+03  0.14379054761E+04  0.10100000352E+00 0. -1.
       -3    1    3    3    0  502 -0.12614591342E+04 -0.82107411527E+02 -0.51522396505E+03  0.13650921283E+04  0.10100000352E+00 0.  1.
</event>
<event>
 5   0  0.1377807E-06  0.2799188E+04  0.7818609E-02  0.8303521E-01
       -2   -1    0    0    0  501  0.00000000000E+00  0.00000000000E+00  0.13181664778E+04  0.13181664778E+04  0.25500000920E-02 0.  1.
        2   -1    0    0  501    0  0.00000000000E+00  0.00000000000E+00 -0.14860512326E+04  0.14860512326E+04  0.25500000920E-02 0. -1.
    10030    2    1    2    0    0  0.00000000000E+00  0.00000000000E+00 -0.16788475480E+03  0.28042177105E+04  0.27991876816E+04 0.  0.
        2    1    3    3  502    0  0.20745502548E+03  0.13686003118E+04 -0.29109528414E+03  0.14145108220E+04  0.25500000920E-02 0.  1.
       -2    1    3    3    0  502 -0.20745502548E+03 -0.13686003118E+04  0.12321052935E+03  0.13897068884E+04  0.25500000920E-02 0. -1.
</event>
<event>
 5   0  0.5214658E-07  0.2798880E+04  0.7818609E-02  0.8303616E-01
       -1   -1    0    0    0  501  0.00000000000E+00  0.00000000000E+00  0.12025679208E+04  0.12025679208E+04  0.50400001928E-02 0.  1.
        1   -1    0    0  501    0  0.00000000000E+00  0.00000000000E+00 -0.16285424702E+04  0.16285424702E+04  0.50400001928E-02 0. -1.
    10030    2    1    2    0    0  0.00000000000E+00  0.00000000000E+00 -0.42597454933E+03  0.28311103910E+04  0.27988804422E+04 0.  0.
        2    1    3    3  502    0 -0.72003133966E+03 -0.10698957562E+04 -0.76267010946E+03  0.14982615776E+04  0.25500000920E-02 0. -1.
       -2    1    3    3    0  502  0.72003133966E+03  0.10698957562E+04  0.33669556013E+03  0.13328488134E+04  0.25500000920E-02 0.  1.
</event>
<event>
 5   0  0.1499888E-06  0.2797460E+04  0.7818609E-02  0.8304057E-01
        2   -1    0    0  501    0  0.00000000000E+00  0.00000000000E+00  0.19786017689E+04  0.19786017689E+04  0.25500000920E-02 0. -1.
       -2   -1    0    0    0  501  0.00000000000E+00  0.00000000000E+00 -0.98880203054E+03  0.98880203054E+03  0.25500000920E-02 0.  1.
    10030    2    1    2    0    0  0.00000000000E+00  0.00000000000E+00  0.98979973837E+03  0.29674037995E+04  0.27974598812E+04 0.  0.
        3    1    3    3  502    0 -0.13536912500E+03 -0.13400066764E+03  0.19647802553E+04  0.19739914996E+04  0.10100000352E+00 0. -1.
       -3    1    3    3    0  502  0.13536912500E+03  0.13400066764E+03 -0.97498051689E+03  0.99341229983E+03  0.10100000352E+00 0.  1.
</event>
<event>
 5   0  0.5282098E-07  0.2801875E+04  0.7818609E-02  0.8302686E-01
        1   -1    0    0  501    0  0.00000000000E+00  0.00000000000E+00  0.24768338481E+04  0.24768338481E+04  0.50400001928E-02 0. -1.
       -1   -1    0    0    0  501  0.00000000000E+00  0.00000000000E+00 -0.79239327904E+03  0.79239327905E+03  0.50400001928E-02 0.  1.
    10030    2    1    2    0    0  0.00000000000E+00  0.00000000000E+00  0.16844405690E+04  0.32692271271E+04  0.28018754394E+04 0.  0.
        4    1    3    3  502    0 -0.26769249089E+02 -0.73039405079E+03  0.22367448837E+04  0.23531301175E+04  0.12699999809E+01 0. -1.
       -4    1    3    3    0  502  0.26769249089E+02  0.73039405079E+03 -0.55230431469E+03  0.91609700963E+03  0.12699999809E+01 0.  1.
</event>
<event>
 5   0  0.1461146E-06  0.2801749E+04  0.7818609E-02  0.8302725E-01
        2   -1    0    0  501    0  0.00000000000E+00  0.00000000000E+00  0.23979213048E+04  0.23979213048E+04  0.25500000920E-02 0.  1.
       -2   -1    0    0    0  501  0.00000000000E+00  0.00000000000E+00 -0.81839622580E+03  0.81839622580E+03  0.25500000920E-02 0. -1.
    10030    2    1    2    0    0  0.00000000000E+00  0.00000000000E+00  0.15795250790E+04  0.32163175306E+04  0.28017492719E+04 0.  0.
        1    1    3    3  502    0 -0.89025760057E+03 -0.68803941840E+03 -0.16828707337E+03  0.11376631205E+04  0.50400001928E-02 0. -1.
       -1    1    3    3    0  502  0.89025760057E+03  0.68803941840E+03  0.17478121524E+04  0.20786544101E+04  0.50400001928E-02 0.  1.
</event>
<event>
 5   0  0.1377807E-06  0.2805881E+04  0.7818609E-02  0.8301445E-01
       -2   -1    0    0    0  501  0.00000000000E+00  0.00000000000E+00  0.13469286634E+04  0.13469286634E+04  0.25500000920E-02 0. -1.
        2   -1    0    0  501    0  0.00000000000E+00  0.00000000000E+00 -0.14612817223E+04  0.14612817223E+04  0.25500000920E-02 0.  1.
    10030    2    1    2    0    0  0.00000000000E+00  0.00000000000E+00 -0.11435305891E+03  0.28082103857E+04  0.28058811358E+04 0.  0.
        2    1    3    3  502    0  0.10511507965E+04  0.54991925306E+03  0.69238647976E+03  0.13735822579E+04  0.25500000920E-02 0. -1.
       -2    1    3    3    0  502 -0.10511507965E+04 -0.54991925306E+03 -0.80673953866E+03  0.14346281278E+04  0.25500000920E-02 0.  1.
</event>
<event>
 5   0  0.5214658E-07  0.2801900E+04  0.7818609E-02  0.8302679E-01
        1   -1    0    0  501    0  0.00000000000E+00  0.00000000000E+00  0.12867679923E+04  0.12867679923E+04  0.50400001928E-02 0. -1.
       -1   -1    0    0    0  501  0.00000000000E+00  0.00000000000E+00 -0.15252638964E+04  0.15252638964E+04  0.50400001928E-02 0.  1.
    10030    2    1    2    0    0  0.00000000000E+00  0.00000000000E+00 -0.23849590415E+03  0.28120318887E+04  0.28018998995E+04 0.  0.
        2    1    3    3  502    0 -0.90822421276E+03 -0.51413678545E+03  0.81871864588E+03  0.13264645023E+04  0.25500000920E-02 0. -1.
       -2    1    3    3    0  502  0.90822421276E+03  0.51413678545E+03 -0.10572145500E+04  0.14855673864E+04  0.25500000920E-02 0.  1.
</event>
<event>
 5   0  0.1439207E-06  0.2795633E+04  0.7818609E-02  0.8304625E-01
       -2   -1    0    0    0  501  0.00000000000E+00  0.00000000000E+00  0.21280584433E+04  0.21280584433E+04  0.25500000920E-02 0. -1.
        2   -1    0    0  501    0  0.00000000000E+00  0.00000000000E+00 -0.91815675352E+03  0.91815675353E+03  0.25500000920E-02 0.  1.
    10030    2    1    2    0    0  0.00000000000E+00  0.00000000000E+00  0.12099016898E+04  0.30462151968E+04  0.27956331888E+04 0.  0.
        5    1    3    3  502    0  0.10924436681E+03  0.56963248383E+03  0.19907373059E+04  0.20735169663E+04  0.46999998093E+01 0. -1.
       -5    1    3    3    0  502 -0.10924436681E+03 -0.56963248383E+03 -0.78083561612E+03  0.97269823055E+03  0.46999998093E+01 0.  1.
</event>
<event>
 5   0  0.5551565E-07  0.2803697E+04  0.7818609E-02  0.8302122E-01
        1   -1    0    0  501    0  0.00000000000E+00  0.00000000000E+00  0.21157641050E+04  0.21157641050E+04  0.50400001928E-02 0.  1.
       -1   -1    0    0    0  501  0.00000000000E+00  0.00000000000E+00 -0.92882692006E+03  0.92882692008E+03  0.50400001928E-02 0. -1.
    10030    2    1    2    0    0  0.00000000000E+00  0.00000000000E+00  0.11869371850E+04  0.30445910251E+04  0.28036966008E+04 0.  0.
        3    1    3    3  502    0 -0.72382035172E+02  0.12937489484E+04  0.11743630205E+04  0.17487578490E+04  0.10100000352E+00 0.  1.
       -3    1    3    3    0  502  0.72382035172E+02 -0.12937489484E+04  0.12574164513E+02  0.12958331761E+04  0.10100000352E+00 0. -1.
</event>
<event>
 5   0  0.5551565E-07  0.2799871E+04  0.7818609E-02  0.8303309E-01
        1   -1    0    0  501    0  0.00000000000E+00  0.00000000000E+00  0.21371414543E+04  0.21371414543E+04  0.50400001928E-02 0. -1.
       -1   -1    0    0    0  501  0.00000000000E+00  0.00000000000E+00 -0.91702812711E+03  0.91702812712E+03  0.50400001928E-02 0.  1.
    10030    2    1    2    0    0  0.00000000000E+00  0.00000000000E+00  0.12201133272E+04  0.30541695814E+04  0.27998705864E+04 0.  0.
        3    1    3    3  502    0  0.32315634224E+03 -0.11065614111E+04  0.14764979011E+04  0.18732202861E+04  0.10100000352E+00 0.  1.
       -3    1    3    3    0  502 -0.32315634224E+03  0.11065614111E+04 -0.25638457394E+03  0.11809492953E+04  0.10100000352E+00 0. -1.
</event>
<event>
 5   0  0.5282098E-07  0.2798040E+04  0.7818609E-02  0.8303877E-01
       -1   -1    0    0    0  501  0.00000000000E+00  0.00000000000E+00  0.17096569612E+04  0.17096569612E+04  0.50400001928E-02 0.  1.
        1   -1    0    0  501    0  0.00000000000E+00  0.00000000000E+00 -0.11448247279E+04  0.11448247279E+04  0.50400001928E-02 0. -1.
    10030    2    1    2    0    0  0.00000000000E+00  0.00000000000E+00  0.56483223333E+03  0.28544816891E+04  0.27980404324E+04 0.  0.
        4    1    3    3  502    0  0.32745788351E+03  0.55195362095E+03  0.15506231128E+04  0.16781880455E+04  0.12699999809E+01 0.  1.
       -4    1    3    3    0  502 -0.32745788351E+03 -0.55195362095E+03 -0.98579087944E+03  0.11762936436E+04  0.12699999809E+01 0. -1.
</event>
<event>
 5   0  0.1394410E-06  0.2799355E+04  0.7818609E-02  0.8303469E-01
        2   -1    0    0  501    0  0.00000000000E+00  0.00000000000E+00  0.18378330141E+04  0.18378330141E+04  0.25500000920E-02 0.  1.
       -2   -1    0    0    0  501  0.00000000000E+00  0.00000000000E+00 -0.10659820393E+04  0.10659820393E+04  0.25500000920E-02 0. -1.
    10030    2    1    2    0    0  0.00000000000E+00  0.00000000000E+00  0.77185097476E+03  0.29038150534E+04  0.27993549145E+04 0.  0.
        4    1    3    3  502    0  0.27025046171E+03  0.11461193464E+03  0.18055421395E+04  0.18292499113E+04  0.12699999809E+01 0.  1.
       -4    1    3    3    0  502 -0.27025046171E+03 -0.11461193464E+03 -0.10336911648E+04  0.10745651421E+04  0.12699999809E+01 0. -1.
</event>
<event>
 5   0  0.1377807E-06  0.2801638E+04  0.7818609E-02  0.8302760E-01
       -2   -1    0    0    0  501  0.00000000000E+00  0.00000000000E+00  0.14683364127E+04  0.14683364127E+04  0.25500000920E-02 0. -1.
        2   -1    0    0  501    0  0.00000000000E+00  0.00000000000E+00 -0.13364059753E+04  0.13364059753E+04  0.25500000920E-02 0.  1.
    10030    2    1    2    0    0  0.00000000000E+00  0.00000000000E+00  0.13193043743E+03  0.28047423880E+04  0.28016377751E+04 0.  0.
        2    1    3    3  502    0 -0.41656779430E+03 -0.25322676110E+03  0.13806763842E+04  0.14642130301E+04  0.25500000920E-02 0. -1.
       -2    1    3    3    0  502  0.41656779430E+03  0.25322676110E+03 -0.12487459468E+04  0.13405293579E+04  0.25500000920E-02 0.  1.
</event>
<event>
 5   0  0.1394410E-06  0.2805399E+04  0.7818609E-02  0.8301594E-01
        2   -1    0    0  501    0  0.00000000000E+00  0.00000000000E+00  0.14487488736E+04  0.14487488736E+04  0.25500000920E-02 0.  1.
       -2   -1    0    0    0  501  0.00000000000E+00  0.00000000000E+00 -0.13581134940E+04  0.13581134940E+04  0.25500000920E-02 0. -1.
    10030    2    1    2    0    0  0.00000000000E+00  0.00000000000E+00  0.90635379650E+02  0.28068623676E+04  0.28053986488E+04 0.  0.
        4    1    3    3  502    0  0.50381704121E+03 -0.72698440102E+03  0.11345664947E+04  0.14386037238E+04  0.12699999809E+01 0.  1.
       -4    1    3    3    0  502 -0.50381704121E+03  0.72698440102E+03 -0.10439311151E+04  0.13682586438E+04  0.12699999809E+01 0. -1.
</event>
<event>
 5   0  0.1461146E-06  0.2800206E+04  0.7818609E-02  0.8303204E-01
        2   -1    0    0  501    0  0.00000000000E+00  0.00000000000E+00  0.89170068095E+03  0.89170068095E+03  0.25500000920E-02 0. -1.
       -2   -1    0    0    0  501  0.00000000000E+00  0.00000000000E+00 -0.21983700319E+04  0.21983700319E+04  0.25500000920E-02 0.  1.
    10030    2    1    2    0    0  0.00000000000E+00  0.00000000000E+00 -0.13066693510E+04  0.30900707129E+04  0.28002057456E+04 0.  0.
        1    1    3    3  502    0 -0.97505118237E+03  0.69564696122E+03  0.14672444502E+03  0.12067218261E+04  0.50400001928E-02 0. -1.
       -1    1    3    3    0  502  0.97505118237E+03 -0.69564696122E+03 -0.14533937960E+04  0.18833488867E+04  0.50400001928E-02 0.  1.
</event>
<event>
 5   0  0.1499888E-06  0.2810464E+04  0.7818609E-02  0.8300027E-01
       -2   -1    0    0    0  501  0.00000000000E+00  0.00000000000E+00  0.16939167583E+04  0.16939167583E+04  0.25500000920E-02 0. -1.
        2   -1    0    0  501    0  0.00000000000E+00  0.00000000000E+00 -0.11657465197E+04  0.11657465197E+04  0.25500000920E-02 0.  1.
    10030    2    1    2    0    0  0.00000000000E+00  0.00000000000E+00  0.52817023867E+03  0.28596632780E+04  0.28104644212E+04 0.  0.
        3    1    3    3  502    0  0.87759775242E+03  0.58092628749E+03  0.12115267501E+04  0.16048209380E+04  0.10100000352E+00 0. -1.
       -3    1    3    3    0  502 -0.87759775242E+03 -0.58092628749E+03 -0.68335651140E+03  0.12548423401E+04  0.10100000352E+00 0.  1.
</event>
<event>
 5   0  0.5362952E-07  0.2800783E+04  0.7818609E-02  0.8303025E-01
       -1   -1    0    0    0  501  0.00000000000E+00  0.00000000000E+00  0.81251095768E+03  0.81251095769E+03  0.50400001928E-02 0.  1.
        1   -1    0    0  501    0  0.00000000000E+00  0.00000000000E+00 -0.24136237958E+04  0.24136237958E+04  0.50400001928E-02 0. -1.
    10030    2    1    2    0    0  0.00000000000E+00  0.00000000000E+00 -0.16011128381E+04  0.32261347535E+04  0.28007825919E+04 0.  0.
        1    1    3    3  502    0 -0.10559332408E+03 -0.13853115925E+04 -0.10028976285E+04  0.17134882001E+04  0.50400001928E-02 0. -1.
       -1    1    3    3    0  502  0.10559332408E+03  0.13853115925E+04 -0.59821520961E+03  0.15126465534E+04  0.50400001928E-02 0.  1.
</event>
<event>
 5   0  0.1377807E-06  0.2805942E+04  0.7818609E-02  0.8301426E-01
       -2   -1    0    0    0  501  0.00000000000E+00  0.00000000000E+00  0.98510687665E+03  0.98510687666E+03  0.25500000920E-02 0.  1.
        2   -1    0    0  501    0  0.00000000000E+00  0.00000000000E+00 -0.19980856967E+04  0.19980856967E+04  0.25500000920E-02 0. -1.
    10030    2    1    2    0    0  0.00000000000E+00  0.00000000000E+00 -0.10129788201E+04  0.29831925734E+04  0.28059422375E+04 0.  0.
        2    1    3    3  502    0 -0.13469815908E+04  0.20628372560E+03 -0.86136450587E+03  0.16120983820E+04  0.25500000920E-02 0. -1.
       -2    1    3    3    0  502  0.13469815908E+04 -0.20628372560E+03 -0.15161431420E+03  0.13710941914E+04  0.25500000920E-02 0.  1.
</event>
<event>
 5   0  0.5282098E-07  0.2800182E+04  0.7818609E-02  0.8303212E-01
        1   -1    0    0  501    0  0.00000000000E+00  0.00000000000E+00  0.22902157462E+04  0.22902157462E+04  0.50400001928E-02 0.  1.
       -1   -1    0    0    0  501  0.00000000000E+00  0.00000000000E+00 -0.85592561500E+03  0.85592561501E+03  0.50400001928E-02 0. -1.
    10030    2    1    2    0    0  0.00000000000E+00  0.00000000000E+00  0.14342901312E+04  0.31461413612E+04  0.28001816520E+04 0.  0.
        4    1    3    3  502    0 -0.44045089500E+03  0.12853058492E+04  0.33738451271E+03  0.13999421556E+04  0.12699999809E+01 0. -1.
       -4    1    3    3    0  502  0.44045089500E+03 -0.12853058492E+04  0.10969056185E+04  0.17461992056E+04  0.12699999809E+01 0.  1.
</event>
<event>
 5   0  0.1377807E-06  0.2800844E+04  0.7818609E-02  0.8303006E-01
        2   -1    0    0  501    0  0.00000000000E+00  0.00000000000E+00  0.22250457959E+04  0.22250457959E+04  0.25500000920E-02 0. -1.
       -2   -1    0    0    0  501  0.00000000000E+00  0.00000000000E+00 -0.88141216758E+03  0.88141216758E+03  0.25500000920E-02 0.  1.
    10030    2    1    2    0    0  0.00000000000E+00  0.00000000000E+00  0.13436336283E+04  0.31064579635E+04  0.28008444712E+04 0.  0.
        2    1    3    3  502    0  0.69272080012E+03  0.65205570826E+03 -0.46800769411E+03  0.10602216539E+04  0.25500000920E-02 0.  1.
       -2    1    3    3    0  502 -0.69272080012E+03 -0.65205570826E+03  0.18116413224E+04  0.20462363096E+04  0.25500000920E-02 0. -1.
</event>
<event>
 5   0  0.1394410E-06  0.2799014E+04  0.7818609E-02  0.8303575E-01
       -2   -1    0    0    0  501  0.00000000000E+00  0.00000000000E+00  0.13092287921E+04  0.13092287921E+04  0.25500000920E-02 0. -1.
        2   -1    0    0  501    0  0.00000000000E+00  0.00000000000E+00 -0.14960098877E+04  0.14960098877E+04  0.25500000920E-02 0.  1.
    10030    2    1    2    0    0  0.00000000000E+00  0.00000000000E+00 -0.18678109569E+03  0.28052386798E+04  0.27990135536E+04 0.  0.
        4    1    3    3  502    0  0.34426134860E+03  0.44156403167E+03 -0.13788666155E+04  0.14882101419E+04  0.12699999809E+01 0.  1.
       -4    1    3    3    0  502 -0.34426134860E+03 -0.44156403167E+03  0.11920855198E+04  0.13170285379E+04  0.12699999809E+01 0. -1.
</event>
<event>
 5   0  0.5362952E-07  0.2804340E+04  0.7818609E-02  0.8301922E-01
        1   -1    0    0  501    0  0.00000000000E+00  0.00000000000E+00  0.20251792129E+04  0.20251792129E+04  0.50400001928E-02 0. -1.
       -1   -1    0    0    0  501  0.00000000000E+00  0.00000000000E+00 -0.97081817002E+03  0.97081817004E+03  0.50400001928E-02 0.  1.
    10030    2    1    2    0    0  0.00000000000E+00  0.00000000000E+00  0.10543610429E+04  0.29959973830E+04  0.28043400489E+04 0.  0.
        1    1    3    3  502    0  0.12152688832E+04 -0.54672058715E+03  0.61134381002E+02  0.13339862336E+04  0.50400001928E-02 0.  1.
       -1    1    3    3    0  502 -0.12152688832E+04  0.54672058715E+03  0.99322666192E+03  0.16620111494E+04  0.50400001928E-02 0. -1.
</event>
<event>
 5   0  0.5551565E-07  0.2780537E+04  0.7818609E-02  0.8309336E-01
        1   -1    0    0  501    0  0.00000000000E+00  0.00000000000E+00  0.77826219441E+03  0.77826219443E+03  0.50400001928E-02 0. -1.
       -1   -1    0    0    0  501  0.00000000000E+00  0.00000000000E+00 -0.24835413852E+04  0.24835413852E+04  0.50400001928E-02 0.  1.
    10030    2    1    2    0    0  0.00000000000E+00  0.00000000000E+00 -0.17052791908E+04  0.32618035797E+04  0.27805369038E+04 0.  0.
        3    1    3    3  502    0  0.65063897546E+03 -0.45602370573E+03  0.48568311596E+03  0.93122327929E+03  0.10100000352E+00 0. -1.
       -3    1    3    3    0  502 -0.65063897546E+03  0.45602370573E+03 -0.21909623068E+04  0.23305803004E+04  0.10100000352E+00 0.  1.
</event>
<event>
 5   0  0.1499888E-06  0.2802683E+04  0.7818609E-02  0.8302436E-01
       -2   -1    0    0    0  501  0.00000000000E+00  0.00000000000E+00  0.92486544566E+03  0.92486544567E+03  0.25500000920E-02 0. -1.
        2   -1    0    0  501    0  0.00000000000E+00  0.00000000000E+00 -0.21232901602E+04  0.21232901602E+04  0.25500000920E-02 0.  1.
    10030    2    1    2    0    0  0.00000000000E+00  0.00000000000E+00 -0.11984247145E+04  0.30481556059E+04  0.28026827864E+04 0.  0.
        3    1    3    3  502    0  0.13701817651E+04 -0.27347625238E+03 -0.48222562136E+03  0.14780828428E+04  0.10100000352E+00 0. -1.
       -3    1    3    3    0  502 -0.13701817651E+04  0.27347625238E+03 -0.71619909318E+03  0.15700727631E+04  0.10100000352E+00 0.  1.
</event>
<event>
 5   0  0.5297741E-07  0.2800825E+04  0.7818609E-02  0.8303012E-01
       -1   -1    0    0    0  501  0.00000000000E+00  0.00000000000E+00  0.29843479933E+04  0.29843479933E+04  0.50400001928E-02 0.  1.
        1   -1    0    0  501    0  0.00000000000E+00  0.00000000000E+00 -0.65714707482E+03  0.65714707483E+03  0.50400001928E-02 0. -1.
    10030    2    1    2    0    0  0.00000000000E+00  0.00000000000E+00  0.23272009185E+04  0.36414950682E+04  0.28008252742E+04 0.  0.
        5    1    3    3  502    0  0.24879252883E+03  0.54582500606E+03  0.28088490456E+04  0.28721904029E+04  0.46999998093E+01 0.  1.
       -5    1    3    3    0  502 -0.24879252883E+03 -0.54582500606E+03 -0.48164812709E+03  0.76930466525E+03  0.46999998093E+01 0. -1.
</event>
<event>
 5   0  0.5282098E-07  0.2789892E+04  0.7818609E-02  0.8306413E-01
       -1   -1    0    0    0  501  0.00000000000E+00  0.00000000000E+00  0.10619289499E+04  0.10619289499E+04  0.50400001928E-02 0.  1.
        1   -1    0    0  501    0  0.00000000000E+00  0.00000000000E+00 -0.18323960279E+04  0.18323960279E+04  0.50400001928E-02 0. -1.
    10030    2    1    2    0    0  0.00000000000E+00  0.00000000000E+00 -0.77046707808E+03  0.28943249778E+04  0.27898920335E+04 0.  0.
        4    1    3    3  502    0  0.36252126250E+03 -0.13272054993E+04 -0.62401589845E+03  0.15107261689E+04  0.12699999809E+01 0. -1.
       -4    1    3    3    0  502 -0.36252126250E+03  0.13272054993E+04 -0.14645117963E+03  0.13835988089E+04  0.12699999809E+01 0.  1.
</event>
<event>
 5   0  0.1394410E-06  0.2799311E+04  0.7818609E-02  0.8303482E-01
        2   -1    0    0  501    0  0.00000000000E+00  0.00000000000E+00  0.15295886489E+04  0.15295886489E+04  0.25500000920E-02 0.  1.
       -2   -1    0    0    0  501  0.00000000000E+00  0.00000000000E+00 -0.12807593225E+04  0.12807593225E+04  0.25500000920E-02 0. -1.
    10030    2    1    2    0    0  0.00000000000E+00  0.00000000000E+00  0.24882932643E+03  0.28103479714E+04  0.27993105735E+04 0.  0.
        4    1    3    3  502    0  0.85958276203E+02  0.34124722419E+03 -0.12356203807E+04  0.12847559423E+04  0.12699999809E+01 0. -1.
       -4    1    3    3    0  502 -0.85958276203E+02 -0.34124722419E+03  0.14844497071E+04  0.15255920291E+04  0.12699999809E+01 0.  1.
</event>
<event>
 5   0  0.1461146E-06  0.2801845E+04  0.7818609E-02  0.8302696E-01
       -2   -1    0    0    0  501  0.00000000000E+00  0.00000000000E+00  0.13642143930E+04  0.13642143930E+04  0.25500000920E-02 0. -1.
        2   -1    0    0  501    0  0.00000000000E+00  0.00000000000E+00 -0.14386180281E+04  0.14386180281E+04  0.25500000920E-02 0.  1.
    10030    2    1    2    0    0  0.00000000000E+00  0.00000000000E+00 -0.74403635142E+02  0.28028324212E+04  0.28018446924E+04 0.  0.
        1    1    3    3  502    0 -0.21254689229E+03  0.11379461837E+04  0.75205396245E+03  0.13804647264E+04  0.50400001928E-02 0. -1.
       -1    1    3    3    0  502  0.21254689229E+03 -0.11379461837E+04 -0.82645759759E+03  0.14223676947E+04  0.50400001928E-02 0.  1.
</event>
<event>
 5   0  0.5214658E-07  0.2799110E+04  0.7818609E-02  0.8303545E-01
        1   -1    0    0  501    0  0.00000000000E+00  0.00000000000E+00  0.18771568398E+04  0.18771568398E+04  0.50400001928E-02 0.  1.
       -1   -1    0    0    0  501  0.00000000000E+00  0.00000000000E+00 -0.10434688115E+04  0.10434688115E+04  0.50400001928E-02 0. -1.
    10030    2    1    2    0    0  0.00000000000E+00  0.00000000000E+00  0.83368802827E+03  0.29206256513E+04  0.27991102991E+04 0.  0.
        2    1    3    3  502    0  0.31856682656E+03 -0.44037498394E+03  0.17625381359E+04  0.18444391099E+04  0.25500000920E-02 0.  1.
       -2    1    3    3    0  502 -0.31856682656E+03  0.44037498394E+03 -0.92885010765E+03  0.10761865414E+04  0.25500000920E-02 0. -1.
</event>
<event>
 5   0  0.1377807E-06  0.2790897E+04  0.7818609E-02  0.8306100E-01
        2   -1    0    0  501    0  0.00000000000E+00  0.00000000000E+00  0.17640318250E+04  0.17640318250E+04  0.25500000920E-02 0. -1.
       -2   -1    0    0    0  501  0.00000000000E+00  0.00000000000E+00 -0.11038783160E+04  0.11038783160E+04  0.25500000920E-02 0.  1.
    10030    2    1    2    0    0  0.00000000000E+00  0.00000000000E+00  0.66015350900E+03  0.28679101410E+04  0.27908969744E+04 0.  0.
        2    1    3    3  502    0 -0.39571366576E+03  0.80588821653E+03  0.14278397395E+04  0.16866450263E+04  0.25500000920E-02 0. -1.
       -2    1    3    3    0  502  0.39571366576E+03 -0.80588821653E+03 -0.76768623053E+03  0.11812651148E+04  0.25500000920E-02 0.  1.
</event>
<event>
 5   0  0.1461146E-06  0.2801788E+04  0.7818609E-02  0.8302713E-01
       -2   -1    0    0    0  501  0.00000000000E+00  0.00000000000E+00  0.11720482096E+04  0.11720482096E+04  0.25500000920E-02 0.  1.
        2   -1    0    0  501    0  0.00000000000E+00  0.00000000000E+00 -0.16744230963E+04  0.16744230963E+04  0.25500000920E-02 0. -1.
    10030    2    1    2    0    0  0.00000000000E+00  0.00000000000E+00 -0.50237488663E+03  0.28464713059E+04  0.28017884232E+04 0.  0.
        1    1    3    3  502    0  0.92766844025E+03  0.44860554913E+03  0.71299425460E+03  0.12530668302E+04  0.50400001928E-02 0.  1.
       -1    1    3    3    0  502 -0.92766844025E+03 -0.44860554913E+03 -0.12153691412E+04  0.15934044757E+04  0.50400001928E-02 0. -1.
</event>
<event>
 5   0  0.1499888E-06  0.2801251E+04  0.7818609E-02  0.8302880E-01
        2   -1    0    0  501    0  0.00000000000E+00  0.00000000000E+00  0.15611814174E+04  0.15611814174E+04  0.25500000920E-02 0. -1.
       -2   -1    0    0    0  501  0.00000000000E+00  0.00000000000E+00 -0.12565814723E+04  0.12565814723E+04  0.25500000920E-02 0.  1.
    10030    2    1    2    0    0  0.00000000000E+00  0.00000000000E+00  0.30459994517E+03  0.28177628897E+04  0.28012508949E+04 0.  0.
        3    1    3    3  502    0 -0.79732773808E+03  0.11326066360E+04 -0.56825277732E+02  0.13862750219E+04  0.10100000352E+00 0.  1.
       -3    1    3    3    0  502  0.79732773808E+03 -0.11326066360E+04  0.36142522290E+03  0.14314878678E+04  0.10100000352E+00 0. -1.
</event>
<event>
 5   0  0.1377807E-06  0.2798695E+04  0.7818609E-02  0.8303674E-01
       -2   -1    0    0    0  501  0.00000000000E+00  0.00000000000E+00  0.11843762523E+04  0.11843762523E+04  0.25500000920E-02 0. -1.
        2   -1    0    0  501    0  0.00000000000E+00  0.00000000000E+00 -0.16533369568E+04  0.16533369568E+04  0.25500000920E-02 0.  1.
    10030    2    1    2    0    0  0.00000000000E+00  0.00000000000E+00 -0.46896070446E+03  0.28377132091E+04  0.27986947163E+04 0.  0.
        2    1    3    3  502    0 -0.26072117617E+03  0.36078676306E+03 -0.15796376111E+04  0.16411573972E+04  0.25500000920E-02 0.  1.
       -2    1    3    3    0  502  0.26072117617E+03 -0.36078676306E+03  0.11106769066E+04  0.11965558119E+04  0.25500000920E-02 0. -1.
</event>
<event>
 5   0  0.5297741E-07  0.2802551E+04  0.7818609E-02  0.8302477E-01
       -1   -1    0    0    0  501  0.00000000000E+00  0.00000000000E+00  0.74632047031E+03  0.74632047033E+03  0.50400001928E-02 0. -1.
        1   -1    0    0  501    0  0.00000000000E+00  0.00000000000E+00 -0.26310047695E+04  0.26310047695E+04  0.50400001928E-02 0.  1.
    10030    2    1    2    0    0  0.00000000000E+00  0.00000000000E+00 -0.18846842992E+04  0.33773252398E+04  0.28025507788E+04 0.  0.
        5    1    3    3  502    0 -0.26963919595E+03 -0.10652230231E+04 -0.19902473781E+04  0.22734361881E+04  0.46999998093E+01 0.  1.
       -5    1    3    3    0  502  0.26963919595E+03  0.10652230231E+04  0.10556307897E+03  0.11038890518E+04  0.46999998093E+01 0. -1.
</event>
<event>
 5   0  0.1394410E-06  0.2789156E+04  0.7818609E-02  0.8306643E-01
       -2   -1    0    0    0  501  0.00000000000E+00  0.00000000000E+00  0.16346350988E+04  0.16346350988E+04  0.25500000920E-02 0. -1.
        2   -1    0    0  501    0  0.00000000000E+00  0.00000000000E+00 -0.11897751556E+04  0.11897751556E+04  0.25500000920E-02 0.  1.
    10030    2    1    2    0    0  0.00000000000E+00  0.00000000000E+00  0.44485994317E+03  0.28244102544E+04  0.27891563090E+04 0.  0.
        4    1    3    3  502    0 -0.55856814273E+03  0.12571305580E+04 -0.95308415476E+01  0.13756700403E+04  0.12699999809E+01 0. -1.
       -4    1    3    3    0  502  0.55856814273E+03 -0.12571305580E+04  0.45439078471E+03  0.14487402141E+04  0.12699999809E+01 0.  1.
</event>
<event>
 5   0  0.5551565E-07  0.2795209E+04  0.7818609E-02  0.8304757E-01
        1   -1    0    0  501    0  0.00000000000E+00  0.00000000000E+00  0.98857416821E+03  0.98857416822E+03  0.50400001928E-02 0.  1.
       -1   -1    0    0    0  501  0.00000000000E+00  0.00000000000E+00 -0.19758741998E+04  0.19758741998E+04  0.50400001928E-02 0. -1.
    10030    2    1    2    0    0  0.00000000000E+00  0.00000000000E+00 -0.98730003157E+03  0.29644483680E+04  0.27952088964E+04 0.  0.
        3    1    3    3  502    0  0.33089412667E+03 -0.84094057057E+03 -0.16243267486E+04  0.18587924474E+04  0.10100000352E+00 0. -1.
       -3    1    3    3    0  502 -0.33089412667E+03  0.84094057057E+03  0.63702671701E+03  0.11056559206E+04  0.10100000352E+00 0.  1.
</event>
<event>
 5   0  0.5551565E-07  0.2798555E+04  0.7818609E-02  0.8303717E-01
       -1   -1    0    0    0  501  0.00000000000E+00  0.00000000000E+00  0.12919941033E+04  0.12919941033E+04  0.50400001928E-02 0.  1.
        1   -1    0    0  501    0  0.00000000000E+00  0.00000000000E+00 -0.15154689173E+04  0.15154689173E+04  0.50400001928E-02 0. -1.
    10030    2    1    2    0    0  0.00000000000E+00  0.00000000000E+00 -0.22347481400E+03  0.28074630207E+04  0.27985545590E+04 0.  0.
        3    1    3    3  502    0  0.12549442014E+04 -0.36483086681E+03 -0.61331937941E+03  0.14436575707E+04  0.10100000352E+00 0. -1.
       -3    1    3    3    0  502 -0.12549442014E+04  0.36483086681E+03  0.38984456541E+03  0.13638054500E+04  0.10100000352E+00 0.  1.
</event>
<event>
 5   0  0.1499888E-06  0.2802333E+04  0.7818609E-02  0.8302544E-01
       -2   -1    0    0    0  501  0.00000000000E+00  0.00000000000E+00  0.99549963382E+03  0.99549963382E+03  0.25500000920E-02 0. -1.
        2   -1    0    0  501    0  0.00000000000E+00  0.00000000000E+00 -0.19721428817E+04  0.19721428817E+04  0.25500000920E-02 0.  1.
    10030    2    1    2    0    0  0.00000000000E+00  0.00000000000E+00 -0.97664324789E+03  0.29676425155E+04  0.28023329685E+04 0.  0.
        3    1    3    3  502    0  0.39889294600E+02 -0.16420061076E+03  0.98467005185E+03  0.99906362040E+03  0.10100000352E+00 0. -1.
       -3    1    3    3    0  502 -0.39889294600E+02  0.16420061076E+03 -0.19613132997E+04  0.19685788951E+04  0.10100000352E+00 0.  1.
</event>
<event>
 5   0  0.4710000E-07  0.2796330E+04  0.7818609E-02  0.8304409E-01
        3   -1    0    0  501    0  0.00000000000E+00  0.00000000000E+00  0.93050886970E+03  0.93050887518E+03  0.10100000352E+00 0. -1.
       -3   -1    0    0    0  501  0.00000000000E+00  0.00000000000E+00 -0.21008558307E+04  0.21008558331E+04  0.10100000352E+00 0.  1.
    10030    2    1    2    0    0  0.00000000000E+00  0.00000000000E+00 -0.11703469610E+04  0.30313647083E+04  0.27963297348E+04 0.  0.
        3    1    3    3  502    0 -0.11550099953E+04  0.28577638885E+03  0.21081010457E+03  0.12083696223E+04  0.10100000352E+00 0. -1.
       -3    1    3    3    0  502  0.11550099953E+04 -0.28577638885E+03 -0.13811570655E+04  0.18229950860E+04  0.10100000352E+00 0.  1.
</event>
<event>
 5   0  0.5551565E-07  0.2806060E+04  0.7818609E-02  0.8301390E-01
        1   -1    0    0  501    0  0.00000000000E+00  0.00000000000E+00  0.15131138758E+04  0.15131138758E+04  0.50400001928E-02 0.  1.
       -1   -1    0    0    0  501  0.00000000000E+00  0.00000000000E+00 -0.13009547795E+04  0.13009547795E+04  0.50400001928E-02 0. -1.
    10030    2    1    2    0    0  0.00000000000E+00  0.00000000000E+00  0.21215909629E+03  0.28140686554E+04  0.28060596777E+04 0.  0.
        3    1    3    3  502    0 -0.73374056900E+03 -0.10625822420E+04  0.65631345031E+03  0.14485177248E+04  0.10100000352E+00 0.  1.
       -3    1    3    3    0  502  0.73374056900E+03  0.10625822420E+04 -0.44415435401E+03  0.13655509306E+04  0.10100000352E+00 0. -1.
</event>
<event>
 5   0  0.5282098E-07  0.2803575E+04  0.7818609E-02  0.8302159E-01
        1   -1    0    0  501    0  0.00000000000E+00  0.00000000000E+00  0.19113353226E+04  0.19113353226E+04  0.50400001928E-02 0.  1.
       -1   -1    0    0    0  501  0.00000000000E+00  0.00000000000E+00 -0.10280812692E+04  0.10280812692E+04  0.50400001928E-02 0. -1.
    10030    2    1    2    0    0  0.00000000000E+00  0.00000000000E+00  0.88325405338E+03  0.29394165918E+04  0.28035748924E+04 0.  0.
        4    1    3    3  502    0 -0.19778036939E+03  0.10051034356E+04 -0.56163703740E+03  0.11682413131E+04  0.12699999809E+01 0. -1.
       -4    1    3    3    0  502  0.19778036939E+03 -0.10051034356E+04  0.14448910908E+04  0.17711752787E+04  0.12699999809E+01 0.  1.
</event>
<event>
 5   0  0.5297741E-07  0.2801128E+04  0.7818609E-02  0.8302918E-01
        1   -1    0    0  501    0  0.00000000000E+00  0.00000000000E+00  0.16975975175E+04  0.16975975175E+04  0.50400001928E-02 0. -1.
       -1   -1    0    0    0  501  0.00000000000E+00  0.00000000000E+00 -0.11555031392E+04  0.11555031392E+04  0.50400001928E-02 0.  1.
    10030    2    1    2    0    0  0.00000000000E+00  0.00000000000E+00  0.54209437836E+03  0.28531006567E+04  0.28011278161E+04 0.  0.
        5    1    3    3  502    0 -0.35017404543E+03 -0.54982579285E+02 -0.11090514394E+04  0.11643290477E+04  0.46999998093E+01 0.  1.
       -5    1    3    3    0  502  0.35017404543E+03  0.54982579285E+02  0.16511458177E+04  0.16887716090E+04  0.46999998093E+01 0. -1.
</event>
<event>
 5   0  0.5282098E-07  0.2801659E+04  0.7818609E-02  0.8302754E-01
        1   -1    0    0  501    0  0.00000000000E+00  0.00000000000E+00  0.16098713605E+04  0.16098713605E+04  0.50400001928E-02 0.  1.
       -1   -1    0    0    0  501  0.00000000000E+00  0.00000000000E+00 -0.12189317075E+04  0.12189317075E+04  0.50400001928E-02 0. -1.
    10030    2    1    2    0    0  0.00000000000E+00  0.00000000000E+00  0.39093965295E+03  0.28288030680E+04  0.28016589702E+04 0.  0.
        4    1    3    3  502    0 -0.97465885606E+03 -0.59657394870E+03  0.10135427132E+04  0.15274589377E+04  0.12699999809E+01 0.  1.
       -4    1    3    3    0  502  0.97465885606E+03  0.59657394870E+03 -0.62260306023E+03  0.13013441303E+04  0.12699999809E+01 0. -1.
</event>
<event>
 5   0  0.1499888E-06  0.2806056E+04  0.7818609E-02  0.8301391E-01
        2   -1    0    0  501    0  0.00000000000E+00  0.00000000000E+00  0.27033594183E+04  0.27033594183E+04  0.25500000920E-02 0. -1.
       -2   -1    0    0    0  501  0.00000000000E+00  0.00000000000E+00 -0.72816324519E+03  0.72816324520E+03  0.25500000920E-02 0.  1.
    10030    2    1    2    0    0  0.00000000000E+00  0.00000000000E+00  0.19751961731E+04  0.34315226635E+04  0.28060555710E+04 0.  0.
        3    1    3    3  502    0 -0.90327991963E+03 -0.43030389904E+02 -0.32422591393E+03  0.96067095362E+03  0.10100000352E+00 0.  1.
       -3    1    3    3    0  502  0.90327991963E+03  0.43030389904E+02  0.22994220870E+04  0.24708517099E+04  0.10100000352E+00 0. -1.
</event>
<event>
 5   0  0.5362952E-07  0.2804131E+04  0.7818609E-02  0.8301987E-01
       -1   -1    0    0    0  501  0.00000000000E+00  0.00000000000E+00  0.15530492367E+04  0.15530492367E+04  0.50400001928E-02 0.  1.
        1   -1    0    0  501    0  0.00000000000E+00  0.00000000000E+00 -0.12657597015E+04  0.12657597015E+04  0.50400001928E-02 0. -1.
    10030    2    1    2    0    0  0.00000000000E+00  0.00000000000E+00  0.28728953519E+03  0.28188089381E+04  0.28041306233E+04 0.  0.
        1    1    3    3  502    0  0.13102889830E+03 -0.61671289971E+03 -0.11152218670E+04  0.12811023321E+04  0.50400001928E-02 0. -1.
       -1    1    3    3    0  502 -0.13102889830E+03  0.61671289971E+03  0.14025114022E+04  0.15377066060E+04  0.50400001928E-02 0.  1.
</event>
<event>
 5   0  0.1499888E-06  0.2799881E+04  0.7818609E-02  0.8303305E-01
       -2   -1    0    0    0  501  0.00000000000E+00  0.00000000000E+00  0.15150411369E+04  0.15150411369E+04  0.25500000920E-02 0. -1.
        2   -1    0    0  501    0  0.00000000000E+00  0.00000000000E+00 -0.12935840973E+04  0.12935840973E+04  0.25500000920E-02 0.  1.
    10030    2    1    2    0    0  0.00000000000E+00  0.00000000000E+00  0.22145703964E+03  0.28086252342E+04  0.27998807985E+04 0.  0.
        3    1    3    3  502    0 -0.51347705861E+03  0.10973854162E+04  0.81428885242E+03  0.14597875828E+04  0.10100000352E+00 0.  1.
       -3    1    3    3    0  502  0.51347705861E+03 -0.10973854162E+04 -0.59283181278E+03  0.13488376514E+04  0.10100000352E+00 0. -1.
</event>
<event>
 5   0  0.1394410E-06  0.2798690E+04  0.7818609E-02  0.8303675E-01
        2   -1    0    0  501    0  0.00000000000E+00  0.00000000000E+00  0.21514374356E+04  0.21514374356E+04  0.25500000920E-02 0.  1.
       -2   -1    0    0    0  501  0.00000000000E+00  0.00000000000E+00 -0.91016674429E+03  0.91016674429E+03  0.25500000920E-02 0. -1.
    10030    2    1    2    0    0  0.00000000000E+00  0.00000000000E+00  0.12412706913E+04  0.30616041799E+04  0.27986902696E+04 0.  0.
        4    1    3    3  502    0  0.10732554092E+04 -0.89533154821E+03  0.69538798854E+03  0.15611091640E+04  0.12699999809E+01 0.  1.
       -4    1    3    3    0  502 -0.10732554092E+04  0.89533154821E+03  0.54588270281E+03  0.15004950159E+04  0.12699999809E+01 0. -1.
</event>
<event>
 5   0  0.5282098E-07  0.2798000E+04  0.7818609E-02  0.8303889E-01
       -1   -1    0    0    0  501  0.00000000000E+00  0.00000000000E+00  0.78182013999E+03  0.78182014001E+03  0.50400001928E-02 0. -1.
        1   -1    0    0  501    0  0.00000000000E+00  0.00000000000E+00 -0.25033911285E+04  0.25033911285E+04  0.50400001928E-02 0.  1.
    10030    2    1    2    0    0  0.00000000000E+00  0.00000000000E+00 -0.17215709885E+04  0.32852112685E+04  0.27980004307E+04 0.  0.
        4    1    3    3  502    0 -0.24237473937E+03  0.97185564854E+03 -0.20075614468E+04  0.22435582211E+04  0.12699999809E+01 0.  1.
       -4    1    3    3    0  502  0.24237473937E+03 -0.97185564854E+03  0.28599045835E+03  0.10416530474E+04  0.12699999809E+01 0. -1.
</event>
<event>
 5   0  0.5362952E-07  0.2795509E+04  0.7818609E-02  0.8304664E-01
       -1   -1    0    0    0  501  0.00000000000E+00  0.00000000000E+00  0.16435786744E+04  0.16435786744E+04  0.50400001928E-02 0.  1.
        1   -1    0    0  501    0  0.00000000000E+00  0.00000000000E+00 -0.11886976972E+04  0.11886976972E+04  0.50400001928E-02 0. -1.
    10030    2    1    2    0    0  0.00000000000E+00  0.00000000000E+00  0.45488097722E+03  0.28322763716E+04  0.27955093886E+04 0.  0.
        1    1    3    3  502    0  0.14501544410E+03 -0.88369610076E+03  0.13147608928E+04  0.15907685196E+04  0.50400001928E-02 0.  1.
       -1    1    3    3    0  502 -0.14501544410E+03  0.88369610076E+03 -0.85987991558E+03  0.12415078521E+04  0.50400001928E-02 0. -1.
</event>
<event>
 5   0  0.1377807E-06  0.2802273E+04  0.7818609E-02  0.8302563E-01
        2   -1    0    0  501    0  0.00000000000E+00  0.00000000000E+00  0.15521375458E+04  0.15521375458E+04  0.25500000920E-02 0.  1.
       -2   -1    0    0    0  501  0.00000000000E+00  0.00000000000E+00 -0.12648257487E+04  0.12648257487E+04  0.25500000920E-02 0. -1.
    10030    2    1    2    0    0  0.00000000000E+00  0.00000000000E+00  0.28731179718E+03  0.28169632945E+04  0.28022730298E+04 0.  0.
        2    1    3    3  502    0  0.13881272864E+04 -0.11091623266E+03  0.29933466121E+03  0.14243598609E+04  0.25500000920E-02 0.  1.
       -2    1    3    3    0  502 -0.13881272864E+04  0.11091623266E+03 -0.12022864030E+02  0.13926034336E+04  0.25500000920E-02 0. -1.
</event>
<event>
 5   0  0.1499888E-06  0.2797751E+04  0.7818609E-02  0.8303967E-01
        2   -1    0    0  501    0  0.00000000000E+00  0.00000000000E+00  0.22547858886E+04  0.22547858886E+04  0.25500000920E-02 0.  1.
       -2   -1    0    0    0  501  0.00000000000E+00  0.00000000000E+00 -0.86786654620E+03  0.86786654620E+03  0.25500000920E-02 0. -1.
    10030    2    1    2    0    0  0.00000000000E+00  0.00000000000E+00  0.13869193424E+04  0.31226524348E+04  0.27977514125E+04 0.  0.
        3    1    3    3  502    0 -0.55247447671E+03  0.42433355828E+03  0.20474152892E+04  0.21626826842E+04  0.10100000352E+00 0.  1.
       -3    1    3    3    0  502  0.55247447671E+03 -0.42433355828E+03 -0.66049594678E+03  0.95996975057E+03  0.10100000352E+00 0. -1.
</event>
<event>
 5   0  0.5282098E-07  0.2800920E+04  0.7818609E-02  0.8302983E-01
       -1   -1    0    0    0  501  0.00000000000E+00  0.00000000000E+00  0.12457260335E+04  0.12457260336E+04  0.50400001928E-02 0. -1.
        1   -1    0    0  501    0  0.00000000000E+00  0.00000000000E+00 -0.15744141994E+04  0.15744141994E+04  0.50400001928E-02 0.  1.
    10030    2    1    2    0    0  0.00000000000E+00  0.00000000000E+00 -0.32868816589E+03  0.28201402330E+04  0.28009203886E+04 0.  0.
        4    1    3    3  502    0  0.59504664971E+02 -0.31351034420E+03  0.12086323404E+04  0.12500493143E+04  0.12699999809E+01 0. -1.
       -4    1    3    3    0  502 -0.59504664971E+02  0.31351034420E+03 -0.15373205063E+04  0.15700909187E+04  0.12699999809E+01 0.  1.
</event>
<event>
 5   0  0.5214658E-07  0.2807500E+04  0.7818609E-02  0.8300944E-01
       -1   -1    0    0    0  501  0.00000000000E+00  0.00000000000E+00  0.14542204918E+04  0.14542204918E+04  0.50400001928E-02 0. -1.
        1   -1    0    0  501    0  0.00000000000E+00  0.00000000000E+00 -0.13550311758E+04  0.13550311758E+04  0.50400001928E-02 0.  1.
    10030    2    1    2    0    0  0.00000000000E+00  0.00000000000E+00  0.99189315938E+02  0.28092516676E+04  0.28075000288E+04 0.  0.
        2    1    3    3  502    0 -0.11931307104E+03 -0.11498241908E+04 -0.74725816556E+03  0.13764904811E+04  0.25500000920E-02 0.  1.
       -2    1    3    3    0  502  0.11931307104E+03  0.11498241908E+04  0.84644748150E+03  0.14327611865E+04  0.25500000920E-02 0. -1.
</event>
<event>
 5   0  0.5362952E-07  0.2800938E+04  0.7818609E-02  0.8302977E-01
       -1   -1    0    0    0  501  0.00000000000E+00  0.00000000000E+00  0.14879641718E+04  0.14879641718E+04  0.50400001928E-02 0. -1.
        1   -1    0    0  501    0  0.00000000000E+00  0.00000000000E+00 -0.13181183914E+04  0.13181183915E+04  0.50400001928E-02 0.  1.
    10030    2    1    2    0    0  0.00000000000E+00  0.00000000000E+00  0.16984578035E+03  0.28060825633E+04  0.28009376578E+04 0.  0.
        1    1    3    3  502    0 -0.89275655961E+03 -0.12673498152E+03  0.11584493524E+04  0.14680193910E+04  0.50400001928E-02 0. -1.
       -1    1    3    3    0  502  0.89275655961E+03  0.12673498152E+03 -0.98860357205E+03  0.13380631723E+04  0.50400001928E-02 0.  1.
</event>
<event>
 5   0  0.1377807E-06  0.2801024E+04  0.7818609E-02  0.8302950E-01
        2   -1    0    0  501    0  0.00000000000E+00  0.00000000000E+00  0.14668497460E+04  0.14668497460E+04  0.25500000920E-02 0. -1.
       -2   -1    0    0    0  501  0.00000000000E+00  0.00000000000E+00 -0.13371747472E+04  0.13371747472E+04  0.25500000920E-02 0.  1.
    10030    2    1    2    0    0  0.00000000000E+00  0.00000000000E+00  0.12967499880E+03  0.28040244933E+04  0.28010244114E+04 0.  0.
        2    1    3    3  502    0 -0.45053356639E+03 -0.12961646572E+04 -0.21548228619E+03  0.13890485696E+04  0.25500000920E-02 0. -1.
       -2    1    3    3    0  502  0.45053356639E+03  0.12961646572E+04  0.34515728499E+03  0.14149759236E+04  0.25500000920E-02 0.  1.
</event>
<event>
 5   0  0.5297741E-07  0.2800930E+04  0.7818609E-02  0.8302980E-01
       -1   -1    0    0    0  501  0.00000000000E+00  0.00000000000E+00  0.13201356038E+04  0.13201356038E+04  0.50400001928E-02 0.  1.
        1   -1    0    0  501    0  0.00000000000E+00  0.00000000000E+00 -0.14856823676E+04  0.14856823676E+04  0.50400001928E-02 0. -1.
    10030    2    1    2    0    0  0.00000000000E+00  0.00000000000E+00 -0.16554676382E+03  0.28058179714E+04  0.28009299808E+04 0.  0.
        5    1    3    3  502    0  0.50622178778E+03 -0.13052561924E+04 -0.11924946768E+03  0.14050611203E+04  0.46999998093E+01 0. -1.
       -5    1    3    3    0  502 -0.50622178778E+03  0.13052561924E+04 -0.46297296145E+02  0.14007568511E+04  0.46999998093E+01 0.  1.
</event>
<event>
 5   0  0.5551565E-07  0.2802832E+04  0.7818609E-02  0.8302390E-01
        1   -1    0    0  501    0  0.00000000000E+00  0.00000000000E+00  0.18228618775E+04  0.18228618775E+04  0.50400001928E-02 0.  1.
       -1   -1    0    0    0  501  0.00000000000E+00  0.00000000000E+00 -0.10774087726E+04  0.10774087726E+04  0.50400001928E-02 0. -1.
    10030    2    1    2    0    0  0.00000000000E+00  0.00000000000E+00  0.74545310489E+03  0.29002706501E+04  0.28028324089E+04 0.  0.
        3    1    3    3  502    0 -0.11428176544E+04  0.50740069888E+03 -0.28210810215E+03  0.12818239551E+04  0.10100000352E+00 0. -1.
       -3    1    3    3    0  502  0.11428176544E+04 -0.50740069888E+03  0.10275612070E+04  0.16184466951E+04  0.10100000352E+00 0.  1.
</event>
<event>
 5   0  0.1499888E-06  0.2814093E+04  0.7818609E-02  0.8298906E-01
       -2   -1    0    0    0  501  0.00000000000E+00  0.00000000000E+00  0.14037197903E+04  0.14037197903E+04  0.25500000920E-02 0.  1.
        2   -1    0    0  501    0  0.00000000000E+00  0.00000000000E+00 -0.14103809729E+04  0.14103809729E+04  0.25500000920E-02 0. -1.
    10030    2    1    2    0    0  0.00000000000E+00  0.00000000000E+00 -0.66611825479E+01  0.28141007632E+04  0.28140928794E+04 0.  0.
        3    1    3    3  502    0 -0.12083291549E+04 -0.60693368342E+03 -0.39237130722E+03  0.14079712695E+04  0.10100000352E+00 0. -1.
       -3    1    3    3    0  502  0.12083291549E+04  0.60693368342E+03  0.38571012467E+03  0.14061294937E+04  0.10100000352E+00 0.  1.
</event>
<event>
 5   0  0.1499888E-06  0.2807671E+04  0.7818609E-02  0.8300891E-01
        2   -1    0    0  501    0  0.00000000000E+00  0.00000000000E+00  0.19624161526E+04  0.19624161526E+04  0.25500000920E-02 0.  1.
       -2   -1    0    0    0  501  0.00000000000E+00  0.00000000000E+00 -0.10042489496E+04  0.10042489496E+04  0.25500000920E-02 0. -1.
    10030    2    1    2    0    0  0.00000000000E+00  0.00000000000E+00  0.95816720303E+03  0.29666651023E+04  0.28076711773E+04 0.  0.
        3    1    3    3  502    0  0.10320818272E+04 -0.45637038748E+03  0.13614078720E+04  0.17683037728E+04  0.10100000352E+00 0.  1.
       -3    1    3    3    0  502 -0.10320818272E+04  0.45637038748E+03 -0.40324066901E+03  0.11983613295E+04  0.10100000352E+00 0. -1.
</event>
<event>
 5   0  0.5362952E-07  0.2787871E+04  0.7818609E-02  0.8307044E-01
        1   -1    0    0  501    0  0.00000000000E+00  0.00000000000E+00  0.15350406415E+04  0.15350406415E+04  0.50400001928E-02 0.  1.
       -1   -1    0    0    0  501  0.00000000000E+00  0.00000000000E+00 -0.12658007019E+04  0.12658007019E+04  0.50400001928E-02 0. -1.
    10030    2    1    2    0    0  0.00000000000E+00  0.00000000000E+00  0.26923993957E+03  0.28008413434E+04  0.27878705289E+04 0.  0.
        1    1    3    3  502    0  0.10309604078E+04  0.88535974178E+03 -0.17716937101E+03  0.13704489122E+04  0.50400001928E-02 0. -1.
       -1    1    3    3    0  502 -0.10309604078E+04 -0.88535974178E+03  0.44640931058E+03  0.14303924313E+04  0.50400001928E-02 0.  1.
</event>
<event>
 5   0  0.1461146E-06  0.2799171E+04  0.7818609E-02  0.8303526E-01
       -2   -1    0    0    0  501  0.00000000000E+00  0.00000000000E+00  0.25813615063E+04  0.25813615063E+04  0.25500000920E-02 0.  1.
        2   -1    0    0  501    0  0.00000000000E+00  0.00000000000E+00 -0.75883984570E+03  0.75883984570E+03  0.25500000920E-02 0. -1.
    10030    2    1    2    0    0  0.00000000000E+00  0.00000000000E+00  0.18225216606E+04  0.33402013520E+04  0.27991712824E+04 0.  0.
        1    1    3    3  502    0  0.15948748580E+03  0.13268214684E+03 -0.74038970496E+03  0.76890683795E+03  0.50400001928E-02 0. -1.
       -1    1    3    3    0  502 -0.15948748580E+03 -0.13268214684E+03  0.25629113655E+04  0.25712945140E+04  0.50400001928E-02 0.  1.
</event>
<event>
 5   0  0.5214658E-07  0.2809533E+04  0.7818609E-02  0.8300315E-01
        1   -1    0    0  501    0  0.00000000000E+00  0.00000000000E+00  0.14876305667E+04  0.14876305667E+04  0.50400001928E-02 0.  1.
       -1   -1    0    0    0  501  0.00000000000E+00  0.00000000000E+00 -0.13265179596E+04  0.13265179597E+04  0.50400001928E-02 0. -1.
    10030    2    1    2    0    0  0.00000000000E+00  0.00000000000E+00  0.16111260703E+03  0.28141485263E+04  0.28095328181E+04 0.  0.
        2    1    3    3  502    0 -0.94879680578E+03 -0.70238832200E+03 -0.68214323426E+03  0.13634090089E+04  0.25500000920E-02 0. -1.
       -2    1    3    3    0  502  0.94879680578E+03  0.70238832200E+03  0.84325584130E+03  0.14507395174E+04  0.25500000920E-02 0.  1.
</event>
<event>
 5   0  0.5362952E-07  0.2800792E+04  0.7818609E-02  0.8303023E-01
        1   -1    0    0  501    0  0.00000000000E+00  0.00000000000E+00  0.11780703129E+04  0.11780703129E+04  0.50400001928E-02 0.  1.
       -1   -1    0    0    0  501  0.00000000000E+00  0.00000000000E+00 -0.16646786562E+04  0.16646786562E+04  0.50400001928E-02 0. -1.
    10030    2    1    2    0    0  0.00000000000E+00  0.00000000000E+00 -0.48660834335E+03  0.28427489691E+04  0.28007916776E+04 0.  0.
        1    1    3    3  502    0 -0.13862066893E+04 -0.19809050167E+03 -0.22573377800E+03  0.14183668675E+04  0.50400001928E-02 0.  1.
       -1    1    3    3    0  502  0.13862066893E+04  0.19809050167E+03 -0.26087456535E+03  0.14243821016E+04  0.50400001928E-02 0. -1.
</event>
<event>
 5   0  0.5214658E-07  0.2784677E+04  0.7818609E-02  0.8308041E-01
       -1   -1    0    0    0  501  0.00000000000E+00  0.00000000000E+00  0.15798606391E+04  0.15798606391E+04  0.50400001928E-02 0.  1.
        1   -1    0    0  501    0  0.00000000000E+00  0.00000000000E+00 -0.12270740479E+04  0.12270740479E+04  0.50400001928E-02 0. -1.
    10030    2    1    2    0    0  0.00000000000E+00  0.00000000000E+00  0.35278659121E+03  0.28069346870E+04  0.27846766344E+04 0.  0.
        2    1    3    3  502    0 -0.12408658135E+04  0.10990936475E+03  0.80327903794E+03  0.14822568091E+04  0.25500000920E-02 0. -1.
       -2    1    3    3    0  502  0.12408658135E+04 -0.10990936475E+03 -0.45049244673E+03  0.13246778778E+04  0.25500000920E-02 0.  1.
</event>
<event>
 5   0  0.1461146E-06  0.2816325E+04  0.7818609E-02  0.8298218E-01
        2   -1    0    0  501    0  0.00000000000E+00  0.00000000000E+00  0.13740172868E+04  0.13740172868E+04  0.25500000920E-02 0.  1.
       -2   -1    0    0    0  501  0.00000000000E+00  0.00000000000E+00 -0.14431559644E+04  0.14431559644E+04  0.25500000920E-02 0. -1.
    10030    2    1    2    0    0  0.00000000000E+00  0.00000000000E+00 -0.69138677589E+02  0.28171732513E+04  0.28163247275E+04 0.  0.
        1    1    3    3  502    0 -0.79975244827E+03  0.68580919908E+03  0.90004776132E+03  0.13856493816E+04  0.50400001928E-02 0.  1.
       -1    1    3    3    0  502  0.79975244827E+03 -0.68580919908E+03 -0.96918643891E+03  0.14315238697E+04  0.50400001928E-02 0. -1.
</event>
<event>
 5   0  0.5282098E-07  0.2798349E+04  0.7818609E-02  0.8303781E-01
        1   -1    0    0  501    0  0.00000000000E+00  0.00000000000E+00  0.18456567274E+04  0.18456567274E+04  0.50400001928E-02 0. -1.
       -1   -1    0    0    0  501  0.00000000000E+00  0.00000000000E+00 -0.10607009850E+04  0.10607009850E+04  0.50400001928E-02 0.  1.
    10030    2    1    2    0    0  0.00000000000E+00  0.00000000000E+00  0.78495574246E+03  0.29063577124E+04  0.27983494483E+04 0.  0.
        4    1    3    3  502    0 -0.73984388011E+02  0.15138828467E+03 -0.10501242713E+04  0.10635575680E+04  0.12699999809E+01 0.  1.
       -4    1    3    3    0  502  0.73984388011E+02 -0.15138828467E+03  0.18350800138E+04  0.18428001444E+04  0.12699999809E+01 0. -1.
</event>
<event>
 5   0  0.5214658E-07  0.2849230E+04  0.7818609E-02  0.8288145E-01
       -1   -1    0    0    0  501  0.00000000000E+00  0.00000000000E+00  0.96457366442E+03  0.96457366443E+03  0.50400001928E-02 0. -1.
        1   -1    0    0  501    0  0.00000000000E+00  0.00000000000E+00 -0.21040677196E+04  0.21040677197E+04  0.50400001928E-02 0.  1.
    10030    2    1    2    0    0  0.00000000000E+00  0.00000000000E+00 -0.11394940552E+04  0.30686413841E+04  0.28492302894E+04 0.  0.
        2    1    3    3  502    0 -0.13191867577E+04  0.90716446161E+02  0.12142048066E+01  0.13223027829E+04  0.25500000920E-02 0.  1.
       -2    1    3    3    0  502  0.13191867577E+04 -0.90716446161E+02 -0.11407082600E+04  0.17463386012E+04  0.25500000920E-02 0. -1.
</event>
<event>
 5   0  0.1377807E-06  0.2802294E+04  0.7818609E-02  0.8302557E-01
       -2   -1    0    0    0  501  0.00000000000E+00  0.00000000000E+00  0.14393108465E+04  0.14393108465E+04  0.25500000920E-02 0. -1.
        2   -1    0    0  501    0  0.00000000000E+00  0.00000000000E+00 -0.13639949518E+04  0.13639949518E+04  0.25500000920E-02 0.  1.
    10030    2    1    2    0    0  0.00000000000E+00  0.00000000000E+00  0.75315894695E+02  0.28033057984E+04  0.28022938667E+04 0.  0.
        2    1    3    3  502    0  0.44150360176E+03 -0.10047836902E+04  0.90900465042E+03  0.14250632087E+04  0.25500000920E-02 0. -1.
       -2    1    3    3    0  502 -0.44150360176E+03  0.10047836902E+04 -0.83368875573E+03  0.13782425896E+04  0.25500000920E-02 0.  1.
</event>
<event>
 5   0  0.5551565E-07  0.2809342E+04  0.7818609E-02  0.8300374E-01
       -1   -1    0    0    0  501  0.00000000000E+00  0.00000000000E+00  0.13276239496E+04  0.13276239496E+04  0.50400001928E-02 0.  1.
        1   -1    0    0  501    0  0.00000000000E+00  0.00000000000E+00 -0.14861890472E+04  0.14861890472E+04  0.50400001928E-02 0. -1.
    10030    2    1    2    0    0  0.00000000000E+00  0.00000000000E+00 -0.15856509764E+03  0.28138129969E+04  0.28093416829E+04 0.  0.
        3    1    3    3  502    0 -0.77029820203E+03 -0.30592069478E+03 -0.12151745688E+04  0.14709167327E+04  0.10100000352E+00 0. -1.
       -3    1    3    3    0  502  0.77029820203E+03  0.30592069478E+03  0.10566094712E+04  0.13428962642E+04  0.10100000352E+00 0.  1.
</event>
<event>
 5   0  0.1439207E-06  0.2795592E+04  0.7818609E-02  0.8304638E-01
        2   -1    0    0  501    0  0.00000000000E+00  0.00000000000E+00  0.18773636548E+04  0.18773636548E+04  0.25500000920E-02 0.  1.
       -2   -1    0    0    0  501  0.00000000000E+00  0.00000000000E+00 -0.10407330094E+04  0.10407330094E+04  0.25500000920E-02 0. -1.
    10030    2    1    2    0    0  0.00000000000E+00  0.00000000000E+00  0.83663064541E+03  0.29180966641E+04  0.27955924782E+04 0.  0.
        5    1    3    3  502    0 -0.12304481609E+04  0.66027611416E+03  0.35358993112E+03  0.14404912888E+04  0.46999998093E+01 0. -1.
       -5    1    3    3    0  502  0.12304481609E+04 -0.66027611416E+03  0.48304071430E+03  0.14776053754E+04  0.46999998093E+01 0.  1.
</event>
<event>
 5   0  0.5551565E-07  0.2806248E+04  0.7818609E-02  0.8301331E-01
        1   -1    0    0  501    0  0.00000000000E+00  0.00000000000E+00  0.17756269763E+04  0.17756269763E+04  0.50400001928E-02 0.  1.
       -1   -1    0    0    0  501  0.00000000000E+00  0.00000000000E+00 -0.11087671993E+04  0.11087671993E+04  0.50400001928E-02 0. -1.
    10030    2    1    2    0    0  0.00000000000E+00  0.00000000000E+00  0.66685977698E+03  0.28843941756E+04  0.28062479930E+04 0.  0.
        3    1    3    3  502    0 -0.79510269615E+03  0.63610390140E+03 -0.65882363015E+03  0.12127922562E+04  0.10100000352E+00 0. -1.
       -3    1    3    3    0  502  0.79510269615E+03 -0.63610390140E+03  0.13256834071E+04  0.16716019194E+04  0.10100000352E+00 0.  1.
</event>
<event>
 5   0  0.1377807E-06  0.2790363E+04  0.7818609E-02  0.8306267E-01
       -2   -1    0    0    0  501  0.00000000000E+00  0.00000000000E+00  0.92118945549E+03  0.92118945549E+03  0.25500000920E-02 0. -1.
        2   -1    0    0  501    0  0.00000000000E+00  0.00000000000E+00 -0.21130630648E+04  0.21130630648E+04  0.25500000920E-02 0.  1.
    10030    2    1    2    0    0  0.00000000000E+00  0.00000000000E+00 -0.11918736094E+04  0.30342525203E+04  0.27903629973E+04 0.  0.
        2    1    3    3  502    0 -0.72803595287E+03  0.37009712984E+03 -0.18259650836E+04  0.20002891593E+04  0.25500000920E-02 0.  1.
       -2    1    3    3    0  502  0.72803595287E+03 -0.37009712984E+03  0.63409147428E+03  0.10339633610E+04  0.25500000920E-02 0. -1.
</event>
<event>
 5   0  0.1377807E-06  0.2798147E+04  0.7818609E-02  0.8303844E-01
       -2   -1    0    0    0  501  0.00000000000E+00  0.00000000000E+00  0.10732190349E+04  0.10732190349E+04  0.25500000920E-02 0.  1.
        2   -1    0    0  501    0  0.00000000000E+00  0.00000000000E+00 -0.18238651048E+04  0.18238651048E+04  0.25500000920E-02 0. -1.
    10030    2    1    2    0    0  0.00000000000E+00  0.00000000000E+00 -0.75064606991E+03  0.28970841396E+04  0.27981470637E+04 0.  0.
        2    1    3    3  502    0 -0.47664994232E+03  0.12426199913E+04 -0.82197791848E+03  0.15642721338E+04  0.25500000920E-02 0. -1.
       -2    1    3    3    0  502  0.47664994232E+03 -0.12426199913E+04  0.71331848566E+02  0.13328120058E+04  0.25500000920E-02 0.  1.
</event>
<event>
 5   0  0.5362952E-07  0.2782371E+04  0.7818609E-02  0.8308763E-01
        1   -1    0    0  501    0  0.00000000000E+00  0.00000000000E+00  0.26119662513E+04  0.26119662513E+04  0.50400001928E-02 0.  1.
       -1   -1    0    0    0  501  0.00000000000E+00  0.00000000000E+00 -0.74097307818E+03  0.74097307820E+03  0.50400001928E-02 0. -1.
    10030    2    1    2    0    0  0.00000000000E+00  0.00000000000E+00  0.18709931731E+04  0.33529393295E+04  0.27823706966E+04 0.  0.
        1    1    3    3  502    0  0.42034197358E+03  0.25619383189E+02 -0.66231909580E+03  0.78486324429E+03  0.50400001928E-02 0. -1.
       -1    1    3    3    0  502 -0.42034197358E+03 -0.25619383189E+02  0.25333122689E+04  0.25680760852E+04  0.50400001928E-02 0.  1.
</event>
<event>
 5   0  0.1499888E-06  0.2799646E+04  0.7818609E-02  0.8303378E-01
       -2   -1    0    0    0  501  0.00000000000E+00  0.00000000000E+00  0.89427061359E+03  0.89427061359E+03  0.25500000920E-02 0.  1.
        2   -1    0    0  501    0  0.00000000000E+00  0.00000000000E+00 -0.21911759133E+04  0.21911759133E+04  0.25500000920E-02 0. -1.
    10030    2    1    2    0    0  0.00000000000E+00  0.00000000000E+00 -0.12969052997E+04  0.30854465269E+04  0.27996458551E+04 0.  0.
        3    1    3    3  502    0 -0.84027366546E+03 -0.47901341635E+03  0.46677337778E+03  0.10739604659E+04  0.10100000352E+00 0.  1.
       -3    1    3    3    0  502  0.84027366546E+03  0.47901341635E+03 -0.17636786775E+04  0.20114860610E+04  0.10100000352E+00 0. -1.
</event>
<event>
 5   0  0.1377807E-06  0.2803683E+04  0.7818609E-02  0.8302126E-01
       -2   -1    0    0    0  501  0.00000000000E+00  0.00000000000E+00  0.98326482303E+03  0.98326482304E+03  0.25500000920E-02 0.  1.
        2   -1    0    0  501    0  0.00000000000E+00  0.00000000000E+00 -0.19986068758E+04  0.19986068758E+04  0.25500000920E-02 0. -1.
    10030    2    1    2    0    0  0.00000000000E+00  0.00000000000E+00 -0.10153420528E+04  0.29818716989E+04  0.28036831747E+04 0.  0.
        2    1    3    3  502    0  0.90901611472E+02  0.64283155001E+03  0.81373551495E+03  0.10409903904E+04  0.25500000920E-02 0.  1.
       -2    1    3    3    0  502 -0.90901611472E+02 -0.64283155001E+03 -0.18290775677E+04  0.19408813084E+04  0.25500000920E-02 0. -1.
</event>
<event>
 5   0  0.5551565E-07  0.2800758E+04  0.7818609E-02  0.8303033E-01
       -1   -1    0    0    0  501  0.00000000000E+00  0.00000000000E+00  0.18610663745E+04  0.18610663745E+04  0.50400001928E-02 0.  1.
        1   -1    0    0  501    0  0.00000000000E+00  0.00000000000E+00 -0.10537299400E+04  0.10537299400E+04  0.50400001928E-02 0. -1.
    10030    2    1    2    0    0  0.00000000000E+00  0.00000000000E+00  0.80733643445E+03  0.29147963145E+04  0.28007580111E+04 0.  0.
        3    1    3    3  502    0  0.92398526508E+03 -0.19922239046E+03 -0.67166135459E+03  0.11595547923E+04  0.10100000352E+00 0. -1.
       -3    1    3    3    0  502 -0.92398526508E+03  0.19922239046E+03  0.14789977890E+04  0.17552415222E+04  0.10100000352E+00 0.  1.
</event>
<event>
 5   0  0.5551565E-07  0.2804627E+04  0.7818609E-02  0.8301833E-01
       -1   -1    0    0    0  501  0.00000000000E+00  0.00000000000E+00  0.17644977200E+04  0.17644977200E+04  0.50400001928E-02 0.  1.
        1   -1    0    0  501    0  0.00000000000E+00  0.00000000000E+00 -0.11144715697E+04  0.11144715697E+04  0.50400001928E-02 0. -1.
    10030    2    1    2    0    0  0.00000000000E+00  0.00000000000E+00  0.65002615031E+03  0.28789692898E+04  0.28046265661E+04 0.  0.
        3    1    3    3  502    0  0.34088554419E+03 -0.32251993502E+03  0.16815027750E+04  0.17457587620E+04  0.10100000352E+00 0.  1.
       -3    1    3    3    0  502 -0.34088554419E+03  0.32251993502E+03 -0.10314766247E+04  0.11332105277E+04  0.10100000352E+00 0. -1.
</event>
<event>
 5   0  0.5282098E-07  0.2799248E+04  0.7818609E-02  0.8303502E-01
       -1   -1    0    0    0  501  0.00000000000E+00  0.00000000000E+00  0.90128443281E+03  0.90128443283E+03  0.50400001928E-02 0. -1.
        1   -1    0    0  501    0  0.00000000000E+00  0.00000000000E+00 -0.21735068772E+04  0.21735068772E+04  0.50400001928E-02 0.  1.
    10030    2    1    2    0    0  0.00000000000E+00  0.00000000000E+00 -0.12722224444E+04  0.30747913100E+04  0.27992484085E+04 0.  0.
        4    1    3    3  502    0  0.64238054816E+02  0.10074520349E+04  0.42878142308E+03  0.10967867852E+04  0.12699999809E+01 0. -1.
       -4    1    3    3    0  502 -0.64238054816E+02 -0.10074520349E+04 -0.17010038675E+04  0.19780045249E+04  0.12699999809E+01 0.  1.
</event>
<event>
 5   0  0.1499888E-06  0.2804084E+04  0.7818609E-02  0.8302002E-01
       -2   -1    0    0    0  501  0.00000000000E+00  0.00000000000E+00  0.13671164834E+04  0.13671164834E+04  0.25500000920E-02 0.  1.
        2   -1    0    0  501    0  0.00000000000E+00  0.00000000000E+00 -0.14378596563E+04  0.14378596563E+04  0.25500000920E-02 0. -1.
    10030    2    1    2    0    0  0.00000000000E+00  0.00000000000E+00 -0.70743172891E+02  0.28049761397E+04  0.28040839053E+04 0.  0.
        3    1    3    3  502    0 -0.26401588748E+03 -0.11625843917E+04 -0.77345104085E+03  0.14211028743E+04  0.10100000352E+00 0. -1.
       -3    1    3    3    0  502  0.26401588748E+03  0.11625843917E+04  0.70270786796E+03  0.13838732654E+04  0.10100000352E+00 0.  1.
</event>
<event>
 5   0  0.1377807E-06  0.2801993E+04  0.7818609E-02  0.8302650E-01
       -2   -1    0    0    0  501  0.00000000000E+00  0.00000000000E+00  0.13562525356E+04  0.13562525356E+04  0.25500000920E-02 0.  1.
        2   -1    0    0  501    0  0.00000000000E+00  0.00000000000E+00 -0.14472164045E+04  0.14472164045E+04  0.25500000920E-02 0. -1.
    10030    2    1    2    0    0  0.00000000000E+00  0.00000000000E+00 -0.90963868862E+02  0.28034689401E+04  0.28019928038E+04 0.  0.
        2    1    3    3  502    0 -0.11123974488E+04 -0.33800219214E+03 -0.82763371978E+03  0.14271128687E+04  0.25500000920E-02 0. -1.
       -2    1    3    3    0  502  0.11123974488E+04  0.33800219214E+03  0.73666985091E+03  0.13763560714E+04  0.25500000920E-02 0.  1.
</event>
<event>
 5   0  0.1394410E-06  0.2802571E+04  0.7818609E-02  0.8302471E-01
       -2   -1    0    0    0  501  0.00000000000E+00  0.00000000000E+00  0.98772633326E+03  0.98772633326E+03  0.25500000920E-02 0.  1.
        2   -1    0    0  501    0  0.00000000000E+00  0.00000000000E+00 -0.19880004781E+04  0.19880004781E+04  0.25500000920E-02 0. -1.
    10030    2    1    2    0    0  0.00000000000E+00  0.00000000000E+00 -0.10002741449E+04  0.29757268114E+04  0.28025705506E+04 0.  0.
        4    1    3    3  502    0 -0.65865993473E+02 -0.10828348869E+04 -0.14419163016E+04  0.18044372960E+04  0.12699999809E+01 0. -1.
       -4    1    3    3    0  502  0.65865993473E+02  0.10828348869E+04  0.44164215674E+03  0.11712895154E+04  0.12699999809E+01 0.  1.
</event>
<event>
 5   0  0.5214658E-07  0.2803687E+04  0.7818609E-02  0.8302124E-01
        1   -1    0    0  501    0  0.00000000000E+00  0.00000000000E+00  0.19976932740E+04  0.19976932740E+04  0.50400001928E-02 0.  1.
       -1   -1    0    0    0  501  0.00000000000E+00  0.00000000000E+00 -0.98371751991E+03  0.98371751993E+03  0.50400001928E-02 0. -1.
    10030    2    1    2    0    0  0.00000000000E+00  0.00000000000E+00  0.10139757541E+04  0.29814107939E+04  0.28036874812E+04 0.  0.
        2    1    3    3  502    0  0.13033989324E+04 -0.22089345582E+03  0.10029459754E+04  0.16593804040E+04  0.25500000920E-02 0.  1.
       -2    1    3    3    0  502 -0.13033989324E+04  0.22089345582E+03  0.11029778697E+02  0.13220303899E+04  0.25500000920E-02 0. -1.
</event>
<event>
 5   0  0.1461146E-06  0.2798004E+04  0.7818609E-02  0.8303888E-01
        2   -1    0    0  501    0  0.00000000000E+00  0.00000000000E+00  0.18390541780E+04  0.18390541780E+04  0.25500000920E-02 0.  1.
       -2   -1    0    0    0  501  0.00000000000E+00  0.00000000000E+00 -0.10642463384E+04  0.10642463384E+04  0.25500000920E-02 0. -1.
    10030    2    1    2    0    0  0.00000000000E+00  0.00000000000E+00  0.77480783964E+03  0.29033005164E+04  0.27980040565E+04 0.  0.
        1    1    3    3  502    0 -0.10812257076E+03 -0.80666029232E+02 -0.10574820825E+04  0.10660515247E+04  0.50400001928E-02 0. -1.
       -1    1    3    3    0  502  0.10812257076E+03  0.80666029232E+02  0.18322899221E+04  0.18372489916E+04  0.50400001928E-02 0.  1.
</event>
<event>
 5   0  0.1377807E-06  0.2796904E+04  0.7818609E-02  0.8304230E-01
        2   -1    0    0  501    0  0.00000000000E+00  0.00000000000E+00  0.24936166342E+04  0.24936166342E+04  0.25500000920E-02 0. -1.
       -2   -1    0    0    0  501  0.00000000000E+00  0.00000000000E+00 -0.78426992249E+03  0.78426992250E+03  0.25500000920E-02 0.  1.
    10030    2    1    2    0    0  0.00000000000E+00  0.00000000000E+00  0.17093467117E+04  0.32778865567E+04  0.27969043776E+04 0.  0.
        2    1    3    3  502    0 -0.14675073864E+03 -0.30236353957E+03  0.24455799541E+04  0.24685665479E+04  0.25500000920E-02 0. -1.
       -2    1    3    3    0  502  0.14675073864E+03  0.30236353957E+03 -0.73623324244E+03  0.80932000879E+03  0.25500000920E-02 0.  1.
</event>
<event>
 5   0  0.5362952E-07  0.2802985E+04  0.7818609E-02  0.8302342E-01
       -1   -1    0    0    0  501  0.00000000000E+00  0.00000000000E+00  0.12090380080E+04  0.12090380080E+04  0.50400001928E-02 0. -1.
        1   -1    0    0  501    0  0.00000000000E+00  0.00000000000E+00 -0.16245814909E+04  0.16245814909E+04  0.50400001928E-02 0.  1.
    10030    2    1    2    0    0  0.00000000000E+00  0.00000000000E+00 -0.41554348291E+03  0.28336194989E+04  0.28029846732E+04 0.  0.
        1    1    3    3  502    0  0.72043475161E+03  0.32214596261E+03  0.96306450524E+03  0.12451094305E+04  0.50400001928E-02 0. -1.
       -1    1    3    3    0  502 -0.72043475161E+03 -0.32214596261E+03 -0.13786079881E+04  0.15885100684E+04  0.50400001928E-02 0.  1.
</event>
<event>
 5   0  0.5551565E-07  0.2799387E+04  0.7818609E-02  0.8303459E-01
       -1   -1    0    0    0  501  0.00000000000E+00  0.00000000000E+00  0.14901051313E+04  0.14901051314E+04  0.50400001928E-02 0.  1.
        1   -1    0    0  501    0  0.00000000000E+00  0.00000000000E+00 -0.13147679146E+04  0.13147679146E+04  0.50400001928E-02 0. -1.
    10030    2    1    2    0    0  0.00000000000E+00  0.00000000000E+00  0.17533721677E+03  0.28048730459E+04  0.27993873730E+04 0.  0.
        3    1    3    3  502    0  0.51764022393E+03 -0.12897561534E+04  0.25448831917E+03  0.14128646968E+04  0.10100000352E+00 0.  1.
       -3    1    3    3    0  502 -0.51764022393E+03  0.12897561534E+04 -0.79151102407E+02  0.13920083491E+04  0.10100000352E+00 0. -1.
</event>
<event>
 5   0  0.5282098E-07  0.2795584E+04  0.7818609E-02  0.8304641E-01
        1   -1    0    0  501    0  0.00000000000E+00  0.00000000000E+00  0.15611525111E+04  0.15611525112E+04  0.50400001928E-02 0. -1.
       -1   -1    0    0    0  501  0.00000000000E+00  0.00000000000E+00 -0.12515254876E+04  0.12515254876E+04  0.50400001928E-02 0.  1.
    10030    2    1    2    0    0  0.00000000000E+00  0.00000000000E+00  0.30962702355E+03  0.28126779988E+04  0.27955837728E+04 0.  0.
        4    1    3    3  502    0  0.96060556138E+03 -0.57824280820E+03  0.99459858753E+03  0.14987847587E+04  0.12699999809E+01 0. -1.
       -4    1    3    3    0  502 -0.96060556138E+03  0.57824280820E+03 -0.68497156399E+03  0.13138932400E+04  0.12699999809E+01 0.  1.
</event>
<event>
 5   0  0.5551565E-07  0.2810567E+04  0.7818609E-02  0.8299995E-01
        1   -1    0    0  501    0  0.00000000000E+00  0.00000000000E+00  0.16794357119E+04  0.16794357119E+04  0.50400001928E-02 0.  1.
       -1   -1    0    0    0  501  0.00000000000E+00  0.00000000000E+00 -0.11758842765E+04  0.11758842765E+04  0.50400001928E-02 0. -1.
    10030    2    1    2    0    0  0.00000000000E+00  0.00000000000E+00  0.50355143538E+03  0.28553199884E+04  0.28105672361E+04 0.  0.
        3    1    3    3  502    0 -0.74462175025E+03  0.86936482528E+03  0.10799650506E+04  0.15737157530E+04  0.10100000352E+00 0.  1.
       -3    1    3    3    0  502  0.74462175025E+03 -0.86936482528E+03 -0.57641361523E+03  0.12816042355E+04  0.10100000352E+00 0. -1.
</event>
<event>
 5   0  0.1499888E-06  0.2796322E+04  0.7818609E-02  0.8304411E-01
       -2   -1    0    0    0  501  0.00000000000E+00  0.00000000000E+00  0.95013107349E+03  0.95013107349E+03  0.25500000920E-02 0. -1.
        2   -1    0    0  501    0  0.00000000000E+00  0.00000000000E+00 -0.20574569698E+04  0.20574569698E+04  0.25500000920E-02 0.  1.
    10030    2    1    2    0    0  0.00000000000E+00  0.00000000000E+00 -0.11073258963E+04  0.30075880433E+04  0.27963217264E+04 0.  0.
        3    1    3    3  502    0 -0.13731387697E+04 -0.95942542924E+02 -0.28990329474E+03  0.14066836826E+04  0.10100000352E+00 0. -1.
       -3    1    3    3    0  502  0.13731387697E+04  0.95942542924E+02 -0.81742260155E+03  0.16009043607E+04  0.10100000352E+00 0.  1.
</event>
<event>
 5   0  0.5214658E-07  0.2797403E+04  0.7818609E-02  0.8304075E-01
       -1   -1    0    0    0  501  0.00000000000E+00  0.00000000000E+00  0.95180854464E+03  0.95180854465E+03  0.50400001928E-02 0. -1.
        1   -1    0    0  501    0  0.00000000000E+00  0.00000000000E+00 -0.20554189190E+04  0.20554189190E+04  0.50400001928E-02 0.  1.
    10030    2    1    2    0    0  0.00000000000E+00  0.00000000000E+00 -0.11036103744E+04  0.30072274637E+04  0.27974025738E+04 0.  0.
        2    1    3    3  502    0  0.21592917591E+03 -0.12519824948E+04  0.77124201338E+02  0.12728054520E+04  0.25500000920E-02 0.  1.
       -2    1    3    3    0  502 -0.21592917591E+03  0.12519824948E+04 -0.11807345757E+04  0.17344220117E+04  0.25500000920E-02 0. -1.
</event>
<event>
 5   0  0.1461146E-06  0.2774039E+04  0.7818609E-02  0.8311374E-01
       -2   -1    0    0    0  501  0.00000000000E+00  0.00000000000E+00  0.66238318468E+03  0.66238318468E+03  0.25500000920E-02 0. -1.
        2   -1    0    0  501    0  0.00000000000E+00  0.00000000000E+00 -0.29043960279E+04  0.29043960279E+04  0.25500000920E-02 0.  1.
    10030    2    1    2    0    0  0.00000000000E+00  0.00000000000E+00 -0.22420128432E+04  0.35667792126E+04  0.27740389979E+04 0.  0.
        1    1    3    3  502    0 -0.70164673306E+03 -0.57730708340E+03 -0.24684500640E+04  0.26303682870E+04  0.50400001928E-02 0.  1.
       -1    1    3    3    0  502  0.70164673306E+03  0.57730708340E+03  0.22643722081E+03  0.93641092559E+03  0.50400001928E-02 0. -1.
</event>
<event>
 5   0  0.5214658E-07  0.2801479E+04  0.7818609E-02  0.8302809E-01
        1   -1    0    0  501    0  0.00000000000E+00  0.00000000000E+00  0.18275278596E+04  0.18275278596E+04  0.50400001928E-02 0.  1.
       -1   -1    0    0    0  501  0.00000000000E+00  0.00000000000E+00 -0.10736203006E+04  0.10736203006E+04  0.50400001928E-02 0. -1.
    10030    2    1    2    0    0  0.00000000000E+00  0.00000000000E+00  0.75390755894E+03  0.29011481602E+04  0.28014789023E+04 0.  0.
        2    1    3    3  502    0 -0.51601816331E+03  0.17418511363E+03 -0.95948512447E+03  0.11032800654E+04  0.25500000920E-02 0. -1.
       -2    1    3    3    0  502  0.51601816331E+03 -0.17418511363E+03  0.17133926834E+04  0.17978680948E+04  0.25500000920E-02 0.  1.
</event>
<event>
 5   0  0.5551565E-07  0.2809110E+04  0.7818609E-02  0.8300446E-01
        1   -1    0    0  501    0  0.00000000000E+00  0.00000000000E+00  0.16372032334E+04  0.16372032334E+04  0.50400001928E-02 0.  1.
       -1   -1    0    0    0  501  0.00000000000E+00  0.00000000000E+00 -0.12049662735E+04  0.12049662735E+04  0.50400001928E-02 0. -1.
    10030    2    1    2    0    0  0.00000000000E+00  0.00000000000E+00  0.43223695984E+03  0.28421695069E+04  0.28091099510E+04 0.  0.
        3    1    3    3  502    0 -0.11175936203E+04  0.40005980618E+03  0.97576161180E+03  0.15366112332E+04  0.10100000352E+00 0.  1.
       -3    1    3    3    0  502  0.11175936203E+04 -0.40005980618E+03 -0.54352465196E+03  0.13055582738E+04  0.10100000352E+00 0. -1.
</event>
<event>
 5   0  0.1394410E-06  0.2793017E+04  0.7818609E-02  0.8305440E-01
       -2   -1    0    0    0  501  0.00000000000E+00  0.00000000000E+00  0.15044026368E+04  0.15044026368E+04  0.25500000920E-02 0. -1.
        2   -1    0    0  501    0  0.00000000000E+00  0.00000000000E+00 -0.12963520946E+04  0.12963520946E+04  0.25500000920E-02 0.  1.
    10030    2    1    2    0    0  0.00000000000E+00  0.00000000000E+00  0.20805054217E+03  0.28007547314E+04  0.27930166554E+04 0.  0.
        4    1    3    3  502    0 -0.35710095018E+02  0.34831253017E+03 -0.12516214613E+04  0.12996748535E+04  0.12699999809E+01 0.  1.
       -4    1    3    3    0  502  0.35710095018E+02 -0.34831253017E+03  0.14596720034E+04  0.15010798780E+04  0.12699999809E+01 0. -1.
</event>
<event>
 5   0  0.5282098E-07  0.2801758E+04  0.7818609E-02  0.8302723E-01
       -1   -1    0    0    0  501  0.00000000000E+00  0.00000000000E+00  0.66405297988E+03  0.66405297990E+03  0.50400001928E-02 0.  1.
        1   -1    0    0  501    0  0.00000000000E+00  0.00000000000E+00 -0.29552799701E+04  0.29552799701E+04  0.50400001928E-02 0. -1.
    10030    2    1    2    0    0  0.00000000000E+00  0.00000000000E+00 -0.22912269902E+04  0.36193329500E+04  0.28017583554E+04 0.  0.
        4    1    3    3  502    0 -0.42359315237E+03  0.54729119231E+02 -0.28691165647E+04  0.29007340295E+04  0.12699999809E+01 0. -1.
       -4    1    3    3    0  502  0.42359315237E+03 -0.54729119231E+02  0.57788957452E+03  0.71859892045E+03  0.12699999809E+01 0.  1.
</event>
<event>
 5   0  0.1377807E-06  0.2800748E+04  0.7818609E-02  0.8303036E-01
       -2   -1    0    0    0  501  0.00000000000E+00  0.00000000000E+00  0.76105584943E+03  0.76105584943E+03  0.25500000920E-02 0.  1.
        2   -1    0    0  501    0  0.00000000000E+00  0.00000000000E+00 -0.25767465262E+04  0.25767465262E+04  0.25500000920E-02 0. -1.
    10030    2    1    2    0    0  0.00000000000E+00  0.00000000000E+00 -0.18156906767E+04  0.33378023756E+04  0.28007484830E+04 0.  0.
        2    1    3    3  502    0 -0.40629693158E+03  0.37000094785E+03 -0.24428824536E+04  0.25039274311E+04  0.25500000920E-02 0. -1.
       -2    1    3    3    0  502  0.40629693158E+03 -0.37000094785E+03  0.62719177689E+03  0.83387494448E+03  0.25500000920E-02 0.  1.
</event>
<event>
 5   0  0.5297741E-07  0.2801103E+04  0.7818609E-02  0.8302926E-01
       -1   -1    0    0    0  501  0.00000000000E+00  0.00000000000E+00  0.10443883757E+04  0.10443883757E+04  0.50400001928E-02 0.  1.
        1   -1    0    0  501    0  0.00000000000E+00  0.00000000000E+00 -0.18781755097E+04  0.18781755097E+04  0.50400001928E-02 0. -1.
    10030    2    1    2    0    0  0.00000000000E+00  0.00000000000E+00 -0.83378713401E+03  0.29225638854E+04  0.28011031183E+04 0.  0.
        5    1    3    3  502    0  0.14001854498E+04  0.22574442672E+02 -0.39371119243E+03  0.14546681726E+04  0.46999998093E+01 0.  1.
       -5    1    3    3    0  502 -0.14001854498E+04 -0.22574442672E+02 -0.44007594159E+03  0.14678957128E+04  0.46999998093E+01 0. -1.
</event>
<event>
 5   0  0.1499888E-06  0.2803076E+04  0.7818609E-02  0.8302314E-01
        2   -1    0    0  501    0  0.00000000000E+00  0.00000000000E+00  0.25701298562E+04  0.25701298562E+04  0.25500000920E-02 0. -1.
       -2   -1    0    0    0  501  0.00000000000E+00  0.00000000000E+00 -0.76428382207E+03  0.76428382207E+03  0.25500000920E-02 0.  1.
    10030    2    1    2    0    0  0.00000000000E+00  0.00000000000E+00  0.18058460341E+04  0.33344136783E+04  0.28030759317E+04 0.  0.
        3    1    3    3  502    0  0.12203490478E+03 -0.10293100216E+04 -0.21926145045E+03  0.10594561022E+04  0.10100000352E+00 0.  1.
       -3    1    3    3    0  502 -0.12203490478E+03  0.10293100216E+04  0.20251074846E+04  0.22749575761E+04  0.10100000352E+00 0. -1.
</event>
<event>
 5   0  0.5214658E-07  0.2798251E+04  0.7818609E-02  0.8303812E-01
       -1   -1    0    0    0  501  0.00000000000E+00  0.00000000000E+00  0.15429189267E+04  0.15429189267E+04  0.50400001928E-02 0. -1.
        1   -1    0    0  501    0  0.00000000000E+00  0.00000000000E+00 -0.12687326378E+04  0.12687326378E+04  0.50400001928E-02 0.  1.
    10030    2    1    2    0    0  0.00000000000E+00  0.00000000000E+00  0.27418628892E+03  0.28116515645E+04  0.27982505962E+04 0.  0.
        2    1    3    3  502    0  0.32647043421E+03 -0.10071221778E+04  0.10561723088E+04  0.14954524303E+04  0.25500000920E-02 0. -1.
       -2    1    3    3    0  502 -0.32647043421E+03  0.10071221778E+04 -0.78198601991E+03  0.13161991342E+04  0.25500000920E-02 0.  1.
</event>
<event>
 5   0  0.1377807E-06  0.2798562E+04  0.7818609E-02  0.8303715E-01
        2   -1    0    0  501    0  0.00000000000E+00  0.00000000000E+00  0.11475661406E+04  0.11475661406E+04  0.25500000920E-02 0. -1.
       -2   -1    0    0    0  501  0.00000000000E+00  0.00000000000E+00 -0.17062086458E+04  0.17062086458E+04  0.25500000920E-02 0.  1.
    10030    2    1    2    0    0  0.00000000000E+00  0.00000000000E+00 -0.55864250514E+03  0.28537747864E+04  0.27985619670E+04 0.  0.
        2    1    3    3  502    0  0.22225752139E+03 -0.55008173093E+03 -0.15716035585E+04  0.16798589410E+04  0.25500000920E-02 0.  1.
       -2    1    3    3    0  502 -0.22225752139E+03  0.55008173093E+03  0.10129610534E+04  0.11739158454E+04  0.25500000920E-02 0. -1.
</event>
<event>
 5   0  0.1461146E-06  0.2801436E+04  0.7818609E-02  0.8302823E-01
        2   -1    0    0  501    0  0.00000000000E+00  0.00000000000E+00  0.19001226844E+04  0.19001226844E+04  0.25500000920E-02 0. -1.
       -2   -1    0    0    0  501  0.00000000000E+00  0.00000000000E+00 -0.10325707872E+04  0.10325707872E+04  0.25500000920E-02 0.  1.
    10030    2    1    2    0    0  0.00000000000E+00  0.00000000000E+00  0.86755189719E+03  0.29326934717E+04  0.28014361860E+04 0.  0.
        1    1    3    3  502    0  0.38668683277E+03 -0.11016750522E+04  0.12438516073E+04  0.17059840117E+04  0.50400001928E-02 0. -1.
       -1    1    3    3    0  502 -0.38668683277E+03  0.11016750522E+04 -0.37629971009E+03  0.12267094599E+04  0.50400001928E-02 0.  1.
</event>
<event>
 5   0  0.5551565E-07  0.2791299E+04  0.7818609E-02  0.8305975E-01
        1   -1    0    0  501    0  0.00000000000E+00  0.00000000000E+00  0.11807597586E+04  0.11807597586E+04  0.50400001928E-02 0. -1.
       -1   -1    0    0    0  501  0.00000000000E+00  0.00000000000E+00 -0.16496480425E+04  0.16496480425E+04  0.50400001928E-02 0.  1.
    10030    2    1    2    0    0  0.00000000000E+00  0.00000000000E+00 -0.46888828385E+03  0.28304078011E+04  0.27912993565E+04 0.  0.
        3    1    3    3  502    0 -0.87594049113E+03  0.12110876210E+03  0.86045231513E+03  0.12338222210E+04  0.10100000352E+00 0. -1.
       -3    1    3    3    0  502  0.87594049113E+03 -0.12110876210E+03 -0.13293405990E+04  0.15965855801E+04  0.10100000352E+00 0.  1.
</event>
<event>
 5   0  0.5282098E-07  0.2799455E+04  0.7818609E-02  0.8303438E-01
       -1   -1    0    0    0  501  0.00000000000E+00  0.00000000000E+00  0.11117933616E+04  0.11117933617E+04  0.50400001928E-02 0.  1.
        1   -1    0    0  501    0  0.00000000000E+00  0.00000000000E+00 -0.17622308560E+04  0.17622308560E+04  0.50400001928E-02 0. -1.
    10030    2    1    2    0    0  0.00000000000E+00  0.00000000000E+00 -0.65043749432E+03  0.28740242176E+04  0.27994546379E+04 0.  0.
        4    1    3    3  502    0  0.80208601718E+03 -0.83189189326E+03 -0.11360989161E+04  0.16205272170E+04  0.12699999809E+01 0. -1.
       -4    1    3    3    0  502 -0.80208601718E+03  0.83189189326E+03  0.48566142178E+03  0.12534970006E+04  0.12699999809E+01 0.  1.
</event>
<event>
 5   0  0.1377807E-06  0.2804370E+04  0.7818609E-02  0.8301913E-01
        2   -1    0    0  501    0  0.00000000000E+00  0.00000000000E+00  0.21848437514E+04  0.21848437514E+04  0.25500000920E-02 0. -1.
       -2   -1    0    0    0  501  0.00000000000E+00  0.00000000000E+00 -0.89989174283E+03  0.89989174283E+03  0.25500000920E-02 0.  1.
    10030    2    1    2    0    0  0.00000000000E+00  0.00000000000E+00  0.12849520086E+04  0.30847354942E+04  0.28043700549E+04 0.  0.
        2    1    3    3  502    0 -0.21809374339E+03  0.27807089557E+03  0.21350544549E+04  0.21641039321E+04  0.25500000920E-02 0. -1.
       -2    1    3    3    0  502  0.21809374339E+03 -0.27807089557E+03 -0.85010244631E+03  0.92063156208E+03  0.25500000920E-02 0.  1.
</event>
<event>
 5   0  0.1394410E-06  0.2888466E+04  0.7818609E-02  0.8276317E-01
       -2   -1    0    0    0  501  0.00000000000E+00  0.00000000000E+00  0.10934352852E+04  0.10934352852E+04  0.25500000920E-02 0. -1.
        2   -1    0    0  501    0  0.00000000000E+00  0.00000000000E+00 -0.19075742432E+04  0.19075742432E+04  0.25500000920E-02 0.  1.
    10030    2    1    2    0    0  0.00000000000E+00  0.00000000000E+00 -0.81413895797E+03  0.30010095285E+04  0.28884660197E+04 0.  0.
        4    1    3    3  502    0  0.11382577423E+04  0.81873634083E+03 -0.47390892037E+02  0.14029281497E+04  0.12699999809E+01 0.  1.
       -4    1    3    3    0  502 -0.11382577423E+04 -0.81873634083E+03 -0.76674806593E+03  0.15980813788E+04  0.12699999809E+01 0. -1.
</event>
<event>
 5   0  0.1499888E-06  0.2798738E+04  0.7818609E-02  0.8303660E-01
        2   -1    0    0  501    0  0.00000000000E+00  0.00000000000E+00  0.18468397820E+04  0.18468397820E+04  0.25500000920E-02 0. -1.
       -2   -1    0    0    0  501  0.00000000000E+00  0.00000000000E+00 -0.10603162491E+04  0.10603162491E+04  0.25500000920E-02 0.  1.
    10030    2    1    2    0    0  0.00000000000E+00  0.00000000000E+00  0.78652353287E+03  0.29071560311E+04  0.27987384517E+04 0.  0.
        3    1    3    3  502    0 -0.11854712066E+04  0.10829704109E+03 -0.37087390133E+03  0.12468430902E+04  0.10100000352E+00 0.  1.
       -3    1    3    3    0  502  0.11854712066E+04 -0.10829704109E+03  0.11573974342E+04  0.16603129409E+04  0.10100000352E+00 0. -1.
</event>
<event>
 5   0  0.1439207E-06  0.2799584E+04  0.7818609E-02  0.8303398E-01
       -2   -1    0    0    0  501  0.00000000000E+00  0.00000000000E+00  0.12404828568E+04  0.12404828568E+04  0.25500000920E-02 0. -1.
        2   -1    0    0  501    0  0.00000000000E+00  0.00000000000E+00 -0.15795603958E+04  0.15795603958E+04  0.25500000920E-02 0.  1.
    10030    2    1    2    0    0  0.00000000000E+00  0.00000000000E+00 -0.33907753901E+03  0.28200432526E+04  0.27995839635E+04 0.  0.
        5    1    3    3  502    0  0.25043451426E+03  0.69302401179E+03 -0.13683604365E+04  0.15541660468E+04  0.46999998093E+01 0.  1.
       -5    1    3    3    0  502 -0.25043451426E+03 -0.69302401179E+03  0.10292828975E+04  0.12658772057E+04  0.46999998093E+01 0. -1.
</event>
<event>
 5   0  0.5282098E-07  0.2799183E+04  0.7818609E-02  0.8303522E-01
        1   -1    0    0  501    0  0.00000000000E+00  0.00000000000E+00  0.24977953892E+04  0.24977953892E+04  0.50400001928E-02 0. -1.
       -1   -1    0    0    0  501  0.00000000000E+00  0.00000000000E+00 -0.78423407920E+03  0.78423407922E+03  0.50400001928E-02 0.  1.
    10030    2    1    2    0    0  0.00000000000E+00  0.00000000000E+00  0.17135613100E+04  0.32820294685E+04  0.27991829287E+04 0.  0.
        4    1    3    3  502    0  0.33081929229E+03 -0.40071943067E+03  0.23805003708E+04  0.24365551696E+04  0.12699999809E+01 0. -1.
       -4    1    3    3    0  502 -0.33081929229E+03  0.40071943067E+03 -0.66693906079E+03  0.84547429882E+03  0.12699999809E+01 0.  1.
</event>
<event>
 5   0  0.5297741E-07  0.2792257E+04  0.7818609E-02  0.8305676E-01
        1   -1    0    0  501    0  0.00000000000E+00  0.00000000000E+00  0.14277389116E+04  0.14277389117E+04  0.50400001928E-02 0.  1.
       -1   -1    0    0    0  501  0.00000000000E+00  0.00000000000E+00 -0.13652176470E+04  0.13652176470E+04  0.50400001928E-02 0. -1.
    10030    2    1    2    0    0  0.00000000000E+00  0.00000000000E+00  0.62521264666E+02  0.27929565586E+04  0.27922566913E+04 0.  0.
        5    1    3    3  502    0  0.13656272544E+04 -0.30898898034E+02  0.31988057339E+03  0.14029391330E+04  0.46999998093E+01 0.  1.
       -5    1    3    3    0  502 -0.13656272544E+04  0.30898898034E+02 -0.25735930872E+03  0.13900174256E+04  0.46999998093E+01 0. -1.
</event>
<event>
 5   0  0.5362952E-07  0.2821988E+04  0.7818609E-02  0.8296474E-01
        1   -1    0    0  501    0  0.00000000000E+00  0.00000000000E+00  0.15579498597E+04  0.15579498597E+04  0.50400001928E-02 0. -1.
       -1   -1    0    0    0  501  0.00000000000E+00  0.00000000000E+00 -0.12779003556E+04  0.12779003557E+04  0.50400001928E-02 0.  1.
    10030    2    1    2    0    0  0.00000000000E+00  0.00000000000E+00  0.28004950405E+03  0.28358502154E+04  0.28219884336E+04 0.  0.
        1    1    3    3  502    0  0.29504323071E+03 -0.73890402102E+03  0.13110276192E+04  0.15335654791E+04  0.50400001928E-02 0. -1.
       -1    1    3    3    0  502 -0.29504323071E+03  0.73890402102E+03 -0.10309781152E+04  0.13022847363E+04  0.50400001928E-02 0.  1.
</event>
<event>
 5   0  0.1394410E-06  0.2802378E+04  0.7818609E-02  0.8302530E-01
       -2   -1    0    0    0  501  0.00000000000E+00  0.00000000000E+00  0.82913383976E+03  0.82913383977E+03  0.25500000920E-02 0. -1.
        2   -1    0    0  501    0  0.00000000000E+00  0.00000000000E+00 -0.23679295374E+04  0.23679295374E+04  0.25500000920E-02 0.  1.
    10030    2    1    2    0    0  0.00000000000E+00  0.00000000000E+00 -0.15387956976E+04  0.31970633772E+04  0.28023779257E+04 0.  0.
        4    1    3    3  502    0 -0.27591994627E+03 -0.46090001421E+03  0.70699489693E+03  0.88792118852E+03  0.12699999809E+01 0. -1.
       -4    1    3    3    0  502  0.27591994627E+03  0.46090001421E+03 -0.22457905945E+04  0.23091421886E+04  0.12699999809E+01 0.  1.
</event>
<event>
 5   0  0.1394410E-06  0.2798924E+04  0.7818609E-02  0.8303603E-01
        2   -1    0    0  501    0  0.00000000000E+00  0.00000000000E+00  0.12640659706E+04  0.12640659706E+04  0.25500000920E-02 0.  1.
       -2   -1    0    0    0  501  0.00000000000E+00  0.00000000000E+00 -0.15493603156E+04  0.15493603156E+04  0.25500000920E-02 0. -1.
    10030    2    1    2    0    0  0.00000000000E+00  0.00000000000E+00 -0.28529434499E+03  0.28134262862E+04  0.27989238297E+04 0.  0.
        4    1    3    3  502    0  0.13586388484E+04  0.17687459035E+03  0.14397568764E+03  0.13776482689E+04  0.12699999809E+01 0.  1.
       -4    1    3    3    0  502 -0.13586388484E+04 -0.17687459035E+03 -0.42927003263E+03  0.14357780173E+04  0.12699999809E+01 0. -1.
</event>
<event>
 5   0  0.4710000E-07  0.2801772E+04  0.7818609E-02  0.8302718E-01
       -3   -1    0    0    0  501  0.00000000000E+00  0.00000000000E+00  0.17897470857E+04  0.17897470885E+04  0.10100000352E+00 0.  1.
        3   -1    0    0  501    0  0.00000000000E+00  0.00000000000E+00 -0.10965136473E+04  0.10965136519E+04  0.10100000352E+00 0. -1.
    10030    2    1    2    0    0  0.00000000000E+00  0.00000000000E+00  0.69323343842E+03  0.28862607404E+04  0.28017723786E+04 0.  0.
        4    1    3    3  502    0 -0.12730456773E+04 -0.45581021726E+03  0.72381713653E+03  0.15337278476E+04  0.12699999809E+01 0.  1.
       -4    1    3    3    0  502  0.12730456773E+04  0.45581021726E+03 -0.30583698106E+02  0.13525328928E+04  0.12699999809E+01 0. -1.
</event>
<event>
 5   0  0.1377807E-06  0.2791478E+04  0.7818609E-02  0.8305919E-01
        2   -1    0    0  501    0  0.00000000000E+00  0.00000000000E+00  0.27916643554E+04  0.27916643554E+04  0.25500000920E-02 0. -1.
       -2   -1    0    0    0  501  0.00000000000E+00  0.00000000000E+00 -0.69782270706E+03  0.69782270707E+03  0.25500000920E-02 0.  1.
    10030    2    1    2    0    0  0.00000000000E+00  0.00000000000E+00  0.20938416484E+04  0.34894870625E+04  0.27914775856E+04 0.  0.
        2    1    3    3  502    0 -0.11407373351E+04  0.80419233456E+03  0.10357540872E+04  0.17380430110E+04  0.25500000920E-02 0.  1.
       -2    1    3    3    0  502  0.11407373351E+04 -0.80419233456E+03  0.10580875611E+04  0.17514440515E+04  0.25500000920E-02 0. -1.
</event>
<event>
 5   0  0.5214658E-07  0.2796327E+04  0.7818609E-02  0.8304410E-01
       -1   -1    0    0    0  501  0.00000000000E+00  0.00000000000E+00  0.11320393520E+04  0.11320393520E+04  0.50400001928E-02 0. -1.
        1   -1    0    0  501    0  0.00000000000E+00  0.00000000000E+00 -0.17268490291E+04  0.17268490291E+04  0.50400001928E-02 0.  1.
    10030    2    1    2    0    0  0.00000000000E+00  0.00000000000E+00 -0.59480967714E+03  0.28588883812E+04  0.27963269165E+04 0.  0.
        2    1    3    3  502    0  0.71365157357E+03  0.53727568482E+02 -0.15253914602E+04  0.16849345171E+04  0.25500000920E-02 0.  1.
       -2    1    3    3    0  502 -0.71365157357E+03 -0.53727568482E+02  0.93058178303E+03  0.11739538641E+04  0.25500000920E-02 0. -1.
</event>
<event>
 5   0  0.5551565E-07  0.2802138E+04  0.7818609E-02  0.8302605E-01
        1   -1    0    0  501    0  0.00000000000E+00  0.00000000000E+00  0.19203494290E+04  0.19203494290E+04  0.50400001928E-02 0. -1.
       -1   -1    0    0    0  501  0.00000000000E+00  0.00000000000E+00 -0.10222067185E+04  0.10222067185E+04  0.50400001928E-02 0.  1.
    10030    2    1    2    0    0  0.00000000000E+00  0.00000000000E+00  0.89814271050E+03  0.29425561474E+04  0.28021378182E+04 0.  0.
        3    1    3    3  502    0 -0.15828583247E+03  0.16277027270E+03  0.19009028993E+04  0.19144138553E+04  0.10100000352E+00 0. -1.
       -3    1    3    3    0  502  0.15828583247E+03 -0.16277027270E+03 -0.10027601888E+04  0.10281422922E+04  0.10100000352E+00 0.  1.
</event>
<event>
 5   0  0.1439207E-06  0.2801125E+04  0.7818609E-02  0.8302919E-01
        2   -1    0    0  501    0  0.00000000000E+00  0.00000000000E+00  0.12899274840E+04  0.12899274840E+04  0.25500000920E-02 0.  1.
       -2   -1    0    0    0  501  0.00000000000E+00  0.00000000000E+00 -0.15206862917E+04  0.15206862917E+04  0.25500000920E-02 0. -1.
    10030    2    1    2    0    0  0.00000000000E+00  0.00000000000E+00 -0.23075880766E+03  0.28106137757E+04  0.28011248042E+04 0.  0.
        5    1    3    3  502    0  0.10215088631E+04  0.90409581337E+03  0.20300189549E+03  0.13791669430E+04  0.46999998093E+01 0. -1.
       -5    1    3    3    0  502 -0.10215088631E+04 -0.90409581337E+03 -0.43376070314E+03  0.14314468327E+04  0.46999998093E+01 0.  1.
</event>
<event>
 5   0  0.1461146E-06  0.2810600E+04  0.7818609E-02  0.8299985E-01
        2   -1    0    0  501    0  0.00000000000E+00  0.00000000000E+00  0.13881635704E+04  0.13881635704E+04  0.25500000920E-02 0.  1.
       -2   -1    0    0    0  501  0.00000000000E+00  0.00000000000E+00 -0.14226481682E+04  0.14226481682E+04  0.25500000920E-02 0. -1.
    10030    2    1    2    0    0  0.00000000000E+00  0.00000000000E+00 -0.34484597783E+02  0.28108117386E+04  0.28106001926E+04 0.  0.
        1    1    3    3  502    0  0.34010856156E+03  0.11945976496E+04  0.64017388251E+03  0.13973403229E+04  0.50400001928E-02 0. -1.
       -1    1    3    3    0  502 -0.34010856156E+03 -0.11945976496E+04 -0.67465848029E+03  0.14134714157E+04  0.50400001928E-02 0.  1.
</event>
<event>
 5   0  0.5282098E-07  0.2797877E+04  0.7818609E-02  0.8303928E-01
        1   -1    0    0  501    0  0.00000000000E+00  0.00000000000E+00  0.13861852854E+04  0.13861852854E+04  0.50400001928E-02 0.  1.
       -1   -1    0    0    0  501  0.00000000000E+00  0.00000000000E+00 -0.14118089273E+04  0.14118089273E+04  0.50400001928E-02 0. -1.
    10030    2    1    2    0    0  0.00000000000E+00  0.00000000000E+00 -0.25623641934E+02  0.27979942128E+04  0.27978768814E+04 0.  0.
        4    1    3    3  502    0 -0.10198499791E+04 -0.51488290165E+03 -0.82020480885E+03  0.14063910991E+04  0.12699999809E+01 0. -1.
       -4    1    3    3    0  502  0.10198499791E+04  0.51488290165E+03  0.79458116691E+03  0.13916031137E+04  0.12699999809E+01 0.  1.
</event>
<event>
 5   0  0.5282098E-07  0.2793731E+04  0.7818609E-02  0.8305217E-01
        1   -1    0    0  501    0  0.00000000000E+00  0.00000000000E+00  0.13791987861E+04  0.13791987861E+04  0.50400001928E-02 0. -1.
       -1   -1    0    0    0  501  0.00000000000E+00  0.00000000000E+00 -0.14147584685E+04  0.14147584685E+04  0.50400001928E-02 0.  1.
    10030    2    1    2    0    0  0.00000000000E+00  0.00000000000E+00 -0.35559682453E+02  0.27939572546E+04  0.27937309551E+04 0.  0.
        4    1    3    3  502    0  0.10436484093E+03  0.31991091082E+03  0.13380572860E+04  0.13797224085E+04  0.12699999809E+01 0. -1.
       -4    1    3    3    0  502 -0.10436484093E+03 -0.31991091082E+03 -0.13736169685E+04  0.14142348461E+04  0.12699999809E+01 0.  1.
</event>
<event>
 5   0  0.5297741E-07  0.2801905E+04  0.7818609E-02  0.8302677E-01
       -1   -1    0    0    0  501  0.00000000000E+00  0.00000000000E+00  0.10606698763E+04  0.10606698763E+04  0.50400001928E-02 0. -1.
        1   -1    0    0  501    0  0.00000000000E+00  0.00000000000E+00 -0.18504036583E+04  0.18504036583E+04  0.50400001928E-02 0.  1.
    10030    2    1    2    0    0  0.00000000000E+00  0.00000000000E+00 -0.78973378207E+03  0.29110735346E+04  0.28019046517E+04 0.  0.
        5    1    3    3  502    0 -0.10680492045E+04 -0.34144662131E+03  0.47769478531E+03  0.12188229143E+04  0.46999998093E+01 0. -1.
       -5    1    3    3    0  502  0.10680492045E+04  0.34144662131E+03 -0.12674285674E+04  0.16922506203E+04  0.46999998093E+01 0.  1.
</event>
<event>
 5   0  0.1394410E-06  0.2796734E+04  0.7818609E-02  0.8304283E-01
       -2   -1    0    0    0  501  0.00000000000E+00  0.00000000000E+00  0.12984249929E+04  0.12984249929E+04  0.25500000920E-02 0. -1.
        2   -1    0    0  501    0  0.00000000000E+00  0.00000000000E+00 -0.15060019067E+04  0.15060019067E+04  0.25500000920E-02 0.  1.
    10030    2    1    2    0    0  0.00000000000E+00  0.00000000000E+00 -0.20757691384E+03  0.28044268996E+04  0.27967341776E+04 0.  0.
        4    1    3    3  502    0  0.11557088592E+04 -0.54434972468E+03 -0.67407884288E+03  0.14444249684E+04  0.12699999809E+01 0.  1.
       -4    1    3    3    0  502 -0.11557088592E+04  0.54434972468E+03  0.46650192904E+03  0.13600019312E+04  0.12699999809E+01 0. -1.
</event>
<event>
 5   0  0.5297741E-07  0.2807581E+04  0.7818609E-02  0.8300919E-01
       -1   -1    0    0    0  501  0.00000000000E+00  0.00000000000E+00  0.16336686165E+04  0.16336686165E+04  0.50400001928E-02 0.  1.
        1   -1    0    0  501    0  0.00000000000E+00  0.00000000000E+00 -0.12062589295E+04  0.12062589295E+04  0.50400001928E-02 0. -1.
    10030    2    1    2    0    0  0.00000000000E+00  0.00000000000E+00  0.42740968695E+03  0.28399275460E+04  0.28075807069E+04 0.  0.
        5    1    3    3  502    0 -0.28399423970E+03 -0.68359018440E+03  0.14201986952E+04  0.16015413489E+04  0.46999998093E+01 0.  1.
       -5    1    3    3    0  502  0.28399423970E+03  0.68359018440E+03 -0.99278900821E+03  0.12383861971E+04  0.46999998093E+01 0. -1.
</event>
<event>
 5   0  0.1499888E-06  0.2799142E+04  0.7818609E-02  0.8303535E-01
       -2   -1    0    0    0  501  0.00000000000E+00  0.00000000000E+00  0.10951038495E+04  0.10951038495E+04  0.25500000920E-02 0. -1.
        2   -1    0    0  501    0  0.00000000000E+00  0.00000000000E+00 -0.17886881349E+04  0.17886881349E+04  0.25500000920E-02 0.  1.
    10030    2    1    2    0    0  0.00000000000E+00  0.00000000000E+00 -0.69358428537E+03  0.28837919844E+04  0.27991421987E+04 0.  0.
        3    1    3    3  502    0  0.33529370001E+03 -0.21693312209E+03 -0.17287438271E+04  0.17742708572E+04  0.10100000352E+00 0.  1.
       -3    1    3    3    0  502 -0.33529370001E+03  0.21693312209E+03  0.10351595417E+04  0.11095211272E+04  0.10100000352E+00 0. -1.
</event>
<event>
 5   0  0.1499888E-06  0.2798978E+04  0.7818609E-02  0.8303586E-01
       -2   -1    0    0    0  501  0.00000000000E+00  0.00000000000E+00  0.21430807285E+04  0.21430807285E+04  0.25500000920E-02 0. -1.
        2   -1    0    0  501    0  0.00000000000E+00  0.00000000000E+00 -0.91390370314E+03  0.91390370314E+03  0.25500000920E-02 0.  1.
    10030    2    1    2    0    0  0.00000000000E+00  0.00000000000E+00  0.12291770253E+04  0.30569844316E+04  0.27989779663E+04 0.  0.
        3    1    3    3  502    0  0.55327440588E+03 -0.12835982214E+04  0.53866486737E+03  0.14979642224E+04  0.10100000352E+00 0.  1.
       -3    1    3    3    0  502 -0.55327440588E+03  0.12835982214E+04  0.69051215798E+03  0.15590202092E+04  0.10100000352E+00 0. -1.
</event>
<event>
 5   0  0.4710000E-07  0.2796867E+04  0.7818609E-02  0.8304242E-01
       -3   -1    0    0    0  501  0.00000000000E+00  0.00000000000E+00  0.12027218607E+04  0.12027218649E+04  0.10100000352E+00 0.  1.
        3   -1    0    0  501    0  0.00000000000E+00  0.00000000000E+00 -0.16259919243E+04  0.16259919274E+04  0.10100000352E+00 0. -1.
    10030    2    1    2    0    0  0.00000000000E+00  0.00000000000E+00 -0.42327006365E+03  0.28287137924E+04  0.27968668492E+04 0.  0.
        5    1    3    3  502    0 -0.78775519730E+03 -0.49970404234E+03 -0.12652900383E+04  0.15720188777E+04  0.46999998093E+01 0. -1.
       -5    1    3    3    0  502  0.78775519730E+03  0.49970404234E+03  0.84201997466E+03  0.12566949147E+04  0.46999998093E+01 0.  1.
</event>
<event>
 5   0  0.5297741E-07  0.2797510E+04  0.7818609E-02  0.8304042E-01
        1   -1    0    0  501    0  0.00000000000E+00  0.00000000000E+00  0.10552164802E+04  0.10552164802E+04  0.50400001928E-02 0.  1.
       -1   -1    0    0    0  501  0.00000000000E+00  0.00000000000E+00 -0.18541371989E+04  0.18541371989E+04  0.50400001928E-02 0. -1.
    10030    2    1    2    0    0  0.00000000000E+00  0.00000000000E+00 -0.79892071867E+03  0.29093536791E+04  0.27975104138E+04 0.  0.
        5    1    3    3  502    0 -0.94859885809E+03 -0.67815821529E+03 -0.12028441942E+04  0.16752894090E+04  0.46999998093E+01 0. -1.
       -5    1    3    3    0  502  0.94859885809E+03  0.67815821529E+03  0.40392347551E+03  0.12340642700E+04  0.46999998093E+01 0.  1.
</event>
<event>
 5   0  0.1499888E-06  0.2801263E+04  0.7818609E-02  0.8302876E-01
        2   -1    0    0  501    0  0.00000000000E+00  0.00000000000E+00  0.17837293188E+04  0.17837293188E+04  0.25500000920E-02 0. -1.
       -2   -1    0    0    0  501  0.00000000000E+00  0.00000000000E+00 -0.10998131052E+04  0.10998131052E+04  0.25500000920E-02 0.  1.
    10030    2    1    2    0    0  0.00000000000E+00  0.00000000000E+00  0.68391621362E+03  0.28835424239E+04  0.28012632014E+04 0.  0.
        3    1    3    3  502    0 -0.10437547868E+04 -0.41348304336E+03 -0.52012286991E+03  0.12373035570E+04  0.10100000352E+00 0.  1.
       -3    1    3    3    0  502  0.10437547868E+04  0.41348304336E+03  0.12040390835E+04  0.16462388669E+04  0.10100000352E+00 0. -1.
</event>
<event>
 5   0  0.1377807E-06  0.2811061E+04  0.7818609E-02  0.8299843E-01
        2   -1    0    0  501    0  0.00000000000E+00  0.00000000000E+00  0.21335758180E+04  0.21335758180E+04  0.25500000920E-02 0.  1.
       -2   -1    0    0    0  501  0.00000000000E+00  0.00000000000E+00 -0.92591754842E+03  0.92591754842E+03  0.25500000920E-02 0. -1.
    10030    2    1    2    0    0  0.00000000000E+00  0.00000000000E+00  0.12076582696E+04  0.30594933664E+04  0.28110605051E+04 0.  0.
        2    1    3    3  502    0  0.69824273352E+02  0.97052125529E+03  0.17077289933E+04  0.19654834648E+04  0.25500000920E-02 0.  1.
       -2    1    3    3    0  502 -0.69824273352E+02 -0.97052125529E+03 -0.50007072367E+03  0.10940099016E+04  0.25500000920E-02 0. -1.
</event>
<event>
 5   0  0.1461146E-06  0.2795179E+04  0.7818609E-02  0.8304767E-01
        2   -1    0    0  501    0  0.00000000000E+00  0.00000000000E+00  0.72899730233E+03  0.72899730234E+03  0.25500000920E-02 0. -1.
       -2   -1    0    0    0  501  0.00000000000E+00  0.00000000000E+00 -0.26793744400E+04  0.26793744400E+04  0.25500000920E-02 0.  1.
    10030    2    1    2    0    0  0.00000000000E+00  0.00000000000E+00 -0.19503771377E+04  0.34083717424E+04  0.27951792348E+04 0.  0.
        1    1    3    3  502    0  0.43318367207E+03 -0.18356585971E+03 -0.25799121444E+04  0.26224589971E+04  0.50400001928E-02 0.  1.
       -1    1    3    3    0  502 -0.43318367207E+03  0.18356585971E+03  0.62953500667E+03  0.78591274531E+03  0.50400001928E-02 0. -1.
</event>
<event>
 5   0  0.5362952E-07  0.2805525E+04  0.7818609E-02  0.8301555E-01
        1   -1    0    0  501    0  0.00000000000E+00  0.00000000000E+00  0.16322012621E+04  0.16322012621E+04  0.50400001928E-02 0.  1.
       -1   -1    0    0    0  501  0.00000000000E+00  0.00000000000E+00 -0.12055759509E+04  0.12055759509E+04  0.50400001928E-02 0. -1.
    10030    2    1    2    0    0  0.00000000000E+00  0.00000000000E+00  0.42662531125E+03  0.28377772130E+04  0.28055249695E+04 0.  0.
        1    1    3    3  502    0  0.32006481961E+03  0.82694659460E+03 -0.88613295295E+03  0.12536003228E+04  0.50400001928E-02 0. -1.
       -1    1    3    3    0  502 -0.32006481961E+03 -0.82694659460E+03  0.13127582642E+04  0.15841768902E+04  0.50400001928E-02 0.  1.
</event>
<event>
 5   0  0.1394410E-06  0.2797740E+04  0.7818609E-02  0.8303970E-01
       -2   -1    0    0    0  501  0.00000000000E+00  0.00000000000E+00  0.99289531963E+03  0.99289531964E+03  0.25500000920E-02 0. -1.
        2   -1    0    0  501    0  0.00000000000E+00  0.00000000000E+00 -0.19708397984E+04  0.19708397984E+04  0.25500000920E-02 0.  1.
    10030    2    1    2    0    0  0.00000000000E+00  0.00000000000E+00 -0.97794447875E+03  0.29637351180E+04  0.27977402392E+04 0.  0.
        4    1    3    3  502    0  0.30928317160E+03  0.13577779118E+04 -0.34835991994E+03  0.14354696739E+04  0.12699999809E+01 0. -1.
       -4    1    3    3    0  502 -0.30928317160E+03 -0.13577779118E+04 -0.62958455881E+03  0.15282654441E+04  0.12699999809E+01 0.  1.
</event>
<event>
 5   0  0.1394410E-06  0.2805893E+04  0.7818609E-02  0.8301441E-01
       -2   -1    0    0    0  501  0.00000000000E+00  0.00000000000E+00  0.14969431906E+04  0.14969431906E+04  0.25500000920E-02 0. -1.
        2   -1    0    0  501    0  0.00000000000E+00  0.00000000000E+00 -0.13148517843E+04  0.13148517843E+04  0.25500000920E-02 0.  1.
    10030    2    1    2    0    0  0.00000000000E+00  0.00000000000E+00  0.18209140629E+03  0.28117949749E+04  0.28058926744E+04 0.  0.
        4    1    3    3  502    0 -0.10302896709E+04  0.87523045750E+03  0.46697700517E+03  0.14302427402E+04  0.12699999809E+01 0. -1.
       -4    1    3    3    0  502  0.10302896709E+04 -0.87523045750E+03 -0.28488559888E+03  0.13815522346E+04  0.12699999809E+01 0.  1.
</event>
<event>
 5   0  0.1439207E-06  0.2801673E+04  0.7818609E-02  0.8302749E-01
       -2   -1    0    0    0  501  0.00000000000E+00  0.00000000000E+00  0.18224707129E+04  0.18224707129E+04  0.25500000920E-02 0.  1.
        2   -1    0    0  501    0  0.00000000000E+00  0.00000000000E+00 -0.10767484652E+04  0.10767484652E+04  0.25500000920E-02 0. -1.
    10030    2    1    2    0    0  0.00000000000E+00  0.00000000000E+00  0.74572224776E+03  0.28992191781E+04  0.28016727453E+04 0.  0.
        5    1    3    3  502    0 -0.53169523946E+03 -0.46649477555E+01  0.17139773886E+04  0.17945646180E+04  0.46999998093E+01 0.  1.
       -5    1    3    3    0  502  0.53169523946E+03  0.46649477555E+01 -0.96825514087E+03  0.11046545601E+04  0.46999998093E+01 0. -1.
</event>
<event>
 5   0  0.5282098E-07  0.2799745E+04  0.7818609E-02  0.8303348E-01
        1   -1    0    0  501    0  0.00000000000E+00  0.00000000000E+00  0.18776828513E+04  0.18776828513E+04  0.50400001928E-02 0.  1.
       -1   -1    0    0    0  501  0.00000000000E+00  0.00000000000E+00 -0.10436493162E+04  0.10436493163E+04  0.50400001928E-02 0. -1.
    10030    2    1    2    0    0  0.00000000000E+00  0.00000000000E+00  0.83403353507E+03  0.29213321676E+04  0.27997445769E+04 0.  0.
        4    1    3    3  502    0  0.88502275830E+03  0.71081429873E+03 -0.43777858817E+03  0.12166239991E+04  0.12699999809E+01 0. -1.
       -4    1    3    3    0  502 -0.88502275830E+03 -0.71081429873E+03  0.12718121232E+04  0.17047081685E+04  0.12699999809E+01 0.  1.
</event>
<event>
 5   0  0.5214658E-07  0.2776557E+04  0.7818609E-02  0.8310583E-01
        1   -1    0    0  501    0  0.00000000000E+00  0.00000000000E+00  0.18898417740E+04  0.18898417740E+04  0.50400001928E-02 0.  1.
       -1   -1    0    0    0  501  0.00000000000E+00  0.00000000000E+00 -0.10198302247E+04  0.10198302247E+04  0.50400001928E-02 0. -1.
    10030    2    1    2    0    0  0.00000000000E+00  0.00000000000E+00  0.87001154928E+03  0.29096719987E+04  0.27765574087E+04 0.  0.
        2    1    3    3  502    0  0.81810251779E+03 -0.12050620978E+03  0.16035926926E+04  0.18042513683E+04  0.25500000920E-02 0.  1.
       -2    1    3    3    0  502 -0.81810251779E+03  0.12050620978E+03 -0.73358114333E+03  0.11054206304E+04  0.25500000920E-02 0. -1.
</event>
<event>
 5   0  0.1499888E-06  0.2791385E+04  0.7818609E-02  0.8305948E-01
       -2   -1    0    0    0  501  0.00000000000E+00  0.00000000000E+00  0.15534271117E+04  0.15534271117E+04  0.25500000920E-02 0.  1.
        2   -1    0    0  501    0  0.00000000000E+00  0.00000000000E+00 -0.12539740283E+04  0.12539740283E+04  0.25500000920E-02 0. -1.
    10030    2    1    2    0    0  0.00000000000E+00  0.00000000000E+00  0.29945308344E+03  0.28074011400E+04  0.27913847839E+04 0.  0.
        3    1    3    3  502    0  0.77934078925E+02  0.61481713913E+02 -0.12504192210E+04  0.12543532039E+04  0.10100000352E+00 0. -1.
       -3    1    3    3    0  502 -0.77934078925E+02 -0.61481713913E+02  0.15498723044E+04  0.15530479361E+04  0.10100000352E+00 0.  1.
</event>
<event>
 5   0  0.1394410E-06  0.2799462E+04  0.7818609E-02  0.8303435E-01
        2   -1    0    0  501    0  0.00000000000E+00  0.00000000000E+00  0.24146342063E+04  0.24146342063E+04  0.25500000920E-02 0.  1.
       -2   -1    0    0    0  501  0.00000000000E+00  0.00000000000E+00 -0.81140545836E+03  0.81140545836E+03  0.25500000920E-02 0. -1.
    10030    2    1    2    0    0  0.00000000000E+00  0.00000000000E+00  0.16032287479E+04  0.32260396646E+04  0.27994623590E+04 0.  0.
        4    1    3    3  502    0 -0.61106521749E+02 -0.98963725435E+03  0.19401558846E+04  0.21788350951E+04  0.12699999809E+01 0.  1.
       -4    1    3    3    0  502  0.61106521749E+02  0.98963725435E+03 -0.33692713666E+03  0.10472045696E+04  0.12699999809E+01 0. -1.
</event>
<event>
 5   0  0.1394410E-06  0.2806280E+04  0.7818609E-02  0.8301321E-01
        2   -1    0    0  501    0  0.00000000000E+00  0.00000000000E+00  0.20142791938E+04  0.20142791938E+04  0.25500000920E-02 0. -1.
       -2   -1    0    0    0  501  0.00000000000E+00  0.00000000000E+00 -0.97742241618E+03  0.97742241618E+03  0.25500000920E-02 0.  1.
    10030    2    1    2    0    0  0.00000000000E+00  0.00000000000E+00  0.10368567776E+04  0.29917016100E+04  0.28062798410E+04 0.  0.
        4    1    3    3  502    0  0.59304397399E+03 -0.12637941159E+04  0.36795214295E+03  0.14436991081E+04  0.12699999809E+01 0.  1.
       -4    1    3    3    0  502 -0.59304397399E+03  0.12637941159E+04  0.66890463465E+03  0.15480025018E+04  0.12699999809E+01 0. -1.
</event>
<event>
 5   0  0.5551565E-07  0.2797850E+04  0.7818609E-02  0.8303936E-01
       -1   -1    0    0    0  501  0.00000000000E+00  0.00000000000E+00  0.11990333157E+04  0.11990333157E+04  0.50400001928E-02 0.  1.
        1   -1    0    0  501    0  0.00000000000E+00  0.00000000000E+00 -0.16321409455E+04  0.16321409455E+04  0.50400001928E-02 0. -1.
    10030    2    1    2    0    0  0.00000000000E+00  0.00000000000E+00 -0.43310762986E+03  0.28311742612E+04  0.27978501529E+04 0.  0.
        3    1    3    3  502    0 -0.75635124577E+03  0.11408660313E+04  0.75586813519E+02  0.13708960154E+04  0.10100000352E+00 0.  1.
       -3    1    3    3    0  502  0.75635124577E+03 -0.11408660313E+04 -0.50869444338E+03  0.14602782458E+04  0.10100000352E+00 0. -1.
</event>
<event>
 5   0  0.5362952E-07  0.2793886E+04  0.7818609E-02  0.8305169E-01
       -1   -1    0    0    0  501  0.00000000000E+00  0.00000000000E+00  0.10927334045E+04  0.10927334046E+04  0.50400001928E-02 0.  1.
        1   -1    0    0  501    0  0.00000000000E+00  0.00000000000E+00 -0.17858425970E+04  0.17858425970E+04  0.50400001928E-02 0. -1.
    10030    2    1    2    0    0  0.00000000000E+00  0.00000000000E+00 -0.69310919249E+03  0.28785760016E+04  0.27938860829E+04 0.  0.
        1    1    3    3  502    0  0.97115307307E+03  0.31758143215E+03  0.63492487637E+03  0.12029654426E+04  0.50400001928E-02 0.  1.
       -1    1    3    3    0  502 -0.97115307307E+03 -0.31758143215E+03 -0.13280340689E+04  0.16756105590E+04  0.50400001928E-02 0. -1.
</event>
<event>
 5   0  0.5282098E-07  0.2803442E+04  0.7818609E-02  0.8302201E-01
       -1   -1    0    0    0  501  0.00000000000E+00  0.00000000000E+00  0.10212220223E+04  0.10212220223E+04  0.50400001928E-02 0.  1.
        1   -1    0    0  501    0  0.00000000000E+00  0.00000000000E+00 -0.19239903554E+04  0.19239903554E+04  0.50400001928E-02 0. -1.
    10030    2    1    2    0    0  0.00000000000E+00  0.00000000000E+00 -0.90276833312E+03  0.29452123777E+04  0.28034416860E+04 0.  0.
        4    1    3    3  502    0 -0.85843200687E+03 -0.54076369098E+03  0.56473441442E+03  0.11611448883E+04  0.12699999809E+01 0.  1.
       -4    1    3    3    0  502  0.85843200687E+03  0.54076369098E+03 -0.14675027475E+04  0.17840674894E+04  0.12699999809E+01 0. -1.
</event>
<event>
 5   0  0.1461146E-06  0.2802289E+04  0.7818609E-02  0.8302558E-01
        2   -1    0    0  501    0  0.00000000000E+00  0.00000000000E+00  0.24614971682E+04  0.24614971682E+04  0.25500000920E-02 0. -1.
       -2   -1    0    0    0  501  0.00000000000E+00  0.00000000000E+00 -0.79756580513E+03  0.79756580514E+03  0.25500000920E-02 0.  1.
    10030    2    1    2    0    0  0.00000000000E+00  0.00000000000E+00  0.16639313630E+04  0.32590629733E+04  0.28022890434E+04 0.  0.
        1    1    3    3  502    0  0.74446419475E+03  0.90662846769E+03  0.17230120410E+04  0.20844597883E+04  0.50400001928E-02 0. -1.
       -1    1    3    3    0  502 -0.74446419475E+03 -0.90662846769E+03 -0.59080677942E+02  0.11746031850E+04  0.50400001928E-02 0.  1.
</event>
<event>
 5   0  0.1394410E-06  0.2800642E+04  0.7818609E-02  0.8303069E-01
       -2   -1    0    0    0  501  0.00000000000E+00  0.00000000000E+00  0.10125808695E+04  0.10125808695E+04  0.25500000920E-02 0.  1.
        2   -1    0    0  501    0  0.00000000000E+00  0.00000000000E+00 -0.19365359623E+04  0.19365359623E+04  0.25500000920E-02 0. -1.
    10030    2    1    2    0    0  0.00000000000E+00  0.00000000000E+00 -0.92395509273E+03  0.29491168318E+04  0.28006422610E+04 0.  0.
        4    1    3    3  502    0 -0.12898134665E+04  0.26482129181E+03  0.39890256626E+02  0.13173237796E+04  0.12699999809E+01 0. -1.
       -4    1    3    3    0  502  0.12898134665E+04 -0.26482129181E+03 -0.96384534936E+03  0.16317930522E+04  0.12699999809E+01 0.  1.
</event>
<event>
 5   0  0.5297741E-07  0.2801309E+04  0.7818609E-02  0.8302862E-01
       -1   -1    0    0    0  501  0.00000000000E+00  0.00000000000E+00  0.19526378896E+04  0.19526378896E+04  0.50400001928E-02 0.  1.
        1   -1    0    0  501    0  0.00000000000E+00  0.00000000000E+00 -0.10047089822E+04  0.10047089822E+04  0.50400001928E-02 0. -1.
    10030    2    1    2    0    0  0.00000000000E+00  0.00000000000E+00  0.94792890745E+03  0.29573468719E+04  0.28013088560E+04 0.  0.
        5    1    3    3  502    0 -0.47006128360E+03  0.81118484197E+03  0.15725196154E+04  0.18307972277E+04  0.46999998093E+01 0.  1.
       -5    1    3    3    0  502  0.47006128360E+03 -0.81118484197E+03 -0.62459070797E+03  0.11265496441E+04  0.46999998093E+01 0. -1.
</event>
<event>
 5   0  0.1461146E-06  0.2795624E+04  0.7818609E-02  0.8304628E-01
       -2   -1    0    0    0  501  0.00000000000E+00  0.00000000000E+00  0.10373092657E+04  0.10373092657E+04  0.25500000920E-02 0. -1.
        2   -1    0    0  501    0  0.00000000000E+00  0.00000000000E+00 -0.18836018983E+04  0.18836018983E+04  0.25500000920E-02 0.  1.
    10030    2    1    2    0    0  0.00000000000E+00  0.00000000000E+00 -0.84629263257E+03  0.29209111640E+04  0.27956235097E+04 0.  0.
        1    1    3    3  502    0  0.42266462827E+03  0.87442147373E+03 -0.14734949626E+04  0.17647792232E+04  0.50400001928E-02 0.  1.
       -1    1    3    3    0  502 -0.42266462827E+03 -0.87442147373E+03  0.62720233002E+03  0.11561319408E+04  0.50400001928E-02 0. -1.
</event>
<event>
 5   0  0.5551565E-07  0.2798584E+04  0.7818609E-02  0.8303708E-01
        1   -1    0    0  501    0  0.00000000000E+00  0.00000000000E+00  0.19158579275E+04  0.19158579275E+04  0.50400001928E-02 0. -1.
       -1   -1    0    0    0  501  0.00000000000E+00  0.00000000000E+00 -0.10220055920E+04  0.10220055920E+04  0.50400001928E-02 0.  1.
    10030    2    1    2    0    0  0.00000000000E+00  0.00000000000E+00  0.89385233555E+03  0.29378635195E+04  0.27985835813E+04 0.  0.
        3    1    3    3  502    0 -0.77925366997E+03  0.10422957491E+04  0.98671601576E+03  0.16331641732E+04  0.10100000352E+00 0. -1.
       -3    1    3    3    0  502  0.77925366997E+03 -0.10422957491E+04 -0.92863680215E+02  0.13046993462E+04  0.10100000352E+00 0.  1.
</event>
<event>
 5   0  0.4710000E-07  0.2798216E+04  0.7818609E-02  0.8303822E-01
       -3   -1    0    0    0  501  0.00000000000E+00  0.00000000000E+00  0.94741073274E+03  0.94741073813E+03  0.10100000352E+00 0. -1.
        3   -1    0    0  501    0  0.00000000000E+00  0.00000000000E+00 -0.20661614522E+04  0.20661614547E+04  0.10100000352E+00 0.  1.
    10030    2    1    2    0    0  0.00000000000E+00  0.00000000000E+00 -0.11187507195E+04  0.30135721928E+04  0.27982162513E+04 0.  0.
        2    1    3    3  502    0  0.37389685158E+03 -0.10384011177E+04  0.36670402296E+03  0.11629907899E+04  0.25500000920E-02 0. -1.
       -2    1    3    3    0  502 -0.37389685158E+03  0.10384011177E+04 -0.14854547425E+04  0.18505814029E+04  0.25500000920E-02 0.  1.
</event>
<event>
 5   0  0.5297741E-07  0.2802099E+04  0.7818609E-02  0.8302617E-01
        1   -1    0    0  501    0  0.00000000000E+00  0.00000000000E+00  0.25955661085E+04  0.25955661085E+04  0.50400001928E-02 0.  1.
       -1   -1    0    0    0  501  0.00000000000E+00  0.00000000000E+00 -0.75626624043E+03  0.75626624045E+03  0.50400001928E-02 0. -1.
    10030    2    1    2    0    0  0.00000000000E+00  0.00000000000E+00  0.18392998681E+04  0.33518323489E+04  0.28020985155E+04 0.  0.
        5    1    3    3  502    0 -0.13668296009E+04 -0.39429247929E+02  0.12847105044E+04  0.18762411875E+04  0.46999998093E+01 0. -1.
       -5    1    3    3    0  502  0.13668296009E+04  0.39429247929E+02  0.55458936371E+03  0.14755911615E+04  0.46999998093E+01 0.  1.
</event>
<event>
 5   0  0.4710000E-07  0.2797660E+04  0.7818609E-02  0.8303995E-01
        4   -1    0    0  501    0  0.00000000000E+00  0.00000000000E+00  0.81098322149E+03  0.81098421590E+03  0.12699999809E+01 0. -1.
       -4   -1    0    0    0  501  0.00000000000E+00  0.00000000000E+00 -0.24127792825E+04  0.24127796168E+04  0.12699999809E+01 0.  1.
    10030    2    1    2    0    0  0.00000000000E+00  0.00000000000E+00 -0.16017960610E+04  0.32237638327E+04  0.27976602059E+04 0.  0.
        5    1    3    3  502    0 -0.41316051243E+03 -0.98698665825E+03  0.23736797953E+03  0.10959972264E+04  0.46999998093E+01 0. -1.
       -5    1    3    3    0  502  0.41316051243E+03  0.98698665825E+03 -0.18391640406E+04  0.21277666063E+04  0.46999998093E+01 0.  1.
</event>
<event>
 5   0  0.1439207E-06  0.2802538E+04  0.7818609E-02  0.8302481E-01
       -2   -1    0    0    0  501  0.00000000000E+00  0.00000000000E+00  0.15237550888E+04  0.15237550888E+04  0.25500000920E-02 0.  1.
        2   -1    0    0  501    0  0.00000000000E+00  0.00000000000E+00 -0.12886288457E+04  0.12886288458E+04  0.25500000920E-02 0. -1.
    10030    2    1    2    0    0  0.00000000000E+00  0.00000000000E+00  0.23512624301E+03  0.28123839345E+04  0.28025379649E+04 0.  0.
        5    1    3    3  502    0 -0.77851473668E+03  0.74844716298E+03 -0.77847604178E+03  0.13312796057E+04  0.46999998093E+01 0. -1.
       -5    1    3    3    0  502  0.77851473668E+03 -0.74844716298E+03  0.10136022848E+04  0.14811043288E+04  0.46999998093E+01 0.  1.
</event>
<event>
 5   0  0.1377807E-06  0.2800844E+04  0.7818609E-02  0.8303006E-01
        2   -1    0    0  501    0  0.00000000000E+00  0.00000000000E+00  0.17445027555E+04  0.17445027555E+04  0.25500000920E-02 0. -1.
       -2   -1    0    0    0  501  0.00000000000E+00  0.00000000000E+00 -0.11242067586E+04  0.11242067586E+04  0.25500000920E-02 0.  1.
    10030    2    1    2    0    0  0.00000000000E+00  0.00000000000E+00  0.62029599691E+03  0.28687095141E+04  0.28008440072E+04 0.  0.
        2    1    3    3  502    0 -0.10742459702E+04  0.60710932814E+03  0.98846048375E+03  0.15810250690E+04  0.25500000920E-02 0. -1.
       -2    1    3    3    0  502  0.10742459702E+04 -0.60710932814E+03 -0.36816448683E+03  0.12876844451E+04  0.25500000920E-02 0.  1.
</event>
<event>
 5   0  0.5362952E-07  0.2790722E+04  0.7818609E-02  0.8306155E-01
        1   -1    0    0  501    0  0.00000000000E+00  0.00000000000E+00  0.13875548377E+04  0.13875548377E+04  0.50400001928E-02 0. -1.
       -1   -1    0    0    0  501  0.00000000000E+00  0.00000000000E+00 -0.14032107636E+04  0.14032107636E+04  0.50400001928E-02 0.  1.
    10030    2    1    2    0    0  0.00000000000E+00  0.00000000000E+00 -0.15655925917E+02  0.27907656013E+04  0.27907216869E+04 0.  0.
        1    1    3    3  502    0  0.85862513653E+03 -0.87815518230E+03  0.65448015184E+03  0.13916673160E+04  0.50400001928E-02 0. -1.
       -1    1    3    3    0  502 -0.85862513653E+03  0.87815518230E+03 -0.67013607776E+03  0.13990982853E+04  0.50400001928E-02 0.  1.
</event>
<event>
 5   0  0.1439207E-06  0.2786495E+04  0.7818609E-02  0.8307473E-01
       -2   -1    0    0    0  501  0.00000000000E+00  0.00000000000E+00  0.85073827664E+03  0.85073827664E+03  0.25500000920E-02 0. -1.
        2   -1    0    0  501    0  0.00000000000E+00  0.00000000000E+00 -0.22817112779E+04  0.22817112779E+04  0.25500000920E-02 0.  1.
    10030    2    1    2    0    0  0.00000000000E+00  0.00000000000E+00 -0.14309730012E+04  0.31324495545E+04  0.27864953762E+04 0.  0.
        5    1    3    3  502    0  0.65189072351E+02 -0.28349144247E+03  0.81621182580E+03  0.86651073143E+03  0.46999998093E+01 0. -1.
       -5    1    3    3    0  502 -0.65189072351E+02  0.28349144247E+03 -0.22471848270E+04  0.22659388231E+04  0.46999998093E+01 0.  1.
</event>
<event>
 5   0  0.5297741E-07  0.2799060E+04  0.7818609E-02  0.8303560E-01
        1   -1    0    0  501    0  0.00000000000E+00  0.00000000000E+00  0.17338375066E+04  0.17338375067E+04  0.50400001928E-02 0.  1.
       -1   -1    0    0    0  501  0.00000000000E+00  0.00000000000E+00 -0.11296817933E+04  0.11296817933E+04  0.50400001928E-02 0. -1.
    10030    2    1    2    0    0  0.00000000000E+00  0.00000000000E+00  0.60415571334E+03  0.28635193000E+04  0.27990603165E+04 0.  0.
        5    1    3    3  502    0 -0.11497563940E+04 -0.14448292739E+03  0.11049094340E+04  0.16011439752E+04  0.46999998093E+01 0. -1.
       -5    1    3    3    0  502  0.11497563940E+04  0.14448292739E+03 -0.50075372069E+03  0.12623753248E+04  0.46999998093E+01 0.  1.
</event>
<event>
 5   0  0.1499888E-06  0.2806975E+04  0.7818609E-02  0.8301106E-01
        2   -1    0    0  501    0  0.00000000000E+00  0.00000000000E+00  0.18707494640E+04  0.18707494640E+04  0.25500000920E-02 0. -1.
       -2   -1    0    0    0  501  0.00000000000E+00  0.00000000000E+00 -0.10529346177E+04  0.10529346177E+04  0.25500000920E-02 0.  1.
    10030    2    1    2    0    0  0.00000000000E+00  0.00000000000E+00  0.81781484627E+03  0.29236840817E+04  0.28069747927E+04 0.  0.
        3    1    3    3  502    0  0.66380881219E+03 -0.12319695723E+04  0.29776708655E+03  0.14307537923E+04  0.10100000352E+00 0.  1.
       -3    1    3    3    0  502 -0.66380881219E+03  0.12319695723E+04  0.52004775972E+03  0.14929302893E+04  0.10100000352E+00 0. -1.
</event>
<event>
 5   0  0.1439207E-06  0.2813377E+04  0.7818609E-02  0.8299127E-01
        2   -1    0    0  501    0  0.00000000000E+00  0.00000000000E+00  0.17884229985E+04  0.17884229985E+04  0.25500000920E-02 0.  1.
       -2   -1    0    0    0  501  0.00000000000E+00  0.00000000000E+00 -0.11064345236E+04  0.11064345236E+04  0.25500000920E-02 0. -1.
    10030    2    1    2    0    0  0.00000000000E+00  0.00000000000E+00  0.68198847488E+03  0.28948575220E+04  0.28133772930E+04 0.  0.
        5    1    3    3  502    0 -0.62944278494E+03  0.97507597720E+02 -0.94954072957E+03  0.11433965359E+04  0.46999998093E+01 0. -1.
       -5    1    3    3    0  502  0.62944278494E+03 -0.97507597720E+02  0.16315292044E+04  0.17514609862E+04  0.46999998093E+01 0.  1.
</event>
<event>
 5   0  0.5282098E-07  0.2801599E+04  0.7818609E-02  0.8302772E-01
       -1   -1    0    0    0  501  0.00000000000E+00  0.00000000000E+00  0.16230423842E+04  0.16230423842E+04  0.50400001928E-02 0. -1.
        1   -1    0    0  501    0  0.00000000000E+00  0.00000000000E+00 -0.12089881494E+04  0.12089881494E+04  0.50400001928E-02 0.  1.
    10030    2    1    2    0    0  0.00000000000E+00  0.00000000000E+00  0.41405423486E+03  0.28320305336E+04  0.28015988353E+04 0.  0.
        4    1    3    3  502    0  0.21255045772E+03 -0.64544672664E+03  0.14452645732E+04  0.15970505545E+04  0.12699999809E+01 0. -1.
       -4    1    3    3    0  502 -0.21255045772E+03  0.64544672664E+03 -0.10312103384E+04  0.12349799791E+04  0.12699999809E+01 0.  1.
</event>
<event>
 5   0  0.1499888E-06  0.2796110E+04  0.7818609E-02  0.8304477E-01
        2   -1    0    0  501    0  0.00000000000E+00  0.00000000000E+00  0.22791352210E+04  0.22791352210E+04  0.25500000920E-02 0.  1.
       -2   -1    0    0    0  501  0.00000000000E+00  0.00000000000E+00 -0.85758720672E+03  0.85758720672E+03  0.25500000920E-02 0. -1.
    10030    2    1    2    0    0  0.00000000000E+00  0.00000000000E+00  0.14215480143E+04  0.31367224277E+04  0.27961095886E+04 0.  0.
        3    1    3    3  502    0  0.22324421870E+03 -0.13457907908E+04  0.36762576639E+03  0.14128480272E+04  0.10100000352E+00 0.  1.
       -3    1    3    3    0  502 -0.22324421870E+03  0.13457907908E+04  0.10539222479E+04  0.17238744004E+04  0.10100000352E+00 0. -1.
</event>
<event>
 5   0  0.1377807E-06  0.2798206E+04  0.7818609E-02  0.8303826E-01
        2   -1    0    0  501    0  0.00000000000E+00  0.00000000000E+00  0.21862221532E+04  0.21862221532E+04  0.25500000920E-02 0. -1.
       -2   -1    0    0    0  501  0.00000000000E+00  0.00000000000E+00 -0.89537528795E+03  0.89537528796E+03  0.25500000920E-02 0.  1.
    10030    2    1    2    0    0  0.00000000000E+00  0.00000000000E+00  0.12908468653E+04  0.30815974412E+04  0.27982060610E+04 0.  0.
        2    1    3    3  502    0  0.48261530762E+03  0.16264449500E+03  0.20805169793E+04  0.21419434325E+04  0.25500000920E-02 0. -1.
       -2    1    3    3    0  502 -0.48261530762E+03 -0.16264449500E+03 -0.78967011406E+03  0.93965400864E+03  0.25500000920E-02 0.  1.
</event>
<event>
 5   0  0.1394410E-06  0.2809619E+04  0.7818609E-02  0.8300288E-01
       -2   -1    0    0    0  501  0.00000000000E+00  0.00000000000E+00  0.10627472028E+04  0.10627472028E+04  0.25500000920E-02 0. -1.
        2   -1    0    0  501    0  0.00000000000E+00  0.00000000000E+00 -0.18569705632E+04  0.18569705632E+04  0.25500000920E-02 0.  1.
    10030    2    1    2    0    0  0.00000000000E+00  0.00000000000E+00 -0.79422336037E+03  0.29197177660E+04  0.28096193847E+04 0.  0.
        4    1    3    3  502    0 -0.10564356109E+04  0.82837535001E+03 -0.82712229247E+03  0.15768306251E+04  0.12699999809E+01 0.  1.
       -4    1    3    3    0  502  0.10564356109E+04 -0.82837535001E+03  0.32898932097E+02  0.13428871409E+04  0.12699999809E+01 0. -1.
</event>
<event>
 5   0  0.1439207E-06  0.2785624E+04  0.7818609E-02  0.8307746E-01
       -2   -1    0    0    0  501  0.00000000000E+00  0.00000000000E+00  0.12746868123E+04  0.12746868123E+04  0.25500000920E-02 0.  1.
        2   -1    0    0  501    0  0.00000000000E+00  0.00000000000E+00 -0.15218833113E+04  0.15218833113E+04  0.25500000920E-02 0. -1.
    10030    2    1    2    0    0  0.00000000000E+00  0.00000000000E+00 -0.24719649896E+03  0.27965701236E+04  0.27856235114E+04 0.  0.
        5    1    3    3  502    0 -0.63954000396E+03  0.62521016499E+03 -0.11955033914E+04  0.14930336955E+04  0.46999998093E+01 0. -1.
       -5    1    3    3    0  502  0.63954000396E+03 -0.62521016499E+03  0.94830689248E+03  0.13035364281E+04  0.46999998093E+01 0.  1.
</event>
<event>
 5   0  0.1461146E-06  0.2800191E+04  0.7818609E-02  0.8303209E-01
        2   -1    0    0  501    0  0.00000000000E+00  0.00000000000E+00  0.10713199999E+04  0.10713199999E+04  0.25500000920E-02 0.  1.
       -2   -1    0    0    0  501  0.00000000000E+00  0.00000000000E+00 -0.18297681278E+04  0.18297681278E+04  0.25500000920E-02 0. -1.
    10030    2    1    2    0    0  0.00000000000E+00  0.00000000000E+00 -0.75844812794E+03  0.29010881277E+04  0.28001908438E+04 0.  0.
        1    1    3    3  502    0 -0.76807286350E+03  0.48325413259E+03  0.72540049502E+03  0.11617557224E+04  0.50400001928E-02 0.  1.
       -1    1    3    3    0  502  0.76807286350E+03 -0.48325413259E+03 -0.14838486230E+04  0.17393324053E+04  0.50400001928E-02 0. -1.
</event>
<event>
 5   0  0.1461146E-06  0.2798688E+04  0.7818609E-02  0.8303676E-01
        2   -1    0    0  501    0  0.00000000000E+00  0.00000000000E+00  0.10772336284E+04  0.10772336284E+04  0.25500000920E-02 0. -1.
       -2   -1    0    0    0  501  0.00000000000E+00  0.00000000000E+00 -0.18177703212E+04  0.18177703212E+04  0.25500000920E-02 0.  1.
    10030    2    1    2    0    0  0.00000000000E+00  0.00000000000E+00 -0.74053669280E+03  0.28950039496E+04  0.27986877773E+04 0.  0.
        1    1    3    3  502    0  0.60527315164E+03  0.12613764808E+04 -0.39835236065E+03  0.14546858140E+04  0.50400001928E-02 0.  1.
       -1    1    3    3    0  502 -0.60527315164E+03 -0.12613764808E+04 -0.34218433216E+03  0.14403181355E+04  0.50400001928E-02 0. -1.
</event>
<event>
 5   0  0.5362952E-07  0.2802007E+04  0.7818609E-02  0.8302646E-01
        1   -1    0    0  501    0  0.00000000000E+00  0.00000000000E+00  0.13584635832E+04  0.13584635832E+04  0.50400001928E-02 0.  1.
       -1   -1    0    0    0  501  0.00000000000E+00  0.00000000000E+00 -0.14448753438E+04  0.14448753438E+04  0.50400001928E-02 0. -1.
    10030    2    1    2    0    0  0.00000000000E+00  0.00000000000E+00 -0.86411760628E+02  0.28033389270E+04  0.28020068072E+04 0.  0.
        1    1    3    3  502    0  0.38016406771E+03  0.13105218785E+04 -0.36087569078E+03  0.14114615038E+04  0.50400001928E-02 0. -1.
       -1    1    3    3    0  502 -0.38016406771E+03 -0.13105218785E+04  0.27446393015E+03  0.13918774233E+04  0.50400001928E-02 0.  1.
</event>
<event>
 5   0  0.5214658E-07  0.2797613E+04  0.7818609E-02  0.8304010E-01
        1   -1    0    0  501    0  0.00000000000E+00  0.00000000000E+00  0.23040589694E+04  0.23040589694E+04  0.50400001928E-02 0. -1.
       -1   -1    0    0    0  501  0.00000000000E+00  0.00000000000E+00 -0.84922276562E+03  0.84922276564E+03  0.50400001928E-02 0.  1.
    10030    2    1    2    0    0  0.00000000000E+00  0.00000000000E+00  0.14548362038E+04  0.31532817350E+04  0.27976127896E+04 0.  0.
        2    1    3    3  502    0  0.12324842462E+03  0.11673942197E+04 -0.12998857509E+03  0.11810573517E+04  0.25500000920E-02 0.  1.
       -2    1    3    3    0  502 -0.12324842462E+03 -0.11673942197E+04  0.15848247789E+04  0.19722243833E+04  0.25500000920E-02 0. -1.
</event>
<event>
 5   0  0.1461146E-06  0.2802285E+04  0.7818609E-02  0.8302559E-01
        2   -1    0    0  501    0  0.00000000000E+00  0.00000000000E+00  0.23172017787E+04  0.23172017787E+04  0.25500000920E-02 0.  1.
       -2   -1    0    0    0  501  0.00000000000E+00  0.00000000000E+00 -0.84722910124E+03  0.84722910125E+03  0.25500000920E-02 0. -1.
    10030    2    1    2    0    0  0.00000000000E+00  0.00000000000E+00  0.14699726775E+04  0.31644308800E+04  0.28022853391E+04 0.  0.
        1    1    3    3  502    0 -0.43903095368E+03  0.91119391943E+03  0.18299213875E+04  0.20908454800E+04  0.50400001928E-02 0.  1.
       -1    1    3    3    0  502  0.43903095368E+03 -0.91119391943E+03 -0.35994870998E+03  0.10735853999E+04  0.50400001928E-02 0. -1.
</event>
<event>
 5   0  0.5297741E-07  0.2796958E+04  0.7818609E-02  0.8304213E-01
        1   -1    0    0  501    0  0.00000000000E+00  0.00000000000E+00  0.17613637060E+04  0.17613637060E+04  0.50400001928E-02 0. -1.
       -1   -1    0    0    0  501  0.00000000000E+00  0.00000000000E+00 -0.11103576540E+04  0.11103576540E+04  0.50400001928E-02 0.  1.
    10030    2    1    2    0    0  0.00000000000E+00  0.00000000000E+00  0.65100605201E+03  0.28717213599E+04  0.27969581136E+04 0.  0.
        5    1    3    3  502    0 -0.54964827317E+03 -0.65701441464E+03 -0.80945905191E+03  0.11785699860E+04  0.46999998093E+01 0.  1.
       -5    1    3    3    0  502  0.54964827317E+03  0.65701441464E+03  0.14604651039E+04  0.16931513739E+04  0.46999998093E+01 0. -1.
</event>
<event>
 5   0  0.1439207E-06  0.2807351E+04  0.7818609E-02  0.8300990E-01
        2   -1    0    0  501    0  0.00000000000E+00  0.00000000000E+00  0.13198122195E+04  0.13198122195E+04  0.25500000920E-02 0.  1.
       -2   -1    0    0    0  501  0.00000000000E+00  0.00000000000E+00 -0.14928681181E+04  0.14928681181E+04  0.25500000920E-02 0. -1.
    10030    2    1    2    0    0  0.00000000000E+00  0.00000000000E+00 -0.17305589863E+03  0.28126803377E+04  0.28073514810E+04 0.  0.
        5    1    3    3  502    0  0.13836365496E+04  0.18916879290E+03 -0.22838965836E+03  0.14150685000E+04  0.46999998093E+01 0.  1.
       -5    1    3    3    0  502 -0.13836365496E+04 -0.18916879290E+03  0.55333759738E+02  0.13976118376E+04  0.46999998093E+01 0. -1.
</event>
<event>
 5   0  0.5551565E-07  0.2801152E+04  0.7818609E-02  0.8302911E-01
        1   -1    0    0  501    0  0.00000000000E+00  0.00000000000E+00  0.22591090525E+04  0.22591090525E+04  0.50400001928E-02 0. -1.
       -1   -1    0    0    0  501  0.00000000000E+00  0.00000000000E+00 -0.86831242657E+03  0.86831242658E+03  0.50400001928E-02 0.  1.
    10030    2    1    2    0    0  0.00000000000E+00  0.00000000000E+00  0.13907966259E+04  0.31274214790E+04  0.28011515227E+04 0.  0.
        3    1    3    3  502    0  0.13132558385E+04  0.12636472999E+03  0.17053115454E+03  0.13302968943E+04  0.10100000352E+00 0.  1.
       -3    1    3    3    0  502 -0.13132558385E+04 -0.12636472999E+03  0.12202654713E+04  0.17971245847E+04  0.10100000352E+00 0. -1.
</event>
<event>
 5   0  0.1377807E-06  0.2798897E+04  0.7818609E-02  0.8303611E-01
       -2   -1    0    0    0  501  0.00000000000E+00  0.00000000000E+00  0.22967614195E+04  0.22967614195E+04  0.25500000920E-02 0.  1.
        2   -1    0    0  501    0  0.00000000000E+00  0.00000000000E+00 -0.85270310707E+03  0.85270310708E+03  0.25500000920E-02 0. -1.
    10030    2    1    2    0    0  0.00000000000E+00  0.00000000000E+00  0.14440583124E+04  0.31494645265E+04  0.27988966387E+04 0.  0.
        2    1    3    3  502    0  0.68686651770E+02  0.66660272514E+02  0.22930738865E+04  0.22950706518E+04  0.25500000920E-02 0.  1.
       -2    1    3    3    0  502 -0.68686651770E+02 -0.66660272514E+02 -0.84901557409E+03  0.85439387470E+03  0.25500000920E-02 0. -1.
</event>
<event>
 5   0  0.5282098E-07  0.2806731E+04  0.7818609E-02  0.8301182E-01
        1   -1    0    0  501    0  0.00000000000E+00  0.00000000000E+00  0.24011975213E+04  0.24011975213E+04  0.50400001928E-02 0. -1.
       -1   -1    0    0    0  501  0.00000000000E+00  0.00000000000E+00 -0.82018855529E+03  0.82018855531E+03  0.50400001928E-02 0.  1.
    10030    2    1    2    0    0  0.00000000000E+00  0.00000000000E+00  0.15810089660E+04  0.32213860766E+04  0.28067309996E+04 0.  0.
        4    1    3    3  502    0 -0.58186455688E+03  0.53207153292E+03  0.21229496204E+04  0.22646375389E+04  0.12699999809E+01 0. -1.
       -4    1    3    3    0  502  0.58186455688E+03 -0.53207153292E+03 -0.54194065441E+03  0.95674853776E+03  0.12699999809E+01 0.  1.
</event>
<event>
 5   0  0.5297741E-07  0.2798744E+04  0.7818609E-02  0.8303658E-01
        1   -1    0    0  501    0  0.00000000000E+00  0.00000000000E+00  0.16441362783E+04  0.16441362783E+04  0.50400001928E-02 0.  1.
       -1   -1    0    0    0  501  0.00000000000E+00  0.00000000000E+00 -0.11910460307E+04  0.11910460307E+04  0.50400001928E-02 0. -1.
    10030    2    1    2    0    0  0.00000000000E+00  0.00000000000E+00  0.45309024765E+03  0.28351823090E+04  0.27987439956E+04 0.  0.
        5    1    3    3  502    0 -0.54120627814E+03  0.88255904795E+03  0.11802938270E+04  0.15700096550E+04  0.46999998093E+01 0.  1.
       -5    1    3    3    0  502  0.54120627814E+03 -0.88255904795E+03 -0.72720357938E+03  0.12651726540E+04  0.46999998093E+01 0. -1.
</event>
<event>
 5   0  0.5362952E-07  0.2804581E+04  0.7818609E-02  0.8301848E-01
        1   -1    0    0  501    0  0.00000000000E+00  0.00000000000E+00  0.17589571499E+04  0.17589571499E+04  0.50400001928E-02 0. -1.
       -1   -1    0    0    0  501  0.00000000000E+00  0.00000000000E+00 -0.11179454357E+04  0.11179454357E+04  0.50400001928E-02 0.  1.
    10030    2    1    2    0    0  0.00000000000E+00  0.00000000000E+00  0.64101171421E+03  0.28769025856E+04  0.28045806227E+04 0.  0.
        1    1    3    3  502    0  0.93187922156E+03 -0.36087686486E+03  0.13296359258E+04  0.16632987376E+04  0.50400001928E-02 0. -1.
       -1    1    3    3    0  502 -0.93187922156E+03  0.36087686486E+03 -0.68862421158E+03  0.12136038480E+04  0.50400001928E-02 0.  1.
</event>
<event>
 5   0  0.5214658E-07  0.2800420E+04  0.7818609E-02  0.8303138E-01
        1   -1    0    0  501    0  0.00000000000E+00  0.00000000000E+00  0.16563099294E+04  0.16563099294E+04  0.50400001928E-02 0. -1.
       -1   -1    0    0    0  501  0.00000000000E+00  0.00000000000E+00 -0.11837081491E+04  0.11837081491E+04  0.50400001928E-02 0.  1.
    10030    2    1    2    0    0  0.00000000000E+00  0.00000000000E+00  0.47260178034E+03  0.28400180785E+04  0.28004196549E+04 0.  0.
        2    1    3    3  502    0  0.11901045218E+04  0.35968773358E+03  0.88950756308E+03  0.15287078672E+04  0.25500000920E-02 0. -1.
       -2    1    3    3    0  502 -0.11901045218E+04 -0.35968773358E+03 -0.41690578274E+03  0.13113102113E+04  0.25500000920E-02 0.  1.
</event>
<event>
 5   0  0.1499888E-06  0.2805803E+04  0.7818609E-02  0.8301469E-01
       -2   -1    0    0    0  501  0.00000000000E+00  0.00000000000E+00  0.17531387541E+04  0.17531387541E+04  0.25500000920E-02 0.  1.
        2   -1    0    0  501    0  0.00000000000E+00  0.00000000000E+00 -0.11226334282E+04  0.11226334282E+04  0.25500000920E-02 0. -1.
    10030    2    1    2    0    0  0.00000000000E+00  0.00000000000E+00  0.63050532588E+03  0.28757721823E+04  0.28058026799E+04 0.  0.
        3    1    3    3  502    0 -0.97033903107E+03 -0.56734541643E+02 -0.72158465536E+03  0.12105622943E+04  0.10100000352E+00 0.  1.
       -3    1    3    3    0  502  0.97033903107E+03  0.56734541643E+02  0.13520899812E+04  0.16652098880E+04  0.10100000352E+00 0. -1.
</event>
<event>
 5   0  0.1461146E-06  0.2800925E+04  0.7818609E-02  0.8302981E-01
       -2   -1    0    0    0  501  0.00000000000E+00  0.00000000000E+00  0.15316846309E+04  0.15316846309E+04  0.25500000920E-02 0.  1.
        2   -1    0    0  501    0  0.00000000000E+00  0.00000000000E+00 -0.12804825465E+04  0.12804825465E+04  0.25500000920E-02 0. -1.
    10030    2    1    2    0    0  0.00000000000E+00  0.00000000000E+00  0.25120208444E+03  0.28121671775E+04  0.28009251591E+04 0.  0.
        1    1    3    3  502    0  0.38633162953E+03  0.48027340081E+03 -0.11369759093E+04  0.12933015449E+04  0.50400001928E-02 0. -1.
       -1    1    3    3    0  502 -0.38633162953E+03 -0.48027340081E+03  0.13881779938E+04  0.15188656326E+04  0.50400001928E-02 0.  1.
</event>
<event>
 5   0  0.5214658E-07  0.2813746E+04  0.7818609E-02  0.8299013E-01
       -1   -1    0    0    0  501  0.00000000000E+00  0.00000000000E+00  0.13562864535E+04  0.13562864535E+04  0.50400001928E-02 0.  1.
        1   -1    0    0  501    0  0.00000000000E+00  0.00000000000E+00 -0.14593463189E+04  0.14593463189E+04  0.50400001928E-02 0. -1.
    10030    2    1    2    0    0  0.00000000000E+00  0.00000000000E+00 -0.10305986543E+03  0.28156327725E+04  0.28137460037E+04 0.  0.
        2    1    3    3  502    0  0.46920164048E+02  0.24315624344E+03 -0.14373647872E+04  0.14585417347E+04  0.25500000920E-02 0. -1.
       -2    1    3    3    0  502 -0.46920164048E+02 -0.24315624344E+03  0.13343049217E+04  0.13570910377E+04  0.25500000920E-02 0.  1.
</event>
<event>
 5   0  0.5282098E-07  0.2803122E+04  0.7818609E-02  0.8302300E-01
       -1   -1    0    0    0  501  0.00000000000E+00  0.00000000000E+00  0.19333184502E+04  0.19333184503E+04  0.50400001928E-02 0. -1.
        1   -1    0    0  501    0  0.00000000000E+00  0.00000000000E+00 -0.10160627760E+04  0.10160627760E+04  0.50400001928E-02 0.  1.
    10030    2    1    2    0    0  0.00000000000E+00  0.00000000000E+00  0.91725567427E+03  0.29493812262E+04  0.28031217679E+04 0.  0.
        4    1    3    3  502    0 -0.47051164540E+03 -0.91460520521E+03 -0.54314634672E+03  0.11631394829E+04  0.12699999809E+01 0.  1.
       -4    1    3    3    0  502  0.47051164540E+03  0.91460520521E+03  0.14604020210E+04  0.17862417433E+04  0.12699999809E+01 0. -1.
</event>
<event>
 5   0  0.5551565E-07  0.2798528E+04  0.7818609E-02  0.8303726E-01
        1   -1    0    0  501    0  0.00000000000E+00  0.00000000000E+00  0.20149011772E+04  0.20149011772E+04  0.50400001928E-02 0. -1.
       -1   -1    0    0    0  501  0.00000000000E+00  0.00000000000E+00 -0.97172959276E+03  0.97172959277E+03  0.50400001928E-02 0.  1.
    10030    2    1    2    0    0  0.00000000000E+00  0.00000000000E+00  0.10431715844E+04  0.29866307700E+04  0.27985275417E+04 0.  0.
        3    1    3    3  502    0  0.56261515018E+03  0.12655375349E+04  0.73454275254E+03  0.15676970769E+04  0.10100000352E+00 0.  1.
       -3    1    3    3    0  502 -0.56261515018E+03 -0.12655375349E+04  0.30862883191E+03  0.14189336931E+04  0.10100000352E+00 0. -1.
</event>
<event>
 5   0  0.5282098E-07  0.2797483E+04  0.7818609E-02  0.8304050E-01
        1   -1    0    0  501    0  0.00000000000E+00  0.00000000000E+00  0.10966493706E+04  0.10966493706E+04  0.50400001928E-02 0.  1.
       -1   -1    0    0    0  501  0.00000000000E+00  0.00000000000E+00 -0.17840499235E+04  0.17840499235E+04  0.50400001928E-02 0. -1.
    10030    2    1    2    0    0  0.00000000000E+00  0.00000000000E+00 -0.68740055291E+03  0.28806992941E+04  0.27974826010E+04 0.  0.
        4    1    3    3  502    0  0.79199562912E+03  0.72173147681E+03  0.58211168700E+03  0.12194297972E+04  0.12699999809E+01 0.  1.
       -4    1    3    3    0  502 -0.79199562912E+03 -0.72173147681E+03 -0.12695122399E+04  0.16612694969E+04  0.12699999809E+01 0. -1.
</event>
<event>
 5   0  0.1377807E-06  0.2799558E+04  0.7818609E-02  0.8303406E-01
       -2   -1    0    0    0  501  0.00000000000E+00  0.00000000000E+00  0.13249585687E+04  0.13249585687E+04  0.25500000920E-02 0.  1.
        2   -1    0    0  501    0  0.00000000000E+00  0.00000000000E+00 -0.14788246954E+04  0.14788246954E+04  0.25500000920E-02 0. -1.
    10030    2    1    2    0    0  0.00000000000E+00  0.00000000000E+00 -0.15386612666E+03  0.28037832641E+04  0.27995581450E+04 0.  0.
        2    1    3    3  502    0 -0.53615075680E+03 -0.47245602621E+03  0.11285067864E+04  0.13357394572E+04  0.25500000920E-02 0.  1.
       -2    1    3    3    0  502  0.53615075680E+03  0.47245602621E+03 -0.12823729130E+04  0.14680438069E+04  0.25500000920E-02 0. -1.
</event>
<event>
 5   0  0.1461146E-06  0.2796373E+04  0.7818609E-02  0.8304395E-01
       -2   -1    0    0    0  501  0.00000000000E+00  0.00000000000E+00  0.13710379610E+04  0.13710379610E+04  0.25500000920E-02 0.  1.
        2   -1    0    0  501    0  0.00000000000E+00  0.00000000000E+00 -0.14258722138E+04  0.14258722138E+04  0.25500000920E-02 0. -1.
    10030    2    1    2    0    0  0.00000000000E+00  0.00000000000E+00 -0.54834252725E+02  0.27969101748E+04  0.27963726022E+04 0.  0.
        1    1    3    3  502    0 -0.11358213066E+04 -0.26577397975E+03 -0.79840841205E+03  0.14135706000E+04  0.50400001928E-02 0. -1.
       -1    1    3    3    0  502  0.11358213066E+04  0.26577397975E+03  0.74357415932E+03  0.13833395748E+04  0.50400001928E-02 0.  1.
</event>
<event>
 5   0  0.5362952E-07  0.2800045E+04  0.7818609E-02  0.8303254E-01
        1   -1    0    0  501    0  0.00000000000E+00  0.00000000000E+00  0.21379211118E+04  0.21379211118E+04  0.50400001928E-02 0. -1.
       -1   -1    0    0    0  501  0.00000000000E+00  0.00000000000E+00 -0.91680822156E+03  0.91680822158E+03  0.50400001928E-02 0.  1.
    10030    2    1    2    0    0  0.00000000000E+00  0.00000000000E+00  0.12211128903E+04  0.30547293334E+04  0.28000454656E+04 0.  0.
        1    1    3    3  502    0  0.34480983903E+03  0.12310419423E+04  0.12331723930E+04  0.17762523018E+04  0.50400001928E-02 0. -1.
       -1    1    3    3    0  502 -0.34480983903E+03 -0.12310419423E+04 -0.12059502714E+02  0.12784770316E+04  0.50400001928E-02 0.  1.
</event>
<event>
 5   0  0.1377807E-06  0.2801793E+04  0.7818609E-02  0.8302712E-01
        2   -1    0    0  501    0  0.00000000000E+00  0.00000000000E+00  0.14546111571E+04  0.14546111571E+04  0.25500000920E-02 0.  1.
       -2   -1    0    0    0  501  0.00000000000E+00  0.00000000000E+00 -0.13491653465E+04  0.13491653465E+04  0.25500000920E-02 0. -1.
    10030    2    1    2    0    0  0.00000000000E+00  0.00000000000E+00  0.10544581062E+03  0.28037765036E+04  0.28017929729E+04 0.  0.
        2    1    3    3  502    0  0.10047379044E+04  0.32025648662E+03 -0.87012760752E+03  0.13671812342E+04  0.25500000920E-02 0. -1.
       -2    1    3    3    0  502 -0.10047379044E+04 -0.32025648662E+03  0.97557341814E+03  0.14365952694E+04  0.25500000920E-02 0.  1.
</event>
<event>
 5   0  0.5551565E-07  0.2795908E+04  0.7818609E-02  0.8304540E-01
        1   -1    0    0  501    0  0.00000000000E+00  0.00000000000E+00  0.26699511281E+04  0.26699511281E+04  0.50400001928E-02 0.  1.
       -1   -1    0    0    0  501  0.00000000000E+00  0.00000000000E+00 -0.73195188343E+03  0.73195188345E+03  0.50400001928E-02 0. -1.
    10030    2    1    2    0    0  0.00000000000E+00  0.00000000000E+00  0.19379992446E+04  0.34019030115E+04  0.27959082652E+04 0.  0.
        3    1    3    3  502    0 -0.98343758542E+03 -0.58001579719E+03 -0.12504350593E+02  0.11418074174E+04  0.10100000352E+00 0. -1.
       -3    1    3    3    0  502  0.98343758542E+03  0.58001579719E+03  0.19505035952E+04  0.22600955941E+04  0.10100000352E+00 0.  1.
</event>
<event>
 5   0  0.1461146E-06  0.2801942E+04  0.7818609E-02  0.8302666E-01
        2   -1    0    0  501    0  0.00000000000E+00  0.00000000000E+00  0.16847148599E+04  0.16847148599E+04  0.25500000920E-02 0. -1.
       -2   -1    0    0    0  501  0.00000000000E+00  0.00000000000E+00 -0.11650163825E+04  0.11650163825E+04  0.25500000920E-02 0.  1.
    10030    2    1    2    0    0  0.00000000000E+00  0.00000000000E+00  0.51969847742E+03  0.28497312425E+04  0.28019424774E+04 0.  0.
        1    1    3    3  502    0  0.11836408865E+04 -0.40987331145E+03  0.89802105006E+03  0.15412474448E+04  0.50400001928E-02 0. -1.
       -1    1    3    3    0  502 -0.11836408865E+04  0.40987331145E+03 -0.37832257264E+03  0.13084837977E+04  0.50400001928E-02 0.  1.
</event>
<event>
 5   0  0.5551565E-07  0.2801070E+04  0.7818609E-02  0.8302936E-01
        1   -1    0    0  501    0  0.00000000000E+00  0.00000000000E+00  0.13067780700E+04  0.13067780700E+04  0.50400001928E-02 0. -1.
       -1   -1    0    0    0  501  0.00000000000E+00  0.00000000000E+00 -0.15010186780E+04  0.15010186780E+04  0.50400001928E-02 0.  1.
    10030    2    1    2    0    0  0.00000000000E+00  0.00000000000E+00 -0.19424060801E+03  0.28077967480E+04  0.28010700035E+04 0.  0.
        3    1    3    3  502    0 -0.11375393160E+04 -0.81662903281E+03 -0.12207201075E+03  0.14056245085E+04  0.10100000352E+00 0.  1.
       -3    1    3    3    0  502  0.11375393160E+04  0.81662903281E+03 -0.72168597268E+02  0.14021722396E+04  0.10100000352E+00 0. -1.
</event>
<event>
 5   0  0.1439207E-06  0.2793908E+04  0.7818609E-02  0.8305162E-01
        2   -1    0    0  501    0  0.00000000000E+00  0.00000000000E+00  0.16854747162E+04  0.16854747162E+04  0.25500000920E-02 0.  1.
       -2   -1    0    0    0  501  0.00000000000E+00  0.00000000000E+00 -0.11578226009E+04  0.11578226009E+04  0.25500000920E-02 0. -1.
    10030    2    1    2    0    0  0.00000000000E+00  0.00000000000E+00  0.52765211526E+03  0.28432973171E+04  0.27939081729E+04 0.  0.
        5    1    3    3  502    0 -0.37988168304E+03 -0.12746827556E+04  0.69837838706E+03  0.15022918099E+04  0.46999998093E+01 0. -1.
       -5    1    3    3    0  502  0.37988168304E+03  0.12746827556E+04 -0.17072627180E+03  0.13410055072E+04  0.46999998093E+01 0.  1.
</event>
<event>
 5   0  0.1461146E-06  0.2800908E+04  0.7818609E-02  0.8302987E-01
        2   -1    0    0  501    0  0.00000000000E+00  0.00000000000E+00  0.92446879181E+03  0.92446879181E+03  0.25500000920E-02 0.  1.
       -2   -1    0    0    0  501  0.00000000000E+00  0.00000000000E+00 -0.21215112363E+04  0.21215112363E+04  0.25500000920E-02 0. -1.
    10030    2    1    2    0    0  0.00000000000E+00  0.00000000000E+00 -0.11970424445E+04  0.30459800282E+04  0.28009076597E+04 0.  0.
        1    1    3    3  502    0 -0.35418377792E+03  0.29264014094E+03 -0.20372218350E+04  0.20883862683E+04  0.50400001928E-02 0. -1.
       -1    1    3    3    0  502  0.35418377792E+03 -0.29264014094E+03  0.84017939049E+03  0.95759375983E+03  0.50400001928E-02 0.  1.
</event>
<event>
 5   0  0.5214658E-07  0.2798602E+04  0.7818609E-02  0.8303703E-01
        1   -1    0    0  501    0  0.00000000000E+00  0.00000000000E+00  0.16845950500E+04  0.16845950500E+04  0.50400001928E-02 0. -1.
       -1   -1    0    0    0  501  0.00000000000E+00  0.00000000000E+00 -0.11623225528E+04  0.11623225528E+04  0.50400001928E-02 0.  1.
    10030    2    1    2    0    0  0.00000000000E+00  0.00000000000E+00  0.52227249717E+03  0.28469176028E+04  0.27986016643E+04 0.  0.
        2    1    3    3  502    0  0.27544300921E+03 -0.11760465280E+04  0.97979481183E+03  0.15552980938E+04  0.25500000920E-02 0. -1.
       -2    1    3    3    0  502 -0.27544300921E+03  0.11760465280E+04 -0.45752231466E+03  0.12916195089E+04  0.25500000920E-02 0.  1.
</event>
<event>
 5   0  0.1377807E-06  0.2785928E+04  0.7818609E-02  0.8307651E-01
       -2   -1    0    0    0  501  0.00000000000E+00  0.00000000000E+00  0.14365009850E+04  0.14365009850E+04  0.25500000920E-02 0. -1.
        2   -1    0    0  501    0  0.00000000000E+00  0.00000000000E+00 -0.13507464554E+04  0.13507464554E+04  0.25500000920E-02 0.  1.
    10030    2    1    2    0    0  0.00000000000E+00  0.00000000000E+00  0.85754529578E+02  0.27872474404E+04  0.27859279342E+04 0.  0.
        2    1    3    3  502    0 -0.99503278950E+03  0.40789943756E+03 -0.84291002624E+03  0.13663709290E+04  0.25500000920E-02 0.  1.
       -2    1    3    3    0  502  0.99503278950E+03 -0.40789943756E+03  0.92866455582E+03  0.14208765114E+04  0.25500000920E-02 0. -1.
</event>
<event>
 5   0  0.1461146E-06  0.2799385E+04  0.7818609E-02  0.8303459E-01
        2   -1    0    0  501    0  0.00000000000E+00  0.00000000000E+00  0.16413721174E+04  0.16413721174E+04  0.25500000920E-02 0.  1.
       -2   -1    0    0    0  501  0.00000000000E+00  0.00000000000E+00 -0.11935986246E+04  0.11935986246E+04  0.25500000920E-02 0. -1.
    10030    2    1    2    0    0  0.00000000000E+00  0.00000000000E+00  0.44777349277E+03  0.28349707420E+04  0.27993852909E+04 0.  0.
        1    1    3    3  502    0  0.13246247561E+04  0.26257810491E+03 -0.14898036785E+03  0.13585923434E+04  0.50400001928E-02 0. -1.
       -1    1    3    3    0  502 -0.13246247561E+04 -0.26257810491E+03  0.59675386062E+03  0.14763783986E+04  0.50400001928E-02 0.  1.
</event>
<event>
 5   0  0.5214658E-07  0.2789202E+04  0.7818609E-02  0.8306628E-01
        1   -1    0    0  501    0  0.00000000000E+00  0.00000000000E+00  0.13591258356E+04  0.13591258356E+04  0.50400001928E-02 0. -1.
       -1   -1    0    0    0  501  0.00000000000E+00  0.00000000000E+00 -0.14310023609E+04  0.14310023609E+04  0.50400001928E-02 0.  1.
    10030    2    1    2    0    0  0.00000000000E+00  0.00000000000E+00 -0.71876525279E+02  0.27901281964E+04  0.27892022368E+04 0.  0.
        2    1    3    3  502    0 -0.16942538033E+03 -0.12596651922E+04  0.53823044261E+03  0.13802729315E+04  0.25500000920E-02 0. -1.
       -2    1    3    3    0  502  0.16942538033E+03  0.12596651922E+04 -0.61010696789E+03  0.14098552650E+04  0.25500000920E-02 0.  1.
</event>
<event>
 5   0  0.5282098E-07  0.2808610E+04  0.7818609E-02  0.8300600E-01
        1   -1    0    0  501    0  0.00000000000E+00  0.00000000000E+00  0.13375037418E+04  0.13375037418E+04  0.50400001928E-02 0.  1.
       -1   -1    0    0    0  501  0.00000000000E+00  0.00000000000E+00 -0.14744421559E+04  0.14744421559E+04  0.50400001928E-02 0. -1.
    10030    2    1    2    0    0  0.00000000000E+00  0.00000000000E+00 -0.13693841413E+03  0.28119458977E+04  0.28086095496E+04 0.  0.
        4    1    3    3  502    0 -0.10247850545E+04  0.19980517063E+03  0.87177564829E+03  0.13601841449E+04  0.12699999809E+01 0.  1.
       -4    1    3    3    0  502  0.10247850545E+04 -0.19980517063E+03 -0.10087140624E+04  0.14517617528E+04  0.12699999809E+01 0. -1.
</event>
<event>
 5   0  0.1439207E-06  0.2792035E+04  0.7818609E-02  0.8305745E-01
        2   -1    0    0  501    0  0.00000000000E+00  0.00000000000E+00  0.19925775977E+04  0.19925775977E+04  0.25500000920E-02 0. -1.
       -2   -1    0    0    0  501  0.00000000000E+00  0.00000000000E+00 -0.97806238655E+03  0.97806238655E+03  0.25500000920E-02 0.  1.
    10030    2    1    2    0    0  0.00000000000E+00  0.00000000000E+00  0.10145152111E+04  0.29706399842E+04  0.27920352438E+04 0.  0.
        5    1    3    3  502    0 -0.12179835058E+04  0.46755349121E+03 -0.21261105628E+02  0.13048234410E+04  0.46999998093E+01 0.  1.
       -5    1    3    3    0  502  0.12179835058E+04 -0.46755349121E+03  0.10357763168E+04  0.16658165433E+04  0.46999998093E+01 0. -1.
</event>
<event>
 5   0  0.5297741E-07  0.2806813E+04  0.7818609E-02  0.8301156E-01
        1   -1    0    0  501    0  0.00000000000E+00  0.00000000000E+00  0.18463862593E+04  0.18463862593E+04  0.50400001928E-02 0.  1.
       -1   -1    0    0    0  501  0.00000000000E+00  0.00000000000E+00 -0.10667055596E+04  0.10667055596E+04  0.50400001928E-02 0. -1.
    10030    2    1    2    0    0  0.00000000000E+00  0.00000000000E+00  0.77968069975E+03  0.29130918189E+04  0.28068134872E+04 0.  0.
        5    1    3    3  502    0  0.88831539704E+02  0.90917293902E+03 -0.71588322714E+03  0.11606021542E+04  0.46999998093E+01 0. -1.
       -5    1    3    3    0  502 -0.88831539704E+02 -0.90917293902E+03  0.14955639269E+04  0.17524896647E+04  0.46999998093E+01 0.  1.
</event>
<event>
 5   0  0.5551565E-07  0.2794465E+04  0.7818609E-02  0.8304989E-01
       -1   -1    0    0    0  501  0.00000000000E+00  0.00000000000E+00  0.12993999580E+04  0.12993999580E+04  0.50400001928E-02 0.  1.
        1   -1    0    0  501    0  0.00000000000E+00  0.00000000000E+00 -0.15024311126E+04  0.15024311126E+04  0.50400001928E-02 0. -1.
    10030    2    1    2    0    0  0.00000000000E+00  0.00000000000E+00 -0.20303115458E+03  0.28018310705E+04  0.27944651900E+04 0.  0.
        3    1    3    3  502    0 -0.62219778781E+02  0.89837276818E+03  0.96962337288E+03  0.13232968023E+04  0.10100000352E+00 0.  1.
       -3    1    3    3    0  502  0.62219778781E+02 -0.89837276818E+03 -0.11726545275E+04  0.14785342683E+04  0.10100000352E+00 0. -1.
</event>
<event>
 5   0  0.1499888E-06  0.2845894E+04  0.7818609E-02  0.8289160E-01
        2   -1    0    0  501    0  0.00000000000E+00  0.00000000000E+00  0.12485256024E+04  0.12485256024E+04  0.25500000920E-02 0.  1.
       -2   -1    0    0    0  501  0.00000000000E+00  0.00000000000E+00 -0.16217349922E+04  0.16217349922E+04  0.25500000920E-02 0. -1.
    10030    2    1    2    0    0  0.00000000000E+00  0.00000000000E+00 -0.37320938984E+03  0.28702605947E+04  0.28458936439E+04 0.  0.
        3    1    3    3  502    0 -0.47795174328E+03 -0.69986168729E+02  0.11633027870E+04  0.12596068105E+04  0.10100000352E+00 0.  1.
       -3    1    3    3    0  502  0.47795174328E+03  0.69986168729E+02 -0.15365121768E+04  0.16106537841E+04  0.10100000352E+00 0. -1.
</event>
<event>
 5   0  0.1439207E-06  0.2822054E+04  0.7818609E-02  0.8296454E-01
       -2   -1    0    0    0  501  0.00000000000E+00  0.00000000000E+00  0.13167852985E+04  0.13167852985E+04  0.25500000920E-02 0. -1.
        2   -1    0    0  501    0  0.00000000000E+00  0.00000000000E+00 -0.15120131208E+04  0.15120131208E+04  0.25500000920E-02 0.  1.
    10030    2    1    2    0    0  0.00000000000E+00  0.00000000000E+00 -0.19522782233E+03  0.28287984194E+04  0.28220536130E+04 0.  0.
        5    1    3    3  502    0  0.49054900964E+03 -0.67448905040E+03 -0.12384908783E+04  0.14931361477E+04  0.46999998093E+01 0.  1.
       -5    1    3    3    0  502 -0.49054900964E+03  0.67448905040E+03  0.10432630560E+04  0.13356622717E+04  0.46999998093E+01 0. -1.
</event>
<event>
 5   0  0.5297741E-07  0.2794605E+04  0.7818609E-02  0.8304945E-01
       -1   -1    0    0    0  501  0.00000000000E+00  0.00000000000E+00  0.13089219104E+04  0.13089219104E+04  0.50400001928E-02 0. -1.
        1   -1    0    0  501    0  0.00000000000E+00  0.00000000000E+00 -0.14916504991E+04  0.14916504991E+04  0.50400001928E-02 0.  1.
    10030    2    1    2    0    0  0.00000000000E+00  0.00000000000E+00 -0.18272858874E+03  0.28005724095E+04  0.27946048171E+04 0.  0.
        5    1    3    3  502    0  0.13922137935E+04 -0.66224208763E+02  0.77764203070E+01  0.13938175832E+04  0.46999998093E+01 0.  1.
       -5    1    3    3    0  502 -0.13922137935E+04  0.66224208763E+02 -0.19050500905E+03  0.14067548262E+04  0.46999998093E+01 0. -1.
</event>
<event>
 5   0  0.5214658E-07  0.2800316E+04  0.7818609E-02  0.8303170E-01
        1   -1    0    0  501    0  0.00000000000E+00  0.00000000000E+00  0.10429125768E+04  0.10429125768E+04  0.50400001928E-02 0. -1.
       -1   -1    0    0    0  501  0.00000000000E+00  0.00000000000E+00 -0.18797759080E+04  0.18797759080E+04  0.50400001928E-02 0.  1.
    10030    2    1    2    0    0  0.00000000000E+00  0.00000000000E+00 -0.83686333123E+03  0.29226884848E+04  0.28003156508E+04 0.  0.
        2    1    3    3  502    0  0.12684276283E+04 -0.30030124191E+03  0.11513517304E+03  0.13085662353E+04  0.25500000920E-02 0. -1.
       -2    1    3    3    0  502 -0.12684276283E+04  0.30030124191E+03 -0.95199850427E+03  0.16141222495E+04  0.25500000920E-02 0.  1.
</event>
<event>
 5   0  0.1394410E-06  0.2798670E+04  0.7818609E-02  0.8303681E-01
       -2   -1    0    0    0  501  0.00000000000E+00  0.00000000000E+00  0.10660008665E+04  0.10660008665E+04  0.25500000920E-02 0.  1.
        2   -1    0    0  501    0  0.00000000000E+00  0.00000000000E+00 -0.18369017564E+04  0.18369017564E+04  0.25500000920E-02 0. -1.
    10030    2    1    2    0    0  0.00000000000E+00  0.00000000000E+00 -0.77090088990E+03  0.29029026230E+04  0.27986703015E+04 0.  0.
        4    1    3    3  502    0  0.32325414116E+03 -0.13605931970E+04 -0.43658311806E+03  0.14650302111E+04  0.12699999809E+01 0.  1.
       -4    1    3    3    0  502 -0.32325414116E+03  0.13605931970E+04 -0.33431777184E+03  0.14378724119E+04  0.12699999809E+01 0. -1.
</event>
<event>
 5   0  0.1439207E-06  0.2793816E+04  0.7818609E-02  0.8305191E-01
       -2   -1    0    0    0  501  0.00000000000E+00  0.00000000000E+00  0.11031376697E+04  0.11031376697E+04  0.25500000920E-02 0. -1.
        2   -1    0    0  501    0  0.00000000000E+00  0.00000000000E+00 -0.17689101836E+04  0.17689101836E+04  0.25500000920E-02 0.  1.
    10030    2    1    2    0    0  0.00000000000E+00  0.00000000000E+00 -0.66577251392E+03  0.28720478532E+04  0.27938156401E+04 0.  0.
        5    1    3    3  502    0 -0.57318813671E+03 -0.11482652043E+04  0.23416816622E+03  0.13045744285E+04  0.46999998093E+01 0. -1.
       -5    1    3    3    0  502  0.57318813671E+03  0.11482652043E+04 -0.89994068014E+03  0.15674734247E+04  0.46999998093E+01 0.  1.
</event>
<event>
 5   0  0.5362952E-07  0.2804564E+04  0.7818609E-02  0.8301853E-01
       -1   -1    0    0    0  501  0.00000000000E+00  0.00000000000E+00  0.15671682696E+04  0.15671682696E+04  0.50400001928E-02 0.  1.
        1   -1    0    0  501    0  0.00000000000E+00  0.00000000000E+00 -0.12547435852E+04  0.12547435852E+04  0.50400001928E-02 0. -1.
    10030    2    1    2    0    0  0.00000000000E+00  0.00000000000E+00  0.31242468444E+03  0.28219118548E+04  0.28045636618E+04 0.  0.
        1    1    3    3  502    0 -0.98847653473E+03  0.45873409382E+03  0.10442084230E+04  0.15092693793E+04  0.50400001928E-02 0.  1.
       -1    1    3    3    0  502  0.98847653473E+03 -0.45873409382E+03 -0.73178373858E+03  0.13126424755E+04  0.50400001928E-02 0. -1.
</event>
<event>
 5   0  0.1377807E-06  0.2798546E+04  0.7818609E-02  0.8303720E-01
        2   -1    0    0  501    0  0.00000000000E+00  0.00000000000E+00  0.17005810448E+04  0.17005810448E+04  0.25500000920E-02 0. -1.
       -2   -1    0    0    0  501  0.00000000000E+00  0.00000000000E+00 -0.11513506862E+04  0.11513506862E+04  0.25500000920E-02 0.  1.
    10030    2    1    2    0    0  0.00000000000E+00  0.00000000000E+00  0.54923035857E+03  0.28519317310E+04  0.27985461604E+04 0.  0.
        2    1    3    3  502    0 -0.39680614309E+01 -0.57742730850E+03 -0.10242681183E+04  0.11758244854E+04  0.25500000920E-02 0.  1.
       -2    1    3    3    0  502  0.39680614309E+01  0.57742730850E+03  0.15734984769E+04  0.16761072457E+04  0.25500000920E-02 0. -1.
</event>
<event>
 5   0  0.5214658E-07  0.2798396E+04  0.7818609E-02  0.8303767E-01
       -1   -1    0    0    0  501  0.00000000000E+00  0.00000000000E+00  0.16505636868E+04  0.16505636868E+04  0.50400001928E-02 0.  1.
        1   -1    0    0  501    0  0.00000000000E+00  0.00000000000E+00 -0.11861128964E+04  0.11861128964E+04  0.50400001928E-02 0. -1.
    10030    2    1    2    0    0  0.00000000000E+00  0.00000000000E+00  0.46445079040E+03  0.28366765833E+04  0.27983958801E+04 0.  0.
        2    1    3    3  502    0  0.27313645799E+03 -0.12364980096E+04 -0.37108342748E+03  0.13195581694E+04  0.25500000920E-02 0. -1.
       -2    1    3    3    0  502 -0.27313645799E+03  0.12364980096E+04  0.83553421788E+03  0.15171184139E+04  0.25500000920E-02 0.  1.
</event>
<event>
 5   0  0.1461146E-06  0.2798995E+04  0.7818609E-02  0.8303581E-01
       -2   -1    0    0    0  501  0.00000000000E+00  0.00000000000E+00  0.11496743548E+04  0.11496743548E+04  0.25500000920E-02 0. -1.
        2   -1    0    0  501    0  0.00000000000E+00  0.00000000000E+00 -0.17036065952E+04  0.17036065952E+04  0.25500000920E-02 0.  1.
    10030    2    1    2    0    0  0.00000000000E+00  0.00000000000E+00 -0.55393224041E+03  0.28532809501E+04  0.27989946861E+04 0.  0.
        1    1    3    3  502    0 -0.50004163528E+01  0.13992459600E+04 -0.25041186399E+03  0.14214852664E+04  0.50400001928E-02 0. -1.
       -1    1    3    3    0  502  0.50004163528E+01 -0.13992459600E+04 -0.30352037642E+03  0.14317956837E+04  0.50400001928E-02 0.  1.
</event>
<event>
 5   0  0.5551565E-07  0.2829050E+04  0.7818609E-02  0.8294306E-01
        1   -1    0    0  501    0  0.00000000000E+00  0.00000000000E+00  0.21907999705E+04  0.21907999705E+04  0.50400001928E-02 0.  1.
       -1   -1    0    0    0  501  0.00000000000E+00  0.00000000000E+00 -0.91331057738E+03  0.91331057739E+03  0.50400001928E-02 0. -1.
    10030    2    1    2    0    0  0.00000000000E+00  0.00000000000E+00  0.12774893931E+04  0.31041105479E+04  0.28290498660E+04 0.  0.
        3    1    3    3  502    0 -0.12185987054E+04 -0.52208248319E+03  0.11799879400E+04  0.17748026575E+04  0.10100000352E+00 0.  1.
       -3    1    3    3    0  502  0.12185987054E+04  0.52208248319E+03  0.97501453103E+02  0.13293078905E+04  0.10100000352E+00 0. -1.
</event>
<event>
 5   0  0.5551565E-07  0.2798064E+04  0.7818609E-02  0.8303870E-01
       -1   -1    0    0    0  501  0.00000000000E+00  0.00000000000E+00  0.93913013666E+03  0.93913013667E+03  0.50400001928E-02 0.  1.
        1   -1    0    0  501    0  0.00000000000E+00  0.00000000000E+00 -0.20841525632E+04  0.20841525632E+04  0.50400001928E-02 0. -1.
    10030    2    1    2    0    0  0.00000000000E+00  0.00000000000E+00 -0.11450224265E+04  0.30232826999E+04  0.27980639603E+04 0.  0.
        3    1    3    3  502    0  0.51869386464E+01 -0.10066106207E+04  0.47728935161E+03  0.11140453229E+04  0.10100000352E+00 0.  1.
       -3    1    3    3    0  502 -0.51869386464E+01  0.10066106207E+04 -0.16223117781E+04  0.19092373770E+04  0.10100000352E+00 0. -1.
</event>
<event>
 5   0  0.1394410E-06  0.2810213E+04  0.7818609E-02  0.8300105E-01
       -2   -1    0    0    0  501  0.00000000000E+00  0.00000000000E+00  0.12806710483E+04  0.12806710483E+04  0.25500000920E-02 0.  1.
        2   -1    0    0  501    0  0.00000000000E+00  0.00000000000E+00 -0.15416321594E+04  0.15416321594E+04  0.25500000920E-02 0. -1.
    10030    2    1    2    0    0  0.00000000000E+00  0.00000000000E+00 -0.26096111106E+03  0.28223032078E+04  0.28102125711E+04 0.  0.
        4    1    3    3  502    0 -0.93654112069E+03 -0.24313026905E+03 -0.11537362952E+04  0.15057658020E+04  0.12699999809E+01 0. -1.
       -4    1    3    3    0  502  0.93654112069E+03  0.24313026905E+03  0.89277518418E+03  0.13165374058E+04  0.12699999809E+01 0.  1.
</event>
<event>
 5   0  0.1461146E-06  0.2804527E+04  0.7818609E-02  0.8301864E-01
       -2   -1    0    0    0  501  0.00000000000E+00  0.00000000000E+00  0.97410038361E+03  0.97410038361E+03  0.25500000920E-02 0. -1.
        2   -1    0    0  501    0  0.00000000000E+00  0.00000000000E+00 -0.20186241782E+04  0.20186241782E+04  0.25500000920E-02 0.  1.
    10030    2    1    2    0    0  0.00000000000E+00  0.00000000000E+00 -0.10445237946E+04  0.29927245618E+04  0.28045267596E+04 0.  0.
        1    1    3    3  502    0  0.30095908217E+02  0.13623360775E+04 -0.16918518906E+03  0.13731310862E+04  0.50400001928E-02 0. -1.
       -1    1    3    3    0  502 -0.30095908217E+02 -0.13623360775E+04 -0.87533860555E+03  0.16195934756E+04  0.50400001928E-02 0.  1.
</event>
<event>
 5   0  0.5214658E-07  0.2751364E+04  0.7818609E-02  0.8318529E-01
       -1   -1    0    0    0  501  0.00000000000E+00  0.00000000000E+00  0.93009706701E+03  0.93009706702E+03  0.50400001928E-02 0.  1.
        1   -1    0    0  501    0  0.00000000000E+00  0.00000000000E+00 -0.20347355792E+04  0.20347355792E+04  0.50400001928E-02 0. -1.
    10030    2    1    2    0    0  0.00000000000E+00  0.00000000000E+00 -0.11046385122E+04  0.29648326462E+04  0.27513644574E+04 0.  0.
        2    1    3    3  502    0  0.13647020535E+04 -0.16927505837E+03 -0.59315187224E+03  0.14976297553E+04  0.25500000920E-02 0. -1.
       -2    1    3    3    0  502 -0.13647020535E+04  0.16927505837E+03 -0.51148663991E+03  0.14672028909E+04  0.25500000920E-02 0.  1.
</event>
<event>
 5   0  0.5282098E-07  0.2798870E+04  0.7818609E-02  0.8303619E-01
        1   -1    0    0  501    0  0.00000000000E+00  0.00000000000E+00  0.12481004406E+04  0.12481004406E+04  0.50400001928E-02 0.  1.
       -1   -1    0    0    0  501  0.00000000000E+00  0.00000000000E+00 -0.15691186211E+04  0.15691186211E+04  0.50400001928E-02 0. -1.
    10030    2    1    2    0    0  0.00000000000E+00  0.00000000000E+00 -0.32101818050E+03  0.28172190617E+04  0.27988695164E+04 0.  0.
        4    1    3    3  502    0  0.41745900962E+03 -0.81591522083E+03 -0.12249992786E+04  0.15299067023E+04  0.12699999809E+01 0. -1.
       -4    1    3    3    0  502 -0.41745900962E+03  0.81591522083E+03  0.90398109806E+03  0.12873123595E+04  0.12699999809E+01 0.  1.
</event>
<event>
 5   0  0.5297741E-07  0.2799424E+04  0.7818609E-02  0.8303447E-01
       -1   -1    0    0    0  501  0.00000000000E+00  0.00000000000E+00  0.92787506772E+03  0.92787506773E+03  0.50400001928E-02 0. -1.
        1   -1    0    0  501    0  0.00000000000E+00  0.00000000000E+00 -0.21114842245E+04  0.21114842245E+04  0.50400001928E-02 0.  1.
    10030    2    1    2    0    0  0.00000000000E+00  0.00000000000E+00 -0.11836091567E+04  0.30393592922E+04  0.27994239177E+04 0.  0.
        5    1    3    3  502    0  0.10624279811E+04 -0.49422426370E+03 -0.14230355181E+04  0.18433835774E+04  0.46999998093E+01 0.  1.
       -5    1    3    3    0  502 -0.10624279811E+04  0.49422426370E+03  0.23942636137E+03  0.11959757148E+04  0.46999998093E+01 0. -1.
</event>
<event>
 5   0  0.1377807E-06  0.2798497E+04  0.7818609E-02  0.8303735E-01
       -2   -1    0    0    0  501  0.00000000000E+00  0.00000000000E+00  0.80729376423E+03  0.80729376424E+03  0.25500000920E-02 0. -1.
        2   -1    0    0  501    0  0.00000000000E+00  0.00000000000E+00 -0.24252587278E+04  0.24252587278E+04  0.25500000920E-02 0.  1.
    10030    2    1    2    0    0  0.00000000000E+00  0.00000000000E+00 -0.16179649636E+04  0.32325524921E+04  0.27984969163E+04 0.  0.
        2    1    3    3  502    0 -0.12964699591E+04  0.50875997300E+03 -0.96492218368E+03  0.16943275614E+04  0.25500000920E-02 0. -1.
       -2    1    3    3    0  502  0.12964699591E+04 -0.50875997300E+03 -0.65304277992E+03  0.15382249306E+04  0.25500000920E-02 0.  1.
</event>
<event>
 5   0  0.5282098E-07  0.2799061E+04  0.7818609E-02  0.8303560E-01
       -1   -1    0    0    0  501  0.00000000000E+00  0.00000000000E+00  0.23422433473E+04  0.23422433474E+04  0.50400001928E-02 0.  1.
        1   -1    0    0  501    0  0.00000000000E+00  0.00000000000E+00 -0.83624372211E+03  0.83624372213E+03  0.50400001928E-02 0. -1.
    10030    2    1    2    0    0  0.00000000000E+00  0.00000000000E+00  0.15059996252E+04  0.31784870695E+04  0.27990614819E+04 0.  0.
        4    1    3    3  502    0  0.44306284539E+02 -0.76614712772E+03  0.20820063407E+04  0.22189403966E+04  0.12699999809E+01 0.  1.
       -4    1    3    3    0  502 -0.44306284539E+02  0.76614712772E+03 -0.57600671548E+03  0.95954667284E+03  0.12699999809E+01 0. -1.
</event>
<event>
 5   0  0.1439207E-06  0.2799425E+04  0.7818609E-02  0.8303447E-01
       -2   -1    0    0    0  501  0.00000000000E+00  0.00000000000E+00  0.92841743556E+03  0.92841743556E+03  0.25500000920E-02 0.  1.
        2   -1    0    0  501    0  0.00000000000E+00  0.00000000000E+00 -0.21102525750E+04  0.21102525750E+04  0.25500000920E-02 0. -1.
    10030    2    1    2    0    0  0.00000000000E+00  0.00000000000E+00 -0.11818351395E+04  0.30386700106E+04  0.27994251439E+04 0.  0.
        5    1    3    3  502    0 -0.35009916226E+03  0.12266701090E+04  0.34410579281E+02  0.12761250557E+04  0.46999998093E+01 0.  1.
       -5    1    3    3    0  502  0.35009916226E+03 -0.12266701090E+04 -0.12162457188E+04  0.17625449549E+04  0.46999998093E+01 0. -1.
</event>
<event>
 5   0  0.5297741E-07  0.2776917E+04  0.7818609E-02  0.8310471E-01
        1   -1    0    0  501    0  0.00000000000E+00  0.00000000000E+00  0.15252669501E+04  0.15252669501E+04  0.50400001928E-02 0. -1.
       -1   -1    0    0    0  501  0.00000000000E+00  0.00000000000E+00 -0.12639210694E+04  0.12639210694E+04  0.50400001928E-02 0.  1.
    10030    2    1    2    0    0  0.00000000000E+00  0.00000000000E+00  0.26134588074E+03  0.27891880195E+04  0.27769170205E+04 0.  0.
        5    1    3    3  502    0  0.52233048446E+03  0.30752224976E+03 -0.11240050671E+04  0.12770311468E+04  0.46999998093E+01 0.  1.
       -5    1    3    3    0  502 -0.52233048446E+03 -0.30752224976E+03  0.13853509478E+04  0.15121568727E+04  0.46999998093E+01 0. -1.
</event>
<event>
 5   0  0.5362952E-07  0.2800425E+04  0.7818609E-02  0.8303136E-01
        1   -1    0    0  501    0  0.00000000000E+00  0.00000000000E+00  0.11906561445E+04  0.11906561445E+04  0.50400001928E-02 0. -1.
       -1   -1    0    0    0  501  0.00000000000E+00  0.00000000000E+00 -0.16466511197E+04  0.16466511197E+04  0.50400001928E-02 0.  1.
    10030    2    1    2    0    0  0.00000000000E+00  0.00000000000E+00 -0.45599497525E+03  0.28373072642E+04  0.28004251631E+04 0.  0.
        1    1    3    3  502    0  0.84323664666E+03  0.39735883543E+03 -0.12865800656E+04  0.15887826634E+04  0.50400001928E-02 0.  1.
       -1    1    3    3    0  502 -0.84323664666E+03 -0.39735883543E+03  0.83058509035E+03  0.12485246008E+04  0.50400001928E-02 0. -1.
</event>
<event>
 5   0  0.1377807E-06  0.2794223E+04  0.7818609E-02  0.8305064E-01
       -2   -1    0    0    0  501  0.00000000000E+00  0.00000000000E+00  0.13449877064E+04  0.13449877064E+04  0.25500000920E-02 0. -1.
        2   -1    0    0  501    0  0.00000000000E+00  0.00000000000E+00 -0.14512557698E+04  0.14512557698E+04  0.25500000920E-02 0.  1.
    10030    2    1    2    0    0  0.00000000000E+00  0.00000000000E+00 -0.10626806342E+03  0.27962434762E+04  0.27942234479E+04 0.  0.
        2    1    3    3  502    0 -0.13596211168E+04 -0.11686475296E+03  0.24657240714E+03  0.13867317346E+04  0.25500000920E-02 0.  1.
       -2    1    3    3    0  502  0.13596211168E+04  0.11686475296E+03 -0.35284047055E+03  0.14095117415E+04  0.25500000920E-02 0. -1.
</event>
<event>
 5   0  0.5297741E-07  0.2799284E+04  0.7818609E-02  0.8303491E-01
        1   -1    0    0  501    0  0.00000000000E+00  0.00000000000E+00  0.24402654450E+04  0.24402654450E+04  0.50400001928E-02 0.  1.
       -1   -1    0    0    0  501  0.00000000000E+00  0.00000000000E+00 -0.80278044944E+03  0.80278044945E+03  0.50400001928E-02 0. -1.
    10030    2    1    2    0    0  0.00000000000E+00  0.00000000000E+00  0.16374849955E+04  0.32430458944E+04  0.27992837589E+04 0.  0.
        5    1    3    3  502    0 -0.99570632616E+03 -0.97470443000E+03  0.66550354102E+03  0.15441492373E+04  0.46999998093E+01 0.  1.
       -5    1    3    3    0  502  0.99570632616E+03  0.97470443000E+03  0.97198145450E+03  0.16988966572E+04  0.46999998093E+01 0. -1.
</event>
<event>
 5   0  0.1461146E-06  0.2799021E+04  0.7818609E-02  0.8303572E-01
       -2   -1    0    0    0  501  0.00000000000E+00  0.00000000000E+00  0.10872464195E+04  0.10872464195E+04  0.25500000920E-02 0. -1.
        2   -1    0    0  501    0  0.00000000000E+00  0.00000000000E+00 -0.18014588412E+04  0.18014588412E+04  0.25500000920E-02 0.  1.
    10030    2    1    2    0    0  0.00000000000E+00  0.00000000000E+00 -0.71421242172E+03  0.28887052607E+04  0.27990210253E+04 0.  0.
        1    1    3    3  502    0  0.39301650536E+03  0.77677879766E+03  0.77380687321E+03  0.11647421822E+04  0.50400001928E-02 0. -1.
       -1    1    3    3    0  502 -0.39301650536E+03 -0.77677879766E+03 -0.14880192949E+04  0.17239630785E+04  0.50400001928E-02 0.  1.
</event>
<event>
 5   0  0.5362952E-07  0.2798417E+04  0.7818609E-02  0.8303760E-01
       -1   -1    0    0    0  501  0.00000000000E+00  0.00000000000E+00  0.12179084525E+04  0.12179084525E+04  0.50400001928E-02 0. -1.
        1   -1    0    0  501    0  0.00000000000E+00  0.00000000000E+00 -0.16074967186E+04  0.16074967186E+04  0.50400001928E-02 0.  1.
    10030    2    1    2    0    0  0.00000000000E+00  0.00000000000E+00 -0.38958826615E+03  0.28254051711E+04  0.27984165815E+04 0.  0.
        1    1    3    3  502    0  0.37789573280E+03  0.21789453171E+03 -0.15370897088E+04  0.15977884668E+04  0.50400001928E-02 0.  1.
       -1    1    3    3    0  502 -0.37789573280E+03 -0.21789453171E+03  0.11475014426E+04  0.12276167043E+04  0.50400001928E-02 0. -1.
</event>
<event>
 5   0  0.5214658E-07  0.2797510E+04  0.7818609E-02  0.8304042E-01
       -1   -1    0    0    0  501  0.00000000000E+00  0.00000000000E+00  0.14374913855E+04  0.14374913855E+04  0.50400001928E-02 0.  1.
        1   -1    0    0  501    0  0.00000000000E+00  0.00000000000E+00 -0.13610623981E+04  0.13610623981E+04  0.50400001928E-02 0. -1.
    10030    2    1    2    0    0  0.00000000000E+00  0.00000000000E+00  0.76428987386E+02  0.27985537837E+04  0.27975099446E+04 0.  0.
        2    1    3    3  502    0  0.10573743118E+04 -0.83096164804E+03 -0.34660783883E+03  0.13887673274E+04  0.25500000920E-02 0. -1.
       -2    1    3    3    0  502 -0.10573743118E+04  0.83096164804E+03  0.42303682622E+03  0.14097864562E+04  0.25500000920E-02 0.  1.
</event>
<event>
 5   0  0.1394410E-06  0.2802993E+04  0.7818609E-02  0.8302340E-01
       -2   -1    0    0    0  501  0.00000000000E+00  0.00000000000E+00  0.22686867495E+04  0.22686867495E+04  0.25500000920E-02 0.  1.
        2   -1    0    0  501    0  0.00000000000E+00  0.00000000000E+00 -0.86578395680E+03  0.86578395680E+03  0.25500000920E-02 0. -1.
    10030    2    1    2    0    0  0.00000000000E+00  0.00000000000E+00  0.14029027927E+04  0.31344707063E+04  0.28029931079E+04 0.  0.
        4    1    3    3  502    0  0.36106720718E+03  0.62892720597E+03 -0.63965335551E+03  0.96699378831E+03  0.12699999809E+01 0. -1.
       -4    1    3    3    0  502 -0.36106720718E+03 -0.62892720597E+03  0.20425561482E+04  0.21674769180E+04  0.12699999809E+01 0.  1.
</event>
<event>
 5   0  0.1377807E-06  0.2793491E+04  0.7818609E-02  0.8305292E-01
        2   -1    0    0  501    0  0.00000000000E+00  0.00000000000E+00  0.21580391742E+04  0.21580391742E+04  0.25500000920E-02 0.  1.
       -2   -1    0    0    0  501  0.00000000000E+00  0.00000000000E+00 -0.90401398328E+03  0.90401398329E+03  0.25500000920E-02 0. -1.
    10030    2    1    2    0    0  0.00000000000E+00  0.00000000000E+00  0.12540251910E+04  0.30620531575E+04  0.27934907124E+04 0.  0.
        2    1    3    3  502    0 -0.28550476130E+03 -0.36660722582E+03 -0.81680789663E+03  0.93972813449E+03  0.25500000920E-02 0. -1.
       -2    1    3    3    0  502  0.28550476130E+03  0.36660722582E+03  0.20708330876E+04  0.21223250230E+04  0.25500000920E-02 0.  1.
</event>
<event>
 5   0  0.1394410E-06  0.2801613E+04  0.7818609E-02  0.8302768E-01
        2   -1    0    0  501    0  0.00000000000E+00  0.00000000000E+00  0.29623009907E+04  0.29623009907E+04  0.25500000920E-02 0.  1.
       -2   -1    0    0    0  501  0.00000000000E+00  0.00000000000E+00 -0.66241042952E+03  0.66241042952E+03  0.25500000920E-02 0. -1.
    10030    2    1    2    0    0  0.00000000000E+00  0.00000000000E+00  0.22998905612E+04  0.36247114202E+04  0.28016131579E+04 0.  0.
        4    1    3    3  502    0  0.12453913054E+04 -0.16798654693E+03  0.34921460269E+03  0.13042896285E+04  0.12699999809E+01 0. -1.
       -4    1    3    3    0  502 -0.12453913054E+04  0.16798654693E+03  0.19506759585E+04  0.23204217917E+04  0.12699999809E+01 0.  1.
</event>
<event>
 5   0  0.5214658E-07  0.2784814E+04  0.7818609E-02  0.8307999E-01
        1   -1    0    0  501    0  0.00000000000E+00  0.00000000000E+00  0.17776905592E+04  0.17776905592E+04  0.50400001928E-02 0. -1.
       -1   -1    0    0    0  501  0.00000000000E+00  0.00000000000E+00 -0.10906268451E+04  0.10906268451E+04  0.50400001928E-02 0.  1.
    10030    2    1    2    0    0  0.00000000000E+00  0.00000000000E+00  0.68706371411E+03  0.28683174043E+04  0.27848138509E+04 0.  0.
        2    1    3    3  502    0  0.12016160046E+04  0.70267912286E+03  0.37858275761E+03  0.14425546355E+04  0.25500000920E-02 0. -1.
       -2    1    3    3    0  502 -0.12016160046E+04 -0.70267912286E+03  0.30848095650E+03  0.14257627687E+04  0.25500000920E-02 0.  1.
</event>
<event>
 5   0  0.1461146E-06  0.2800110E+04  0.7818609E-02  0.8303234E-01
        2   -1    0    0  501    0  0.00000000000E+00  0.00000000000E+00  0.14529203840E+04  0.14529203840E+04  0.25500000920E-02 0.  1.
       -2   -1    0    0    0  501  0.00000000000E+00  0.00000000000E+00 -0.13491134426E+04  0.13491134426E+04  0.25500000920E-02 0. -1.
    10030    2    1    2    0    0  0.00000000000E+00  0.00000000000E+00  0.10380694139E+03  0.28020338267E+04  0.28001102987E+04 0.  0.
        1    1    3    3  502    0  0.71518877165E+03  0.10806133601E+04 -0.47849290427E+03  0.13813673199E+04  0.50400001928E-02 0. -1.
       -1    1    3    3    0  502 -0.71518877165E+03 -0.10806133601E+04  0.58229984566E+03  0.14206665068E+04  0.50400001928E-02 0.  1.
</event>
<event>
 5   0  0.5282098E-07  0.2795706E+04  0.7818609E-02  0.8304603E-01
        1   -1    0    0  501    0  0.00000000000E+00  0.00000000000E+00  0.16651856360E+04  0.16651856360E+04  0.50400001928E-02 0.  1.
       -1   -1    0    0    0  501  0.00000000000E+00  0.00000000000E+00 -0.11734388072E+04  0.11734388072E+04  0.50400001928E-02 0. -1.
    10030    2    1    2    0    0  0.00000000000E+00  0.00000000000E+00  0.49174682880E+03  0.28386244432E+04  0.27957063126E+04 0.  0.
        4    1    3    3  502    0  0.14853010980E+03  0.11643118637E+04  0.10166773310E+04  0.15528418199E+04  0.12699999809E+01 0.  1.
       -4    1    3    3    0  502 -0.14853010980E+03 -0.11643118637E+04 -0.52493050223E+03  0.12857826233E+04  0.12699999809E+01 0. -1.
</event>
<event>
 5   0  0.5214658E-07  0.2796761E+04  0.7818609E-02  0.8304275E-01
        1   -1    0    0  501    0  0.00000000000E+00  0.00000000000E+00  0.24256273774E+04  0.24256273774E+04  0.50400001928E-02 0.  1.
       -1   -1    0    0    0  501  0.00000000000E+00  0.00000000000E+00 -0.80617003012E+03  0.80617003013E+03  0.50400001928E-02 0. -1.
    10030    2    1    2    0    0  0.00000000000E+00  0.00000000000E+00  0.16194573473E+04  0.32317974075E+04  0.27967610523E+04 0.  0.
        2    1    3    3  502    0  0.22505067386E+03 -0.28996783661E+03 -0.74951002851E+03  0.83456242122E+03  0.25500000920E-02 0. -1.
       -2    1    3    3    0  502 -0.22505067386E+03  0.28996783661E+03  0.23689673758E+04  0.23972349863E+04  0.25500000920E-02 0.  1.
</event>
<event>
 5   0  0.5362952E-07  0.2797231E+04  0.7818609E-02  0.8304129E-01
        1   -1    0    0  501    0  0.00000000000E+00  0.00000000000E+00  0.17687595658E+04  0.17687595658E+04  0.50400001928E-02 0.  1.
       -1   -1    0    0    0  501  0.00000000000E+00  0.00000000000E+00 -0.11059302205E+04  0.11059302206E+04  0.50400001928E-02 0. -1.
    10030    2    1    2    0    0  0.00000000000E+00  0.00000000000E+00  0.66282934528E+03  0.28746897864E+04  0.27972305280E+04 0.  0.
        1    1    3    3  502    0 -0.15509160004E+03 -0.39374883807E+03  0.17013828711E+04  0.17532242372E+04  0.50400001928E-02 0.  1.
       -1    1    3    3    0  502  0.15509160004E+03  0.39374883807E+03 -0.10385535258E+04  0.11214655491E+04  0.50400001928E-02 0. -1.
</event>
<event>
 5   0  0.1461146E-06  0.2796193E+04  0.7818609E-02  0.8304451E-01
        2   -1    0    0  501    0  0.00000000000E+00  0.00000000000E+00  0.16479185448E+04  0.16479185448E+04  0.25500000920E-02 0.  1.
       -2   -1    0    0    0  501  0.00000000000E+00  0.00000000000E+00 -0.11861472749E+04  0.11861472749E+04  0.25500000920E-02 0. -1.
    10030    2    1    2    0    0  0.00000000000E+00  0.00000000000E+00  0.46177126986E+03  0.28340658197E+04  0.27961931916E+04 0.  0.
        1    1    3    3  502    0  0.12632768620E+04 -0.54895574311E+03 -0.12054948812E+02  0.13774491496E+04  0.50400001928E-02 0. -1.
       -1    1    3    3    0  502 -0.12632768620E+04  0.54895574311E+03  0.47382621867E+03  0.14566166701E+04  0.50400001928E-02 0.  1.
</event>
<event>
 5   0  0.5551565E-07  0.2800791E+04  0.7818609E-02  0.8303023E-01
        1   -1    0    0  501    0  0.00000000000E+00  0.00000000000E+00  0.10236410561E+04  0.10236410561E+04  0.50400001928E-02 0.  1.
       -1   -1    0    0    0  501  0.00000000000E+00  0.00000000000E+00 -0.19158155789E+04  0.19158155789E+04  0.50400001928E-02 0. -1.
    10030    2    1    2    0    0  0.00000000000E+00  0.00000000000E+00 -0.89217452282E+03  0.29394566351E+04  0.28007909473E+04 0.  0.
        3    1    3    3  502    0 -0.56879574412E+03  0.61975735954E+03  0.72893207665E+03  0.11130901876E+04  0.10100000352E+00 0.  1.
       -3    1    3    3    0  502  0.56879574412E+03 -0.61975735954E+03 -0.16211065995E+04  0.18263664474E+04  0.10100000352E+00 0. -1.
</event>
<event>
 5   0  0.5297741E-07  0.2801148E+04  0.7818609E-02  0.8302912E-01
       -1   -1    0    0    0  501  0.00000000000E+00  0.00000000000E+00  0.12953116034E+04  0.12953116034E+04  0.50400001928E-02 0. -1.
        1   -1    0    0  501    0  0.00000000000E+00  0.00000000000E+00 -0.15143904511E+04  0.15143904511E+04  0.50400001928E-02 0.  1.
    10030    2    1    2    0    0  0.00000000000E+00  0.00000000000E+00 -0.21907884769E+03  0.28097020545E+04  0.28011479957E+04 0.  0.
        5    1    3    3  502    0  0.28013955957E+03 -0.39756165846E+03  0.12078837791E+04  0.13021285494E+04  0.46999998093E+01 0. -1.
       -5    1    3    3    0  502 -0.28013955957E+03  0.39756165846E+03 -0.14269626268E+04  0.15075735052E+04  0.46999998093E+01 0.  1.
</event>
<event>
 5   0  0.5551565E-07  0.2799128E+04  0.7818609E-02  0.8303539E-01
       -1   -1    0    0    0  501  0.00000000000E+00  0.00000000000E+00  0.28098307927E+04  0.28098307928E+04  0.50400001928E-02 0. -1.
        1   -1    0    0  501    0  0.00000000000E+00  0.00000000000E+00 -0.69711636037E+03  0.69711636039E+03  0.50400001928E-02 0.  1.
    10030    2    1    2    0    0  0.00000000000E+00  0.00000000000E+00  0.21127144324E+04  0.35069471531E+04  0.27991277324E+04 0.  0.
        3    1    3    3  502    0 -0.70829219446E+03  0.10493158385E+04  0.18039314795E+04  0.22038399113E+04  0.10100000352E+00 0. -1.
       -3    1    3    3    0  502  0.70829219446E+03 -0.10493158385E+04  0.30878295288E+03  0.13031072419E+04  0.10100000352E+00 0.  1.
</event>
<event>
 5   0  0.1377807E-06  0.2806660E+04  0.7818609E-02  0.8301204E-01
       -2   -1    0    0    0  501  0.00000000000E+00  0.00000000000E+00  0.80491550279E+03  0.80491550279E+03  0.25500000920E-02 0.  1.
        2   -1    0    0  501    0  0.00000000000E+00  0.00000000000E+00 -0.24466363717E+04  0.24466363717E+04  0.25500000920E-02 0. -1.
    10030    2    1    2    0    0  0.00000000000E+00  0.00000000000E+00 -0.16417208689E+04  0.32515518745E+04  0.28066603252E+04 0.  0.
        2    1    3    3  502    0 -0.23598846883E+03 -0.36591129885E+03 -0.23664024266E+04  0.24061259486E+04  0.25500000920E-02 0. -1.
       -2    1    3    3    0  502  0.23598846883E+03  0.36591129885E+03  0.72468155769E+03  0.84542592586E+03  0.25500000920E-02 0.  1.
</event>
<event>
 5   0  0.1377807E-06  0.2801291E+04  0.7818609E-02  0.8302868E-01
        2   -1    0    0  501    0  0.00000000000E+00  0.00000000000E+00  0.11659396005E+04  0.11659396005E+04  0.25500000920E-02 0.  1.
       -2   -1    0    0    0  501  0.00000000000E+00  0.00000000000E+00 -0.16825977956E+04  0.16825977956E+04  0.25500000920E-02 0. -1.
    10030    2    1    2    0    0  0.00000000000E+00  0.00000000000E+00 -0.51665819517E+03  0.28485373961E+04  0.28012907036E+04 0.  0.
        2    1    3    3  502    0 -0.74177632090E+03  0.87465483633E+03  0.55931859744E+03  0.12759664911E+04  0.25500000920E-02 0. -1.
       -2    1    3    3    0  502  0.74177632090E+03 -0.87465483633E+03 -0.10759767926E+04  0.15725709050E+04  0.25500000920E-02 0.  1.
</event>
<event>
 5   0  0.1394410E-06  0.2789630E+04  0.7818609E-02  0.8306495E-01
       -2   -1    0    0    0  501  0.00000000000E+00  0.00000000000E+00  0.11009183913E+04  0.11009183913E+04  0.25500000920E-02 0.  1.
        2   -1    0    0  501    0  0.00000000000E+00  0.00000000000E+00 -0.17671685902E+04  0.17671685902E+04  0.25500000920E-02 0. -1.
    10030    2    1    2    0    0  0.00000000000E+00  0.00000000000E+00 -0.66625019892E+03  0.28680869815E+04  0.27896296539E+04 0.  0.
        4    1    3    3  502    0  0.82616999547E+03  0.11100873752E+04 -0.51313779344E+03  0.14758600374E+04  0.12699999809E+01 0. -1.
       -4    1    3    3    0  502 -0.82616999547E+03 -0.11100873752E+04 -0.15311240548E+03  0.13922269440E+04  0.12699999809E+01 0.  1.
</event>
<event>
 5   0  0.4710000E-07  0.2803467E+04  0.7818609E-02  0.8302193E-01
        3   -1    0    0  501    0  0.00000000000E+00  0.00000000000E+00  0.16753923709E+04  0.16753923740E+04  0.10100000352E+00 0. -1.
       -3   -1    0    0    0  501  0.00000000000E+00  0.00000000000E+00 -0.11727736992E+04  0.11727737036E+04  0.10100000352E+00 0.  1.
    10030    2    1    2    0    0  0.00000000000E+00  0.00000000000E+00  0.50261867172E+03  0.28481660775E+04  0.28034665106E+04 0.  0.
        3    1    3    3  502    0  0.55632454961E+03  0.97199671578E+02  0.15546956432E+04  0.16540929036E+04  0.10100000352E+00 0. -1.
       -3    1    3    3    0  502 -0.55632454961E+03 -0.97199671578E+02 -0.10520769714E+04  0.11940731739E+04  0.10100000352E+00 0.  1.
</event>
<event>
 5   0  0.5551565E-07  0.2800045E+04  0.7818609E-02  0.8303254E-01
       -1   -1    0    0    0  501  0.00000000000E+00  0.00000000000E+00  0.11655328855E+04  0.11655328855E+04  0.50400001928E-02 0.  1.
        1   -1    0    0  501    0  0.00000000000E+00  0.00000000000E+00 -0.16816880165E+04  0.16816880165E+04  0.50400001928E-02 0. -1.
    10030    2    1    2    0    0  0.00000000000E+00  0.00000000000E+00 -0.51615513099E+03  0.28472209020E+04  0.28000447756E+04 0.  0.
        3    1    3    3  502    0 -0.14235593322E+03 -0.13901076623E+04 -0.17061588829E+03  0.14077550625E+04  0.10100000352E+00 0. -1.
       -3    1    3    3    0  502  0.14235593322E+03  0.13901076623E+04 -0.34553924270E+03  0.14394658395E+04  0.10100000352E+00 0.  1.
</event>
<event>
 5   0  0.5282098E-07  0.2800080E+04  0.7818609E-02  0.8303243E-01
       -1   -1    0    0    0  501  0.00000000000E+00  0.00000000000E+00  0.13531920016E+04  0.13531920017E+04  0.50400001928E-02 0. -1.
        1   -1    0    0  501    0  0.00000000000E+00  0.00000000000E+00 -0.14485099754E+04  0.14485099754E+04  0.50400001928E-02 0.  1.
    10030    2    1    2    0    0  0.00000000000E+00  0.00000000000E+00 -0.95317973721E+02  0.28017019770E+04  0.28000800796E+04 0.  0.
        4    1    3    3  502    0 -0.65980671089E+03 -0.10447583264E+04 -0.70625422607E+03  0.14232573559E+04  0.12699999809E+01 0.  1.
       -4    1    3    3    0  502  0.65980671089E+03  0.10447583264E+04  0.61093625235E+03  0.13784446212E+04  0.12699999809E+01 0. -1.
</event>
<event>
 5   0  0.1439207E-06  0.2797901E+04  0.7818609E-02  0.8303920E-01
        2   -1    0    0  501    0  0.00000000000E+00  0.00000000000E+00  0.11521248905E+04  0.11521248905E+04  0.25500000920E-02 0. -1.
       -2   -1    0    0    0  501  0.00000000000E+00  0.00000000000E+00 -0.16986543416E+04  0.16986543416E+04  0.25500000920E-02 0.  1.
    10030    2    1    2    0    0  0.00000000000E+00  0.00000000000E+00 -0.54652945107E+03  0.28507792321E+04  0.27979006039E+04 0.  0.
        5    1    3    3  502    0 -0.28103757151E+03 -0.10083635487E+04  0.67231601526E+03  0.12441101548E+04  0.46999998093E+01 0. -1.
       -5    1    3    3    0  502  0.28103757151E+03  0.10083635487E+04 -0.12188454663E+04  0.16066690772E+04  0.46999998093E+01 0.  1.
</event>
<event>
 5   0  0.5297741E-07  0.2800488E+04  0.7818609E-02  0.8303117E-01
        1   -1    0    0  501    0  0.00000000000E+00  0.00000000000E+00  0.19713100308E+04  0.19713100309E+04  0.50400001928E-02 0. -1.
       -1   -1    0    0    0  501  0.00000000000E+00  0.00000000000E+00 -0.99460940782E+03  0.99460940783E+03  0.50400001928E-02 0.  1.
    10030    2    1    2    0    0  0.00000000000E+00  0.00000000000E+00  0.97670062302E+03  0.29659194387E+04  0.28004881735E+04 0.  0.
        5    1    3    3  502    0 -0.12634983180E+04 -0.83369240215E+01 -0.15075740060E+03  0.12724965178E+04  0.46999998093E+01 0.  1.
       -5    1    3    3    0  502  0.12634983180E+04  0.83369240215E+01  0.11274580236E+04  0.16934229209E+04  0.46999998093E+01 0. -1.
</event>
<event>
 5   0  0.5214658E-07  0.2807114E+04  0.7818609E-02  0.8301063E-01
        1   -1    0    0  501    0  0.00000000000E+00  0.00000000000E+00  0.19702486751E+04  0.19702486751E+04  0.50400001928E-02 0.  1.
       -1   -1    0    0    0  501  0.00000000000E+00  0.00000000000E+00 -0.99985959992E+03  0.99985959993E+03  0.50400001928E-02 0. -1.
    10030    2    1    2    0    0  0.00000000000E+00  0.00000000000E+00  0.97038907522E+03  0.29701082751E+04  0.28071138574E+04 0.  0.
        2    1    3    3  502    0 -0.65431941597E+03  0.98450090872E+03  0.12858330045E+04  0.17466374704E+04  0.25500000920E-02 0.  1.
       -2    1    3    3    0  502  0.65431941597E+03 -0.98450090872E+03 -0.31544392931E+03  0.12234708047E+04  0.25500000920E-02 0. -1.
</event>
<event>
 5   0  0.1499888E-06  0.2788921E+04  0.7818609E-02  0.8306716E-01
       -2   -1    0    0    0  501  0.00000000000E+00  0.00000000000E+00  0.11301712887E+04  0.11301712887E+04  0.25500000920E-02 0.  1.
        2   -1    0    0  501    0  0.00000000000E+00  0.00000000000E+00 -0.17205533436E+04  0.17205533436E+04  0.25500000920E-02 0. -1.
    10030    2    1    2    0    0  0.00000000000E+00  0.00000000000E+00 -0.59038205490E+03  0.28507246324E+04  0.27889209309E+04 0.  0.
        3    1    3    3  502    0  0.13905853379E+04  0.98995231428E+02 -0.26299148616E+03  0.14186938253E+04  0.10100000352E+00 0.  1.
       -3    1    3    3    0  502 -0.13905853379E+04 -0.98995231428E+02 -0.32739056874E+03  0.14320308071E+04  0.10100000352E+00 0. -1.
</event>
<event>
 5   0  0.5551565E-07  0.2828033E+04  0.7818609E-02  0.8294618E-01
        1   -1    0    0  501    0  0.00000000000E+00  0.00000000000E+00  0.15528016779E+04  0.15528016779E+04  0.50400001928E-02 0.  1.
       -1   -1    0    0    0  501  0.00000000000E+00  0.00000000000E+00 -0.12876352875E+04  0.12876352875E+04  0.50400001928E-02 0. -1.
    10030    2    1    2    0    0  0.00000000000E+00  0.00000000000E+00  0.26516639037E+03  0.28404369654E+04  0.28280326978E+04 0.  0.
        3    1    3    3  502    0  0.57759188115E+02  0.13359167807E+04  0.59441789091E+03  0.14633326376E+04  0.10100000352E+00 0.  1.
       -3    1    3    3    0  502 -0.57759188115E+02 -0.13359167807E+04 -0.32925150055E+03  0.13771043278E+04  0.10100000352E+00 0. -1.
</event>
<event>
 5   0  0.5551565E-07  0.2798007E+04  0.7818609E-02  0.8303887E-01
        1   -1    0    0  501    0  0.00000000000E+00  0.00000000000E+00  0.98271203307E+03  0.98271203308E+03  0.50400001928E-02 0.  1.
       -1   -1    0    0    0  501  0.00000000000E+00  0.00000000000E+00 -0.19916416571E+04  0.19916416571E+04  0.50400001928E-02 0. -1.
    10030    2    1    2    0    0  0.00000000000E+00  0.00000000000E+00 -0.10089296240E+04  0.29743536902E+04  0.27980065919E+04 0.  0.
        3    1    3    3  502    0  0.64266698733E+03 -0.45492187490E+03 -0.17337363231E+04  0.19041576661E+04  0.10100000352E+00 0. -1.
       -3    1    3    3    0  502 -0.64266698733E+03  0.45492187490E+03  0.72480669908E+03  0.10701960241E+04  0.10100000352E+00 0.  1.
</event>
<event>
 5   0  0.5551565E-07  0.2801422E+04  0.7818609E-02  0.8302827E-01
       -1   -1    0    0    0  501  0.00000000000E+00  0.00000000000E+00  0.95907729501E+03  0.95907729502E+03  0.50400001928E-02 0.  1.
        1   -1    0    0  501    0  0.00000000000E+00  0.00000000000E+00 -0.20457071120E+04  0.20457071121E+04  0.50400001928E-02 0. -1.
    10030    2    1    2    0    0  0.00000000000E+00  0.00000000000E+00 -0.10866298170E+04  0.30047844071E+04  0.28014219557E+04 0.  0.
        3    1    3    3  502    0 -0.73338080820E+03 -0.10746213950E+04  0.13331377415E+02  0.13010904228E+04  0.10100000352E+00 0.  1.
       -3    1    3    3    0  502  0.73338080820E+03  0.10746213950E+04 -0.10999611945E+04  0.17036939843E+04  0.10100000352E+00 0. -1.
</event>
<event>
 5   0  0.5214658E-07  0.2802754E+04  0.7818609E-02  0.8302414E-01
       -1   -1    0    0    0  501  0.00000000000E+00  0.00000000000E+00  0.68967502620E+03  0.68967502622E+03  0.50400001928E-02 0.  1.
        1   -1    0    0  501    0  0.00000000000E+00  0.00000000000E+00 -0.28475106358E+04  0.28475106359E+04  0.50400001928E-02 0. -1.
    10030    2    1    2    0    0  0.00000000000E+00  0.00000000000E+00 -0.21578356096E+04  0.35371856621E+04  0.28027536263E+04 0.  0.
        2    1    3    3  502    0  0.11097960330E+04  0.83698869154E+03 -0.85436105685E+03  0.16316035425E+04  0.25500000920E-02 0. -1.
       -2    1    3    3    0  502 -0.11097960330E+04 -0.83698869154E+03 -0.13034745528E+04  0.19055821195E+04  0.25500000920E-02 0.  1.
</event>
<event>
 5   0  0.5282098E-07  0.2801200E+04  0.7818609E-02  0.8302896E-01
       -1   -1    0    0    0  501  0.00000000000E+00  0.00000000000E+00  0.12481928559E+04  0.12481928559E+04  0.50400001928E-02 0. -1.
        1   -1    0    0  501    0  0.00000000000E+00  0.00000000000E+00 -0.15716161531E+04  0.15716161531E+04  0.50400001928E-02 0.  1.
    10030    2    1    2    0    0  0.00000000000E+00  0.00000000000E+00 -0.32342329727E+03  0.28198090090E+04  0.28011997819E+04 0.  0.
        4    1    3    3  502    0  0.11880947031E+04 -0.38801525820E+02  0.58388687477E+03  0.13243866797E+04  0.12699999809E+01 0. -1.
       -4    1    3    3    0  502 -0.11880947031E+04  0.38801525820E+02 -0.90731017204E+03  0.14954223293E+04  0.12699999809E+01 0.  1.
</event>
<event>
 5   0  0.5282098E-07  0.2797211E+04  0.7818609E-02  0.8304135E-01
       -1   -1    0    0    0  501  0.00000000000E+00  0.00000000000E+00  0.13852241867E+04  0.13852241867E+04  0.50400001928E-02 0.  1.
        1   -1    0    0  501    0  0.00000000000E+00  0.00000000000E+00 -0.14121162931E+04  0.14121162931E+04  0.50400001928E-02 0. -1.
    10030    2    1    2    0    0  0.00000000000E+00  0.00000000000E+00 -0.26892106404E+02  0.27973404798E+04  0.27972112138E+04 0.  0.
        4    1    3    3  502    0  0.18947170783E+03 -0.70798365410E+03  0.11778082429E+04  0.13872181705E+04  0.12699999809E+01 0.  1.
       -4    1    3    3    0  502 -0.18947170783E+03  0.70798365410E+03 -0.12047003493E+04  0.14101223093E+04  0.12699999809E+01 0. -1.
</event>
<event>
 5   0  0.1499888E-06  0.2795341E+04  0.7818609E-02  0.8304716E-01
       -2   -1    0    0    0  501  0.00000000000E+00  0.00000000000E+00  0.10729423204E+04  0.10729423204E+04  0.25500000920E-02 0. -1.
        2   -1    0    0  501    0  0.00000000000E+00  0.00000000000E+00 -0.18206784965E+04  0.18206784965E+04  0.25500000920E-02 0.  1.
    10030    2    1    2    0    0  0.00000000000E+00  0.00000000000E+00 -0.74773617602E+03  0.28936208169E+04  0.27953411318E+04 0.  0.
        3    1    3    3  502    0  0.32967310800E+03 -0.19251933947E+03 -0.17656595950E+04  0.18064611454E+04  0.10100000352E+00 0.  1.
       -3    1    3    3    0  502 -0.32967310800E+03  0.19251933947E+03  0.10179234190E+04  0.10871596715E+04  0.10100000352E+00 0. -1.
</event>
<event>
 5   0  0.1394410E-06  0.2800163E+04  0.7818609E-02  0.8303218E-01
        2   -1    0    0  501    0  0.00000000000E+00  0.00000000000E+00  0.18532079054E+04  0.18532079054E+04  0.25500000920E-02 0.  1.
       -2   -1    0    0    0  501  0.00000000000E+00  0.00000000000E+00 -0.10577485544E+04  0.10577485544E+04  0.25500000920E-02 0. -1.
    10030    2    1    2    0    0  0.00000000000E+00  0.00000000000E+00  0.79545935104E+03  0.29109564598E+04  0.28001628402E+04 0.  0.
        4    1    3    3  502    0 -0.83908602434E+03 -0.60679884279E+03  0.13773283488E+04  0.17231671960E+04  0.12699999809E+01 0.  1.
       -4    1    3    3    0  502  0.83908602434E+03  0.60679884279E+03 -0.58186899779E+03  0.11877892639E+04  0.12699999809E+01 0. -1.
</event>
<event>
 5   0  0.1394410E-06  0.2788018E+04  0.7818609E-02  0.8306998E-01
       -2   -1    0    0    0  501  0.00000000000E+00  0.00000000000E+00  0.71605552332E+03  0.71605552332E+03  0.25500000920E-02 0. -1.
        2   -1    0    0  501    0  0.00000000000E+00  0.00000000000E+00 -0.27138412415E+04  0.27138412415E+04  0.25500000920E-02 0.  1.
    10030    2    1    2    0    0  0.00000000000E+00  0.00000000000E+00 -0.19977857182E+04  0.34298967649E+04  0.27880179414E+04 0.  0.
        4    1    3    3  502    0 -0.59696123524E+03 -0.66253252930E+03  0.31920139024E+03  0.94720811292E+03  0.12699999809E+01 0. -1.
       -4    1    3    3    0  502  0.59696123524E+03  0.66253252930E+03 -0.23169871085E+04  0.24826886519E+04  0.12699999809E+01 0.  1.
</event>
<event>
 5   0  0.5297741E-07  0.2791340E+04  0.7818609E-02  0.8305962E-01
        1   -1    0    0  501    0  0.00000000000E+00  0.00000000000E+00  0.21644554906E+04  0.21644554906E+04  0.50400001928E-02 0.  1.
       -1   -1    0    0    0  501  0.00000000000E+00  0.00000000000E+00 -0.89994691629E+03  0.89994691630E+03  0.50400001928E-02 0. -1.
    10030    2    1    2    0    0  0.00000000000E+00  0.00000000000E+00  0.12645085744E+04  0.30644024069E+04  0.27913402116E+04 0.  0.
        5    1    3    3  502    0  0.84152237210E+03 -0.87779949001E+03  0.13842290762E+04  0.18424994092E+04  0.46999998093E+01 0. -1.
       -5    1    3    3    0  502 -0.84152237210E+03  0.87779949001E+03 -0.11972050184E+03  0.12219029978E+04  0.46999998093E+01 0.  1.
</event>
<event>
 5   0  0.5551565E-07  0.2804639E+04  0.7818609E-02  0.8301830E-01
        1   -1    0    0  501    0  0.00000000000E+00  0.00000000000E+00  0.15506219744E+04  0.15506219744E+04  0.50400001928E-02 0. -1.
       -1   -1    0    0    0  501  0.00000000000E+00  0.00000000000E+00 -0.12682008211E+04  0.12682008211E+04  0.50400001928E-02 0.  1.
    10030    2    1    2    0    0  0.00000000000E+00  0.00000000000E+00  0.28242115327E+03  0.28188227955E+04  0.28046390578E+04 0.  0.
        3    1    3    3  502    0  0.40109780611E+03 -0.31642184526E+03 -0.11713410092E+04  0.12779053190E+04  0.10100000352E+00 0.  1.
       -3    1    3    3    0  502 -0.40109780611E+03  0.31642184526E+03  0.14537621624E+04  0.15409174765E+04  0.10100000352E+00 0. -1.
</event>
<event>
 5   0  0.1394410E-06  0.2794351E+04  0.7818609E-02  0.8305024E-01
        2   -1    0    0  501    0  0.00000000000E+00  0.00000000000E+00  0.13999188305E+04  0.13999188305E+04  0.25500000920E-02 0. -1.
       -2   -1    0    0    0  501  0.00000000000E+00  0.00000000000E+00 -0.13944376605E+04  0.13944376605E+04  0.25500000920E-02 0.  1.
    10030    2    1    2    0    0  0.00000000000E+00  0.00000000000E+00  0.54811699958E+01  0.27943564910E+04  0.27943511153E+04 0.  0.
        4    1    3    3  502    0 -0.36461831323E+03 -0.12239896079E+03  0.13459370887E+04  0.13998129445E+04  0.12699999809E+01 0. -1.
       -4    1    3    3    0  502  0.36461831323E+03  0.12239896079E+03 -0.13404559187E+04  0.13945435464E+04  0.12699999809E+01 0.  1.
</event>
<event>
 5   0  0.1439207E-06  0.2808794E+04  0.7818609E-02  0.8300543E-01
       -2   -1    0    0    0  501  0.00000000000E+00  0.00000000000E+00  0.11379179721E+04  0.11379179721E+04  0.25500000920E-02 0. -1.
        2   -1    0    0  501    0  0.00000000000E+00  0.00000000000E+00 -0.17332805810E+04  0.17332805810E+04  0.25500000920E-02 0.  1.
    10030    2    1    2    0    0  0.00000000000E+00  0.00000000000E+00 -0.59536260896E+03  0.28711985531E+04  0.28087941354E+04 0.  0.
        5    1    3    3  502    0 -0.52595956267E+03  0.43318437746E+03 -0.15529822511E+04  0.16958944922E+04  0.46999998093E+01 0.  1.
       -5    1    3    3    0  502  0.52595956267E+03 -0.43318437746E+03  0.95761964218E+03  0.11753040609E+04  0.46999998093E+01 0. -1.
</event>
<event>
 5   0  0.5297741E-07  0.2798778E+04  0.7818609E-02  0.8303648E-01
       -1   -1    0    0    0  501  0.00000000000E+00  0.00000000000E+00  0.91358982205E+03  0.91358982206E+03  0.50400001928E-02 0. -1.
        1   -1    0    0  501    0  0.00000000000E+00  0.00000000000E+00 -0.21435110917E+04  0.21435110917E+04  0.50400001928E-02 0.  1.
    10030    2    1    2    0    0  0.00000000000E+00  0.00000000000E+00 -0.12299212696E+04  0.30571009137E+04  0.27987782455E+04 0.  0.
        5    1    3    3  502    0  0.17874931189E+03 -0.73524030874E+03  0.67086440749E+03  0.10112421922E+04  0.46999998093E+01 0. -1.
       -5    1    3    3    0  502 -0.17874931189E+03  0.73524030874E+03 -0.19007856771E+04  0.20458587215E+04  0.46999998093E+01 0.  1.
</event>
<event>
 5   0  0.5551565E-07  0.2798185E+04  0.7818609E-02  0.8303832E-01
       -1   -1    0    0    0  501  0.00000000000E+00  0.00000000000E+00  0.21342980485E+04  0.21342980485E+04  0.50400001928E-02 0.  1.
        1   -1    0    0  501    0  0.00000000000E+00  0.00000000000E+00 -0.91714457738E+03  0.91714457740E+03  0.50400001928E-02 0. -1.
    10030    2    1    2    0    0  0.00000000000E+00  0.00000000000E+00  0.12171534711E+04  0.30514426259E+04  0.27981850416E+04 0.  0.
        3    1    3    3  502    0 -0.87187131194E+03  0.43409764439E+02  0.18008842697E+04  0.20013066120E+04  0.10100000352E+00 0.  1.
       -3    1    3    3    0  502  0.87187131194E+03 -0.43409764439E+02 -0.58373079859E+03  0.10501360139E+04  0.10100000352E+00 0. -1.
</event>
<event>
 5   0  0.1377807E-06  0.2802244E+04  0.7818609E-02  0.8302572E-01
       -2   -1    0    0    0  501  0.00000000000E+00  0.00000000000E+00  0.12575279627E+04  0.12575279627E+04  0.25500000920E-02 0. -1.
        2   -1    0    0  501    0  0.00000000000E+00  0.00000000000E+00 -0.15611125360E+04  0.15611125360E+04  0.25500000920E-02 0.  1.
    10030    2    1    2    0    0  0.00000000000E+00  0.00000000000E+00 -0.30358457330E+03  0.28186404988E+04  0.28022438631E+04 0.  0.
        2    1    3    3  502    0 -0.21417832087E+03 -0.37543037450E+03  0.11887936242E+04  0.12649310654E+04  0.25500000920E-02 0. -1.
       -2    1    3    3    0  502  0.21417832087E+03  0.37543037450E+03 -0.14923781975E+04  0.15537094334E+04  0.25500000920E-02 0.  1.
</event>
<event>
 5   0  0.1439207E-06  0.2803854E+04  0.7818609E-02  0.8302073E-01
        2   -1    0    0  501    0  0.00000000000E+00  0.00000000000E+00  0.13953199797E+04  0.13953199797E+04  0.25500000920E-02 0.  1.
       -2   -1    0    0    0  501  0.00000000000E+00  0.00000000000E+00 -0.14085652786E+04  0.14085652786E+04  0.25500000920E-02 0. -1.
    10030    2    1    2    0    0  0.00000000000E+00  0.00000000000E+00 -0.13245298916E+02  0.28038852583E+04  0.28038539733E+04 0.  0.
        5    1    3    3  502    0  0.13428186493E+04 -0.39575508506E+03 -0.81411007533E+02  0.14022959225E+04  0.46999998093E+01 0.  1.
       -5    1    3    3    0  502 -0.13428186493E+04  0.39575508506E+03  0.68165708617E+02  0.14015893357E+04  0.46999998093E+01 0. -1.
</event>
<event>
 5   0  0.1461146E-06  0.2800793E+04  0.7818609E-02  0.8303022E-01
       -2   -1    0    0    0  501  0.00000000000E+00  0.00000000000E+00  0.13474600884E+04  0.13474600884E+04  0.25500000920E-02 0.  1.
        2   -1    0    0  501    0  0.00000000000E+00  0.00000000000E+00 -0.14554128704E+04  0.14554128704E+04  0.25500000920E-02 0. -1.
    10030    2    1    2    0    0  0.00000000000E+00  0.00000000000E+00 -0.10795278205E+03  0.28028729588E+04  0.28007932841E+04 0.  0.
        1    1    3    3  502    0 -0.10871562254E+04 -0.66878101659E+03  0.52258858689E+03  0.13792300525E+04  0.50400001928E-02 0.  1.
       -1    1    3    3    0  502  0.10871562254E+04  0.66878101659E+03 -0.63054136894E+03  0.14236429063E+04  0.50400001928E-02 0. -1.
</event>
<event>
 5   0  0.1394410E-06  0.2802148E+04  0.7818609E-02  0.8302602E-01
        2   -1    0    0  501    0  0.00000000000E+00  0.00000000000E+00  0.15078881700E+04  0.15078881700E+04  0.25500000920E-02 0. -1.
       -2   -1    0    0    0  501  0.00000000000E+00  0.00000000000E+00 -0.13018264909E+04  0.13018264909E+04  0.25500000920E-02 0.  1.
    10030    2    1    2    0    0  0.00000000000E+00  0.00000000000E+00  0.20606167910E+03  0.28097146610E+04  0.28021482938E+04 0.  0.
        4    1    3    3  502    0 -0.12959142220E+04 -0.47152480376E+03 -0.14518119236E+03  0.13866537069E+04  0.12699999809E+01 0. -1.
       -4    1    3    3    0  502  0.12959142220E+04  0.47152480376E+03  0.35124287146E+03  0.14230609541E+04  0.12699999809E+01 0.  1.
</event>
<event>
 5   0  0.1439207E-06  0.2800462E+04  0.7818609E-02  0.8303125E-01
       -2   -1    0    0    0  501  0.00000000000E+00  0.00000000000E+00  0.19662372970E+04  0.19662372970E+04  0.25500000920E-02 0. -1.
        2   -1    0    0  501    0  0.00000000000E+00  0.00000000000E+00 -0.99715706433E+03  0.99715706433E+03  0.25500000920E-02 0.  1.
    10030    2    1    2    0    0  0.00000000000E+00  0.00000000000E+00  0.96908023266E+03  0.29633943613E+04  0.28004623981E+04 0.  0.
        5    1    3    3  502    0  0.91424421057E+03 -0.25930912996E+03  0.15727394068E+04  0.18375568109E+04  0.46999998093E+01 0. -1.
       -5    1    3    3    0  502 -0.91424421057E+03  0.25930912996E+03 -0.60365917416E+03  0.11258375504E+04  0.46999998093E+01 0.  1.
</event>
<event>
 5   0  0.1499888E-06  0.2799541E+04  0.7818609E-02  0.8303411E-01
       -2   -1    0    0    0  501  0.00000000000E+00  0.00000000000E+00  0.18726268985E+04  0.18726268985E+04  0.25500000920E-02 0. -1.
        2   -1    0    0  501    0  0.00000000000E+00  0.00000000000E+00 -0.10463152529E+04  0.10463152529E+04  0.25500000920E-02 0.  1.
    10030    2    1    2    0    0  0.00000000000E+00  0.00000000000E+00  0.82631164560E+03  0.29189421514E+04  0.27995414530E+04 0.  0.
        3    1    3    3  502    0 -0.11783874002E+04  0.70155644795E+03  0.12087929438E+03  0.13767316836E+04  0.10100000352E+00 0.  1.
       -3    1    3    3    0  502  0.11783874002E+04 -0.70155644795E+03  0.70543235122E+03  0.15422104678E+04  0.10100000352E+00 0. -1.
</event>
<event>
 5   0  0.5282098E-07  0.2864453E+04  0.7818609E-02  0.8283533E-01
       -1   -1    0    0    0  501  0.00000000000E+00  0.00000000000E+00  0.90965851844E+03  0.90965851846E+03  0.50400001928E-02 0. -1.
        1   -1    0    0  501    0  0.00000000000E+00  0.00000000000E+00 -0.22549921792E+04  0.22549921792E+04  0.50400001928E-02 0.  1.
    10030    2    1    2    0    0  0.00000000000E+00  0.00000000000E+00 -0.13453336607E+04  0.31646506976E+04  0.28644530681E+04 0.  0.
        4    1    3    3  502    0 -0.57067984149E+03 -0.13122291453E+04 -0.60591617549E+03  0.15539487880E+04  0.12699999809E+01 0. -1.
       -4    1    3    3    0  502  0.57067984149E+03  0.13122291453E+04 -0.73941748524E+03  0.16107019096E+04  0.12699999809E+01 0.  1.
</event>
<event>
 5   0  0.1439207E-06  0.2810121E+04  0.7818609E-02  0.8300133E-01
       -2   -1    0    0    0  501  0.00000000000E+00  0.00000000000E+00  0.72097566322E+03  0.72097566322E+03  0.25500000920E-02 0. -1.
        2   -1    0    0  501    0  0.00000000000E+00  0.00000000000E+00 -0.27382273859E+04  0.27382273859E+04  0.25500000920E-02 0.  1.
    10030    2    1    2    0    0  0.00000000000E+00  0.00000000000E+00 -0.20172517227E+04  0.34592030492E+04  0.28101212114E+04 0.  0.
        5    1    3    3  502    0  0.11066990025E+04 -0.21345198170E+03  0.24098719671E+02  0.11273629712E+04  0.46999998093E+01 0. -1.
       -5    1    3    3    0  502 -0.11066990025E+04  0.21345198170E+03 -0.20413504424E+04  0.23318400780E+04  0.46999998093E+01 0.  1.
</event>
<event>
 5   0  0.5297741E-07  0.2797820E+04  0.7818609E-02  0.8303945E-01
       -1   -1    0    0    0  501  0.00000000000E+00  0.00000000000E+00  0.10282466493E+04  0.10282466493E+04  0.50400001928E-02 0.  1.
        1   -1    0    0  501    0  0.00000000000E+00  0.00000000000E+00 -0.19031903466E+04  0.19031903466E+04  0.50400001928E-02 0. -1.
    10030    2    1    2    0    0  0.00000000000E+00  0.00000000000E+00 -0.87494369723E+03  0.29314369959E+04  0.27978199348E+04 0.  0.
        5    1    3    3  502    0  0.59995251005E+03  0.12593726085E+04 -0.54718475209E+03  0.14984644221E+04  0.46999998093E+01 0. -1.
       -5    1    3    3    0  502 -0.59995251005E+03 -0.12593726085E+04 -0.32775894514E+03  0.14329725739E+04  0.46999998093E+01 0.  1.
</event>
<event>
 5   0  0.5297741E-07  0.2868495E+04  0.7818609E-02  0.8282313E-01
        1   -1    0    0  501    0  0.00000000000E+00  0.00000000000E+00  0.18732488279E+04  0.18732488279E+04  0.50400001928E-02 0.  1.
       -1   -1    0    0    0  501  0.00000000000E+00  0.00000000000E+00 -0.10981277371E+04  0.10981277371E+04  0.50400001928E-02 0. -1.
    10030    2    1    2    0    0  0.00000000000E+00  0.00000000000E+00  0.77512109079E+03  0.29713765650E+04  0.28684954219E+04 0.  0.
        5    1    3    3  502    0 -0.11373407358E+04  0.30259664325E+03  0.12366772793E+04  0.17071911027E+04  0.46999998093E+01 0.  1.
       -5    1    3    3    0  502  0.11373407358E+04 -0.30259664325E+03 -0.46155618852E+03  0.12641854623E+04  0.46999998093E+01 0. -1.
</event>
<event>
 5   0  0.5297741E-07  0.2802937E+04  0.7818609E-02  0.8302357E-01
        1   -1    0    0  501    0  0.00000000000E+00  0.00000000000E+00  0.19249374527E+04  0.19249374528E+04  0.50400001928E-02 0.  1.
       -1   -1    0    0    0  501  0.00000000000E+00  0.00000000000E+00 -0.10203522303E+04  0.10203522304E+04  0.50400001928E-02 0. -1.
    10030    2    1    2    0    0  0.00000000000E+00  0.00000000000E+00  0.90458522241E+03  0.29452896831E+04  0.28029371903E+04 0.  0.
        5    1    3    3  502    0  0.89156525234E+03  0.48493963734E+03 -0.56324662969E+03  0.11607428255E+04  0.46999998093E+01 0. -1.
       -5    1    3    3    0  502 -0.89156525234E+03 -0.48493963734E+03  0.14678318521E+04  0.17845468576E+04  0.46999998093E+01 0.  1.
</event>
<event>
 5   0  0.5362952E-07  0.2796363E+04  0.7818609E-02  0.8304398E-01
        1   -1    0    0  501    0  0.00000000000E+00  0.00000000000E+00  0.18679486206E+04  0.18679486206E+04  0.50400001928E-02 0.  1.
       -1   -1    0    0    0  501  0.00000000000E+00  0.00000000000E+00 -0.10465550224E+04  0.10465550224E+04  0.50400001928E-02 0. -1.
    10030    2    1    2    0    0  0.00000000000E+00  0.00000000000E+00  0.82139359816E+03  0.29145036430E+04  0.27963626449E+04 0.  0.
        1    1    3    3  502    0  0.17010643471E+03 -0.12360250506E+04  0.10684015005E+04  0.16426125201E+04  0.50400001928E-02 0.  1.
       -1    1    3    3    0  502 -0.17010643471E+03  0.12360250506E+04 -0.24700790231E+03  0.12718911230E+04  0.50400001928E-02 0. -1.
</event>
<event>
 5   0  0.1499888E-06  0.2800698E+04  0.7818609E-02  0.8303052E-01
       -2   -1    0    0    0  501  0.00000000000E+00  0.00000000000E+00  0.17475925185E+04  0.17475925185E+04  0.25500000920E-02 0.  1.
        2   -1    0    0  501    0  0.00000000000E+00  0.00000000000E+00 -0.11221022867E+04  0.11221022867E+04  0.25500000920E-02 0. -1.
    10030    2    1    2    0    0  0.00000000000E+00  0.00000000000E+00  0.62549023178E+03  0.28696948053E+04  0.28006981710E+04 0.  0.
        3    1    3    3  502    0 -0.11653087125E+04 -0.49708775721E+03 -0.29855703114E+03  0.13016055258E+04  0.10100000352E+00 0. -1.
       -3    1    3    3    0  502  0.11653087125E+04  0.49708775721E+03  0.92404726292E+03  0.15680892794E+04  0.10100000352E+00 0.  1.
</event>
<event>
 5   0  0.5214658E-07  0.2799276E+04  0.7818609E-02  0.8303493E-01
       -1   -1    0    0    0  501  0.00000000000E+00  0.00000000000E+00  0.10409737693E+04  0.10409737694E+04  0.50400001928E-02 0.  1.
        1   -1    0    0  501    0  0.00000000000E+00  0.00000000000E+00 -0.18818792435E+04  0.18818792435E+04  0.50400001928E-02 0. -1.
    10030    2    1    2    0    0  0.00000000000E+00  0.00000000000E+00 -0.84090547414E+03  0.29228530128E+04  0.27992762847E+04 0.  0.
        2    1    3    3  502    0 -0.40165356881E+03 -0.99776856862E+02 -0.18165293437E+04  0.18630780625E+04  0.25500000920E-02 0. -1.
       -2    1    3    3    0  502  0.40165356881E+03  0.99776856862E+02  0.97562386955E+03  0.10597749503E+04  0.25500000920E-02 0.  1.
</event>
<event>
 5   0  0.5282098E-07  0.2798093E+04  0.7818609E-02  0.8303861E-01
       -1   -1    0    0    0  501  0.00000000000E+00  0.00000000000E+00  0.10203074376E+04  0.10203074376E+04  0.50400001928E-02 0. -1.
        1   -1    0    0  501    0  0.00000000000E+00  0.00000000000E+00 -0.19183732568E+04  0.19183732568E+04  0.50400001928E-02 0.  1.
    10030    2    1    2    0    0  0.00000000000E+00  0.00000000000E+00 -0.89806581917E+03  0.29386806944E+04  0.27980925660E+04 0.  0.
        4    1    3    3  502    0  0.33382898883E+03  0.24851032099E+03  0.95379221531E+03  0.10406346027E+04  0.12699999809E+01 0. -1.
       -4    1    3    3    0  502 -0.33382898883E+03 -0.24851032099E+03 -0.18518580345E+04  0.18980460917E+04  0.12699999809E+01 0.  1.
</event>
<event>
 5   0  0.1377807E-06  0.2772425E+04  0.7818609E-02  0.8311881E-01
       -2   -1    0    0    0  501  0.00000000000E+00  0.00000000000E+00  0.13746385394E+04  0.13746385394E+04  0.25500000920E-02 0. -1.
        2   -1    0    0  501    0  0.00000000000E+00  0.00000000000E+00 -0.13978838288E+04  0.13978838288E+04  0.25500000920E-02 0.  1.
    10030    2    1    2    0    0  0.00000000000E+00  0.00000000000E+00 -0.23245289401E+02  0.27725223681E+04  0.27724249202E+04 0.  0.
        2    1    3    3  502    0 -0.65274971604E+03 -0.82769601815E+03 -0.91188875333E+03  0.13938091651E+04  0.25500000920E-02 0.  1.
       -2    1    3    3    0  502  0.65274971604E+03  0.82769601815E+03  0.88864346393E+03  0.13787132030E+04  0.25500000920E-02 0. -1.
</event>
<event>
 5   0  0.1377807E-06  0.2799955E+04  0.7818609E-02  0.8303282E-01
        2   -1    0    0  501    0  0.00000000000E+00  0.00000000000E+00  0.19699669704E+04  0.19699669704E+04  0.25500000920E-02 0. -1.
       -2   -1    0    0    0  501  0.00000000000E+00  0.00000000000E+00 -0.99490883861E+03  0.99490883862E+03  0.25500000920E-02 0.  1.
    10030    2    1    2    0    0  0.00000000000E+00  0.00000000000E+00  0.97505813181E+03  0.29648758090E+04  0.27999553930E+04 0.  0.
        2    1    3    3  502    0  0.42086861117E+02  0.67220180816E+03 -0.81207994660E+03  0.10550357408E+04  0.25500000920E-02 0.  1.
       -2    1    3    3    0  502 -0.42086861117E+02 -0.67220180816E+03  0.17871380784E+04  0.19098400682E+04  0.25500000920E-02 0. -1.
</event>
<event>
 5   0  0.5362952E-07  0.2801211E+04  0.7818609E-02  0.8302893E-01
        1   -1    0    0  501    0  0.00000000000E+00  0.00000000000E+00  0.13395774784E+04  0.13395774784E+04  0.50400001928E-02 0.  1.
       -1   -1    0    0    0  501  0.00000000000E+00  0.00000000000E+00 -0.14644134645E+04  0.14644134645E+04  0.50400001928E-02 0. -1.
    10030    2    1    2    0    0  0.00000000000E+00  0.00000000000E+00 -0.12483598610E+03  0.28039909429E+04  0.28012106640E+04 0.  0.
        1    1    3    3  502    0 -0.10944066082E+04 -0.39776793708E+03  0.71665400902E+03  0.13673105443E+04  0.50400001928E-02 0.  1.
       -1    1    3    3    0  502  0.10944066082E+04  0.39776793708E+03 -0.84148999512E+03  0.14366803986E+04  0.50400001928E-02 0. -1.
</event>
<event>
 5   0  0.1439207E-06  0.2779708E+04  0.7818609E-02  0.8309596E-01
       -2   -1    0    0    0  501  0.00000000000E+00  0.00000000000E+00  0.11531636514E+04  0.11531636514E+04  0.25500000920E-02 0. -1.
        2   -1    0    0  501    0  0.00000000000E+00  0.00000000000E+00 -0.16751254183E+04  0.16751254183E+04  0.25500000920E-02 0.  1.
    10030    2    1    2    0    0  0.00000000000E+00  0.00000000000E+00 -0.52196176699E+03  0.28282890697E+04  0.27797077141E+04 0.  0.
        5    1    3    3  502    0 -0.10427224743E+03 -0.11655748225E+04  0.50194671526E+03  0.12733459716E+04  0.46999998093E+01 0.  1.
       -5    1    3    3    0  502  0.10427224743E+03  0.11655748225E+04 -0.10239084822E+04  0.15549430981E+04  0.46999998093E+01 0. -1.
</event>
<event>
 5   0  0.5551565E-07  0.2799015E+04  0.7818609E-02  0.8303574E-01
        1   -1    0    0  501    0  0.00000000000E+00  0.00000000000E+00  0.22976849349E+04  0.22976849349E+04  0.50400001928E-02 0.  1.
       -1   -1    0    0    0  501  0.00000000000E+00  0.00000000000E+00 -0.85243251967E+03  0.85243251969E+03  0.50400001928E-02 0. -1.
    10030    2    1    2    0    0  0.00000000000E+00  0.00000000000E+00  0.14452524153E+04  0.31501174546E+04  0.27990150829E+04 0.  0.
        3    1    3    3  502    0 -0.55180494435E+03  0.68359898103E+03  0.19486950807E+04  0.21375707687E+04  0.10100000352E+00 0.  1.
       -3    1    3    3    0  502  0.55180494435E+03 -0.68359898103E+03 -0.50344266548E+03  0.10125466859E+04  0.10100000352E+00 0. -1.
</event>
<event>
 5   0  0.1394410E-06  0.2797275E+04  0.7818609E-02  0.8304115E-01
       -2   -1    0    0    0  501  0.00000000000E+00  0.00000000000E+00  0.12204915997E+04  0.12204915997E+04  0.25500000920E-02 0. -1.
        2   -1    0    0  501    0  0.00000000000E+00  0.00000000000E+00 -0.16027862571E+04  0.16027862571E+04  0.25500000920E-02 0.  1.
    10030    2    1    2    0    0  0.00000000000E+00  0.00000000000E+00 -0.38229465737E+03  0.28232778569E+04  0.27972752192E+04 0.  0.
        4    1    3    3  502    0 -0.51080039842E+02  0.86697788357E+03 -0.12976621614E+04  0.15614699866E+04  0.12699999809E+01 0.  1.
       -4    1    3    3    0  502  0.51080039842E+02 -0.86697788357E+03  0.91536750403E+03  0.12618078702E+04  0.12699999809E+01 0. -1.
</event>
<event>
 5   0  0.5214658E-07  0.2798354E+04  0.7818609E-02  0.8303780E-01
       -1   -1    0    0    0  501  0.00000000000E+00  0.00000000000E+00  0.92539269572E+03  0.92539269573E+03  0.50400001928E-02 0.  1.
        1   -1    0    0  501    0  0.00000000000E+00  0.00000000000E+00 -0.21155298390E+04  0.21155298390E+04  0.50400001928E-02 0. -1.
    10030    2    1    2    0    0  0.00000000000E+00  0.00000000000E+00 -0.11901371433E+04  0.30409225347E+04  0.27983537022E+04 0.  0.
        2    1    3    3  502    0 -0.57752183332E+03 -0.94455103728E+03 -0.15247938749E+04  0.18843313113E+04  0.25500000920E-02 0. -1.
       -2    1    3    3    0  502  0.57752183332E+03  0.94455103728E+03  0.33465673162E+03  0.11565912234E+04  0.25500000920E-02 0.  1.
</event>
<event>
 5   0  0.5362952E-07  0.2815768E+04  0.7818609E-02  0.8298390E-01
        1   -1    0    0  501    0  0.00000000000E+00  0.00000000000E+00  0.16094257546E+04  0.16094257546E+04  0.50400001928E-02 0.  1.
       -1   -1    0    0    0  501  0.00000000000E+00  0.00000000000E+00 -0.12315803319E+04  0.12315803319E+04  0.50400001928E-02 0. -1.
    10030    2    1    2    0    0  0.00000000000E+00  0.00000000000E+00  0.37784542277E+03  0.28410060865E+04  0.28157678207E+04 0.  0.
        1    1    3    3  502    0  0.10903365798E+04 -0.61874933961E+03 -0.45748536906E+03  0.13345326768E+04  0.50400001928E-02 0. -1.
       -1    1    3    3    0  502 -0.10903365798E+04  0.61874933961E+03  0.83533079184E+03  0.15064734097E+04  0.50400001928E-02 0.  1.
</event>
<event>
 5   0  0.5362952E-07  0.2798417E+04  0.7818609E-02  0.8303760E-01
       -1   -1    0    0    0  501  0.00000000000E+00  0.00000000000E+00  0.12756854717E+04  0.12756854717E+04  0.50400001928E-02 0. -1.
        1   -1    0    0  501    0  0.00000000000E+00  0.00000000000E+00 -0.15346922518E+04  0.15346922518E+04  0.50400001928E-02 0.  1.
    10030    2    1    2    0    0  0.00000000000E+00  0.00000000000E+00 -0.25900678006E+03  0.28103777235E+04  0.27984171305E+04 0.  0.
        1    1    3    3  502    0 -0.51436967652E+03 -0.58232803948E+03 -0.12981360341E+04  0.15128910313E+04  0.50400001928E-02 0.  1.
       -1    1    3    3    0  502  0.51436967652E+03  0.58232803948E+03  0.10391292540E+04  0.12974866921E+04  0.50400001928E-02 0. -1.
</event>
<event>
 5   0  0.5551565E-07  0.2801179E+04  0.7818609E-02  0.8302902E-01
        1   -1    0    0  501    0  0.00000000000E+00  0.00000000000E+00  0.13701112004E+04  0.13701112004E+04  0.50400001928E-02 0.  1.
       -1   -1    0    0    0  501  0.00000000000E+00  0.00000000000E+00 -0.14317455663E+04  0.14317455664E+04  0.50400001928E-02 0. -1.
    10030    2    1    2    0    0  0.00000000000E+00  0.00000000000E+00 -0.61634365916E+02  0.28018567668E+04  0.28011787780E+04 0.  0.
        3    1    3    3  502    0 -0.18676695137E+02  0.34230057402E+03  0.13274997641E+04  0.13710485534E+04  0.10100000352E+00 0.  1.
       -3    1    3    3    0  502  0.18676695137E+02 -0.34230057402E+03 -0.13891341300E+04  0.14308082133E+04  0.10100000352E+00 0. -1.
</event>
<event>
 5   0  0.1394410E-06  0.2793394E+04  0.7818609E-02  0.8305322E-01
       -2   -1    0    0    0  501  0.00000000000E+00  0.00000000000E+00  0.76060997768E+03  0.76060997768E+03  0.25500000920E-02 0.  1.
        2   -1    0    0  501    0  0.00000000000E+00  0.00000000000E+00 -0.25647351236E+04  0.25647351236E+04  0.25500000920E-02 0. -1.
    10030    2    1    2    0    0  0.00000000000E+00  0.00000000000E+00 -0.18041251459E+04  0.33253451013E+04  0.27933944406E+04 0.  0.
        4    1    3    3  502    0 -0.62618112746E+02  0.80126730634E+03  0.45774762582E+03  0.92492422722E+03  0.12699999809E+01 0.  1.
       -4    1    3    3    0  502  0.62618112746E+02 -0.80126730634E+03 -0.22618727718E+04  0.24004208741E+04  0.12699999809E+01 0. -1.
</event>
<event>
 5   0  0.1461146E-06  0.2800206E+04  0.7818609E-02  0.8303204E-01
        2   -1    0    0  501    0  0.00000000000E+00  0.00000000000E+00  0.16678065453E+04  0.16678065453E+04  0.25500000920E-02 0. -1.
       -2   -1    0    0    0  501  0.00000000000E+00  0.00000000000E+00 -0.11753692658E+04  0.11753692658E+04  0.25500000920E-02 0.  1.
    10030    2    1    2    0    0  0.00000000000E+00  0.00000000000E+00  0.49243727956E+03  0.28431758111E+04  0.28002061028E+04 0.  0.
        1    1    3    3  502    0  0.10500687186E+04  0.85151249324E+02  0.11825373141E+04  0.15837580461E+04  0.50400001928E-02 0. -1.
       -1    1    3    3    0  502 -0.10500687186E+04 -0.85151249324E+02 -0.69010003457E+03  0.12594177650E+04  0.50400001928E-02 0.  1.
</event>
<event>
 5   0  0.5214658E-07  0.2820955E+04  0.7818609E-02  0.8296792E-01
       -1   -1    0    0    0  501  0.00000000000E+00  0.00000000000E+00  0.12372207697E+04  0.12372207697E+04  0.50400001928E-02 0.  1.
        1   -1    0    0  501    0  0.00000000000E+00  0.00000000000E+00 -0.16079970248E+04  0.16079970248E+04  0.50400001928E-02 0. -1.
    10030    2    1    2    0    0  0.00000000000E+00  0.00000000000E+00 -0.37077625505E+03  0.28452177945E+04  0.28209553820E+04 0.  0.
        2    1    3    3  502    0 -0.45079420940E+03  0.23578901929E+03  0.11414626859E+04  0.12496995416E+04  0.25500000920E-02 0.  1.
       -2    1    3    3    0  502  0.45079420940E+03 -0.23578901929E+03 -0.15122389410E+04  0.15955182530E+04  0.25500000920E-02 0. -1.
</event>
<event>
 5   0  0.5214658E-07  0.2814263E+04  0.7818609E-02  0.8298854E-01
        1   -1    0    0  501    0  0.00000000000E+00  0.00000000000E+00  0.16870166247E+04  0.16870166247E+04  0.50400001928E-02 0. -1.
       -1   -1    0    0    0  501  0.00000000000E+00  0.00000000000E+00 -0.11736807631E+04  0.11736807631E+04  0.50400001928E-02 0.  1.
    10030    2    1    2    0    0  0.00000000000E+00  0.00000000000E+00  0.51333586162E+03  0.28606973878E+04  0.28142629298E+04 0.  0.
        2    1    3    3  502    0 -0.10708306903E+04 -0.69063006393E+03 -0.35014978121E+03  0.13214587098E+04  0.25500000920E-02 0.  1.
       -2    1    3    3    0  502  0.10708306903E+04  0.69063006393E+03  0.86348564283E+03  0.15392386780E+04  0.25500000920E-02 0. -1.
</event>
<event>
 5   0  0.4710000E-07  0.2799712E+04  0.7818609E-02  0.8303358E-01
        3   -1    0    0  501    0  0.00000000000E+00  0.00000000000E+00  0.16826889723E+04  0.16826889753E+04  0.10100000352E+00 0. -1.
       -3   -1    0    0    0  501  0.00000000000E+00  0.00000000000E+00 -0.11645626177E+04  0.11645626221E+04  0.10100000352E+00 0.  1.
    10030    2    1    2    0    0  0.00000000000E+00  0.00000000000E+00  0.51812635458E+03  0.28472515973E+04  0.27997119029E+04 0.  0.
        2    1    3    3  502    0 -0.50189645556E+03 -0.35076078282E+03  0.15392726306E+04  0.16565909001E+04  0.25500000920E-02 0. -1.
       -2    1    3    3    0  502  0.50189645556E+03  0.35076078282E+03 -0.10211462761E+04  0.11906606972E+04  0.25500000920E-02 0.  1.
</event>
<event>
 5   0  0.1394410E-06  0.2797711E+04  0.7818609E-02  0.8303979E-01
        2   -1    0    0  501    0  0.00000000000E+00  0.00000000000E+00  0.14316581472E+04  0.14316581472E+04  0.25500000920E-02 0. -1.
       -2   -1    0    0    0  501  0.00000000000E+00  0.00000000000E+00 -0.13668048093E+04  0.13668048093E+04  0.25500000920E-02 0.  1.
    10030    2    1    2    0    0  0.00000000000E+00  0.00000000000E+00  0.64853337945E+02  0.27984629566E+04  0.27977113796E+04 0.  0.
        4    1    3    3  502    0 -0.11585124629E+04 -0.71000071847E+03  0.36499678466E+03  0.14069386670E+04  0.12699999809E+01 0. -1.
       -4    1    3    3    0  502  0.11585124629E+04  0.71000071847E+03 -0.30014344672E+03  0.13915242896E+04  0.12699999809E+01 0.  1.
</event>
<event>
 5   0  0.5551565E-07  0.2800653E+04  0.7818609E-02  0.8303066E-01
       -1   -1    0    0    0  501  0.00000000000E+00  0.00000000000E+00  0.13306087451E+04  0.13306087451E+04  0.50400001928E-02 0. -1.
        1   -1    0    0  501    0  0.00000000000E+00  0.00000000000E+00 -0.14736974643E+04  0.14736974643E+04  0.50400001928E-02 0.  1.
    10030    2    1    2    0    0  0.00000000000E+00  0.00000000000E+00 -0.14308871920E+03  0.28043062095E+04  0.28006533050E+04 0.  0.
        3    1    3    3  502    0  0.62868190409E+03 -0.29177811826E+03  0.11468168279E+04  0.13399866618E+04  0.10100000352E+00 0. -1.
       -3    1    3    3    0  502 -0.62868190409E+03  0.29177811826E+03 -0.12899055471E+04  0.14643195476E+04  0.10100000352E+00 0.  1.
</event>
<event>
 5   0  0.1394410E-06  0.2805607E+04  0.7818609E-02  0.8301530E-01
        2   -1    0    0  501    0  0.00000000000E+00  0.00000000000E+00  0.94323095065E+03  0.94323095066E+03  0.25500000920E-02 0.  1.
       -2   -1    0    0    0  501  0.00000000000E+00  0.00000000000E+00 -0.20862951264E+04  0.20862951264E+04  0.25500000920E-02 0. -1.
    10030    2    1    2    0    0  0.00000000000E+00  0.00000000000E+00 -0.11430641758E+04  0.30295260771E+04  0.28056073392E+04 0.  0.
        4    1    3    3  502    0  0.19135482514E+03  0.12843150218E+04  0.16582547052E+01  0.12984937839E+04  0.12699999809E+01 0.  1.
       -4    1    3    3    0  502 -0.19135482514E+03 -0.12843150218E+04 -0.11447224305E+04  0.17310322932E+04  0.12699999809E+01 0. -1.
</event>
<event>
 5   0  0.5551565E-07  0.2796549E+04  0.7818609E-02  0.8304341E-01
       -1   -1    0    0    0  501  0.00000000000E+00  0.00000000000E+00  0.17663475123E+04  0.17663475123E+04  0.50400001928E-02 0. -1.
        1   -1    0    0  501    0  0.00000000000E+00  0.00000000000E+00 -0.11069009570E+04  0.11069009570E+04  0.50400001928E-02 0.  1.
    10030    2    1    2    0    0  0.00000000000E+00  0.00000000000E+00  0.65944655526E+03  0.28732484693E+04  0.27965491247E+04 0.  0.
        3    1    3    3  502    0  0.10688612908E+04 -0.27705362785E+03 -0.55167960036E+03  0.12343312210E+04  0.10100000352E+00 0. -1.
       -3    1    3    3    0  502 -0.10688612908E+04  0.27705362785E+03  0.12111261556E+04  0.16389172483E+04  0.10100000352E+00 0.  1.
</event>
<event>
 5   0  0.5551565E-07  0.2800094E+04  0.7818609E-02  0.8303239E-01
        1   -1    0    0  501    0  0.00000000000E+00  0.00000000000E+00  0.12370988475E+04  0.12370988475E+04  0.50400001928E-02 0. -1.
       -1   -1    0    0    0  501  0.00000000000E+00  0.00000000000E+00 -0.15844581757E+04  0.15844581757E+04  0.50400001928E-02 0.  1.
    10030    2    1    2    0    0  0.00000000000E+00  0.00000000000E+00 -0.34735932818E+03  0.28215570232E+04  0.28000938435E+04 0.  0.
        3    1    3    3  502    0  0.74625689387E+03  0.10917594894E+04 -0.63686952556E+03  0.14678013957E+04  0.10100000352E+00 0.  1.
       -3    1    3    3    0  502 -0.74625689387E+03 -0.10917594894E+04  0.28951019739E+03  0.13537556275E+04  0.10100000352E+00 0. -1.
</event>
<event>
 5   0  0.1394410E-06  0.2802816E+04  0.7818609E-02  0.8302394E-01
        2   -1    0    0  501    0  0.00000000000E+00  0.00000000000E+00  0.13949131167E+04  0.13949131167E+04  0.25500000920E-02 0.  1.
       -2   -1    0    0    0  501  0.00000000000E+00  0.00000000000E+00 -0.14079336101E+04  0.14079336101E+04  0.25500000920E-02 0. -1.
    10030    2    1    2    0    0  0.00000000000E+00  0.00000000000E+00 -0.13020493411E+02  0.28028467269E+04  0.28028164837E+04 0.  0.
        4    1    3    3  502    0 -0.12944424838E+04 -0.23574029183E+03 -0.48899718128E+03  0.14036647339E+04  0.12699999809E+01 0.  1.
       -4    1    3    3    0  502  0.12944424838E+04  0.23574029183E+03  0.47597668787E+03  0.13991819929E+04  0.12699999809E+01 0. -1.
</event>
<event>
 5   0  0.1461146E-06  0.2810372E+04  0.7818609E-02  0.8300056E-01
       -2   -1    0    0    0  501  0.00000000000E+00  0.00000000000E+00  0.15602181844E+04  0.15602181844E+04  0.25500000920E-02 0.  1.
        2   -1    0    0  501    0  0.00000000000E+00  0.00000000000E+00 -0.12655585193E+04  0.12655585193E+04  0.25500000920E-02 0. -1.
    10030    2    1    2    0    0  0.00000000000E+00  0.00000000000E+00  0.29465966510E+03  0.28257767036E+04  0.28103718011E+04 0.  0.
        1    1    3    3  502    0  0.99924805687E+03  0.41358722192E+03  0.10494637592E+04  0.15069589414E+04  0.50400001928E-02 0. -1.
       -1    1    3    3    0  502 -0.99924805687E+03 -0.41358722192E+03 -0.75480409410E+03  0.13188177622E+04  0.50400001928E-02 0.  1.
</event>
<event>
 5   0  0.1377807E-06  0.2779265E+04  0.7818609E-02  0.8309735E-01
        2   -1    0    0  501    0  0.00000000000E+00  0.00000000000E+00  0.14609806022E+04  0.14609806022E+04  0.25500000920E-02 0. -1.
       -2   -1    0    0    0  501  0.00000000000E+00  0.00000000000E+00 -0.13217684553E+04  0.13217684553E+04  0.25500000920E-02 0.  1.
    10030    2    1    2    0    0  0.00000000000E+00  0.00000000000E+00  0.13921214696E+03  0.27827490575E+04  0.27792647040E+04 0.  0.
        2    1    3    3  502    0  0.49792321266E+03 -0.49769773559E+03 -0.11299976103E+04  0.13313621450E+04  0.25500000920E-02 0.  1.
       -2    1    3    3    0  502 -0.49792321266E+03  0.49769773559E+03  0.12692097573E+04  0.14513869125E+04  0.25500000920E-02 0. -1.
</event>
<event>
 5   0  0.1394410E-06  0.2797524E+04  0.7818609E-02  0.8304038E-01
       -2   -1    0    0    0  501  0.00000000000E+00  0.00000000000E+00  0.99598716804E+03  0.99598716804E+03  0.25500000920E-02 0.  1.
        2   -1    0    0  501    0  0.00000000000E+00  0.00000000000E+00 -0.19644173615E+04  0.19644173615E+04  0.25500000920E-02 0. -1.
    10030    2    1    2    0    0  0.00000000000E+00  0.00000000000E+00 -0.96843019346E+03  0.29604045295E+04  0.27975235368E+04 0.  0.
        4    1    3    3  502    0 -0.12645368946E+04 -0.11000918144E+03 -0.11061203168E+04  0.16836446614E+04  0.12699999809E+01 0. -1.
       -4    1    3    3    0  502  0.12645368946E+04  0.11000918144E+03  0.13769012331E+03  0.12767598681E+04  0.12699999809E+01 0.  1.
</event>
<event>
 5   0  0.5362952E-07  0.2801096E+04  0.7818609E-02  0.8302928E-01
       -1   -1    0    0    0  501  0.00000000000E+00  0.00000000000E+00  0.12465432535E+04  0.12465432535E+04  0.50400001928E-02 0. -1.
        1   -1    0    0  501    0  0.00000000000E+00  0.00000000000E+00 -0.15735790776E+04  0.15735790776E+04  0.50400001928E-02 0.  1.
    10030    2    1    2    0    0  0.00000000000E+00  0.00000000000E+00 -0.32703582409E+03  0.28201223311E+04  0.28010957735E+04 0.  0.
        1    1    3    3  502    0 -0.41983757268E+03 -0.86969854716E+03  0.85771679674E+03  0.12916335602E+04  0.50400001928E-02 0. -1.
       -1    1    3    3    0  502  0.41983757268E+03  0.86969854716E+03 -0.11847526208E+04  0.15284887710E+04  0.50400001928E-02 0.  1.
</event>
<event>
 5   0  0.5551565E-07  0.2799185E+04  0.7818609E-02  0.8303521E-01
        1   -1    0    0  501    0  0.00000000000E+00  0.00000000000E+00  0.66325660544E+03  0.66325660546E+03  0.50400001928E-02 0. -1.
       -1   -1    0    0    0  501  0.00000000000E+00  0.00000000000E+00 -0.29533961946E+04  0.29533961946E+04  0.50400001928E-02 0.  1.
    10030    2    1    2    0    0  0.00000000000E+00  0.00000000000E+00 -0.22901395892E+04  0.36166528001E+04  0.27991852633E+04 0.  0.
        3    1    3    3  502    0 -0.43517244197E+03  0.54652806116E+02 -0.28623125539E+04  0.28957201436E+04  0.10100000352E+00 0.  1.
       -3    1    3    3    0  502  0.43517244197E+03 -0.54652806116E+02  0.57217296472E+03  0.72093265651E+03  0.10100000352E+00 0. -1.
</event>
<event>
 5   0  0.1377807E-06  0.2784065E+04  0.7818609E-02  0.8308233E-01
       -2   -1    0    0    0  501  0.00000000000E+00  0.00000000000E+00  0.15205319450E+04  0.15205319450E+04  0.25500000920E-02 0. -1.
        2   -1    0    0  501    0  0.00000000000E+00  0.00000000000E+00 -0.12743920621E+04  0.12743920621E+04  0.25500000920E-02 0.  1.
    10030    2    1    2    0    0  0.00000000000E+00  0.00000000000E+00  0.24613988293E+03  0.27949240072E+04  0.27840645402E+04 0.  0.
        2    1    3    3  502    0 -0.10389219389E+04 -0.51418817036E+02 -0.80560654840E+03  0.13156764803E+04  0.25500000920E-02 0.  1.
       -2    1    3    3    0  502  0.10389219389E+04  0.51418817036E+02  0.10517464313E+04  0.14792475269E+04  0.25500000920E-02 0. -1.
</event>
<event>
 5   0  0.5214658E-07  0.2797867E+04  0.7818609E-02  0.8303931E-01
        1   -1    0    0  501    0  0.00000000000E+00  0.00000000000E+00  0.15420200213E+04  0.15420200214E+04  0.50400001928E-02 0. -1.
       -1   -1    0    0    0  501  0.00000000000E+00  0.00000000000E+00 -0.12691239941E+04  0.12691239941E+04  0.50400001928E-02 0.  1.
    10030    2    1    2    0    0  0.00000000000E+00  0.00000000000E+00  0.27289602726E+03  0.28111440155E+04  0.27978667649E+04 0.  0.
        2    1    3    3  502    0 -0.10548116454E+04 -0.51274146573E+03  0.90261714085E+03  0.14799490264E+04  0.25500000920E-02 0. -1.
       -2    1    3    3    0  502  0.10548116454E+04  0.51274146573E+03 -0.62972111358E+03  0.13311949890E+04  0.25500000920E-02 0.  1.
</event>
<event>
 5   0  0.5282098E-07  0.2805035E+04  0.7818609E-02  0.8301707E-01
        1   -1    0    0  501    0  0.00000000000E+00  0.00000000000E+00  0.17233469345E+04  0.17233469345E+04  0.50400001928E-02 0.  1.
       -1   -1    0    0    0  501  0.00000000000E+00  0.00000000000E+00 -0.11414160615E+04  0.11414160615E+04  0.50400001928E-02 0. -1.
    10030    2    1    2    0    0  0.00000000000E+00  0.00000000000E+00  0.58193087302E+03  0.28647629960E+04  0.28050353799E+04 0.  0.
        4    1    3    3  502    0  0.11049070123E+04 -0.25036263392E+03  0.11353427341E+04  0.16039032674E+04  0.12699999809E+01 0.  1.
       -4    1    3    3    0  502 -0.11049070123E+04  0.25036263392E+03 -0.55341186109E+03  0.12608597286E+04  0.12699999809E+01 0. -1.
</event>
<event>
 5   0  0.5282098E-07  0.2799662E+04  0.7818609E-02  0.8303373E-01
        1   -1    0    0  501    0  0.00000000000E+00  0.00000000000E+00  0.24626583660E+04  0.24626583660E+04  0.50400001928E-02 0.  1.
       -1   -1    0    0    0  501  0.00000000000E+00  0.00000000000E+00 -0.79569588288E+03  0.79569588290E+03  0.50400001928E-02 0. -1.
    10030    2    1    2    0    0  0.00000000000E+00  0.00000000000E+00  0.16669624831E+04  0.32583542489E+04  0.27996622102E+04 0.  0.
        4    1    3    3  502    0  0.43216600913E+03 -0.84068315763E+03  0.20351182034E+04  0.22439303344E+04  0.12699999809E+01 0.  1.
       -4    1    3    3    0  502 -0.43216600913E+03  0.84068315763E+03 -0.36815572030E+03  0.10144239145E+04  0.12699999809E+01 0. -1.
</event>
<event>
 5   0  0.1377807E-06  0.2798499E+04  0.7818609E-02  0.8303735E-01
        2   -1    0    0  501    0  0.00000000000E+00  0.00000000000E+00  0.12560519537E+04  0.12560519537E+04  0.25500000920E-02 0. -1.
       -2   -1    0    0    0  501  0.00000000000E+00  0.00000000000E+00 -0.15587723791E+04  0.15587723791E+04  0.25500000920E-02 0.  1.
    10030    2    1    2    0    0  0.00000000000E+00  0.00000000000E+00 -0.30272042534E+03  0.28148243328E+04  0.27984989492E+04 0.  0.
        2    1    3    3  502    0  0.19523214689E+03  0.93633569125E+03 -0.11786206924E+04  0.15178889467E+04  0.25500000920E-02 0.  1.
       -2    1    3    3    0  502 -0.19523214689E+03 -0.93633569125E+03  0.87590026706E+03  0.12969353861E+04  0.25500000920E-02 0. -1.
</event>
<event>
 5   0  0.5362952E-07  0.2797830E+04  0.7818609E-02  0.8303942E-01
       -1   -1    0    0    0  501  0.00000000000E+00  0.00000000000E+00  0.69366236915E+03  0.69366236917E+03  0.50400001928E-02 0. -1.
        1   -1    0    0  501    0  0.00000000000E+00  0.00000000000E+00 -0.28212034240E+04  0.28212034240E+04  0.50400001928E-02 0.  1.
    10030    2    1    2    0    0  0.00000000000E+00  0.00000000000E+00 -0.21275410548E+04  0.35148657932E+04  0.27978296238E+04 0.  0.
        1    1    3    3  502    0  0.11982983589E+04 -0.30994954239E+03 -0.24479832438E+03  0.12617107020E+04  0.50400001928E-02 0. -1.
       -1    1    3    3    0  502 -0.11982983589E+04  0.30994954239E+03 -0.18827427304E+04  0.22531550912E+04  0.50400001928E-02 0.  1.
</event>
<event>
 5   0  0.1377807E-06  0.2797648E+04  0.7818609E-02  0.8303999E-01
       -2   -1    0    0    0  501  0.00000000000E+00  0.00000000000E+00  0.96549260010E+03  0.96549260011E+03  0.25500000920E-02 0.  1.
        2   -1    0    0  501    0  0.00000000000E+00  0.00000000000E+00 -0.20266430358E+04  0.20266430358E+04  0.25500000920E-02 0. -1.
    10030    2    1    2    0    0  0.00000000000E+00  0.00000000000E+00 -0.10611504357E+04  0.29921356359E+04  0.27976481938E+04 0.  0.
        2    1    3    3  502    0 -0.12001404322E+04 -0.38779791233E+03 -0.11775979920E+04  0.17255321813E+04  0.25500000920E-02 0. -1.
       -2    1    3    3    0  502  0.12001404322E+04  0.38779791233E+03  0.11644755633E+03  0.12666034546E+04  0.25500000920E-02 0.  1.
</event>
<event>
 5   0  0.1377807E-06  0.2784232E+04  0.7818609E-02  0.8308180E-01
       -2   -1    0    0    0  501  0.00000000000E+00  0.00000000000E+00  0.14530659787E+04  0.14530659787E+04  0.25500000920E-02 0. -1.
        2   -1    0    0  501    0  0.00000000000E+00  0.00000000000E+00 -0.13337228393E+04  0.13337228393E+04  0.25500000920E-02 0.  1.
    10030    2    1    2    0    0  0.00000000000E+00  0.00000000000E+00  0.11934313942E+03  0.27867888180E+04  0.27842322337E+04 0.  0.
        2    1    3    3  502    0  0.17982505152E+03  0.22718339083E+03 -0.13032093478E+04  0.13350295676E+04  0.25500000920E-02 0.  1.
       -2    1    3    3    0  502 -0.17982505152E+03 -0.22718339083E+03  0.14225524872E+04  0.14517592504E+04  0.25500000920E-02 0. -1.
</event>
<event>
 5   0  0.1377807E-06  0.2800279E+04  0.7818609E-02  0.8303182E-01
       -2   -1    0    0    0  501  0.00000000000E+00  0.00000000000E+00  0.14240868478E+04  0.14240868478E+04  0.25500000920E-02 0.  1.
        2   -1    0    0  501    0  0.00000000000E+00  0.00000000000E+00 -0.13765946160E+04  0.13765946160E+04  0.25500000920E-02 0. -1.
    10030    2    1    2    0    0  0.00000000000E+00  0.00000000000E+00  0.47492231763E+02  0.28006814638E+04  0.28002787629E+04 0.  0.
        2    1    3    3  502    0  0.50254124024E+03 -0.58392247440E+02 -0.12819809576E+04  0.13781990162E+04  0.25500000920E-02 0. -1.
       -2    1    3    3    0  502 -0.50254124024E+03  0.58392247440E+02  0.13294731893E+04  0.14224824476E+04  0.25500000920E-02 0.  1.
</event>
<event>
 5   0  0.1461146E-06  0.2802546E+04  0.7818609E-02  0.8302478E-01
       -2   -1    0    0    0  501  0.00000000000E+00  0.00000000000E+00  0.13359835722E+04  0.13359835722E+04  0.25500000920E-02 0. -1.
        2   -1    0    0  501    0  0.00000000000E+00  0.00000000000E+00 -0.14697526754E+04  0.14697526754E+04  0.25500000920E-02 0.  1.
    10030    2    1    2    0    0  0.00000000000E+00  0.00000000000E+00 -0.13376910320E+03  0.28057362477E+04  0.28025455783E+04 0.  0.
        1    1    3    3  502    0  0.11587989009E+04 -0.16738182403E+03 -0.83765317639E+03  0.14396160640E+04  0.50400001928E-02 0.  1.
       -1    1    3    3    0  502 -0.11587989009E+04  0.16738182403E+03  0.70388407319E+03  0.13661201837E+04  0.50400001928E-02 0. -1.
</event>
<event>
 5   0  0.5214658E-07  0.2798794E+04  0.7818609E-02  0.8303643E-01
        1   -1    0    0  501    0  0.00000000000E+00  0.00000000000E+00  0.17224745599E+04  0.17224745599E+04  0.50400001928E-02 0. -1.
       -1   -1    0    0    0  501  0.00000000000E+00  0.00000000000E+00 -0.11369174743E+04  0.11369174743E+04  0.50400001928E-02 0.  1.
    10030    2    1    2    0    0  0.00000000000E+00  0.00000000000E+00  0.58555708562E+03  0.28593920342E+04  0.27987936159E+04 0.  0.
        2    1    3    3  502    0 -0.44374142397E+03  0.68719240164E+03  0.14527790775E+04  0.16672453018E+04  0.25500000920E-02 0. -1.
       -2    1    3    3    0  502  0.44374142397E+03 -0.68719240164E+03 -0.86722199192E+03  0.11921467324E+04  0.25500000920E-02 0.  1.
</event>
<event>
 5   0  0.1394410E-06  0.2793750E+04  0.7818609E-02  0.8305211E-01
        2   -1    0    0  501    0  0.00000000000E+00  0.00000000000E+00  0.11710023124E+04  0.11710023124E+04  0.25500000920E-02 0.  1.
       -2   -1    0    0    0  501  0.00000000000E+00  0.00000000000E+00 -0.16663163799E+04  0.16663163799E+04  0.25500000920E-02 0. -1.
    10030    2    1    2    0    0  0.00000000000E+00  0.00000000000E+00 -0.49531406750E+03  0.28373186922E+04  0.27937504068E+04 0.  0.
        4    1    3    3  502    0  0.12306055928E+04  0.65239081880E+03 -0.35540019275E+03  0.14374681963E+04  0.12699999809E+01 0.  1.
       -4    1    3    3    0  502 -0.12306055928E+04 -0.65239081880E+03 -0.13991387474E+03  0.13998504959E+04  0.12699999809E+01 0. -1.
</event>
<event>
 5   0  0.1439207E-06  0.2824307E+04  0.7818609E-02  0.8295762E-01
        2   -1    0    0  501    0  0.00000000000E+00  0.00000000000E+00  0.83561969181E+03  0.83561969181E+03  0.25500000920E-02 0. -1.
       -2   -1    0    0    0  501  0.00000000000E+00  0.00000000000E+00 -0.23864645976E+04  0.23864645976E+04  0.25500000920E-02 0.  1.
    10030    2    1    2    0    0  0.00000000000E+00  0.00000000000E+00 -0.15508449058E+04  0.32220842894E+04  0.28243065072E+04 0.  0.
        5    1    3    3  502    0  0.12829514221E+04  0.22574972324E+03 -0.15345234072E+03  0.13116771706E+04  0.46999998093E+01 0. -1.
       -5    1    3    3    0  502 -0.12829514221E+04 -0.22574972324E+03 -0.13973925651E+04  0.19104071189E+04  0.46999998093E+01 0.  1.
</event>
<event>
 5   0  0.5551565E-07  0.2801666E+04  0.7818609E-02  0.8302751E-01
       -1   -1    0    0    0  501  0.00000000000E+00  0.00000000000E+00  0.70212239043E+03  0.70212239045E+03  0.50400001928E-02 0.  1.
        1   -1    0    0  501    0  0.00000000000E+00  0.00000000000E+00 -0.27948580493E+04  0.27948580493E+04  0.50400001928E-02 0. -1.
    10030    2    1    2    0    0  0.00000000000E+00  0.00000000000E+00 -0.20927356588E+04  0.34969804397E+04  0.28016655150E+04 0.  0.
        3    1    3    3  502    0  0.45814952039E+03  0.52274716689E+03  0.47168014572E+03  0.84002842428E+03  0.10100000352E+00 0.  1.
       -3    1    3    3    0  502 -0.45814952039E+03 -0.52274716689E+03 -0.25644158046E+04  0.26569520155E+04  0.10100000352E+00 0. -1.
</event>
<event>
 5   0  0.1439207E-06  0.2796845E+04  0.7818609E-02  0.8304249E-01
       -2   -1    0    0    0  501  0.00000000000E+00  0.00000000000E+00  0.12828880364E+04  0.12828880364E+04  0.25500000920E-02 0. -1.
        2   -1    0    0  501    0  0.00000000000E+00  0.00000000000E+00 -0.15243616245E+04  0.15243616245E+04  0.25500000920E-02 0.  1.
    10030    2    1    2    0    0  0.00000000000E+00  0.00000000000E+00 -0.24147358807E+03  0.28072496609E+04  0.27968448589E+04 0.  0.
        5    1    3    3  502    0 -0.12106558955E+04 -0.43497120295E+03  0.42964203914E+03  0.13562824250E+04  0.46999998093E+01 0. -1.
       -5    1    3    3    0  502  0.12106558955E+04  0.43497120295E+03 -0.67111562721E+03  0.14509672359E+04  0.46999998093E+01 0.  1.
</event>
<event>
 5   0  0.5297741E-07  0.2794746E+04  0.7818609E-02  0.8304901E-01
       -1   -1    0    0    0  501  0.00000000000E+00  0.00000000000E+00  0.10953541926E+04  0.10953541926E+04  0.50400001928E-02 0. -1.
        1   -1    0    0  501    0  0.00000000000E+00  0.00000000000E+00 -0.17826661646E+04  0.17826661646E+04  0.50400001928E-02 0.  1.
    10030    2    1    2    0    0  0.00000000000E+00  0.00000000000E+00 -0.68731197197E+03  0.28780203572E+04  0.27947456825E+04 0.  0.
        5    1    3    3  502    0 -0.78166489041E+03  0.68401524017E+02  0.84706264797E+03  0.11546497257E+04  0.46999998093E+01 0. -1.
       -5    1    3    3    0  502  0.78166489041E+03 -0.68401524017E+02 -0.15343746199E+04  0.17233706315E+04  0.46999998093E+01 0.  1.
</event>
<event>
 5   0  0.1439207E-06  0.2796119E+04  0.7818609E-02  0.8304474E-01
       -2   -1    0    0    0  501  0.00000000000E+00  0.00000000000E+00  0.15626198818E+04  0.15626198818E+04  0.25500000920E-02 0. -1.
        2   -1    0    0  501    0  0.00000000000E+00  0.00000000000E+00 -0.12508292184E+04  0.12508292184E+04  0.25500000920E-02 0.  1.
    10030    2    1    2    0    0  0.00000000000E+00  0.00000000000E+00  0.31179066339E+03  0.28134491002E+04  0.27961191716E+04 0.  0.
        5    1    3    3  502    0 -0.85654043544E+03  0.66361619872E+03  0.10448302965E+04  0.15052376607E+04  0.46999998093E+01 0. -1.
       -5    1    3    3    0  502  0.85654043544E+03 -0.66361619872E+03 -0.73303963312E+03  0.13082114395E+04  0.46999998093E+01 0.  1.
</event>
<event>
 5   0  0.1377807E-06  0.2799441E+04  0.7818609E-02  0.8303442E-01
       -2   -1    0    0    0  501  0.00000000000E+00  0.00000000000E+00  0.13325189459E+04  0.13325189459E+04  0.25500000920E-02 0. -1.
        2   -1    0    0  501    0  0.00000000000E+00  0.00000000000E+00 -0.14703114211E+04  0.14703114211E+04  0.25500000920E-02 0.  1.
    10030    2    1    2    0    0  0.00000000000E+00  0.00000000000E+00 -0.13779247520E+03  0.28028303670E+04  0.27994412478E+04 0.  0.
        2    1    3    3  502    0 -0.11299241975E+04 -0.74973863728E+03  0.27848361457E+03  0.13843373288E+04  0.25500000920E-02 0. -1.
       -2    1    3    3    0  502  0.11299241975E+04  0.74973863728E+03 -0.41627608977E+03  0.14184930382E+04  0.25500000920E-02 0.  1.
</event>
<event>
 5   0  0.5362952E-07  0.2780164E+04  0.7818609E-02  0.8309453E-01
        1   -1    0    0  501    0  0.00000000000E+00  0.00000000000E+00  0.13272626525E+04  0.13272626525E+04  0.50400001928E-02 0.  1.
       -1   -1    0    0    0  501  0.00000000000E+00  0.00000000000E+00 -0.14558747557E+04  0.14558747557E+04  0.50400001928E-02 0. -1.
    10030    2    1    2    0    0  0.00000000000E+00  0.00000000000E+00 -0.12861210323E+03  0.27831374082E+04  0.27801641606E+04 0.  0.
        1    1    3    3  502    0 -0.46049016914E+03  0.12706419525E+04  0.26122785413E+03  0.13765253936E+04  0.50400001928E-02 0.  1.
       -1    1    3    3    0  502  0.46049016914E+03 -0.12706419525E+04 -0.38983995736E+03  0.14066120146E+04  0.50400001928E-02 0. -1.
</event>
<event>
 5   0  0.5551565E-07  0.2799206E+04  0.7818609E-02  0.8303515E-01
        1   -1    0    0  501    0  0.00000000000E+00  0.00000000000E+00  0.71068286336E+03  0.71068286337E+03  0.50400001928E-02 0.  1.
       -1   -1    0    0    0  501  0.00000000000E+00  0.00000000000E+00 -0.27563475868E+04  0.27563475868E+04  0.50400001928E-02 0. -1.
    10030    2    1    2    0    0  0.00000000000E+00  0.00000000000E+00 -0.20456647234E+04  0.34670304501E+04  0.27992063128E+04 0.  0.
        3    1    3    3  502    0  0.57646342450E+02  0.88105413212E+03 -0.23678768393E+04  0.25271367634E+04  0.10100000352E+00 0. -1.
       -3    1    3    3    0  502 -0.57646342450E+02 -0.88105413212E+03  0.32221211592E+03  0.93989368674E+03  0.10100000352E+00 0.  1.
</event>
<event>
 5   0  0.1394410E-06  0.2801320E+04  0.7818609E-02  0.8302859E-01
        2   -1    0    0  501    0  0.00000000000E+00  0.00000000000E+00  0.14528929805E+04  0.14528929805E+04  0.25500000920E-02 0. -1.
       -2   -1    0    0    0  501  0.00000000000E+00  0.00000000000E+00 -0.13503047059E+04  0.13503047059E+04  0.25500000920E-02 0.  1.
    10030    2    1    2    0    0  0.00000000000E+00  0.00000000000E+00  0.10258827458E+03  0.28031976865E+04  0.28013198524E+04 0.  0.
        4    1    3    3  502    0 -0.13085652748E+04 -0.43068611699E+03  0.30447165532E+03  0.14108643491E+04  0.12699999809E+01 0.  1.
       -4    1    3    3    0  502  0.13085652748E+04  0.43068611699E+03 -0.20188338073E+03  0.13923333373E+04  0.12699999809E+01 0. -1.
</event>
<event>
 5   0  0.1394410E-06  0.2798974E+04  0.7818609E-02  0.8303587E-01
       -2   -1    0    0    0  501  0.00000000000E+00  0.00000000000E+00  0.25609553410E+04  0.25609553410E+04  0.25500000920E-02 0. -1.
        2   -1    0    0  501    0  0.00000000000E+00  0.00000000000E+00 -0.76477865092E+03  0.76477865093E+03  0.25500000920E-02 0.  1.
    10030    2    1    2    0    0  0.00000000000E+00  0.00000000000E+00  0.17961766901E+04  0.33257339919E+04  0.27989740769E+04 0.  0.
        4    1    3    3  502    0 -0.61052958935E+03 -0.10035478178E+04 -0.58072802596E+01  0.11746871667E+04  0.12699999809E+01 0.  1.
       -4    1    3    3    0  502  0.61052958935E+03  0.10035478178E+04  0.18019839704E+04  0.21510468253E+04  0.12699999809E+01 0. -1.
</event>
<event>
 5   0  0.1461146E-06  0.2796563E+04  0.7818609E-02  0.8304336E-01
       -2   -1    0    0    0  501  0.00000000000E+00  0.00000000000E+00  0.15508833104E+04  0.15508833104E+04  0.25500000920E-02 0. -1.
        2   -1    0    0  501    0  0.00000000000E+00  0.00000000000E+00 -0.12606952334E+04  0.12606952334E+04  0.25500000920E-02 0.  1.
    10030    2    1    2    0    0  0.00000000000E+00  0.00000000000E+00  0.29018807701E+03  0.28115785438E+04  0.27965630313E+04 0.  0.
        1    1    3    3  502    0 -0.12245909241E+04 -0.53854912694E+03  0.55413616442E+03  0.14480072452E+04  0.50400001928E-02 0. -1.
       -1    1    3    3    0  502  0.12245909241E+04  0.53854912694E+03 -0.26394808741E+03  0.13635712986E+04  0.50400001928E-02 0.  1.
</event>
<event>
 5   0  0.4710000E-07  0.2801776E+04  0.7818609E-02  0.8302717E-01
        4   -1    0    0  501    0  0.00000000000E+00  0.00000000000E+00  0.23160472456E+04  0.23160475938E+04  0.12699999809E+01 0.  1.
       -4   -1    0    0    0  501  0.00000000000E+00  0.00000000000E+00 -0.84734244637E+03  0.84734339811E+03  0.12699999809E+01 0. -1.
    10030    2    1    2    0    0  0.00000000000E+00  0.00000000000E+00  0.14687047992E+04  0.31633909919E+04  0.28017760047E+04 0.  0.
        1    1    3    3  502    0 -0.94168340377E+03  0.94444025626E+03  0.12183416254E+04  0.18064028750E+04  0.50400001928E-02 0.  1.
       -1    1    3    3    0  502  0.94168340377E+03 -0.94444025626E+03  0.25036317384E+03  0.13569881169E+04  0.50400001928E-02 0. -1.
</event>
<event>
 5   0  0.5551565E-07  0.2809567E+04  0.7818609E-02  0.8300304E-01
        1   -1    0    0  501    0  0.00000000000E+00  0.00000000000E+00  0.19522534659E+04  0.19522534659E+04  0.50400001928E-02 0.  1.
       -1   -1    0    0    0  501  0.00000000000E+00  0.00000000000E+00 -0.10108406839E+04  0.10108406840E+04  0.50400001928E-02 0. -1.
    10030    2    1    2    0    0  0.00000000000E+00  0.00000000000E+00  0.94141278196E+03  0.29630941499E+04  0.28095673893E+04 0.  0.
        3    1    3    3  502    0 -0.12740412644E+04  0.58318236859E+03  0.57687717477E+03  0.15152788863E+04  0.10100000352E+00 0. -1.
       -3    1    3    3    0  502  0.12740412644E+04 -0.58318236859E+03  0.36453560719E+03  0.14478152636E+04  0.10100000352E+00 0.  1.
</event>
<event>
 5   0  0.5362952E-07  0.2795001E+04  0.7818609E-02  0.8304822E-01
       -1   -1    0    0    0  501  0.00000000000E+00  0.00000000000E+00  0.11277362815E+04  0.11277362815E+04  0.50400001928E-02 0. -1.
        1   -1    0    0  501    0  0.00000000000E+00  0.00000000000E+00 -0.17317945630E+04  0.17317945630E+04  0.50400001928E-02 0.  1.
    10030    2    1    2    0    0  0.00000000000E+00  0.00000000000E+00 -0.60405828149E+03  0.28595308444E+04  0.27950009379E+04 0.  0.
        1    1    3    3  502    0  0.22213780905E+03  0.74571498837E+03 -0.14896798650E+04  0.16806493240E+04  0.50400001928E-02 0.  1.
       -1    1    3    3    0  502 -0.22213780905E+03 -0.74571498837E+03  0.88562158350E+03  0.11788815205E+04  0.50400001928E-02 0. -1.
</event>
<event>
 5   0  0.1377807E-06  0.2796925E+04  0.7818609E-02  0.8304224E-01
        2   -1    0    0  501    0  0.00000000000E+00  0.00000000000E+00  0.20156450250E+04  0.20156450250E+04  0.25500000920E-02 0.  1.
       -2   -1    0    0    0  501  0.00000000000E+00  0.00000000000E+00 -0.97025889410E+03  0.97025889410E+03  0.25500000920E-02 0. -1.
    10030    2    1    2    0    0  0.00000000000E+00  0.00000000000E+00  0.10453861309E+04  0.29859039191E+04  0.27969251065E+04 0.  0.
        2    1    3    3  502    0 -0.27220338380E+03  0.95996852168E+03 -0.52333880887E+03  0.11267287844E+04  0.25500000920E-02 0. -1.
       -2    1    3    3    0  502  0.27220338380E+03 -0.95996852168E+03  0.15687249397E+04  0.18591751347E+04  0.25500000920E-02 0.  1.
</event>
<event>
 5   0  0.5297741E-07  0.2799065E+04  0.7818609E-02  0.8303559E-01
        1   -1    0    0  501    0  0.00000000000E+00  0.00000000000E+00  0.17191587037E+04  0.17191587037E+04  0.50400001928E-02 0. -1.
       -1   -1    0    0    0  501  0.00000000000E+00  0.00000000000E+00 -0.11393315783E+04  0.11393315783E+04  0.50400001928E-02 0.  1.
    10030    2    1    2    0    0  0.00000000000E+00  0.00000000000E+00  0.57982712540E+03  0.28584902820E+04  0.27990654149E+04 0.  0.
        5    1    3    3  502    0  0.13111253485E+04 -0.46732732171E+03  0.14113183109E+03  0.13990656843E+04  0.46999998093E+01 0.  1.
       -5    1    3    3    0  502 -0.13111253485E+04  0.46732732171E+03  0.43869529431E+03  0.14594245977E+04  0.46999998093E+01 0. -1.
</event>
<event>
 5   0  0.5551565E-07  0.2799141E+04  0.7818609E-02  0.8303535E-01
       -1   -1    0    0    0  501  0.00000000000E+00  0.00000000000E+00  0.11455586382E+04  0.11455586382E+04  0.50400001928E-02 0. -1.
        1   -1    0    0  501    0  0.00000000000E+00  0.00000000000E+00 -0.17099063648E+04  0.17099063648E+04  0.50400001928E-02 0.  1.
    10030    2    1    2    0    0  0.00000000000E+00  0.00000000000E+00 -0.56434772661E+03  0.28554650030E+04  0.27991413017E+04 0.  0.
        3    1    3    3  502    0 -0.41694537181E+03  0.37078830028E+03 -0.15915392455E+04  0.16865125517E+04  0.10100000352E+00 0.  1.
       -3    1    3    3    0  502  0.41694537181E+03 -0.37078830028E+03  0.10271915189E+04  0.11689524513E+04  0.10100000352E+00 0. -1.
</event>
<event>
 5   0  0.5214658E-07  0.2796361E+04  0.7818609E-02  0.8304399E-01
       -1   -1    0    0    0  501  0.00000000000E+00  0.00000000000E+00  0.93838705568E+03  0.93838705569E+03  0.50400001928E-02 0. -1.
        1   -1    0    0  501    0  0.00000000000E+00  0.00000000000E+00 -0.20832655094E+04  0.20832655094E+04  0.50400001928E-02 0.  1.
    10030    2    1    2    0    0  0.00000000000E+00  0.00000000000E+00 -0.11448784537E+04  0.30216525651E+04  0.27963614842E+04 0.  0.
        2    1    3    3  502    0  0.12569225067E+04 -0.45113802507E+03 -0.12491056331E+03  0.13412614788E+04  0.25500000920E-02 0. -1.
       -2    1    3    3    0  502 -0.12569225067E+04  0.45113802507E+03 -0.10199678904E+04  0.16803910864E+04  0.25500000920E-02 0.  1.
</event>
<event>
 5   0  0.1377807E-06  0.2798217E+04  0.7818609E-02  0.8303822E-01
       -2   -1    0    0    0  501  0.00000000000E+00  0.00000000000E+00  0.11238767565E+04  0.11238767565E+04  0.25500000920E-02 0.  1.
        2   -1    0    0  501    0  0.00000000000E+00  0.00000000000E+00 -0.17417426090E+04  0.17417426090E+04  0.25500000920E-02 0. -1.
    10030    2    1    2    0    0  0.00000000000E+00  0.00000000000E+00 -0.61786585247E+03  0.28656193655E+04  0.27982165992E+04 0.  0.
        2    1    3    3  502    0  0.74687060228E+03 -0.93185806950E+03  0.43754829051E+03  0.12718583509E+04  0.25500000920E-02 0.  1.
       -2    1    3    3    0  502 -0.74687060228E+03  0.93185806950E+03 -0.10554141430E+04  0.15937610145E+04  0.25500000920E-02 0. -1.
</event>
<event>
 5   0  0.1499888E-06  0.2800754E+04  0.7818609E-02  0.8303034E-01
       -2   -1    0    0    0  501  0.00000000000E+00  0.00000000000E+00  0.12191467647E+04  0.12191467647E+04  0.25500000920E-02 0. -1.
        2   -1    0    0  501    0  0.00000000000E+00  0.00000000000E+00 -0.16085479299E+04  0.16085479299E+04  0.25500000920E-02 0.  1.
    10030    2    1    2    0    0  0.00000000000E+00  0.00000000000E+00 -0.38940116526E+03  0.28276946946E+04  0.28007541874E+04 0.  0.
        3    1    3    3  502    0  0.77839309281E+03 -0.97969102671E+03  0.44012878097E+03  0.13264251463E+04  0.10100000352E+00 0. -1.
       -3    1    3    3    0  502 -0.77839309281E+03  0.97969102671E+03 -0.82952994623E+03  0.15012695483E+04  0.10100000352E+00 0.  1.
</event>
<event>
 5   0  0.5297741E-07  0.2800455E+04  0.7818609E-02  0.8303127E-01
       -1   -1    0    0    0  501  0.00000000000E+00  0.00000000000E+00  0.16020768341E+04  0.16020768341E+04  0.50400001928E-02 0.  1.
        1   -1    0    0  501    0  0.00000000000E+00  0.00000000000E+00 -0.12238096216E+04  0.12238096216E+04  0.50400001928E-02 0. -1.
    10030    2    1    2    0    0  0.00000000000E+00  0.00000000000E+00  0.37826721248E+03  0.28258864558E+04  0.28004549946E+04 0.  0.
        5    1    3    3  502    0 -0.19080517859E+03 -0.10527832156E+04  0.11005835517E+04  0.15349479990E+04  0.46999998093E+01 0.  1.
       -5    1    3    3    0  502  0.19080517859E+03  0.10527832156E+04 -0.72231633919E+03  0.12909384568E+04  0.46999998093E+01 0. -1.
</event>
<event>
 5   0  0.5362952E-07  0.2799247E+04  0.7818609E-02  0.8303502E-01
        1   -1    0    0  501    0  0.00000000000E+00  0.00000000000E+00  0.17609205492E+04  0.17609205492E+04  0.50400001928E-02 0. -1.
       -1   -1    0    0    0  501  0.00000000000E+00  0.00000000000E+00 -0.11124552384E+04  0.11124552384E+04  0.50400001928E-02 0.  1.
    10030    2    1    2    0    0  0.00000000000E+00  0.00000000000E+00  0.64846531086E+03  0.28733757876E+04  0.27992465339E+04 0.  0.
        1    1    3    3  502    0  0.10478200121E+04 -0.86160751456E+03 -0.29346769031E+02  0.13568918601E+04  0.50400001928E-02 0. -1.
       -1    1    3    3    0  502 -0.10478200121E+04  0.86160751456E+03  0.67781207989E+03  0.15164839276E+04  0.50400001928E-02 0.  1.
</event>
<event>
 5   0  0.5297741E-07  0.2802920E+04  0.7818609E-02  0.8302363E-01
       -1   -1    0    0    0  501  0.00000000000E+00  0.00000000000E+00  0.11778207045E+04  0.11778207045E+04  0.50400001928E-02 0. -1.
        1   -1    0    0  501    0  0.00000000000E+00  0.00000000000E+00 -0.16675624992E+04  0.16675624992E+04  0.50400001928E-02 0.  1.
    10030    2    1    2    0    0  0.00000000000E+00  0.00000000000E+00 -0.48974179472E+03  0.28453832037E+04  0.28029196475E+04 0.  0.
        5    1    3    3  502    0  0.11950478954E+04  0.65182956524E+03 -0.58315543617E+03  0.14809164754E+04  0.46999998093E+01 0.  1.
       -5    1    3    3    0  502 -0.11950478954E+04 -0.65182956524E+03  0.93413641448E+02  0.13644667283E+04  0.46999998093E+01 0. -1.
</event>
<event>
 5   0  0.1439207E-06  0.2794876E+04  0.7818609E-02  0.8304861E-01
        2   -1    0    0  501    0  0.00000000000E+00  0.00000000000E+00  0.23649478675E+04  0.23649478675E+04  0.25500000920E-02 0.  1.
       -2   -1    0    0    0  501  0.00000000000E+00  0.00000000000E+00 -0.82574014160E+03  0.82574014160E+03  0.25500000920E-02 0. -1.
    10030    2    1    2    0    0  0.00000000000E+00  0.00000000000E+00  0.15392077259E+04  0.31906880091E+04  0.27948755872E+04 0.  0.
        5    1    3    3  502    0 -0.34530587886E+03 -0.48873325567E+03  0.22112652177E+04  0.22908104021E+04  0.46999998093E+01 0.  1.
       -5    1    3    3    0  502  0.34530587886E+03  0.48873325567E+03 -0.67205749186E+03  0.89987760698E+03  0.46999998093E+01 0. -1.
</event>
<event>
 5   0  0.4710000E-07  0.2795283E+04  0.7818609E-02  0.8304734E-01
       -3   -1    0    0    0  501  0.00000000000E+00  0.00000000000E+00  0.20940100559E+04  0.20940100584E+04  0.10100000352E+00 0.  1.
        3   -1    0    0  501    0  0.00000000000E+00  0.00000000000E+00 -0.93285232192E+03  0.93285232739E+03  0.10100000352E+00 0. -1.
    10030    2    1    2    0    0  0.00000000000E+00  0.00000000000E+00  0.11611577340E+04  0.30268623858E+04  0.27952832807E+04 0.  0.
        5    1    3    3  502    0 -0.12215968679E+04 -0.67779627060E+03  0.62487473364E+03  0.15304238677E+04  0.46999998093E+01 0. -1.
       -5    1    3    3    0  502  0.12215968679E+04  0.67779627060E+03  0.53628300039E+03  0.14964385181E+04  0.46999998093E+01 0.  1.
</event>
<event>
 5   0  0.1377807E-06  0.2800061E+04  0.7818609E-02  0.8303249E-01
       -2   -1    0    0    0  501  0.00000000000E+00  0.00000000000E+00  0.17386551615E+04  0.17386551615E+04  0.25500000920E-02 0.  1.
        2   -1    0    0  501    0  0.00000000000E+00  0.00000000000E+00 -0.11273570470E+04  0.11273570470E+04  0.25500000920E-02 0. -1.
    10030    2    1    2    0    0  0.00000000000E+00  0.00000000000E+00  0.61129811450E+03  0.28660122086E+04  0.28000608199E+04 0.  0.
        2    1    3    3  502    0 -0.12461327969E+03 -0.86077798899E+03  0.14285847759E+04  0.16725195598E+04  0.25500000920E-02 0.  1.
       -2    1    3    3    0  502  0.12461327969E+03  0.86077798899E+03 -0.81728666143E+03  0.11934926488E+04  0.25500000920E-02 0. -1.
</event>
<event>
 5   0  0.1377807E-06  0.2756553E+04  0.7818609E-02  0.8316885E-01
       -2   -1    0    0    0  501  0.00000000000E+00  0.00000000000E+00  0.11102706740E+04  0.11102706740E+04  0.25500000920E-02 0. -1.
        2   -1    0    0  501    0  0.00000000000E+00  0.00000000000E+00 -0.17109758910E+04  0.17109758910E+04  0.25500000920E-02 0.  1.
    10030    2    1    2    0    0  0.00000000000E+00  0.00000000000E+00 -0.60070521699E+03  0.28212465651E+04  0.27565531780E+04 0.  0.
        2    1    3    3  502    0 -0.95414145143E+03  0.58545663605E+03  0.52257050380E+03  0.12354049188E+04  0.25500000920E-02 0. -1.
       -2    1    3    3    0  502  0.95414145143E+03 -0.58545663605E+03 -0.11232757208E+04  0.15858416463E+04  0.25500000920E-02 0.  1.
</event>
<event>
 5   0  0.1439207E-06  0.2800535E+04  0.7818609E-02  0.8303102E-01
        2   -1    0    0  501    0  0.00000000000E+00  0.00000000000E+00  0.11597348727E+04  0.11597348727E+04  0.25500000920E-02 0.  1.
       -2   -1    0    0    0  501  0.00000000000E+00  0.00000000000E+00 -0.16906875638E+04  0.16906875638E+04  0.25500000920E-02 0. -1.
    10030    2    1    2    0    0  0.00000000000E+00  0.00000000000E+00 -0.53095269104E+03  0.28504224365E+04  0.28005351821E+04 0.  0.
        5    1    3    3  502    0 -0.64565147940E+03 -0.67433043569E+03 -0.13276854574E+04  0.16230705879E+04  0.46999998093E+01 0. -1.
       -5    1    3    3    0  502  0.64565147940E+03  0.67433043569E+03  0.79673276637E+03  0.12273518486E+04  0.46999998093E+01 0.  1.
</event>
<event>
 5   0  0.1461146E-06  0.2806244E+04  0.7818609E-02  0.8301332E-01
       -2   -1    0    0    0  501  0.00000000000E+00  0.00000000000E+00  0.10491197339E+04  0.10491197339E+04  0.25500000920E-02 0.  1.
        2   -1    0    0  501    0  0.00000000000E+00  0.00000000000E+00 -0.18765746369E+04  0.18765746369E+04  0.25500000920E-02 0. -1.
    10030    2    1    2    0    0  0.00000000000E+00  0.00000000000E+00 -0.82745490297E+03  0.29256943708E+04  0.28062440975E+04 0.  0.
        1    1    3    3  502    0  0.58772913689E+03  0.10441202240E+04  0.34751622535E+03  0.12475496413E+04  0.50400001928E-02 0. -1.
       -1    1    3    3    0  502 -0.58772913689E+03 -0.10441202240E+04 -0.11749711283E+04  0.16781447295E+04  0.50400001928E-02 0.  1.
</event>
<event>
 5   0  0.1377807E-06  0.2799662E+04  0.7818609E-02  0.8303373E-01
        2   -1    0    0  501    0  0.00000000000E+00  0.00000000000E+00  0.17233003172E+04  0.17233003172E+04  0.25500000920E-02 0. -1.
       -2   -1    0    0    0  501  0.00000000000E+00  0.00000000000E+00 -0.11370783125E+04  0.11370783125E+04  0.25500000920E-02 0.  1.
    10030    2    1    2    0    0  0.00000000000E+00  0.00000000000E+00  0.58622200467E+03  0.28603786297E+04  0.27996624201E+04 0.  0.
        2    1    3    3  502    0 -0.75739187623E+03  0.12941708298E+03 -0.90236587524E+03  0.11851815930E+04  0.25500000920E-02 0.  1.
       -2    1    3    3    0  502  0.75739187623E+03 -0.12941708298E+03  0.14885878799E+04  0.16751970367E+04  0.25500000920E-02 0. -1.
</event>
<event>
 5   0  0.1461146E-06  0.2798742E+04  0.7818609E-02  0.8303659E-01
        2   -1    0    0  501    0  0.00000000000E+00  0.00000000000E+00  0.13498857396E+04  0.13498857396E+04  0.25500000920E-02 0. -1.
       -2   -1    0    0    0  501  0.00000000000E+00  0.00000000000E+00 -0.14506699243E+04  0.14506699243E+04  0.25500000920E-02 0.  1.
    10030    2    1    2    0    0  0.00000000000E+00  0.00000000000E+00 -0.10078418466E+03  0.28005556639E+04  0.27987416055E+04 0.  0.
        1    1    3    3  502    0  0.14308547344E+02  0.38047350690E+03  0.12970592790E+04  0.13517868165E+04  0.50400001928E-02 0. -1.
       -1    1    3    3    0  502 -0.14308547344E+02 -0.38047350690E+03 -0.13978434637E+04  0.14487688473E+04  0.50400001928E-02 0.  1.
</event>
<event>
 5   0  0.5282098E-07  0.2799485E+04  0.7818609E-02  0.8303428E-01
       -1   -1    0    0    0  501  0.00000000000E+00  0.00000000000E+00  0.13675941857E+04  0.13675941857E+04  0.50400001928E-02 0.  1.
        1   -1    0    0  501    0  0.00000000000E+00  0.00000000000E+00 -0.14326468480E+04  0.14326468480E+04  0.50400001928E-02 0. -1.
    10030    2    1    2    0    0  0.00000000000E+00  0.00000000000E+00 -0.65052662291E+02  0.28002410337E+04  0.27994853095E+04 0.  0.
        4    1    3    3  502    0 -0.97736179131E+03  0.36263208824E+03  0.90182421006E+03  0.13784145317E+04  0.12699999809E+01 0.  1.
       -4    1    3    3    0  502  0.97736179131E+03 -0.36263208824E+03 -0.96687687235E+03  0.14218265020E+04  0.12699999809E+01 0. -1.
</event>
<event>
 5   0  0.5282098E-07  0.2802241E+04  0.7818609E-02  0.8302573E-01
        1   -1    0    0  501    0  0.00000000000E+00  0.00000000000E+00  0.20285593224E+04  0.20285593225E+04  0.50400001928E-02 0.  1.
       -1   -1    0    0    0  501  0.00000000000E+00  0.00000000000E+00 -0.96775047896E+03  0.96775047897E+03  0.50400001928E-02 0. -1.
    10030    2    1    2    0    0  0.00000000000E+00  0.00000000000E+00  0.10608088435E+04  0.29963098014E+04  0.28022414285E+04 0.  0.
        4    1    3    3  502    0  0.88367451597E+03 -0.49133804607E+03  0.15675505639E+04  0.18653445014E+04  0.12699999809E+01 0. -1.
       -4    1    3    3    0  502 -0.88367451597E+03  0.49133804607E+03 -0.50674172042E+03  0.11309653000E+04  0.12699999809E+01 0.  1.
</event>
<event>
 5   0  0.5282098E-07  0.2849403E+04  0.7818609E-02  0.8288093E-01
       -1   -1    0    0    0  501  0.00000000000E+00  0.00000000000E+00  0.84397620223E+03  0.84397620225E+03  0.50400001928E-02 0.  1.
        1   -1    0    0  501    0  0.00000000000E+00  0.00000000000E+00 -0.24050135644E+04  0.24050135644E+04  0.50400001928E-02 0. -1.
    10030    2    1    2    0    0  0.00000000000E+00  0.00000000000E+00 -0.15610373621E+04  0.32489897666E+04  0.28494028949E+04 0.  0.
        4    1    3    3  502    0  0.41474528112E+03  0.66544505647E+03 -0.21368437072E+04  0.22761663852E+04  0.12699999809E+01 0. -1.
       -4    1    3    3    0  502 -0.41474528112E+03 -0.66544505647E+03  0.57580634509E+03  0.97282338136E+03  0.12699999809E+01 0.  1.
</event>
<event>
 5   0  0.1394410E-06  0.2800432E+04  0.7818609E-02  0.8303134E-01
       -2   -1    0    0    0  501  0.00000000000E+00  0.00000000000E+00  0.81551305200E+03  0.81551305201E+03  0.25500000920E-02 0.  1.
        2   -1    0    0  501    0  0.00000000000E+00  0.00000000000E+00 -0.24041366700E+04  0.24041366700E+04  0.25500000920E-02 0. -1.
    10030    2    1    2    0    0  0.00000000000E+00  0.00000000000E+00 -0.15886236180E+04  0.32196497220E+04  0.28004319904E+04 0.  0.
        4    1    3    3  502    0 -0.49974088546E+03 -0.82691359953E+03 -0.19594700771E+04  0.21847314823E+04  0.12699999809E+01 0. -1.
       -4    1    3    3    0  502  0.49974088546E+03  0.82691359953E+03  0.37084645915E+03  0.10349182397E+04  0.12699999809E+01 0.  1.
</event>
<event>
 5   0  0.5297741E-07  0.2797885E+04  0.7818609E-02  0.8303925E-01
        1   -1    0    0  501    0  0.00000000000E+00  0.00000000000E+00  0.19992235861E+04  0.19992235861E+04  0.50400001928E-02 0. -1.
       -1   -1    0    0    0  501  0.00000000000E+00  0.00000000000E+00 -0.97890024515E+03  0.97890024517E+03  0.50400001928E-02 0.  1.
    10030    2    1    2    0    0  0.00000000000E+00  0.00000000000E+00  0.10203233410E+04  0.29781238313E+04  0.27978852432E+04 0.  0.
        5    1    3    3  502    0 -0.10389666813E+03  0.13712232080E+04  0.78355544058E+03  0.15827282844E+04  0.46999998093E+01 0. -1.
       -5    1    3    3    0  502  0.10389666813E+03 -0.13712232080E+04  0.23676790038E+03  0.13953955469E+04  0.46999998093E+01 0.  1.
</event>
<event>
 5   0  0.5214658E-07  0.2799835E+04  0.7818609E-02  0.8303320E-01
        1   -1    0    0  501    0  0.00000000000E+00  0.00000000000E+00  0.17109499798E+04  0.17109499798E+04  0.50400001928E-02 0.  1.
       -1   -1    0    0    0  501  0.00000000000E+00  0.00000000000E+00 -0.11454276168E+04  0.11454276168E+04  0.50400001928E-02 0. -1.
    10030    2    1    2    0    0  0.00000000000E+00  0.00000000000E+00  0.56552236304E+03  0.28563775966E+04  0.27998352508E+04 0.  0.
        2    1    3    3  502    0  0.13368945836E+03 -0.27335801568E+03 -0.11112789947E+04  0.11521885610E+04  0.25500000920E-02 0. -1.
       -2    1    3    3    0  502 -0.13368945836E+03  0.27335801568E+03  0.16768013577E+04  0.17041890357E+04  0.25500000920E-02 0.  1.
</event>
<event>
 5   0  0.5282098E-07  0.2797181E+04  0.7818609E-02  0.8304144E-01
        1   -1    0    0  501    0  0.00000000000E+00  0.00000000000E+00  0.12478339703E+04  0.12478339703E+04  0.50400001928E-02 0. -1.
       -1   -1    0    0    0  501  0.00000000000E+00  0.00000000000E+00 -0.15675607789E+04  0.15675607789E+04  0.50400001928E-02 0.  1.
    10030    2    1    2    0    0  0.00000000000E+00  0.00000000000E+00 -0.31972680864E+03  0.28153947492E+04  0.27971811457E+04 0.  0.
        4    1    3    3  502    0  0.25268264894E+03  0.45067525132E+03  0.11482519238E+04  0.12591428817E+04  0.12699999809E+01 0. -1.
       -4    1    3    3    0  502 -0.25268264894E+03 -0.45067525132E+03 -0.14679787324E+04  0.15562518675E+04  0.12699999809E+01 0.  1.
</event>
<event>
 5   0  0.5282098E-07  0.2798207E+04  0.7818609E-02  0.8303825E-01
        1   -1    0    0  501    0  0.00000000000E+00  0.00000000000E+00  0.18108614770E+04  0.18108614770E+04  0.50400001928E-02 0.  1.
       -1   -1    0    0    0  501  0.00000000000E+00  0.00000000000E+00 -0.10809721951E+04  0.10809721952E+04  0.50400001928E-02 0. -1.
    10030    2    1    2    0    0  0.00000000000E+00  0.00000000000E+00  0.72988928185E+03  0.28918336721E+04  0.27982072160E+04 0.  0.
        4    1    3    3  502    0  0.17524681261E+02  0.44107788782E+03 -0.10071192083E+04  0.10996124455E+04  0.12699999809E+01 0. -1.
       -4    1    3    3    0  502 -0.17524681261E+02 -0.44107788782E+03  0.17370084902E+04  0.17922212267E+04  0.12699999809E+01 0.  1.
</event>
<event>
 5   0  0.1499888E-06  0.2802626E+04  0.7818609E-02  0.8302454E-01
        2   -1    0    0  501    0  0.00000000000E+00  0.00000000000E+00  0.14685351339E+04  0.14685351339E+04  0.25500000920E-02 0.  1.
       -2   -1    0    0    0  501  0.00000000000E+00  0.00000000000E+00 -0.13371678987E+04  0.13371678987E+04  0.25500000920E-02 0. -1.
    10030    2    1    2    0    0  0.00000000000E+00  0.00000000000E+00  0.13136723516E+03  0.28057030326E+04  0.28026259394E+04 0.  0.
        3    1    3    3  502    0  0.10147275596E+04  0.90655272206E+03 -0.26959926606E+03  0.13871530675E+04  0.10100000352E+00 0. -1.
       -3    1    3    3    0  502 -0.10147275596E+04 -0.90655272206E+03  0.40096650122E+03  0.14185499651E+04  0.10100000352E+00 0.  1.
</event>
<event>
 5   0  0.5214658E-07  0.2797840E+04  0.7818609E-02  0.8303939E-01
       -1   -1    0    0    0  501  0.00000000000E+00  0.00000000000E+00  0.10109677276E+04  0.10109677276E+04  0.50400001928E-02 0.  1.
        1   -1    0    0  501    0  0.00000000000E+00  0.00000000000E+00 -0.19357468915E+04  0.19357468915E+04  0.50400001928E-02 0. -1.
    10030    2    1    2    0    0  0.00000000000E+00  0.00000000000E+00 -0.92477916384E+03  0.29467146191E+04  0.27978403358E+04 0.  0.
        2    1    3    3  502    0  0.39453613722E+02  0.13981215956E+04 -0.48979435845E+03  0.14819578595E+04  0.25500000920E-02 0. -1.
       -2    1    3    3    0  502 -0.39453613722E+02 -0.13981215956E+04 -0.43498480538E+03  0.14647567596E+04  0.25500000920E-02 0.  1.
</event>
<event>
 5   0  0.1499888E-06  0.2797062E+04  0.7818609E-02  0.8304181E-01
       -2   -1    0    0    0  501  0.00000000000E+00  0.00000000000E+00  0.55909315771E+03  0.55909315772E+03  0.25500000920E-02 0. -1.
        2   -1    0    0  501    0  0.00000000000E+00  0.00000000000E+00 -0.34983238610E+04  0.34983238610E+04  0.25500000920E-02 0.  1.
    10030    2    1    2    0    0  0.00000000000E+00  0.00000000000E+00 -0.29392307033E+04  0.40574170187E+04  0.27970619830E+04 0.  0.
        3    1    3    3  502    0 -0.70034886456E+03  0.73899522505E+02 -0.32223450632E+04  0.32984022478E+04  0.10100000352E+00 0.  1.
       -3    1    3    3    0  502  0.70034886456E+03 -0.73899522505E+02  0.28311435992E+03  0.75901477095E+03  0.10100000352E+00 0. -1.
</event>
<event>
 5   0  0.5297741E-07  0.2801951E+04  0.7818609E-02  0.8302663E-01
        1   -1    0    0  501    0  0.00000000000E+00  0.00000000000E+00  0.24712533294E+04  0.24712533294E+04  0.50400001928E-02 0.  1.
       -1   -1    0    0    0  501  0.00000000000E+00  0.00000000000E+00 -0.79422539350E+03  0.79422539351E+03  0.50400001928E-02 0. -1.
    10030    2    1    2    0    0  0.00000000000E+00  0.00000000000E+00  0.16770279359E+04  0.32654787229E+04  0.28019508547E+04 0.  0.
        5    1    3    3  502    0  0.47601126952E+03 -0.27263362715E+03 -0.66384934120E+03  0.86118166560E+03  0.46999998093E+01 0. -1.
       -5    1    3    3    0  502 -0.47601126952E+03  0.27263362715E+03  0.23408772771E+04  0.24042970573E+04  0.46999998093E+01 0.  1.
</event>
<event>
 5   0  0.1499888E-06  0.2789146E+04  0.7818609E-02  0.8306646E-01
       -2   -1    0    0    0  501  0.00000000000E+00  0.00000000000E+00  0.16222530385E+04  0.16222530385E+04  0.25500000920E-02 0. -1.
        2   -1    0    0  501    0  0.00000000000E+00  0.00000000000E+00 -0.11988474049E+04  0.11988474049E+04  0.25500000920E-02 0.  1.
    10030    2    1    2    0    0  0.00000000000E+00  0.00000000000E+00  0.42340563366E+03  0.28211004434E+04  0.27891459950E+04 0.  0.
        3    1    3    3  502    0  0.14302340905E+03 -0.10126748917E+04  0.11706511085E+04  0.15544742390E+04  0.10100000352E+00 0. -1.
       -3    1    3    3    0  502 -0.14302340905E+03  0.10126748917E+04 -0.74724547486E+03  0.12666262044E+04  0.10100000352E+00 0.  1.
</event>
<event>
 5   0  0.5551565E-07  0.2801534E+04  0.7818609E-02  0.8302792E-01
       -1   -1    0    0    0  501  0.00000000000E+00  0.00000000000E+00  0.13105085286E+04  0.13105085286E+04  0.50400001928E-02 0.  1.
        1   -1    0    0  501    0  0.00000000000E+00  0.00000000000E+00 -0.14972416783E+04  0.14972416783E+04  0.50400001928E-02 0. -1.
    10030    2    1    2    0    0  0.00000000000E+00  0.00000000000E+00 -0.18673314965E+03  0.28077502069E+04  0.28015338576E+04 0.  0.
        3    1    3    3  502    0 -0.13390849996E+03 -0.34586880761E+03  0.12604049895E+04  0.13138407309E+04  0.10100000352E+00 0.  1.
       -3    1    3    3    0  502  0.13390849996E+03  0.34586880761E+03 -0.14471381392E+04  0.14939094760E+04  0.10100000352E+00 0. -1.
</event>
<event>
 5   0  0.5297741E-07  0.2796798E+04  0.7818609E-02  0.8304263E-01
       -1   -1    0    0    0  501  0.00000000000E+00  0.00000000000E+00  0.14165497652E+04  0.14165497653E+04  0.50400001928E-02 0.  1.
        1   -1    0    0  501    0  0.00000000000E+00  0.00000000000E+00 -0.13804804298E+04  0.13804804298E+04  0.50400001928E-02 0. -1.
    10030    2    1    2    0    0  0.00000000000E+00  0.00000000000E+00  0.36069335497E+02  0.27970301950E+04  0.27967976178E+04 0.  0.
        5    1    3    3  502    0  0.20706471753E+03  0.12890492358E+04  0.51904879134E+03  0.14049759668E+04  0.46999998093E+01 0.  1.
       -5    1    3    3    0  502 -0.20706471753E+03 -0.12890492358E+04 -0.48297945584E+03  0.13920542282E+04  0.46999998093E+01 0. -1.
</event>
<event>
 5   0  0.1439207E-06  0.2845044E+04  0.7818609E-02  0.8289419E-01
        2   -1    0    0  501    0  0.00000000000E+00  0.00000000000E+00  0.14574700265E+04  0.14574700265E+04  0.25500000920E-02 0.  1.
       -2   -1    0    0    0  501  0.00000000000E+00  0.00000000000E+00 -0.13884121992E+04  0.13884121992E+04  0.25500000920E-02 0. -1.
    10030    2    1    2    0    0  0.00000000000E+00  0.00000000000E+00  0.69057827346E+02  0.28458822257E+04  0.28450442279E+04 0.  0.
        5    1    3    3  502    0 -0.34633653652E+03  0.31367035545E+02  0.14142880118E+04  0.14564221771E+04  0.46999998093E+01 0.  1.
       -5    1    3    3    0  502  0.34633653652E+03 -0.31367035545E+02 -0.13452301845E+04  0.13894600486E+04  0.46999998093E+01 0. -1.
</event>
<event>
 5   0  0.5551565E-07  0.2799339E+04  0.7818609E-02  0.8303474E-01
       -1   -1    0    0    0  501  0.00000000000E+00  0.00000000000E+00  0.15470114596E+04  0.15470114596E+04  0.50400001928E-02 0. -1.
        1   -1    0    0  501    0  0.00000000000E+00  0.00000000000E+00 -0.12663609994E+04  0.12663609994E+04  0.50400001928E-02 0.  1.
    10030    2    1    2    0    0  0.00000000000E+00  0.00000000000E+00  0.28065046025E+03  0.28133724590E+04  0.27993391921E+04 0.  0.
        3    1    3    3  502    0 -0.44607891188E+03 -0.90535030943E+03 -0.83429361276E+03  0.13094622640E+04  0.10100000352E+00 0.  1.
       -3    1    3    3    0  502  0.44607891188E+03  0.90535030943E+03  0.11149440730E+04  0.15039101950E+04  0.10100000352E+00 0. -1.
</event>
<event>
 5   0  0.5214658E-07  0.2819642E+04  0.7818609E-02  0.8297196E-01
       -1   -1    0    0    0  501  0.00000000000E+00  0.00000000000E+00  0.76955225962E+03  0.76955225964E+03  0.50400001928E-02 0. -1.
        1   -1    0    0  501    0  0.00000000000E+00  0.00000000000E+00 -0.25827939085E+04  0.25827939085E+04  0.50400001928E-02 0.  1.
    10030    2    1    2    0    0  0.00000000000E+00  0.00000000000E+00 -0.18132416489E+04  0.33523461681E+04  0.28196417421E+04 0.  0.
        2    1    3    3  502    0 -0.13156012215E+04  0.49080754685E+03 -0.10565211212E+04  0.17572522590E+04  0.25500000920E-02 0.  1.
       -2    1    3    3    0  502  0.13156012215E+04 -0.49080754685E+03 -0.75672052767E+03  0.15950939092E+04  0.25500000920E-02 0. -1.
</event>
<event>
 5   0  0.1377807E-06  0.2801712E+04  0.7818609E-02  0.8302737E-01
        2   -1    0    0  501    0  0.00000000000E+00  0.00000000000E+00  0.17115969481E+04  0.17115969481E+04  0.25500000920E-02 0.  1.
       -2   -1    0    0    0  501  0.00000000000E+00  0.00000000000E+00 -0.11465304857E+04  0.11465304857E+04  0.25500000920E-02 0. -1.
    10030    2    1    2    0    0  0.00000000000E+00  0.00000000000E+00  0.56506646237E+03  0.28581274338E+04  0.28017123908E+04 0.  0.
        2    1    3    3  502    0 -0.10220362592E+04  0.16102232663E+03  0.12459606156E+04  0.16195382554E+04  0.25500000920E-02 0.  1.
       -2    1    3    3    0  502  0.10220362592E+04 -0.16102232663E+03 -0.68089415325E+03  0.12385891784E+04  0.25500000920E-02 0. -1.
</event>
<event>
 5   0  0.1377807E-06  0.2798172E+04  0.7818609E-02  0.8303836E-01
       -2   -1    0    0    0  501  0.00000000000E+00  0.00000000000E+00  0.29154842328E+04  0.29154842328E+04  0.25500000920E-02 0. -1.
        2   -1    0    0  501    0  0.00000000000E+00  0.00000000000E+00 -0.67139488214E+03  0.67139488215E+03  0.25500000920E-02 0.  1.
    10030    2    1    2    0    0  0.00000000000E+00  0.00000000000E+00  0.22440893507E+04  0.35868791150E+04  0.27981716837E+04 0.  0.
        2    1    3    3  502    0 -0.54066043722E+03 -0.89215720090E+03  0.23171274811E+04  0.25411292653E+04  0.25500000920E-02 0. -1.
       -2    1    3    3    0  502  0.54066043722E+03  0.89215720090E+03 -0.73038130422E+02  0.10457498496E+04  0.25500000920E-02 0.  1.
</event>
<event>
 5   0  0.1394410E-06  0.2809329E+04  0.7818609E-02  0.8300378E-01
        2   -1    0    0  501    0  0.00000000000E+00  0.00000000000E+00  0.19556792594E+04  0.19556792594E+04  0.25500000920E-02 0. -1.
       -2   -1    0    0    0  501  0.00000000000E+00  0.00000000000E+00 -0.10088988468E+04  0.10088988468E+04  0.25500000920E-02 0.  1.
    10030    2    1    2    0    0  0.00000000000E+00  0.00000000000E+00  0.94678041266E+03  0.29645781062E+04  0.28093291366E+04 0.  0.
        4    1    3    3  502    0 -0.10672629694E+04  0.85952133977E+03  0.14770252597E+03  0.13782760349E+04  0.12699999809E+01 0. -1.
       -4    1    3    3    0  502  0.10672629694E+04 -0.85952133977E+03  0.79907788669E+03  0.15863020713E+04  0.12699999809E+01 0.  1.
</event>
<event>
 5   0  0.1461146E-06  0.2803489E+04  0.7818609E-02  0.8302186E-01
        2   -1    0    0  501    0  0.00000000000E+00  0.00000000000E+00  0.27443078916E+04  0.27443078916E+04  0.25500000920E-02 0. -1.
       -2   -1    0    0    0  501  0.00000000000E+00  0.00000000000E+00 -0.71598634697E+03  0.71598634697E+03  0.25500000920E-02 0.  1.
    10030    2    1    2    0    0  0.00000000000E+00  0.00000000000E+00  0.20283215446E+04  0.34602942385E+04  0.28034885284E+04 0.  0.
        1    1    3    3  502    0  0.37045706947E+03 -0.94546879278E+02 -0.65038562664E+03  0.75443953771E+03  0.50400001928E-02 0.  1.
       -1    1    3    3    0  502 -0.37045706947E+03  0.94546879278E+02  0.26787071712E+04  0.27058547008E+04  0.50400001928E-02 0. -1.
</event>
<event>
 5   0  0.5214658E-07  0.2793489E+04  0.7818609E-02  0.8305293E-01
       -1   -1    0    0    0  501  0.00000000000E+00  0.00000000000E+00  0.10417714933E+04  0.10417714933E+04  0.50400001928E-02 0.  1.
        1   -1    0    0  501    0  0.00000000000E+00  0.00000000000E+00 -0.18726704223E+04  0.18726704223E+04  0.50400001928E-02 0. -1.
    10030    2    1    2    0    0  0.00000000000E+00  0.00000000000E+00 -0.83089892906E+03  0.29144419156E+04  0.27934886162E+04 0.  0.
        2    1    3    3  502    0  0.27163207516E+03 -0.49681536818E+03  0.91666114467E+03  0.10774400904E+04  0.25500000920E-02 0.  1.
       -2    1    3    3    0  502 -0.27163207516E+03  0.49681536818E+03 -0.17475600737E+04  0.18370018252E+04  0.25500000920E-02 0. -1.
</event>
<event>
 5   0  0.1377807E-06  0.2807964E+04  0.7818609E-02  0.8300800E-01
        2   -1    0    0  501    0  0.00000000000E+00  0.00000000000E+00  0.11079218304E+04  0.11079218304E+04  0.25500000920E-02 0.  1.
       -2   -1    0    0    0  501  0.00000000000E+00  0.00000000000E+00 -0.17791551888E+04  0.17791551888E+04  0.25500000920E-02 0. -1.
    10030    2    1    2    0    0  0.00000000000E+00  0.00000000000E+00 -0.67123335838E+03  0.28870770192E+04  0.28079635848E+04 0.  0.
        2    1    3    3  502    0 -0.31030416276E+02 -0.13969501896E+04 -0.19489507899E+03  0.14108213248E+04  0.25500000920E-02 0. -1.
       -2    1    3    3    0  502  0.31030416276E+02  0.13969501896E+04 -0.47633827940E+03  0.14762556944E+04  0.25500000920E-02 0.  1.
</event>
<event>
 5   0  0.1499888E-06  0.2802157E+04  0.7818609E-02  0.8302599E-01
        2   -1    0    0  501    0  0.00000000000E+00  0.00000000000E+00  0.10071430510E+04  0.10071430510E+04  0.25500000920E-02 0. -1.
       -2   -1    0    0    0  501  0.00000000000E+00  0.00000000000E+00 -0.19490979836E+04  0.19490979836E+04  0.25500000920E-02 0.  1.
    10030    2    1    2    0    0  0.00000000000E+00  0.00000000000E+00 -0.94195493259E+03  0.29562410346E+04  0.28021566623E+04 0.  0.
        3    1    3    3  502    0 -0.74339667621E+03  0.11840095824E+04 -0.56826067060E+03  0.15091181231E+04  0.10100000352E+00 0.  1.
       -3    1    3    3    0  502  0.74339667621E+03 -0.11840095824E+04 -0.37369426199E+03  0.14471229116E+04  0.10100000352E+00 0. -1.
</event>
<event>
 5   0  0.5551565E-07  0.2800146E+04  0.7818609E-02  0.8303223E-01
        1   -1    0    0  501    0  0.00000000000E+00  0.00000000000E+00  0.18779068164E+04  0.18779068164E+04  0.50400001928E-02 0. -1.
       -1   -1    0    0    0  501  0.00000000000E+00  0.00000000000E+00 -0.10438239394E+04  0.10438239394E+04  0.50400001928E-02 0.  1.
    10030    2    1    2    0    0  0.00000000000E+00  0.00000000000E+00  0.83408287705E+03  0.29217307558E+04  0.28001457755E+04 0.  0.
        3    1    3    3  502    0  0.96251706462E+03  0.41231884403E+03  0.13867821546E+04  0.17377027028E+04  0.10100000352E+00 0. -1.
       -3    1    3    3    0  502 -0.96251706462E+03 -0.41231884403E+03 -0.55269927752E+03  0.11840280530E+04  0.10100000352E+00 0.  1.
</event>
<event>
 5   0  0.1439207E-06  0.2802236E+04  0.7818609E-02  0.8302574E-01
       -2   -1    0    0    0  501  0.00000000000E+00  0.00000000000E+00  0.10573709700E+04  0.10573709700E+04  0.25500000920E-02 0. -1.
        2   -1    0    0  501    0  0.00000000000E+00  0.00000000000E+00 -0.18566161820E+04  0.18566161821E+04  0.25500000920E-02 0.  1.
    10030    2    1    2    0    0  0.00000000000E+00  0.00000000000E+00 -0.79924521208E+03  0.29139871520E+04  0.28022362879E+04 0.  0.
        5    1    3    3  502    0  0.96958383965E+03 -0.48431107570E+02 -0.14501947680E+04  0.17451433607E+04  0.46999998093E+01 0.  1.
       -5    1    3    3    0  502 -0.96958383965E+03  0.48431107570E+02  0.65094955587E+03  0.11688437913E+04  0.46999998093E+01 0. -1.
</event>
<event>
 5   0  0.5282098E-07  0.2798766E+04  0.7818609E-02  0.8303652E-01
        1   -1    0    0  501    0  0.00000000000E+00  0.00000000000E+00  0.15249019306E+04  0.15249019306E+04  0.50400001928E-02 0. -1.
       -1   -1    0    0    0  501  0.00000000000E+00  0.00000000000E+00 -0.12841960635E+04  0.12841960635E+04  0.50400001928E-02 0.  1.
    10030    2    1    2    0    0  0.00000000000E+00  0.00000000000E+00  0.24070586712E+03  0.28090979940E+04  0.27987661970E+04 0.  0.
        4    1    3    3  502    0  0.11504888030E+04 -0.67103852050E+03 -0.31059704192E+03  0.13676217742E+04  0.12699999809E+01 0.  1.
       -4    1    3    3    0  502 -0.11504888030E+04  0.67103852050E+03  0.55130290904E+03  0.14414762198E+04  0.12699999809E+01 0. -1.
</event>
<event>
 5   0  0.1461146E-06  0.2796633E+04  0.7818609E-02  0.8304315E-01
       -2   -1    0    0    0  501  0.00000000000E+00  0.00000000000E+00  0.10701019751E+04  0.10701019751E+04  0.25500000920E-02 0. -1.
        2   -1    0    0  501    0  0.00000000000E+00  0.00000000000E+00 -0.18271983124E+04  0.18271983124E+04  0.25500000920E-02 0.  1.
    10030    2    1    2    0    0  0.00000000000E+00  0.00000000000E+00 -0.75709633730E+03  0.28973002874E+04  0.27966326344E+04 0.  0.
        1    1    3    3  502    0  0.15816274394E+03 -0.13876965158E+04 -0.44859444445E+03  0.14669540037E+04  0.50400001928E-02 0.  1.
       -1    1    3    3    0  502 -0.15816274394E+03  0.13876965158E+04 -0.30850189286E+03  0.14303462837E+04  0.50400001928E-02 0. -1.
</event>
<event>
 5   0  0.1377807E-06  0.2792131E+04  0.7818609E-02  0.8305716E-01
       -2   -1    0    0    0  501  0.00000000000E+00  0.00000000000E+00  0.13142406177E+04  0.13142406177E+04  0.25500000920E-02 0.  1.
        2   -1    0    0  501    0  0.00000000000E+00  0.00000000000E+00 -0.14829848004E+04  0.14829848004E+04  0.25500000920E-02 0. -1.
    10030    2    1    2    0    0  0.00000000000E+00  0.00000000000E+00 -0.16874418265E+03  0.27972254181E+04  0.27921309856E+04 0.  0.
        2    1    3    3  502    0 -0.98895697363E+03  0.51154370919E+03 -0.92809991486E+03  0.14495110603E+04  0.25500000920E-02 0. -1.
       -2    1    3    3    0  502  0.98895697363E+03 -0.51154370919E+03  0.75935573221E+03  0.13477143578E+04  0.25500000920E-02 0.  1.
</event>
<event>
 5   0  0.5297741E-07  0.2771179E+04  0.7818609E-02  0.8312272E-01
       -1   -1    0    0    0  501  0.00000000000E+00  0.00000000000E+00  0.82828215621E+03  0.82828215622E+03  0.50400001928E-02 0.  1.
        1   -1    0    0  501    0  0.00000000000E+00  0.00000000000E+00 -0.23178793716E+04  0.23178793717E+04  0.50400001928E-02 0. -1.
    10030    2    1    2    0    0  0.00000000000E+00  0.00000000000E+00 -0.14895972154E+04  0.31461615279E+04  0.27711788999E+04 0.  0.
        5    1    3    3  502    0  0.10578767310E+04  0.85716853244E+03 -0.10364552333E+04  0.17111699541E+04  0.46999998093E+01 0. -1.
       -5    1    3    3    0  502 -0.10578767310E+04 -0.85716853244E+03 -0.45314198211E+03  0.14349915738E+04  0.46999998093E+01 0.  1.
</event>
<event>
 5   0  0.1394410E-06  0.2794746E+04  0.7818609E-02  0.8304901E-01
       -2   -1    0    0    0  501  0.00000000000E+00  0.00000000000E+00  0.14218045102E+04  0.14218045102E+04  0.25500000920E-02 0.  1.
        2   -1    0    0  501    0  0.00000000000E+00  0.00000000000E+00 -0.13733615606E+04  0.13733615606E+04  0.25500000920E-02 0. -1.
    10030    2    1    2    0    0  0.00000000000E+00  0.00000000000E+00  0.48442949643E+02  0.27951660708E+04  0.27947462576E+04 0.  0.
        4    1    3    3  502    0  0.11402321960E+04  0.34387614403E+03 -0.70682592987E+03  0.13849132721E+04  0.12699999809E+01 0. -1.
       -4    1    3    3    0  502 -0.11402321960E+04 -0.34387614403E+03  0.75526887951E+03  0.14102527988E+04  0.12699999809E+01 0.  1.
</event>
<event>
 5   0  0.1439207E-06  0.2802596E+04  0.7818609E-02  0.8302463E-01
        2   -1    0    0  501    0  0.00000000000E+00  0.00000000000E+00  0.16111446276E+04  0.16111446276E+04  0.25500000920E-02 0.  1.
       -2   -1    0    0    0  501  0.00000000000E+00  0.00000000000E+00 -0.12187830771E+04  0.12187830771E+04  0.25500000920E-02 0. -1.
    10030    2    1    2    0    0  0.00000000000E+00  0.00000000000E+00  0.39236155049E+03  0.28299277047E+04  0.28025958017E+04 0.  0.
        5    1    3    3  502    0  0.58920447280E+03  0.37132831678E+03  0.14240027197E+04  0.15851979262E+04  0.46999998093E+01 0.  1.
       -5    1    3    3    0  502 -0.58920447280E+03 -0.37132831678E+03 -0.10316411692E+04  0.12447297785E+04  0.46999998093E+01 0. -1.
</event>
<event>
 5   0  0.5282098E-07  0.2801740E+04  0.7818609E-02  0.8302728E-01
        1   -1    0    0  501    0  0.00000000000E+00  0.00000000000E+00  0.31396140120E+04  0.31396140120E+04  0.50400001928E-02 0. -1.
       -1   -1    0    0    0  501  0.00000000000E+00  0.00000000000E+00 -0.62505686536E+03  0.62505686538E+03  0.50400001928E-02 0.  1.
    10030    2    1    2    0    0  0.00000000000E+00  0.00000000000E+00  0.25145571466E+04  0.37646708774E+04  0.28017403826E+04 0.  0.
        4    1    3    3  502    0  0.57597153987E+03  0.10140282572E+04  0.23002099209E+04  0.25789462605E+04  0.12699999809E+01 0.  1.
       -4    1    3    3    0  502 -0.57597153987E+03 -0.10140282572E+04  0.21434722571E+03  0.11857246169E+04  0.12699999809E+01 0. -1.
</event>
<event>
 5   0  0.1499888E-06  0.2802096E+04  0.7818609E-02  0.8302618E-01
       -2   -1    0    0    0  501  0.00000000000E+00  0.00000000000E+00  0.14293963896E+04  0.14293963896E+04  0.25500000920E-02 0. -1.
        2   -1    0    0  501    0  0.00000000000E+00  0.00000000000E+00 -0.13732617107E+04  0.13732617107E+04  0.25500000920E-02 0.  1.
    10030    2    1    2    0    0  0.00000000000E+00  0.00000000000E+00  0.56134678839E+02  0.28026581003E+04  0.28020958808E+04 0.  0.
        3    1    3    3  502    0  0.11084010919E+04 -0.27154775547E+02 -0.82863528638E+03  0.13841700800E+04  0.10100000352E+00 0.  1.
       -3    1    3    3    0  502 -0.11084010919E+04  0.27154775547E+02  0.88476996522E+03  0.14184880203E+04  0.10100000352E+00 0. -1.
</event>
<event>
 5   0  0.4710000E-07  0.2801818E+04  0.7818609E-02  0.8302704E-01
        3   -1    0    0  501    0  0.00000000000E+00  0.00000000000E+00  0.14456175382E+04  0.14456175417E+04  0.10100000352E+00 0.  1.
       -3   -1    0    0    0  501  0.00000000000E+00  0.00000000000E+00 -0.13575833338E+04  0.13575833376E+04  0.10100000352E+00 0. -1.
    10030    2    1    2    0    0  0.00000000000E+00  0.00000000000E+00  0.88034204362E+02  0.28032008793E+04  0.28018181863E+04 0.  0.
        2    1    3    3  502    0 -0.86506015214E+03  0.15187716823E+03  0.11359541417E+04  0.14358925980E+04  0.25500000920E-02 0.  1.
       -2    1    3    3    0  502  0.86506015214E+03 -0.15187716823E+03 -0.10479199373E+04  0.13673082813E+04  0.25500000920E-02 0. -1.
</event>
<event>
 5   0  0.5551565E-07  0.2797032E+04  0.7818609E-02  0.8304190E-01
       -1   -1    0    0    0  501  0.00000000000E+00  0.00000000000E+00  0.83553674964E+03  0.83553674965E+03  0.50400001928E-02 0. -1.
        1   -1    0    0  501    0  0.00000000000E+00  0.00000000000E+00 -0.23408272530E+04  0.23408272530E+04  0.50400001928E-02 0.  1.
    10030    2    1    2    0    0  0.00000000000E+00  0.00000000000E+00 -0.15052905034E+04  0.31763640026E+04  0.27970321374E+04 0.  0.
        3    1    3    3  502    0 -0.66910307534E+03 -0.11667448219E+04 -0.11878331919E+04  0.17944191558E+04  0.10100000352E+00 0.  1.
       -3    1    3    3    0  502  0.66910307534E+03  0.11667448219E+04 -0.31745731144E+03  0.13819448468E+04  0.10100000352E+00 0. -1.
</event>
<event>
 5   0  0.5551565E-07  0.2799076E+04  0.7818609E-02  0.8303555E-01
       -1   -1    0    0    0  501  0.00000000000E+00  0.00000000000E+00  0.14152131863E+04  0.14152131863E+04  0.50400001928E-02 0.  1.
        1   -1    0    0  501    0  0.00000000000E+00  0.00000000000E+00 -0.13840364472E+04  0.13840364472E+04  0.50400001928E-02 0. -1.
    10030    2    1    2    0    0  0.00000000000E+00  0.00000000000E+00  0.31176739038E+02  0.27992496335E+04  0.27990760121E+04 0.  0.
        3    1    3    3  502    0  0.90157178323E+03 -0.63339229697E+03  0.87859562567E+03  0.14092365897E+04  0.10100000352E+00 0.  1.
       -3    1    3    3    0  502 -0.90157178323E+03  0.63339229697E+03 -0.84741888663E+03  0.13900130438E+04  0.10100000352E+00 0. -1.
</event>
<event>
 5   0  0.5362952E-07  0.2799679E+04  0.7818609E-02  0.8303368E-01
        1   -1    0    0  501    0  0.00000000000E+00  0.00000000000E+00  0.54033904505E+03  0.54033904507E+03  0.50400001928E-02 0. -1.
       -1   -1    0    0    0  501  0.00000000000E+00  0.00000000000E+00 -0.36265209782E+04  0.36265209782E+04  0.50400001928E-02 0.  1.
    10030    2    1    2    0    0  0.00000000000E+00  0.00000000000E+00 -0.30861819332E+04  0.41668600233E+04  0.27996791832E+04 0.  0.
        1    1    3    3  502    0  0.56381450647E+03  0.12773477688E+04 -0.16922720319E+04  0.21939208623E+04  0.50400001928E-02 0. -1.
       -1    1    3    3    0  502 -0.56381450647E+03 -0.12773477688E+04 -0.13939099012E+04  0.19729391610E+04  0.50400001928E-02 0.  1.
</event>
<event>
 5   0  0.1499888E-06  0.2784641E+04  0.7818609E-02  0.8308053E-01
        2   -1    0    0  501    0  0.00000000000E+00  0.00000000000E+00  0.16298144621E+04  0.16298144621E+04  0.25500000920E-02 0. -1.
       -2   -1    0    0    0  501  0.00000000000E+00  0.00000000000E+00 -0.11894339648E+04  0.11894339648E+04  0.25500000920E-02 0.  1.
    10030    2    1    2    0    0  0.00000000000E+00  0.00000000000E+00  0.44038049727E+03  0.28192484268E+04  0.27846412174E+04 0.  0.
        3    1    3    3  502    0  0.12063576559E+03 -0.10989120195E+04 -0.63673056551E+03  0.12757689594E+04  0.10100000352E+00 0.  1.
       -3    1    3    3    0  502 -0.12063576559E+03  0.10989120195E+04  0.10771110628E+04  0.15434794674E+04  0.10100000352E+00 0. -1.
</event>
<event>
 5   0  0.4710000E-07  0.2791725E+04  0.7818609E-02  0.8305842E-01
        3   -1    0    0  501    0  0.00000000000E+00  0.00000000000E+00  0.26198467430E+04  0.26198467449E+04  0.10100000352E+00 0. -1.
       -3   -1    0    0    0  501  0.00000000000E+00  0.00000000000E+00 -0.74372001758E+03  0.74372002444E+03  0.10100000352E+00 0.  1.
    10030    2    1    2    0    0  0.00000000000E+00  0.00000000000E+00  0.18761267254E+04  0.33635667694E+04  0.27917252591E+04 0.  0.
        3    1    3    3  502    0  0.89585596239E+03 -0.26214106068E+03 -0.31238800669E+03  0.98430793859E+03  0.10100000352E+00 0.  1.
       -3    1    3    3    0  502 -0.89585596239E+03  0.26214106068E+03  0.21885147321E+04  0.23792588308E+04  0.10100000352E+00 0. -1.
</event>
<event>
 5   0  0.1499888E-06  0.2790303E+04  0.7818609E-02  0.8306285E-01
        2   -1    0    0  501    0  0.00000000000E+00  0.00000000000E+00  0.83092034504E+03  0.83092034504E+03  0.25500000920E-02 0.  1.
       -2   -1    0    0    0  501  0.00000000000E+00  0.00000000000E+00 -0.23425199205E+04  0.23425199205E+04  0.25500000920E-02 0. -1.
    10030    2    1    2    0    0  0.00000000000E+00  0.00000000000E+00 -0.15115995755E+04  0.31734402655E+04  0.27903028227E+04 0.  0.
        3    1    3    3  502    0 -0.10742017795E+04  0.78152819162E+03 -0.27093773247E+03  0.13557665885E+04  0.10100000352E+00 0.  1.
       -3    1    3    3    0  502  0.10742017795E+04 -0.78152819162E+03 -0.12406618430E+04  0.18176736771E+04  0.10100000352E+00 0. -1.
</event>
<event>
 5   0  0.1439207E-06  0.2790483E+04  0.7818609E-02  0.8306229E-01
        2   -1    0    0  501    0  0.00000000000E+00  0.00000000000E+00  0.11292481412E+04  0.11292481412E+04  0.25500000920E-02 0. -1.
       -2   -1    0    0    0  501  0.00000000000E+00  0.00000000000E+00 -0.17238891233E+04  0.17238891233E+04  0.25500000920E-02 0.  1.
    10030    2    1    2    0    0  0.00000000000E+00  0.00000000000E+00 -0.59464098210E+03  0.28531372645E+04  0.27904828171E+04 0.  0.
        5    1    3    3  502    0  0.48655868333E+03 -0.12820850248E+04 -0.34259561922E+02  0.13717423849E+04  0.46999998093E+01 0. -1.
       -5    1    3    3    0  502 -0.48655868333E+03  0.12820850248E+04 -0.56038142018E+03  0.14813948795E+04  0.46999998093E+01 0.  1.
</event>
<event>
 5   0  0.5214658E-07  0.2797339E+04  0.7818609E-02  0.8304095E-01
        1   -1    0    0  501    0  0.00000000000E+00  0.00000000000E+00  0.83985042808E+03  0.83985042810E+03  0.50400001928E-02 0.  1.
       -1   -1    0    0    0  501  0.00000000000E+00  0.00000000000E+00 -0.23293147959E+04  0.23293147959E+04  0.50400001928E-02 0. -1.
    10030    2    1    2    0    0  0.00000000000E+00  0.00000000000E+00 -0.14894643678E+04  0.31691652240E+04  0.27973387557E+04 0.  0.
        2    1    3    3  502    0  0.25215661032E+03 -0.13140260076E+04 -0.12063594304E+04  0.18015411125E+04  0.25500000920E-02 0. -1.
       -2    1    3    3    0  502 -0.25215661032E+03  0.13140260076E+04 -0.28310493745E+03  0.13676241115E+04  0.25500000920E-02 0.  1.
</event>
<event>
 5   0  0.5282098E-07  0.2797486E+04  0.7818609E-02  0.8304049E-01
        1   -1    0    0  501    0  0.00000000000E+00  0.00000000000E+00  0.20141165203E+04  0.20141165203E+04  0.50400001928E-02 0. -1.
       -1   -1    0    0    0  501  0.00000000000E+00  0.00000000000E+00 -0.97138453478E+03  0.97138453480E+03  0.50400001928E-02 0.  1.
    10030    2    1    2    0    0  0.00000000000E+00  0.00000000000E+00  0.10427319855E+04  0.29855010551E+04  0.27974857563E+04 0.  0.
        4    1    3    3  502    0 -0.64890676503E+03 -0.99120408021E+03 -0.27219139258E+03  0.12155884523E+04  0.12699999809E+01 0.  1.
       -4    1    3    3    0  502  0.64890676503E+03  0.99120408021E+03  0.13149233781E+04  0.17699126028E+04  0.12699999809E+01 0. -1.
</event>
<event>
 5   0  0.1377807E-06  0.2798380E+04  0.7818609E-02  0.8303771E-01
       -2   -1    0    0    0  501  0.00000000000E+00  0.00000000000E+00  0.11341626684E+04  0.11341626684E+04  0.25500000920E-02 0.  1.
        2   -1    0    0  501    0  0.00000000000E+00  0.00000000000E+00 -0.17261482526E+04  0.17261482526E+04  0.25500000920E-02 0. -1.
    10030    2    1    2    0    0  0.00000000000E+00  0.00000000000E+00 -0.59198558419E+03  0.28603109210E+04  0.27983801802E+04 0.  0.
        2    1    3    3  502    0 -0.34386672406E+03 -0.25215891646E+03 -0.16581157966E+04  0.17120678836E+04  0.25500000920E-02 0. -1.
       -2    1    3    3    0  502  0.34386672406E+03  0.25215891646E+03  0.10661302124E+04  0.11482430374E+04  0.25500000920E-02 0.  1.
</event>
<event>
 5   0  0.1499888E-06  0.2797498E+04  0.7818609E-02  0.8304046E-01
        2   -1    0    0  501    0  0.00000000000E+00  0.00000000000E+00  0.12635360488E+04  0.12635360488E+04  0.25500000920E-02 0.  1.
       -2   -1    0    0    0  501  0.00000000000E+00  0.00000000000E+00 -0.15484314508E+04  0.15484314508E+04  0.25500000920E-02 0. -1.
    10030    2    1    2    0    0  0.00000000000E+00  0.00000000000E+00 -0.28489540209E+03  0.28119674996E+04  0.27974981374E+04 0.  0.
        3    1    3    3  502    0  0.27450736772E+03 -0.11032675557E+04 -0.96149061712E+03  0.14889653493E+04  0.10100000352E+00 0. -1.
       -3    1    3    3    0  502 -0.27450736772E+03  0.11032675557E+04  0.67659521503E+03  0.13230021503E+04  0.10100000352E+00 0.  1.
</event>
<event>
 5   0  0.5362952E-07  0.2799081E+04  0.7818609E-02  0.8303554E-01
        1   -1    0    0  501    0  0.00000000000E+00  0.00000000000E+00  0.11050299681E+04  0.11050299681E+04  0.50400001928E-02 0. -1.
       -1   -1    0    0    0  501  0.00000000000E+00  0.00000000000E+00 -0.17725437706E+04  0.17725437706E+04  0.50400001928E-02 0.  1.
    10030    2    1    2    0    0  0.00000000000E+00  0.00000000000E+00 -0.66751380250E+03  0.28775737388E+04  0.27990812681E+04 0.  0.
        1    1    3    3  502    0 -0.30022341098E+03  0.12452190601E+04 -0.91349376939E+03  0.15732690396E+04  0.50400001928E-02 0.  1.
       -1    1    3    3    0  502  0.30022341098E+03 -0.12452190601E+04  0.24597996689E+03  0.13043046992E+04  0.50400001928E-02 0. -1.
</event>
<event>
 5   0  0.1439207E-06  0.2810745E+04  0.7818609E-02  0.8299940E-01
       -2   -1    0    0    0  501  0.00000000000E+00  0.00000000000E+00  0.77900246636E+03  0.77900246637E+03  0.25500000920E-02 0.  1.
        2   -1    0    0  501    0  0.00000000000E+00  0.00000000000E+00 -0.25353850878E+04  0.25353850878E+04  0.25500000920E-02 0. -1.
    10030    2    1    2    0    0  0.00000000000E+00  0.00000000000E+00 -0.17563826214E+04  0.33143875542E+04  0.28107445537E+04 0.  0.
        5    1    3    3  502    0 -0.20479296153E+03  0.76906807558E+03 -0.22440332447E+04  0.23809899528E+04  0.46999998093E+01 0. -1.
       -5    1    3    3    0  502  0.20479296153E+03 -0.76906807558E+03  0.48765062324E+03  0.93339760140E+03  0.46999998093E+01 0.  1.
</event>
<event>
 5   0  0.5282098E-07  0.2799530E+04  0.7818609E-02  0.8303414E-01
       -1   -1    0    0    0  501  0.00000000000E+00  0.00000000000E+00  0.95166372632E+03  0.95166372633E+03  0.50400001928E-02 0.  1.
        1   -1    0    0  501    0  0.00000000000E+00  0.00000000000E+00 -0.20588593010E+04  0.20588593010E+04  0.50400001928E-02 0. -1.
    10030    2    1    2    0    0  0.00000000000E+00  0.00000000000E+00 -0.11071955747E+04  0.30105230274E+04  0.27995297565E+04 0.  0.
        4    1    3    3  502    0 -0.83776112822E+03 -0.99784711872E+03 -0.11038219150E+04  0.17076202778E+04  0.12699999809E+01 0. -1.
       -4    1    3    3    0  502  0.83776112822E+03  0.99784711872E+03 -0.33736597109E+01  0.13029027495E+04  0.12699999809E+01 0.  1.
</event>
<event>
 5   0  0.5297741E-07  0.2804937E+04  0.7818609E-02  0.8301737E-01
       -1   -1    0    0    0  501  0.00000000000E+00  0.00000000000E+00  0.22988672710E+04  0.22988672710E+04  0.50400001928E-02 0.  1.
        1   -1    0    0  501    0  0.00000000000E+00  0.00000000000E+00 -0.85560296568E+03  0.85560296570E+03  0.50400001928E-02 0. -1.
    10030    2    1    2    0    0  0.00000000000E+00  0.00000000000E+00  0.14432643053E+04  0.31544702367E+04  0.28049368298E+04 0.  0.
        5    1    3    3  502    0 -0.28440903345E+03 -0.62164771789E+03  0.20987954628E+04  0.22073284459E+04  0.46999998093E+01 0.  1.
       -5    1    3    3    0  502  0.28440903345E+03  0.62164771789E+03 -0.65553115747E+03  0.94714179080E+03  0.46999998093E+01 0. -1.
</event>
<event>
 5   0  0.1377807E-06  0.2801641E+04  0.7818609E-02  0.8302759E-01
        2   -1    0    0  501    0  0.00000000000E+00  0.00000000000E+00  0.18493099131E+04  0.18493099131E+04  0.25500000920E-02 0.  1.
       -2   -1    0    0    0  501  0.00000000000E+00  0.00000000000E+00 -0.10610971917E+04  0.10610971917E+04  0.25500000920E-02 0. -1.
    10030    2    1    2    0    0  0.00000000000E+00  0.00000000000E+00  0.78821272144E+03  0.29104071049E+04  0.28016406304E+04 0.  0.
        2    1    3    3  502    0 -0.85350333188E+03  0.14350140304E+03 -0.75012575159E+03  0.11453162155E+04  0.25500000920E-02 0. -1.
       -2    1    3    3    0  502  0.85350333188E+03 -0.14350140304E+03  0.15383384730E+04  0.17650908894E+04  0.25500000920E-02 0.  1.
</event>
<event>
 5   0  0.5362952E-07  0.2800021E+04  0.7818609E-02  0.8303262E-01
       -1   -1    0    0    0  501  0.00000000000E+00  0.00000000000E+00  0.77904720396E+03  0.77904720397E+03  0.50400001928E-02 0. -1.
        1   -1    0    0  501    0  0.00000000000E+00  0.00000000000E+00 -0.25159307642E+04  0.25159307642E+04  0.50400001928E-02 0.  1.
    10030    2    1    2    0    0  0.00000000000E+00  0.00000000000E+00 -0.17368835603E+04  0.32949779682E+04  0.28000205908E+04 0.  0.
        1    1    3    3  502    0  0.11991787865E+04 -0.41845929290E+02 -0.19659131753E+02  0.12000697168E+04  0.50400001928E-02 0. -1.
       -1    1    3    3    0  502 -0.11991787865E+04  0.41845929290E+02 -0.17172244285E+04  0.20949082514E+04  0.50400001928E-02 0.  1.
</event>
<event>
 5   0  0.5214658E-07  0.2799641E+04  0.7818609E-02  0.8303380E-01
       -1   -1    0    0    0  501  0.00000000000E+00  0.00000000000E+00  0.13472151338E+04  0.13472151338E+04  0.50400001928E-02 0.  1.
        1   -1    0    0  501    0  0.00000000000E+00  0.00000000000E+00 -0.14544804726E+04  0.14544804726E+04  0.50400001928E-02 0. -1.
    10030    2    1    2    0    0  0.00000000000E+00  0.00000000000E+00 -0.10726533878E+03  0.28016956064E+04  0.27996414803E+04 0.  0.
        2    1    3    3  502    0  0.13405222466E+03 -0.42405177731E+03  0.12746347402E+04  0.13499939370E+04  0.25500000920E-02 0.  1.
       -2    1    3    3    0  502 -0.13405222466E+03  0.42405177731E+03 -0.13819000790E+04  0.14517016695E+04  0.25500000920E-02 0. -1.
</event>
<event>
 5   0  0.1439207E-06  0.2801109E+04  0.7818609E-02  0.8302924E-01
        2   -1    0    0  501    0  0.00000000000E+00  0.00000000000E+00  0.22198116198E+04  0.22198116198E+04  0.25500000920E-02 0.  1.
       -2   -1    0    0    0  501  0.00000000000E+00  0.00000000000E+00 -0.88365729383E+03  0.88365729384E+03  0.25500000920E-02 0. -1.
    10030    2    1    2    0    0  0.00000000000E+00  0.00000000000E+00  0.13361543260E+04  0.31034689137E+04  0.28011088724E+04 0.  0.
        5    1    3    3  502    0 -0.72660885855E+02 -0.10875234403E+04 -0.30637352269E+03  0.11321985970E+04  0.46999998093E+01 0. -1.
       -5    1    3    3    0  502  0.72660885855E+02  0.10875234403E+04  0.16425278487E+04  0.19712703167E+04  0.46999998093E+01 0.  1.
</event>
<event>
 5   0  0.1394410E-06  0.2797052E+04  0.7818609E-02  0.8304184E-01
        2   -1    0    0  501    0  0.00000000000E+00  0.00000000000E+00  0.23464026726E+04  0.23464026726E+04  0.25500000920E-02 0. -1.
       -2   -1    0    0    0  501  0.00000000000E+00  0.00000000000E+00 -0.83356330090E+03  0.83356330091E+03  0.25500000920E-02 0.  1.
    10030    2    1    2    0    0  0.00000000000E+00  0.00000000000E+00  0.15128393717E+04  0.31799659735E+04  0.27970521318E+04 0.  0.
        4    1    3    3  502    0  0.73299709661E+03 -0.83083356726E+03 -0.21381852439E+03  0.11284011407E+04  0.12699999809E+01 0.  1.
       -4    1    3    3    0  502 -0.73299709661E+03  0.83083356726E+03  0.17266578961E+04  0.20515648328E+04  0.12699999809E+01 0. -1.
</event>
<event>
 5   0  0.5214658E-07  0.2800720E+04  0.7818609E-02  0.8303045E-01
        1   -1    0    0  501    0  0.00000000000E+00  0.00000000000E+00  0.17561267067E+04  0.17561267067E+04  0.50400001928E-02 0. -1.
       -1   -1    0    0    0  501  0.00000000000E+00  0.00000000000E+00 -0.11166668347E+04  0.11166668347E+04  0.50400001928E-02 0.  1.
    10030    2    1    2    0    0  0.00000000000E+00  0.00000000000E+00  0.63945987203E+03  0.28727935414E+04  0.28007202294E+04 0.  0.
        2    1    3    3  502    0  0.13633122740E+04 -0.25391428167E+03  0.51946018190E+03  0.14808550569E+04  0.25500000920E-02 0.  1.
       -2    1    3    3    0  502 -0.13633122740E+04  0.25391428167E+03  0.11999969013E+03  0.13919384845E+04  0.25500000920E-02 0. -1.
</event>
<event>
 5   0  0.5551565E-07  0.2799542E+04  0.7818609E-02  0.8303411E-01
        1   -1    0    0  501    0  0.00000000000E+00  0.00000000000E+00  0.15416920159E+04  0.15416920159E+04  0.50400001928E-02 0. -1.
       -1   -1    0    0    0  501  0.00000000000E+00  0.00000000000E+00 -0.12709146412E+04  0.12709146412E+04  0.50400001928E-02 0.  1.
    10030    2    1    2    0    0  0.00000000000E+00  0.00000000000E+00  0.27077737472E+03  0.28126066572E+04  0.27995420735E+04 0.  0.
        3    1    3    3  502    0 -0.44453609848E+02  0.68995934034E+03  0.13581712020E+04  0.15240239627E+04  0.10100000352E+00 0. -1.
       -3    1    3    3    0  502  0.44453609848E+02 -0.68995934034E+03 -0.10873938273E+04  0.12885826945E+04  0.10100000352E+00 0.  1.
</event>
<event>
 5   0  0.5214658E-07  0.2799360E+04  0.7818609E-02  0.8303467E-01
        1   -1    0    0  501    0  0.00000000000E+00  0.00000000000E+00  0.17098558932E+04  0.17098558932E+04  0.50400001928E-02 0.  1.
       -1   -1    0    0    0  501  0.00000000000E+00  0.00000000000E+00 -0.11457710912E+04  0.11457710912E+04  0.50400001928E-02 0. -1.
    10030    2    1    2    0    0  0.00000000000E+00  0.00000000000E+00  0.56408480198E+03  0.28556269844E+04  0.27993595357E+04 0.  0.
        2    1    3    3  502    0 -0.54638251988E+03  0.15212013933E+03 -0.10232987911E+04  0.11699635938E+04  0.25500000920E-02 0. -1.
       -2    1    3    3    0  502  0.54638251988E+03 -0.15212013933E+03  0.15873835931E+04  0.16856633906E+04  0.25500000920E-02 0.  1.
</event>
<event>
 5   0  0.1499888E-06  0.2801998E+04  0.7818609E-02  0.8302648E-01
       -2   -1    0    0    0  501  0.00000000000E+00  0.00000000000E+00  0.14968310206E+04  0.14968310206E+04  0.25500000920E-02 0. -1.
        2   -1    0    0  501    0  0.00000000000E+00  0.00000000000E+00 -0.13113022080E+04  0.13113022080E+04  0.25500000920E-02 0.  1.
    10030    2    1    2    0    0  0.00000000000E+00  0.00000000000E+00  0.18552881254E+03  0.28081332286E+04  0.28019977318E+04 0.  0.
        3    1    3    3  502    0 -0.13114667185E+04 -0.32407437306E+03  0.46483015709E+03  0.14286483956E+04  0.10100000352E+00 0. -1.
       -3    1    3    3    0  502  0.13114667185E+04  0.32407437306E+03 -0.27930134455E+03  0.13794848330E+04  0.10100000352E+00 0.  1.
</event>
<event>
 5   0  0.4710000E-07  0.2809415E+04  0.7818609E-02  0.8300351E-01
        3   -1    0    0  501    0  0.00000000000E+00  0.00000000000E+00  0.10352307635E+04  0.10352307685E+04  0.10100000352E+00 0. -1.
       -3   -1    0    0    0  501  0.00000000000E+00  0.00000000000E+00 -0.19060520714E+04  0.19060520740E+04  0.10100000352E+00 0.  1.
    10030    2    1    2    0    0  0.00000000000E+00  0.00000000000E+00 -0.87082130781E+03  0.29412828425E+04  0.28094154213E+04 0.  0.
        4    1    3    3  502    0  0.42516637172E+03 -0.23791474395E+03 -0.18147613759E+04  0.18790237714E+04  0.12699999809E+01 0.  1.
       -4    1    3    3    0  502 -0.42516637172E+03  0.23791474395E+03  0.94394006812E+03  0.10622590711E+04  0.12699999809E+01 0. -1.
</event>
<event>
 5   0  0.5282098E-07  0.2800524E+04  0.7818609E-02  0.8303106E-01
       -1   -1    0    0    0  501  0.00000000000E+00  0.00000000000E+00  0.12207820773E+04  0.12207820774E+04  0.50400001928E-02 0.  1.
        1   -1    0    0  501    0  0.00000000000E+00  0.00000000000E+00 -0.16061294291E+04  0.16061294291E+04  0.50400001928E-02 0. -1.
    10030    2    1    2    0    0  0.00000000000E+00  0.00000000000E+00 -0.38534735174E+03  0.28269115064E+04  0.28005242516E+04 0.  0.
        4    1    3    3  502    0 -0.10662000930E+04 -0.52964143560E+03  0.55144905043E+03  0.13120214772E+04  0.12699999809E+01 0.  1.
       -4    1    3    3    0  502  0.10662000930E+04  0.52964143560E+03 -0.93679640217E+03  0.15148900292E+04  0.12699999809E+01 0. -1.
</event>
<event>
 5   0  0.5551565E-07  0.2800117E+04  0.7818609E-02  0.8303232E-01
       -1   -1    0    0    0  501  0.00000000000E+00  0.00000000000E+00  0.86356818703E+03  0.86356818704E+03  0.50400001928E-02 0. -1.
        1   -1    0    0  501    0  0.00000000000E+00  0.00000000000E+00 -0.22698428659E+04  0.22698428659E+04  0.50400001928E-02 0.  1.
    10030    2    1    2    0    0  0.00000000000E+00  0.00000000000E+00 -0.14062746789E+04  0.31334110530E+04  0.28001172037E+04 0.  0.
        3    1    3    3  502    0 -0.85349844254E+03  0.53698259479E+03 -0.17900097139E+04  0.20544937782E+04  0.10100000352E+00 0.  1.
       -3    1    3    3    0  502  0.85349844254E+03 -0.53698259479E+03  0.38373503502E+03  0.10789172748E+04  0.10100000352E+00 0. -1.
</event>
<event>
 5   0  0.1461146E-06  0.2803149E+04  0.7818609E-02  0.8302291E-01
        2   -1    0    0  501    0  0.00000000000E+00  0.00000000000E+00  0.23590634917E+04  0.23590634917E+04  0.25500000920E-02 0. -1.
       -2   -1    0    0    0  501  0.00000000000E+00  0.00000000000E+00 -0.83270827862E+03  0.83270827863E+03  0.25500000920E-02 0.  1.
    10030    2    1    2    0    0  0.00000000000E+00  0.00000000000E+00  0.15263552131E+04  0.31917717704E+04  0.28031494426E+04 0.  0.
        1    1    3    3  502    0 -0.11575895301E+04  0.71691514395E+03  0.38479532105E+03  0.14149375544E+04  0.50400001928E-02 0.  1.
       -1    1    3    3    0  502  0.11575895301E+04 -0.71691514395E+03  0.11415598920E+04  0.17768342159E+04  0.50400001928E-02 0. -1.
</event>
<event>
 5   0  0.5362952E-07  0.2804595E+04  0.7818609E-02  0.8301843E-01
        1   -1    0    0  501    0  0.00000000000E+00  0.00000000000E+00  0.20708956479E+04  0.20708956479E+04  0.50400001928E-02 0. -1.
       -1   -1    0    0    0  501  0.00000000000E+00  0.00000000000E+00 -0.94955914612E+03  0.94955914613E+03  0.50400001928E-02 0.  1.
    10030    2    1    2    0    0  0.00000000000E+00  0.00000000000E+00  0.11213365018E+04  0.30204547941E+04  0.28045947324E+04 0.  0.
        1    1    3    3  502    0 -0.87798150248E+03  0.86166686953E+03 -0.16428033669E+03  0.12410919957E+04  0.50400001928E-02 0. -1.
       -1    1    3    3    0  502  0.87798150248E+03 -0.86166686953E+03  0.12856168385E+04  0.17793627984E+04  0.50400001928E-02 0.  1.
</event>
<event>
 5   0  0.1499888E-06  0.2811173E+04  0.7818609E-02  0.8299808E-01
       -2   -1    0    0    0  501  0.00000000000E+00  0.00000000000E+00  0.14525780086E+04  0.14525780087E+04  0.25500000920E-02 0.  1.
        2   -1    0    0  501    0  0.00000000000E+00  0.00000000000E+00 -0.13601148500E+04  0.13601148500E+04  0.25500000920E-02 0. -1.
    10030    2    1    2    0    0  0.00000000000E+00  0.00000000000E+00  0.92463158635E+02  0.28126928587E+04  0.28111726524E+04 0.  0.
        3    1    3    3  502    0 -0.31431957820E+03  0.89798800090E+03 -0.98897456652E+03  0.13723155433E+04  0.10100000352E+00 0. -1.
       -3    1    3    3    0  502  0.31431957820E+03 -0.89798800090E+03  0.10814377252E+04  0.14403773154E+04  0.10100000352E+00 0.  1.
</event>
<event>
 5   0  0.1499888E-06  0.2795289E+04  0.7818609E-02  0.8304732E-01
       -2   -1    0    0    0  501  0.00000000000E+00  0.00000000000E+00  0.93016696695E+03  0.93016696695E+03  0.25500000920E-02 0.  1.
        2   -1    0    0  501    0  0.00000000000E+00  0.00000000000E+00 -0.21000644943E+04  0.21000644943E+04  0.25500000920E-02 0. -1.
    10030    2    1    2    0    0  0.00000000000E+00  0.00000000000E+00 -0.11698975273E+04  0.30302314613E+04  0.27952893382E+04 0.  0.
        3    1    3    3  502    0  0.71262484119E+03 -0.24626041665E+03  0.69079454684E+03  0.10225827464E+04  0.10100000352E+00 0.  1.
       -3    1    3    3    0  502 -0.71262484119E+03  0.24626041665E+03 -0.18606920742E+04  0.20076487148E+04  0.10100000352E+00 0. -1.
</event>
<event>
 5   0  0.1394410E-06  0.2800179E+04  0.7818609E-02  0.8303213E-01
        2   -1    0    0  501    0  0.00000000000E+00  0.00000000000E+00  0.18136403196E+04  0.18136403196E+04  0.25500000920E-02 0. -1.
       -2   -1    0    0    0  501  0.00000000000E+00  0.00000000000E+00 -0.10808374985E+04  0.10808374985E+04  0.25500000920E-02 0.  1.
    10030    2    1    2    0    0  0.00000000000E+00  0.00000000000E+00  0.73280282112E+03  0.28944778181E+04  0.28001788987E+04 0.  0.
        4    1    3    3  502    0  0.11312623916E+04  0.14421477865E+03 -0.47316777122E+03  0.12346828960E+04  0.12699999809E+01 0.  1.
       -4    1    3    3    0  502 -0.11312623916E+04 -0.14421477865E+03  0.12059705923E+04  0.16597949221E+04  0.12699999809E+01 0. -1.
</event>
<event>
 5   0  0.5551565E-07  0.2813420E+04  0.7818609E-02  0.8299114E-01
        1   -1    0    0  501    0  0.00000000000E+00  0.00000000000E+00  0.26493402014E+04  0.26493402014E+04  0.50400001928E-02 0.  1.
       -1   -1    0    0    0  501  0.00000000000E+00  0.00000000000E+00 -0.74691558628E+03  0.74691558630E+03  0.50400001928E-02 0. -1.
    10030    2    1    2    0    0  0.00000000000E+00  0.00000000000E+00  0.19024246151E+04  0.33962557877E+04  0.28134203310E+04 0.  0.
        3    1    3    3  502    0 -0.12482566674E+04 -0.40443175159E+03  0.33909191232E+03  0.13552465032E+04  0.10100000352E+00 0. -1.
       -3    1    3    3    0  502  0.12482566674E+04  0.40443175159E+03  0.15633327027E+04  0.20410092844E+04  0.10100000352E+00 0.  1.
</event>
<event>
 5   0  0.1394410E-06  0.2798864E+04  0.7818609E-02  0.8303621E-01
       -2   -1    0    0    0  501  0.00000000000E+00  0.00000000000E+00  0.18990771561E+04  0.18990771561E+04  0.25500000920E-02 0.  1.
        2   -1    0    0  501    0  0.00000000000E+00  0.00000000000E+00 -0.10312432231E+04  0.10312432231E+04  0.25500000920E-02 0. -1.
    10030    2    1    2    0    0  0.00000000000E+00  0.00000000000E+00  0.86783393296E+03  0.29303203792E+04  0.27988643750E+04 0.  0.
        4    1    3    3  502    0  0.18250916238E+03  0.13733248447E+04  0.64088345554E+03  0.15264546963E+04  0.12699999809E+01 0.  1.
       -4    1    3    3    0  502 -0.18250916238E+03 -0.13733248447E+04  0.22695047743E+03  0.14038656829E+04  0.12699999809E+01 0. -1.
</event>
<event>
 5   0  0.5297741E-07  0.2784538E+04  0.7818609E-02  0.8308085E-01
       -1   -1    0    0    0  501  0.00000000000E+00  0.00000000000E+00  0.13398036653E+04  0.13398036653E+04  0.50400001928E-02 0.  1.
        1   -1    0    0  501    0  0.00000000000E+00  0.00000000000E+00 -0.14467892381E+04  0.14467892381E+04  0.50400001928E-02 0. -1.
    10030    2    1    2    0    0  0.00000000000E+00  0.00000000000E+00 -0.10698557281E+03  0.27865929034E+04  0.27845383992E+04 0.  0.
        5    1    3    3  502    0  0.58906772780E+03  0.79284872600E+03  0.92844549989E+03  0.13555969263E+04  0.46999998093E+01 0.  1.
       -5    1    3    3    0  502 -0.58906772780E+03 -0.79284872600E+03 -0.10354310727E+04  0.14309959771E+04  0.46999998093E+01 0. -1.
</event>
<event>
 5   0  0.1461146E-06  0.2805020E+04  0.7818609E-02  0.8301712E-01
       -2   -1    0    0    0  501  0.00000000000E+00  0.00000000000E+00  0.14606686617E+04  0.14606686617E+04  0.25500000920E-02 0. -1.
        2   -1    0    0  501    0  0.00000000000E+00  0.00000000000E+00 -0.13466670037E+04  0.13466670037E+04  0.25500000920E-02 0.  1.
    10030    2    1    2    0    0  0.00000000000E+00  0.00000000000E+00  0.11400165802E+03  0.28073356654E+04  0.28050199929E+04 0.  0.
        1    1    3    3  502    0 -0.69996186326E+03  0.14645278341E+03 -0.11504939528E+04  0.13546332948E+04  0.50400001928E-02 0.  1.
       -1    1    3    3    0  502  0.69996186326E+03 -0.14645278341E+03  0.12644956109E+04  0.14527023707E+04  0.50400001928E-02 0. -1.
</event>
<event>
 5   0  0.5214658E-07  0.2800642E+04  0.7818609E-02  0.8303069E-01
       -1   -1    0    0    0  501  0.00000000000E+00  0.00000000000E+00  0.15578079980E+04  0.15578079980E+04  0.50400001928E-02 0. -1.
        1   -1    0    0  501    0  0.00000000000E+00  0.00000000000E+00 -0.12587549938E+04  0.12587549938E+04  0.50400001928E-02 0.  1.
    10030    2    1    2    0    0  0.00000000000E+00  0.00000000000E+00  0.29905300426E+03  0.28165629918E+04  0.28006417814E+04 0.  0.
        2    1    3    3  502    0 -0.12959899366E+03 -0.11496009211E+04  0.94301147410E+03  0.14925310104E+04  0.25500000920E-02 0. -1.
       -2    1    3    3    0  502  0.12959899366E+03  0.11496009211E+04 -0.64395846984E+03  0.13240319814E+04  0.25500000920E-02 0.  1.
</event>
<event>
 5   0  0.1439207E-06  0.2806337E+04  0.7818609E-02  0.8301304E-01
        2   -1    0    0  501    0  0.00000000000E+00  0.00000000000E+00  0.23137519925E+04  0.23137519925E+04  0.25500000920E-02 0. -1.
       -2   -1    0    0    0  501  0.00000000000E+00  0.00000000000E+00 -0.85094752014E+03  0.85094752014E+03  0.25500000920E-02 0.  1.
    10030    2    1    2    0    0  0.00000000000E+00  0.00000000000E+00  0.14628044724E+04  0.31646995127E+04  0.28063367726E+04 0.  0.
        5    1    3    3  502    0 -0.10377702767E+04  0.77302616466E+03  0.11960900201E+03  0.12995633889E+04  0.46999998093E+01 0.  1.
       -5    1    3    3    0  502  0.10377702767E+04 -0.77302616466E+03  0.13431954704E+04  0.18651361238E+04  0.46999998093E+01 0. -1.
</event>
<event>
 5   0  0.5551565E-07  0.2783696E+04  0.7818609E-02  0.8308348E-01
       -1   -1    0    0    0  501  0.00000000000E+00  0.00000000000E+00  0.11243882256E+04  0.11243882256E+04  0.50400001928E-02 0. -1.
        1   -1    0    0  501    0  0.00000000000E+00  0.00000000000E+00 -0.17229292631E+04  0.17229292631E+04  0.50400001928E-02 0.  1.
    10030    2    1    2    0    0  0.00000000000E+00  0.00000000000E+00 -0.59854103755E+03  0.28473174887E+04  0.27836963750E+04 0.  0.
        3    1    3    3  502    0  0.27568830744E+03 -0.12620986534E+04  0.23058837643E+03  0.13122759098E+04  0.10100000352E+00 0. -1.
       -3    1    3    3    0  502 -0.27568830744E+03  0.12620986534E+04 -0.82912941398E+03  0.15350415790E+04  0.10100000352E+00 0.  1.
</event>
<event>
 5   0  0.5551565E-07  0.2798628E+04  0.7818609E-02  0.8303694E-01
        1   -1    0    0  501    0  0.00000000000E+00  0.00000000000E+00  0.22245887832E+04  0.22245887832E+04  0.50400001928E-02 0. -1.
       -1   -1    0    0    0  501  0.00000000000E+00  0.00000000000E+00 -0.88019836491E+03  0.88019836492E+03  0.50400001928E-02 0.  1.
    10030    2    1    2    0    0  0.00000000000E+00  0.00000000000E+00  0.13443904183E+04  0.31047871481E+04  0.27986278135E+04 0.  0.
        3    1    3    3  502    0  0.39213090483E+03 -0.40721657956E+03 -0.74786984588E+03  0.93749736307E+03  0.10100000352E+00 0.  1.
       -3    1    3    3    0  502 -0.39213090483E+03  0.40721657956E+03  0.20922602641E+04  0.21672897850E+04  0.10100000352E+00 0. -1.
</event>
<event>
 5   0  0.4710000E-07  0.2801010E+04  0.7818609E-02  0.8302955E-01
       -3   -1    0    0    0  501  0.00000000000E+00  0.00000000000E+00  0.20198309591E+04  0.20198309617E+04  0.10100000352E+00 0.  1.
        3   -1    0    0  501    0  0.00000000000E+00  0.00000000000E+00 -0.97107864614E+03  0.97107865139E+03  0.10100000352E+00 0. -1.
    10030    2    1    2    0    0  0.00000000000E+00  0.00000000000E+00  0.10487523130E+04  0.29909096130E+04  0.28010103355E+04 0.  0.
        5    1    3    3  502    0 -0.61483946263E+03 -0.30100856671E+03  0.18289942991E+04  0.19529147340E+04  0.46999998093E+01 0.  1.
       -5    1    3    3    0  502  0.61483946263E+03  0.30100856671E+03 -0.78024198613E+03  0.10379948791E+04  0.46999998093E+01 0. -1.
</event>
<event>
 5   0  0.5551565E-07  0.2804748E+04  0.7818609E-02  0.8301796E-01
       -1   -1    0    0    0  501  0.00000000000E+00  0.00000000000E+00  0.10171137933E+04  0.10171137933E+04  0.50400001928E-02 0. -1.
        1   -1    0    0  501    0  0.00000000000E+00  0.00000000000E+00 -0.19335625074E+04  0.19335625074E+04  0.50400001928E-02 0.  1.
    10030    2    1    2    0    0  0.00000000000E+00  0.00000000000E+00 -0.91644871412E+03  0.29506763007E+04  0.28047481858E+04 0.  0.
        3    1    3    3  502    0  0.85164605846E+02  0.99369742714E+03 -0.14954019304E+04  0.17974744868E+04  0.10100000352E+00 0. -1.
       -3    1    3    3    0  502 -0.85164605846E+02 -0.99369742714E+03  0.57895321631E+03  0.11532018139E+04  0.10100000352E+00 0.  1.
</event>
<event>
 5   0  0.5214658E-07  0.2798074E+04  0.7818609E-02  0.8303867E-01
       -1   -1    0    0    0  501  0.00000000000E+00  0.00000000000E+00  0.16087267246E+04  0.16087267246E+04  0.50400001928E-02 0.  1.
        1   -1    0    0  501    0  0.00000000000E+00  0.00000000000E+00 -0.12166790793E+04  0.12166790793E+04  0.50400001928E-02 0. -1.
    10030    2    1    2    0    0  0.00000000000E+00  0.00000000000E+00  0.39204764533E+03  0.28254058039E+04  0.27980737304E+04 0.  0.
        2    1    3    3  502    0 -0.91424442007E+03 -0.35197833571E+03 -0.81251802248E+03  0.12727596573E+04  0.25500000920E-02 0. -1.
       -2    1    3    3    0  502  0.91424442007E+03  0.35197833571E+03  0.12045656678E+04  0.15526461466E+04  0.25500000920E-02 0.  1.
</event>
<event>
 5   0  0.5297741E-07  0.2799846E+04  0.7818609E-02  0.8303316E-01
        1   -1    0    0  501    0  0.00000000000E+00  0.00000000000E+00  0.16905052566E+04  0.16905052566E+04  0.50400001928E-02 0.  1.
       -1   -1    0    0    0  501  0.00000000000E+00  0.00000000000E+00 -0.11592889168E+04  0.11592889168E+04  0.50400001928E-02 0. -1.
    10030    2    1    2    0    0  0.00000000000E+00  0.00000000000E+00  0.53121633979E+03  0.28497941734E+04  0.27998457155E+04 0.  0.
        5    1    3    3  502    0 -0.96386729663E+03  0.61676728268E+03 -0.55520233519E+03  0.12718937729E+04  0.46999998093E+01 0. -1.
       -5    1    3    3    0  502  0.96386729663E+03 -0.61676728268E+03  0.10864186750E+04  0.15779004005E+04  0.46999998093E+01 0.  1.
</event>
<event>
 5   0  0.1439207E-06  0.2798618E+04  0.7818609E-02  0.8303697E-01
       -2   -1    0    0    0  501  0.00000000000E+00  0.00000000000E+00  0.12028012783E+04  0.12028012783E+04  0.25500000920E-02 0. -1.
        2   -1    0    0  501    0  0.00000000000E+00  0.00000000000E+00 -0.16279216181E+04  0.16279216181E+04  0.25500000920E-02 0.  1.
    10030    2    1    2    0    0  0.00000000000E+00  0.00000000000E+00 -0.42512033976E+03  0.28307228964E+04  0.27986183758E+04 0.  0.
        5    1    3    3  502    0 -0.13796533919E+04 -0.19891434343E+03 -0.33657877450E+03  0.14339866663E+04  0.46999998093E+01 0.  1.
       -5    1    3    3    0  502  0.13796533919E+04  0.19891434343E+03 -0.88541565261E+02  0.13967362301E+04  0.46999998093E+01 0. -1.
</event>
<event>
 5   0  0.4710000E-07  0.2794192E+04  0.7818609E-02  0.8305074E-01
       -3   -1    0    0    0  501  0.00000000000E+00  0.00000000000E+00  0.10874746062E+04  0.10874746109E+04  0.10100000352E+00 0.  1.
        3   -1    0    0  501    0  0.00000000000E+00  0.00000000000E+00 -0.17948713983E+04  0.17948714011E+04  0.10100000352E+00 0. -1.
    10030    2    1    2    0    0  0.00000000000E+00  0.00000000000E+00 -0.70739679211E+03  0.28823460120E+04  0.27941918888E+04 0.  0.
        2    1    3    3  502    0  0.85170478574E+03 -0.82841935146E+03  0.40447080354E+03  0.12551001135E+04  0.25500000920E-02 0.  1.
       -2    1    3    3    0  502 -0.85170478574E+03  0.82841935146E+03 -0.11118675957E+04  0.16272458985E+04  0.25500000920E-02 0. -1.
</event>
<event>
 5   0  0.1461146E-06  0.2804774E+04  0.7818609E-02  0.8301788E-01
       -2   -1    0    0    0  501  0.00000000000E+00  0.00000000000E+00  0.18104225715E+04  0.18104225715E+04  0.25500000920E-02 0.  1.
        2   -1    0    0  501    0  0.00000000000E+00  0.00000000000E+00 -0.10863147075E+04  0.10863147075E+04  0.25500000920E-02 0. -1.
    10030    2    1    2    0    0  0.00000000000E+00  0.00000000000E+00  0.72410786397E+03  0.28967372790E+04  0.28047735497E+04 0.  0.
        1    1    3    3  502    0  0.98187416602E+03  0.35297248704E+03  0.13298058853E+04  0.16902810852E+04  0.50400001928E-02 0.  1.
       -1    1    3    3    0  502 -0.98187416602E+03 -0.35297248704E+03 -0.60569802130E+03  0.12064561938E+04  0.50400001928E-02 0. -1.
</event>
<event>
 5   0  0.5362952E-07  0.2797602E+04  0.7818609E-02  0.8304013E-01
       -1   -1    0    0    0  501  0.00000000000E+00  0.00000000000E+00  0.99377910913E+03  0.99377910915E+03  0.50400001928E-02 0. -1.
        1   -1    0    0  501    0  0.00000000000E+00  0.00000000000E+00 -0.19688927619E+04  0.19688927619E+04  0.50400001928E-02 0.  1.
    10030    2    1    2    0    0  0.00000000000E+00  0.00000000000E+00 -0.97511365280E+03  0.29626718711E+04  0.27976021840E+04 0.  0.
        1    1    3    3  502    0  0.21377765816E+03 -0.78190140744E+03  0.71969554971E+03  0.10839891062E+04  0.50400001928E-02 0. -1.
       -1    1    3    3    0  502 -0.21377765816E+03  0.78190140744E+03 -0.16948092025E+04  0.18786827649E+04  0.50400001928E-02 0.  1.
</event>
<event>
 5   0  0.1394410E-06  0.2805755E+04  0.7818609E-02  0.8301484E-01
        2   -1    0    0  501    0  0.00000000000E+00  0.00000000000E+00  0.12461638883E+04  0.12461638883E+04  0.25500000920E-02 0. -1.
       -2   -1    0    0    0  501  0.00000000000E+00  0.00000000000E+00 -0.15792992154E+04  0.15792992154E+04  0.25500000920E-02 0.  1.
    10030    2    1    2    0    0  0.00000000000E+00  0.00000000000E+00 -0.33313532714E+03  0.28254631037E+04  0.28057552645E+04 0.  0.
        4    1    3    3  502    0 -0.97829255558E+03  0.80993357747E+03  0.43344911861E+03  0.13419867643E+04  0.12699999809E+01 0. -1.
       -4    1    3    3    0  502  0.97829255558E+03 -0.80993357747E+03 -0.76658444574E+03  0.14834763394E+04  0.12699999809E+01 0.  1.
</event>
<event>
 5   0  0.1499888E-06  0.2803483E+04  0.7818609E-02  0.8302188E-01
       -2   -1    0    0    0  501  0.00000000000E+00  0.00000000000E+00  0.75429690541E+03  0.75429690541E+03  0.25500000920E-02 0. -1.
        2   -1    0    0  501    0  0.00000000000E+00  0.00000000000E+00 -0.26049143884E+04  0.26049143884E+04  0.25500000920E-02 0.  1.
    10030    2    1    2    0    0  0.00000000000E+00  0.00000000000E+00 -0.18506174830E+04  0.33592112938E+04  0.28034827355E+04 0.  0.
        3    1    3    3  502    0  0.10491739504E+04 -0.16543876403E+03 -0.20213715736E+04  0.22834357910E+04  0.10100000352E+00 0.  1.
       -3    1    3    3    0  502 -0.10491739504E+04  0.16543876403E+03  0.17075409063E+03  0.10757755028E+04  0.10100000352E+00 0. -1.
</event>
<event>
 5   0  0.5551565E-07  0.2797982E+04  0.7818609E-02  0.8303895E-01
       -1   -1    0    0    0  501  0.00000000000E+00  0.00000000000E+00  0.13735722263E+04  0.13735722264E+04  0.50400001928E-02 0.  1.
        1   -1    0    0  501    0  0.00000000000E+00  0.00000000000E+00 -0.14248804177E+04  0.14248804177E+04  0.50400001928E-02 0. -1.
    10030    2    1    2    0    0  0.00000000000E+00  0.00000000000E+00 -0.51308191328E+02  0.27984526440E+04  0.27979822498E+04 0.  0.
        3    1    3    3  502    0  0.10712404026E+04  0.68513559667E+03 -0.60902685164E+03  0.14099221618E+04  0.10100000352E+00 0. -1.
       -3    1    3    3    0  502 -0.10712404026E+04 -0.68513559667E+03  0.55771866031E+03  0.13885304823E+04  0.10100000352E+00 0.  1.
</event>
<event>
 5   0  0.5297741E-07  0.2799365E+04  0.7818609E-02  0.8303466E-01
       -1   -1    0    0    0  501  0.00000000000E+00  0.00000000000E+00  0.15205515330E+04  0.15205515330E+04  0.50400001928E-02 0.  1.
        1   -1    0    0  501    0  0.00000000000E+00  0.00000000000E+00 -0.12884209555E+04  0.12884209555E+04  0.50400001928E-02 0. -1.
    10030    2    1    2    0    0  0.00000000000E+00  0.00000000000E+00  0.23213057753E+03  0.28089724885E+04  0.27993645415E+04 0.  0.
        5    1    3    3  502    0 -0.79002080850E+03  0.10339664726E+04  0.63345970358E+03  0.14472431829E+04  0.46999998093E+01 0.  1.
       -5    1    3    3    0  502  0.79002080850E+03 -0.10339664726E+04 -0.40132912605E+03  0.13617293056E+04  0.46999998093E+01 0. -1.
</event>
<event>
 5   0  0.5282098E-07  0.2792020E+04  0.7818609E-02  0.8305750E-01
       -1   -1    0    0    0  501  0.00000000000E+00  0.00000000000E+00  0.18198319203E+04  0.18198319203E+04  0.50400001928E-02 0.  1.
        1   -1    0    0  501    0  0.00000000000E+00  0.00000000000E+00 -0.10708918905E+04  0.10708918905E+04  0.50400001928E-02 0. -1.
    10030    2    1    2    0    0  0.00000000000E+00  0.00000000000E+00  0.74894002973E+03  0.28907238108E+04  0.27920195168E+04 0.  0.
        4    1    3    3  502    0 -0.54788610628E+03  0.10182484740E+04  0.11843197016E+04  0.16551809294E+04  0.12699999809E+01 0.  1.
       -4    1    3    3    0  502  0.54788610628E+03 -0.10182484740E+04 -0.43537967190E+03  0.12355428815E+04  0.12699999809E+01 0. -1.
</event>
<event>
 5   0  0.1439207E-06  0.2798501E+04  0.7818609E-02  0.8303734E-01
        2   -1    0    0  501    0  0.00000000000E+00  0.00000000000E+00  0.24853242488E+04  0.24853242488E+04  0.25500000920E-02 0. -1.
       -2   -1    0    0    0  501  0.00000000000E+00  0.00000000000E+00 -0.78778513056E+03  0.78778513057E+03  0.25500000920E-02 0.  1.
    10030    2    1    2    0    0  0.00000000000E+00  0.00000000000E+00  0.16975391182E+04  0.32731093794E+04  0.27985006613E+04 0.  0.
        5    1    3    3  502    0 -0.48807103300E+03 -0.11866400178E+04  0.19593963862E+03  0.12979762314E+04  0.46999998093E+01 0.  1.
       -5    1    3    3    0  502  0.48807103300E+03  0.11866400178E+04  0.15015994796E+04  0.19751331480E+04  0.46999998093E+01 0. -1.
</event>
<event>
 5   0  0.1377807E-06  0.2794539E+04  0.7818609E-02  0.8304966E-01
        2   -1    0    0  501    0  0.00000000000E+00  0.00000000000E+00  0.25765039480E+04  0.25765039480E+04  0.25500000920E-02 0.  1.
       -2   -1    0    0    0  501  0.00000000000E+00  0.00000000000E+00 -0.75775629424E+03  0.75775629424E+03  0.25500000920E-02 0. -1.
    10030    2    1    2    0    0  0.00000000000E+00  0.00000000000E+00  0.18187476538E+04  0.33342602423E+04  0.27945390201E+04 0.  0.
        2    1    3    3  502    0  0.12073786056E+04  0.41862753086E+03  0.15836266296E+04  0.20349165607E+04  0.25500000920E-02 0.  1.
       -2    1    3    3    0  502 -0.12073786056E+04 -0.41862753086E+03  0.23512102419E+03  0.12993436816E+04  0.25500000920E-02 0. -1.
</event>
<event>
 5   0  0.1499888E-06  0.2796875E+04  0.7818609E-02  0.8304239E-01
        2   -1    0    0  501    0  0.00000000000E+00  0.00000000000E+00  0.87035777905E+03  0.87035777905E+03  0.25500000920E-02 0.  1.
       -2   -1    0    0    0  501  0.00000000000E+00  0.00000000000E+00 -0.22469236024E+04  0.22469236024E+04  0.25500000920E-02 0. -1.
    10030    2    1    2    0    0  0.00000000000E+00  0.00000000000E+00 -0.13765658234E+04  0.31172813815E+04  0.27968749964E+04 0.  0.
        3    1    3    3  502    0 -0.22739016609E+03  0.65925505989E+03  0.66272771649E+03  0.96204550725E+03  0.10100000352E+00 0.  1.
       -3    1    3    3    0  502  0.22739016609E+03 -0.65925505989E+03 -0.20392935399E+04  0.21552358742E+04  0.10100000352E+00 0. -1.
</event>
<event>
 5   0  0.1377807E-06  0.2803265E+04  0.7818609E-02  0.8302255E-01
        2   -1    0    0  501    0  0.00000000000E+00  0.00000000000E+00  0.14258906083E+04  0.14258906083E+04  0.25500000920E-02 0. -1.
       -2   -1    0    0    0  501  0.00000000000E+00  0.00000000000E+00 -0.13777874050E+04  0.13777874050E+04  0.25500000920E-02 0.  1.
    10030    2    1    2    0    0  0.00000000000E+00  0.00000000000E+00  0.48103203388E+02  0.28036780133E+04  0.28032653253E+04 0.  0.
        2    1    3    3  502    0 -0.10008964610E+04 -0.92926717052E+03 -0.29102322078E+03  0.13964332118E+04  0.25500000920E-02 0.  1.
       -2    1    3    3    0  502  0.10008964610E+04  0.92926717052E+03  0.33912642417E+03  0.14072448015E+04  0.25500000920E-02 0. -1.
</event>
<event>
 5   0  0.1499888E-06  0.2797750E+04  0.7818609E-02  0.8303967E-01
       -2   -1    0    0    0  501  0.00000000000E+00  0.00000000000E+00  0.71989811863E+03  0.71989811863E+03  0.25500000920E-02 0.  1.
        2   -1    0    0  501    0  0.00000000000E+00  0.00000000000E+00 -0.27182341988E+04  0.27182341988E+04  0.25500000920E-02 0. -1.
    10030    2    1    2    0    0  0.00000000000E+00  0.00000000000E+00 -0.19983360801E+04  0.34381323174E+04  0.27977503003E+04 0.  0.
        3    1    3    3  502    0  0.10183637647E+04  0.32734556415E+03 -0.21069659518E+04  0.23629484564E+04  0.10100000352E+00 0. -1.
       -3    1    3    3    0  502 -0.10183637647E+04 -0.32734556415E+03  0.10862987165E+03  0.10751838610E+04  0.10100000352E+00 0.  1.
</event>
<event>
 5   0  0.1439207E-06  0.2800640E+04  0.7818609E-02  0.8303070E-01
       -2   -1    0    0    0  501  0.00000000000E+00  0.00000000000E+00  0.10270798059E+04  0.10270798059E+04  0.25500000920E-02 0.  1.
        2   -1    0    0  501    0  0.00000000000E+00  0.00000000000E+00 -0.19091955140E+04  0.19091955140E+04  0.25500000920E-02 0. -1.
    10030    2    1    2    0    0  0.00000000000E+00  0.00000000000E+00 -0.88211570808E+03  0.29362753198E+04  0.28006400396E+04 0.  0.
        5    1    3    3  502    0  0.16465106828E+03 -0.52366654751E+03 -0.17916773325E+04  0.18738907068E+04  0.46999998093E+01 0. -1.
       -5    1    3    3    0  502 -0.16465106828E+03  0.52366654751E+03  0.90956162445E+03  0.10623846130E+04  0.46999998093E+01 0.  1.
</event>
<event>
 5   0  0.1394410E-06  0.2802455E+04  0.7818609E-02  0.8302507E-01
        2   -1    0    0  501    0  0.00000000000E+00  0.00000000000E+00  0.16798934632E+04  0.16798934632E+04  0.25500000920E-02 0.  1.
       -2   -1    0    0    0  501  0.00000000000E+00  0.00000000000E+00 -0.11687871394E+04  0.11687871394E+04  0.25500000920E-02 0. -1.
    10030    2    1    2    0    0  0.00000000000E+00  0.00000000000E+00  0.51110632379E+03  0.28486806027E+04  0.28024545495E+04 0.  0.
        4    1    3    3  502    0 -0.40764115459E+03  0.10174037796E+04  0.11429680076E+04  0.15835590425E+04  0.12699999809E+01 0.  1.
       -4    1    3    3    0  502  0.40764115459E+03 -0.10174037796E+04 -0.63186168379E+03  0.12651215602E+04  0.12699999809E+01 0. -1.
</event>
<event>
 5   0  0.1394410E-06  0.2801303E+04  0.7818609E-02  0.8302864E-01
       -2   -1    0    0    0  501  0.00000000000E+00  0.00000000000E+00  0.12631866542E+04  0.12631866542E+04  0.25500000920E-02 0.  1.
        2   -1    0    0  501    0  0.00000000000E+00  0.00000000000E+00 -0.15530757947E+04  0.15530757947E+04  0.25500000920E-02 0. -1.
    10030    2    1    2    0    0  0.00000000000E+00  0.00000000000E+00 -0.28988914053E+03  0.28162624489E+04  0.28013029946E+04 0.  0.
        4    1    3    3  502    0 -0.12675030409E+04 -0.12361451884E+03  0.44124591251E+03  0.13477922971E+04  0.12699999809E+01 0.  1.
       -4    1    3    3    0  502  0.12675030409E+04  0.12361451884E+03 -0.73113505304E+03  0.14684701518E+04  0.12699999809E+01 0. -1.
</event>
<event>
 5   0  0.5362952E-07  0.2753842E+04  0.7818609E-02  0.8317743E-01
       -1   -1    0    0    0  501  0.00000000000E+00  0.00000000000E+00  0.12902483156E+04  0.12902483156E+04  0.50400001928E-02 0.  1.
        1   -1    0    0  501    0  0.00000000000E+00  0.00000000000E+00 -0.14694163660E+04  0.14694163660E+04  0.50400001928E-02 0. -1.
    10030    2    1    2    0    0  0.00000000000E+00  0.00000000000E+00 -0.17916805041E+03  0.27596646815E+04  0.27538424000E+04 0.  0.
        1    1    3    3  502    0 -0.31273815699E+03 -0.97348342975E+03  0.83455703733E+03  0.13198335469E+04  0.50400001928E-02 0.  1.
       -1    1    3    3    0  502  0.31273815699E+03  0.97348342975E+03 -0.10137250877E+04  0.14398311347E+04  0.50400001928E-02 0. -1.
</event>
<event>
 5   0  0.1377807E-06  0.2805571E+04  0.7818609E-02  0.8301541E-01
        2   -1    0    0  501    0  0.00000000000E+00  0.00000000000E+00  0.12075625207E+04  0.12075625207E+04  0.25500000920E-02 0.  1.
       -2   -1    0    0    0  501  0.00000000000E+00  0.00000000000E+00 -0.16295693502E+04  0.16295693502E+04  0.25500000920E-02 0. -1.
    10030    2    1    2    0    0  0.00000000000E+00  0.00000000000E+00 -0.42200682955E+03  0.28371318709E+04  0.28055707955E+04 0.  0.
        2    1    3    3  502    0 -0.71083829901E+02 -0.65917144251E+03 -0.14611330832E+04  0.16045154372E+04  0.25500000920E-02 0. -1.
       -2    1    3    3    0  502  0.71083829901E+02  0.65917144251E+03  0.10391262537E+04  0.12326164337E+04  0.25500000920E-02 0.  1.
</event>
<event>
 5   0  0.5297741E-07  0.2802478E+04  0.7818609E-02  0.8302499E-01
        1   -1    0    0  501    0  0.00000000000E+00  0.00000000000E+00  0.21629228958E+04  0.21629228958E+04  0.50400001928E-02 0.  1.
       -1   -1    0    0    0  501  0.00000000000E+00  0.00000000000E+00 -0.90778596239E+03  0.90778596240E+03  0.50400001928E-02 0. -1.
    10030    2    1    2    0    0  0.00000000000E+00  0.00000000000E+00  0.12551369334E+04  0.30707088582E+04  0.28024782194E+04 0.  0.
        5    1    3    3  502    0  0.12689198988E+04 -0.50419843757E+03  0.28267987617E+03  0.13943829375E+04  0.46999998093E+01 0. -1.
       -5    1    3    3    0  502 -0.12689198988E+04  0.50419843757E+03  0.97245705722E+03  0.16763259206E+04  0.46999998093E+01 0.  1.
</event>
<event>
 5   0  0.5362952E-07  0.2803892E+04  0.7818609E-02  0.8302061E-01
        1   -1    0    0  501    0  0.00000000000E+00  0.00000000000E+00  0.11365306555E+04  0.11365306555E+04  0.50400001928E-02 0.  1.
       -1   -1    0    0    0  501  0.00000000000E+00  0.00000000000E+00 -0.17293445471E+04  0.17293445472E+04  0.50400001928E-02 0. -1.
    10030    2    1    2    0    0  0.00000000000E+00  0.00000000000E+00 -0.59281389167E+03  0.28658752026E+04  0.28038923601E+04 0.  0.
        1    1    3    3  502    0 -0.11320392398E+04  0.20858143042E+03  0.52155507731E+03  0.12637399860E+04  0.50400001928E-02 0.  1.
       -1    1    3    3    0  502  0.11320392398E+04 -0.20858143042E+03 -0.11143689690E+04  0.16021352167E+04  0.50400001928E-02 0. -1.
</event>
<event>
 5   0  0.5297741E-07  0.2852338E+04  0.7818609E-02  0.8287201E-01
       -1   -1    0    0    0  501  0.00000000000E+00  0.00000000000E+00  0.13270220681E+04  0.13270220681E+04  0.50400001928E-02 0. -1.
        1   -1    0    0  501    0  0.00000000000E+00  0.00000000000E+00 -0.15327233055E+04  0.15327233055E+04  0.50400001928E-02 0.  1.
    10030    2    1    2    0    0  0.00000000000E+00  0.00000000000E+00 -0.20570123740E+03  0.28597453736E+04  0.28523377435E+04 0.  0.
        5    1    3    3  502    0  0.63037596763E+03  0.12780069759E+04 -0.16009416473E+03  0.14339902101E+04  0.46999998093E+01 0.  1.
       -5    1    3    3    0  502 -0.63037596763E+03 -0.12780069759E+04 -0.45607072662E+02  0.14257551635E+04  0.46999998093E+01 0. -1.
</event>
<event>
 5   0  0.1461146E-06  0.2797883E+04  0.7818609E-02  0.8303926E-01
       -2   -1    0    0    0  501  0.00000000000E+00  0.00000000000E+00  0.10844933352E+04  0.10844933352E+04  0.25500000920E-02 0. -1.
        2   -1    0    0  501    0  0.00000000000E+00  0.00000000000E+00 -0.18045641542E+04  0.18045641543E+04  0.25500000920E-02 0.  1.
    10030    2    1    2    0    0  0.00000000000E+00  0.00000000000E+00 -0.72007081909E+03  0.28890574894E+04  0.27978833415E+04 0.  0.
        1    1    3    3  502    0  0.75362028935E+03  0.21742217778E+03  0.83608255172E+03  0.11464074220E+04  0.50400001928E-02 0. -1.
       -1    1    3    3    0  502 -0.75362028935E+03 -0.21742217778E+03 -0.15561533708E+04  0.17426500674E+04  0.50400001928E-02 0.  1.
</event>
<event>
 5   0  0.1499888E-06  0.2801735E+04  0.7818609E-02  0.8302730E-01
        2   -1    0    0  501    0  0.00000000000E+00  0.00000000000E+00  0.13152019117E+04  0.13152019117E+04  0.25500000920E-02 0.  1.
       -2   -1    0    0    0  501  0.00000000000E+00  0.00000000000E+00 -0.14921127392E+04  0.14921127393E+04  0.25500000920E-02 0. -1.
    10030    2    1    2    0    0  0.00000000000E+00  0.00000000000E+00 -0.17691082752E+03  0.28073146510E+04  0.28017348391E+04 0.  0.
        3    1    3    3  502    0  0.71970139503E+03 -0.40217055698E+03 -0.12232825196E+04  0.14751716470E+04  0.10100000352E+00 0. -1.
       -3    1    3    3    0  502 -0.71970139503E+03  0.40217055698E+03  0.10463716921E+04  0.13321430040E+04  0.10100000352E+00 0.  1.
</event>
<event>
 5   0  0.1439207E-06  0.2800467E+04  0.7818609E-02  0.8303123E-01
       -2   -1    0    0    0  501  0.00000000000E+00  0.00000000000E+00  0.92409095938E+03  0.92409095939E+03  0.25500000920E-02 0. -1.
        2   -1    0    0  501    0  0.00000000000E+00  0.00000000000E+00 -0.21217104666E+04  0.21217104666E+04  0.25500000920E-02 0.  1.
    10030    2    1    2    0    0  0.00000000000E+00  0.00000000000E+00 -0.11976195072E+04  0.30458014259E+04  0.28004667187E+04 0.  0.
        5    1    3    3  502    0 -0.35122815771E+03  0.95527032249E+03 -0.16446813121E+04  0.19341409763E+04  0.46999998093E+01 0.  1.
       -5    1    3    3    0  502  0.35122815771E+03 -0.95527032249E+03  0.44706180496E+03  0.11116604496E+04  0.46999998093E+01 0. -1.
</event>
<event>
 5   0  0.5297741E-07  0.2799394E+04  0.7818609E-02  0.8303456E-01
       -1   -1    0    0    0  501  0.00000000000E+00  0.00000000000E+00  0.16037760114E+04  0.16037760114E+04  0.50400001928E-02 0.  1.
        1   -1    0    0  501    0  0.00000000000E+00  0.00000000000E+00 -0.12215872242E+04  0.12215872242E+04  0.50400001928E-02 0. -1.
    10030    2    1    2    0    0  0.00000000000E+00  0.00000000000E+00  0.38218878719E+03  0.28253632356E+04  0.27993944245E+04 0.  0.
        5    1    3    3  502    0  0.68452837962E+02  0.11814872921E+04  0.94537735558E+03  0.15147139819E+04  0.46999998093E+01 0.  1.
       -5    1    3    3    0  502 -0.68452837962E+02 -0.11814872921E+04 -0.56318856839E+03  0.13106492536E+04  0.46999998093E+01 0. -1.
</event>
<event>
 5   0  0.1499888E-06  0.2765879E+04  0.7818609E-02  0.8313941E-01
       -2   -1    0    0    0  501  0.00000000000E+00  0.00000000000E+00  0.14871653811E+04  0.14871653811E+04  0.25500000920E-02 0.  1.
        2   -1    0    0  501    0  0.00000000000E+00  0.00000000000E+00 -0.12860177352E+04  0.12860177352E+04  0.25500000920E-02 0. -1.
    10030    2    1    2    0    0  0.00000000000E+00  0.00000000000E+00  0.20114764587E+03  0.27731831164E+04  0.27658785623E+04 0.  0.
        3    1    3    3  502    0  0.17665322903E+03 -0.13716055314E+04  0.96965965876E+02  0.13863298690E+04  0.10100000352E+00 0. -1.
       -3    1    3    3    0  502 -0.17665322903E+03  0.13716055314E+04  0.10418167999E+03  0.13868532473E+04  0.10100000352E+00 0.  1.
</event>
<event>
 5   0  0.1394410E-06  0.2799743E+04  0.7818609E-02  0.8303348E-01
       -2   -1    0    0    0  501  0.00000000000E+00  0.00000000000E+00  0.14870683642E+04  0.14870683642E+04  0.25500000920E-02 0.  1.
        2   -1    0    0  501    0  0.00000000000E+00  0.00000000000E+00 -0.13177873761E+04  0.13177873762E+04  0.25500000920E-02 0. -1.
    10030    2    1    2    0    0  0.00000000000E+00  0.00000000000E+00  0.16928098810E+03  0.28048557404E+04  0.27997427867E+04 0.  0.
        4    1    3    3  502    0 -0.86359730539E+03  0.99109612036E+03  0.56673284569E+03  0.14315235090E+04  0.12699999809E+01 0. -1.
       -4    1    3    3    0  502  0.86359730539E+03 -0.99109612036E+03 -0.39745185760E+03  0.13733322314E+04  0.12699999809E+01 0.  1.
</event>
<event>
 5   0  0.1439207E-06  0.2790389E+04  0.7818609E-02  0.8306258E-01
       -2   -1    0    0    0  501  0.00000000000E+00  0.00000000000E+00  0.83782386999E+03  0.83782387000E+03  0.25500000920E-02 0. -1.
        2   -1    0    0  501    0  0.00000000000E+00  0.00000000000E+00 -0.23233621040E+04  0.23233621040E+04  0.25500000920E-02 0.  1.
    10030    2    1    2    0    0  0.00000000000E+00  0.00000000000E+00 -0.14855382340E+04  0.31611859740E+04  0.27903893846E+04 0.  0.
        5    1    3    3  502    0  0.13384020442E+04  0.35542805298E+03 -0.93534933035E+03  0.16710923351E+04  0.46999998093E+01 0.  1.
       -5    1    3    3    0  502 -0.13384020442E+04 -0.35542805298E+03 -0.55018890363E+03  0.14900936388E+04  0.46999998093E+01 0. -1.
</event>
<event>
 5   0  0.5297741E-07  0.2813614E+04  0.7818609E-02  0.8299054E-01
        1   -1    0    0  501    0  0.00000000000E+00  0.00000000000E+00  0.13151848838E+04  0.13151848838E+04  0.50400001928E-02 0.  1.
       -1   -1    0    0    0  501  0.00000000000E+00  0.00000000000E+00 -0.15048116521E+04  0.15048116522E+04  0.50400001928E-02 0. -1.
    10030    2    1    2    0    0  0.00000000000E+00  0.00000000000E+00 -0.18962676832E+03  0.28199965360E+04  0.28136137176E+04 0.  0.
        5    1    3    3  502    0 -0.93783490317E+03  0.94620549040E+03 -0.54777258710E+03  0.14404568834E+04  0.46999998093E+01 0. -1.
       -5    1    3    3    0  502  0.93783490317E+03 -0.94620549040E+03  0.35814581879E+03  0.13795396526E+04  0.46999998093E+01 0.  1.
</event>
<event>
 5   0  0.1499888E-06  0.2799191E+04  0.7818609E-02  0.8303520E-01
        2   -1    0    0  501    0  0.00000000000E+00  0.00000000000E+00  0.17363075115E+04  0.17363075115E+04  0.25500000920E-02 0.  1.
       -2   -1    0    0    0  501  0.00000000000E+00  0.00000000000E+00 -0.11281801523E+04  0.11281801523E+04  0.25500000920E-02 0. -1.
    10030    2    1    2    0    0  0.00000000000E+00  0.00000000000E+00  0.60812735926E+03  0.28644876638E+04  0.27991910780E+04 0.  0.
        3    1    3    3  502    0 -0.12383398910E+04  0.50551103388E+03 -0.11766693848E+03  0.13427109181E+04  0.10100000352E+00 0.  1.
       -3    1    3    3    0  502  0.12383398910E+04 -0.50551103388E+03  0.72579429774E+03  0.15217767457E+04  0.10100000352E+00 0. -1.
</event>
<event>
 5   0  0.1461146E-06  0.2802008E+04  0.7818609E-02  0.8302645E-01
        2   -1    0    0  501    0  0.00000000000E+00  0.00000000000E+00  0.17092528579E+04  0.17092528579E+04  0.25500000920E-02 0. -1.
       -2   -1    0    0    0  501  0.00000000000E+00  0.00000000000E+00 -0.11483448878E+04  0.11483448878E+04  0.25500000920E-02 0.  1.
    10030    2    1    2    0    0  0.00000000000E+00  0.00000000000E+00  0.56090797018E+03  0.28575977457E+04  0.28020076954E+04 0.  0.
        1    1    3    3  502    0  0.10650188156E+04  0.26185890930E+03 -0.60860768182E+03  0.12542880357E+04  0.50400001928E-02 0.  1.
       -1    1    3    3    0  502 -0.10650188156E+04 -0.26185890930E+03  0.11695156520E+04  0.16033097100E+04  0.50400001928E-02 0. -1.
</event>
<event>
 5   0  0.1394410E-06  0.2804432E+04  0.7818609E-02  0.8301894E-01
       -2   -1    0    0    0  501  0.00000000000E+00  0.00000000000E+00  0.14947085596E+04  0.14947085596E+04  0.25500000920E-02 0.  1.
        2   -1    0    0  501    0  0.00000000000E+00  0.00000000000E+00 -0.13154471706E+04  0.13154471706E+04  0.25500000920E-02 0. -1.
    10030    2    1    2    0    0  0.00000000000E+00  0.00000000000E+00  0.17926138904E+03  0.28101557302E+04  0.28044323102E+04 0.  0.
        4    1    3    3  502    0  0.23813061422E+03  0.63549287015E+03  0.13191846936E+04  0.14835117951E+04  0.12699999809E+01 0.  1.
       -4    1    3    3    0  502 -0.23813061422E+03 -0.63549287015E+03 -0.11399233045E+04  0.13266439351E+04  0.12699999809E+01 0. -1.
</event>
<event>
 5   0  0.1461146E-06  0.2810255E+04  0.7818609E-02  0.8300092E-01
        2   -1    0    0  501    0  0.00000000000E+00  0.00000000000E+00  0.21503220580E+04  0.21503220580E+04  0.25500000920E-02 0. -1.
       -2   -1    0    0    0  501  0.00000000000E+00  0.00000000000E+00 -0.91818010820E+03  0.91818010821E+03  0.25500000920E-02 0.  1.
    10030    2    1    2    0    0  0.00000000000E+00  0.00000000000E+00  0.12321419498E+04  0.30685021662E+04  0.28102547500E+04 0.  0.
        1    1    3    3  502    0 -0.37635197195E+02 -0.46044352985E+03  0.20650272435E+04  0.21160723448E+04  0.50400001928E-02 0. -1.
       -1    1    3    3    0  502  0.37635197195E+02  0.46044352985E+03 -0.83288529366E+03  0.95242982139E+03  0.50400001928E-02 0.  1.
</event>
<event>
 5   0  0.1499888E-06  0.2800174E+04  0.7818609E-02  0.8303214E-01
       -2   -1    0    0    0  501  0.00000000000E+00  0.00000000000E+00  0.27412582242E+04  0.27412582242E+04  0.25500000920E-02 0.  1.
        2   -1    0    0  501    0  0.00000000000E+00  0.00000000000E+00 -0.71508905571E+03  0.71508905572E+03  0.25500000920E-02 0. -1.
    10030    2    1    2    0    0  0.00000000000E+00  0.00000000000E+00  0.20261691685E+04  0.34563472799E+04  0.28001741053E+04 0.  0.
        3    1    3    3  502    0 -0.50523016028E+03 -0.57371136545E+03  0.24609111444E+04  0.25769140297E+04  0.10100000352E+00 0.  1.
       -3    1    3    3    0  502  0.50523016028E+03  0.57371136545E+03 -0.43474197592E+03  0.87943325019E+03  0.10100000352E+00 0. -1.
</event>
<event>
 5   0  0.1377807E-06  0.2805770E+04  0.7818609E-02  0.8301479E-01
       -2   -1    0    0    0  501  0.00000000000E+00  0.00000000000E+00  0.10030252368E+04  0.10030252369E+04  0.25500000920E-02 0. -1.
        2   -1    0    0  501    0  0.00000000000E+00  0.00000000000E+00 -0.19621501432E+04  0.19621501432E+04  0.25500000920E-02 0.  1.
    10030    2    1    2    0    0  0.00000000000E+00  0.00000000000E+00 -0.95912490637E+03  0.29651753801E+04  0.28057698495E+04 0.  0.
        2    1    3    3  502    0  0.94694008312E+03  0.10279919758E+04 -0.60735864150E+03  0.15239250450E+04  0.25500000920E-02 0.  1.
       -2    1    3    3    0  502 -0.94694008312E+03 -0.10279919758E+04 -0.35176626486E+03  0.14412503351E+04  0.25500000920E-02 0. -1.
</event>
<event>
 5   0  0.1461146E-06  0.2784148E+04  0.7818609E-02  0.8308207E-01
        2   -1    0    0  501    0  0.00000000000E+00  0.00000000000E+00  0.12594270810E+04  0.12594270810E+04  0.25500000920E-02 0. -1.
       -2   -1    0    0    0  501  0.00000000000E+00  0.00000000000E+00 -0.15386913312E+04  0.15386913312E+04  0.25500000920E-02 0.  1.
    10030    2    1    2    0    0  0.00000000000E+00  0.00000000000E+00 -0.27926425021E+03  0.27981184121E+04  0.27841476482E+04 0.  0.
        1    1    3    3  502    0 -0.11563910713E+04  0.47339125024E+03  0.47706736220E+03  0.13375099453E+04  0.50400001928E-02 0. -1.
       -1    1    3    3    0  502  0.11563910713E+04 -0.47339125024E+03 -0.75633161241E+03  0.14606084669E+04  0.50400001928E-02 0.  1.
</event>
<event>
 5   0  0.1377807E-06  0.2798343E+04  0.7818609E-02  0.8303783E-01
        2   -1    0    0  501    0  0.00000000000E+00  0.00000000000E+00  0.17485482546E+04  0.17485482546E+04  0.25500000920E-02 0. -1.
       -2   -1    0    0    0  501  0.00000000000E+00  0.00000000000E+00 -0.11196034639E+04  0.11196034640E+04  0.25500000920E-02 0.  1.
    10030    2    1    2    0    0  0.00000000000E+00  0.00000000000E+00  0.62894479070E+03  0.28681517186E+04  0.27983428545E+04 0.  0.
        2    1    3    3  502    0 -0.45322571141E+03 -0.32840610589E+03 -0.99986577038E+03  0.11458602335E+04  0.25500000920E-02 0.  1.
       -2    1    3    3    0  502  0.45322571141E+03  0.32840610589E+03  0.16288105611E+04  0.17222914851E+04  0.25500000920E-02 0. -1.
</event>
<event>
 5   0  0.5362952E-07  0.2789097E+04  0.7818609E-02  0.8306661E-01
       -1   -1    0    0    0  501  0.00000000000E+00  0.00000000000E+00  0.16874220146E+04  0.16874220146E+04  0.50400001928E-02 0.  1.
        1   -1    0    0  501    0  0.00000000000E+00  0.00000000000E+00 -0.11525065536E+04  0.11525065536E+04  0.50400001928E-02 0. -1.
    10030    2    1    2    0    0  0.00000000000E+00  0.00000000000E+00  0.53491546105E+03  0.28399285682E+04  0.27890965782E+04 0.  0.
        1    1    3    3  502    0 -0.59547091175E+03  0.69828405418E+03 -0.80171694507E+03  0.12185796187E+04  0.50400001928E-02 0. -1.
       -1    1    3    3    0  502  0.59547091175E+03 -0.69828405418E+03  0.13366324061E+04  0.16213489495E+04  0.50400001928E-02 0.  1.
</event>
<event>
 5   0  0.5214658E-07  0.2773341E+04  0.7818609E-02  0.8311593E-01
        1   -1    0    0  501    0  0.00000000000E+00  0.00000000000E+00  0.14816581852E+04  0.14816581852E+04  0.50400001928E-02 0.  1.
       -1   -1    0    0    0  501  0.00000000000E+00  0.00000000000E+00 -0.12977723452E+04  0.12977723452E+04  0.50400001928E-02 0. -1.
    10030    2    1    2    0    0  0.00000000000E+00  0.00000000000E+00  0.18388583999E+03  0.27794305305E+04  0.27733409584E+04 0.  0.
        2    1    3    3  502    0  0.12000203693E+04 -0.58187453599E+03 -0.28866479101E+03  0.13645344349E+04  0.25500000920E-02 0. -1.
       -2    1    3    3    0  502 -0.12000203693E+04  0.58187453599E+03  0.47255063101E+03  0.14148960956E+04  0.25500000920E-02 0.  1.
</event>
<event>
 5   0  0.5282098E-07  0.2798536E+04  0.7818609E-02  0.8303723E-01
       -1   -1    0    0    0  501  0.00000000000E+00  0.00000000000E+00  0.10733280153E+04  0.10733280153E+04  0.50400001928E-02 0.  1.
        1   -1    0    0  501    0  0.00000000000E+00  0.00000000000E+00 -0.18241874552E+04  0.18241874552E+04  0.50400001928E-02 0. -1.
    10030    2    1    2    0    0  0.00000000000E+00  0.00000000000E+00 -0.75085943990E+03  0.28975154706E+04  0.27985364039E+04 0.  0.
        4    1    3    3  502    0 -0.80670905278E+03  0.68721439482E+03  0.57061963410E+03  0.12035993935E+04  0.12699999809E+01 0.  1.
       -4    1    3    3    0  502  0.80670905278E+03 -0.68721439482E+03 -0.13214790740E+04  0.16939160771E+04  0.12699999809E+01 0. -1.
</event>
<event>
 5   0  0.5297741E-07  0.2800704E+04  0.7818609E-02  0.8303050E-01
       -1   -1    0    0    0  501  0.00000000000E+00  0.00000000000E+00  0.15806839297E+04  0.15806839297E+04  0.50400001928E-02 0.  1.
        1   -1    0    0  501    0  0.00000000000E+00  0.00000000000E+00 -0.12405932591E+04  0.12405932591E+04  0.50400001928E-02 0. -1.
    10030    2    1    2    0    0  0.00000000000E+00  0.00000000000E+00  0.34009067060E+03  0.28212771887E+04  0.28007040742E+04 0.  0.
        5    1    3    3  502    0  0.41235662552E+03 -0.13380852962E+04  0.14859357103E+03  0.14080526929E+04  0.46999998093E+01 0.  1.
       -5    1    3    3    0  502 -0.41235662552E+03  0.13380852962E+04  0.19149709957E+03  0.14132244959E+04  0.46999998093E+01 0. -1.
</event>
<event>
 5   0  0.1499888E-06  0.2799543E+04  0.7818609E-02  0.8303410E-01
        2   -1    0    0  501    0  0.00000000000E+00  0.00000000000E+00  0.19501734236E+04  0.19501734236E+04  0.25500000920E-02 0. -1.
       -2   -1    0    0    0  501  0.00000000000E+00  0.00000000000E+00 -0.10047104927E+04  0.10047104927E+04  0.25500000920E-02 0.  1.
    10030    2    1    2    0    0  0.00000000000E+00  0.00000000000E+00  0.94546293085E+03  0.29548839163E+04  0.27995426065E+04 0.  0.
        3    1    3    3  502    0  0.12062713985E+04 -0.24466486696E+03 -0.23089850445E+03  0.12523041618E+04  0.10100000352E+00 0.  1.
       -3    1    3    3    0  502 -0.12062713985E+04  0.24466486696E+03  0.11763614353E+04  0.17025797546E+04  0.10100000352E+00 0. -1.
</event>
<event>
 5   0  0.1499888E-06  0.2796938E+04  0.7818609E-02  0.8304220E-01
       -2   -1    0    0    0  501  0.00000000000E+00  0.00000000000E+00  0.10991609471E+04  0.10991609471E+04  0.25500000920E-02 0.  1.
        2   -1    0    0  501    0  0.00000000000E+00  0.00000000000E+00 -0.17792798781E+04  0.17792798781E+04  0.25500000920E-02 0. -1.
    10030    2    1    2    0    0  0.00000000000E+00  0.00000000000E+00 -0.68011893099E+03  0.28784408252E+04  0.27969375796E+04 0.  0.
        3    1    3    3  502    0  0.57418522937E+03  0.11914751495E+04  0.12750694366E+03  0.13287436699E+04  0.10100000352E+00 0.  1.
       -3    1    3    3    0  502 -0.57418522937E+03 -0.11914751495E+04 -0.80762587465E+03  0.15496971553E+04  0.10100000352E+00 0. -1.
</event>
<event>
 5   0  0.5551565E-07  0.2800643E+04  0.7818609E-02  0.8303069E-01
       -1   -1    0    0    0  501  0.00000000000E+00  0.00000000000E+00  0.17583837810E+04  0.17583837810E+04  0.50400001928E-02 0.  1.
        1   -1    0    0  501    0  0.00000000000E+00  0.00000000000E+00 -0.11151715964E+04  0.11151715964E+04  0.50400001928E-02 0. -1.
    10030    2    1    2    0    0  0.00000000000E+00  0.00000000000E+00  0.64321218464E+03  0.28735553774E+04  0.28006425321E+04 0.  0.
        3    1    3    3  502    0 -0.87500536353E+03 -0.51920552421E+03 -0.66557057626E+03  0.12158095923E+04  0.10100000352E+00 0. -1.
       -3    1    3    3    0  502  0.87500536353E+03  0.51920552421E+03  0.13087827609E+04  0.16577457851E+04  0.10100000352E+00 0.  1.
</event>
<event>
 5   0  0.5282098E-07  0.2793669E+04  0.7818609E-02  0.8305237E-01
        1   -1    0    0  501    0  0.00000000000E+00  0.00000000000E+00  0.19419090770E+04  0.19419090770E+04  0.50400001928E-02 0. -1.
       -1   -1    0    0    0  501  0.00000000000E+00  0.00000000000E+00 -0.10047569063E+04  0.10047569063E+04  0.50400001928E-02 0.  1.
    10030    2    1    2    0    0  0.00000000000E+00  0.00000000000E+00  0.93715217070E+03  0.29466659833E+04  0.27936689543E+04 0.  0.
        4    1    3    3  502    0 -0.74075126200E+03  0.32703891781E+03 -0.73194833531E+03  0.10915204370E+04  0.12699999809E+01 0.  1.
       -4    1    3    3    0  502  0.74075126200E+03 -0.32703891781E+03  0.16691005060E+04  0.18551455463E+04  0.12699999809E+01 0. -1.
</event>
<event>
 5   0  0.5297741E-07  0.2801674E+04  0.7818609E-02  0.8302749E-01
       -1   -1    0    0    0  501  0.00000000000E+00  0.00000000000E+00  0.12766308957E+04  0.12766308957E+04  0.50400001928E-02 0. -1.
        1   -1    0    0  501    0  0.00000000000E+00  0.00000000000E+00 -0.15371276293E+04  0.15371276293E+04  0.50400001928E-02 0.  1.
    10030    2    1    2    0    0  0.00000000000E+00  0.00000000000E+00 -0.26049673361E+03  0.28137585250E+04  0.28016742296E+04 0.  0.
        5    1    3    3  502    0  0.47812189384E+03  0.12422812287E+04 -0.56854720648E+03  0.14474568085E+04  0.46999998093E+01 0.  1.
       -5    1    3    3    0  502 -0.47812189384E+03 -0.12422812287E+04  0.30805047287E+03  0.13663017165E+04  0.46999998093E+01 0. -1.
</event>
<event>
 5   0  0.1394410E-06  0.2800227E+04  0.7818609E-02  0.8303198E-01
       -2   -1    0    0    0  501  0.00000000000E+00  0.00000000000E+00  0.89241441467E+03  0.89241441467E+03  0.25500000920E-02 0.  1.
        2   -1    0    0  501    0  0.00000000000E+00  0.00000000000E+00 -0.21966453727E+04  0.21966453727E+04  0.25500000920E-02 0. -1.
    10030    2    1    2    0    0  0.00000000000E+00  0.00000000000E+00 -0.13042309580E+04  0.30890597873E+04  0.28002271297E+04 0.  0.
        4    1    3    3  502    0 -0.94408607110E+03  0.73902416904E+03 -0.14497909579E+04  0.18813162059E+04  0.12699999809E+01 0.  1.
       -4    1    3    3    0  502  0.94408607110E+03 -0.73902416904E+03  0.14555999989E+03  0.12077435815E+04  0.12699999809E+01 0. -1.
</event>
<event>
 5   0  0.1394410E-06  0.2793607E+04  0.7818609E-02  0.8305256E-01
        2   -1    0    0  501    0  0.00000000000E+00  0.00000000000E+00  0.11293124023E+04  0.11293124023E+04  0.25500000920E-02 0. -1.
       -2   -1    0    0    0  501  0.00000000000E+00  0.00000000000E+00 -0.17276534187E+04  0.17276534187E+04  0.25500000920E-02 0.  1.
    10030    2    1    2    0    0  0.00000000000E+00  0.00000000000E+00 -0.59834101642E+03  0.28569658210E+04  0.27936072971E+04 0.  0.
        4    1    3    3  502    0  0.73279615237E+03 -0.10166483021E+04  0.33166201983E+03  0.12963661826E+04  0.12699999809E+01 0. -1.
       -4    1    3    3    0  502 -0.73279615237E+03  0.10166483021E+04 -0.93000303625E+03  0.15605996384E+04  0.12699999809E+01 0.  1.
</event>
<event>
 5   0  0.1499888E-06  0.2787444E+04  0.7818609E-02  0.8307177E-01
       -2   -1    0    0    0  501  0.00000000000E+00  0.00000000000E+00  0.12472793546E+04  0.12472793546E+04  0.25500000920E-02 0. -1.
        2   -1    0    0  501    0  0.00000000000E+00  0.00000000000E+00 -0.15573583252E+04  0.15573583252E+04  0.25500000920E-02 0.  1.
    10030    2    1    2    0    0  0.00000000000E+00  0.00000000000E+00 -0.31007897065E+03  0.28046376798E+04  0.27874439092E+04 0.  0.
        3    1    3    3  502    0 -0.16808438289E+03  0.10753438357E+04  0.72087272235E+03  0.13054785394E+04  0.10100000352E+00 0. -1.
       -3    1    3    3    0  502  0.16808438289E+03 -0.10753438357E+04 -0.10309516930E+04  0.14991591404E+04  0.10100000352E+00 0.  1.
</event>
<event>
 5   0  0.5362952E-07  0.2805896E+04  0.7818609E-02  0.8301440E-01
       -1   -1    0    0    0  501  0.00000000000E+00  0.00000000000E+00  0.21025398557E+04  0.21025398557E+04  0.50400001928E-02 0.  1.
        1   -1    0    0  501    0  0.00000000000E+00  0.00000000000E+00 -0.93613559625E+03  0.93613559626E+03  0.50400001928E-02 0. -1.
    10030    2    1    2    0    0  0.00000000000E+00  0.00000000000E+00  0.11664042595E+04  0.30386754520E+04  0.28058955088E+04 0.  0.
        1    1    3    3  502    0  0.11377202495E+04  0.82041574281E+03  0.61331242491E+03  0.15308956489E+04  0.50400001928E-02 0. -1.
       -1    1    3    3    0  502 -0.11377202495E+04 -0.82041574281E+03  0.55309183457E+03  0.15077798031E+04  0.50400001928E-02 0.  1.
</event>
<event>
 5   0  0.1394410E-06  0.2800658E+04  0.7818609E-02  0.8303064E-01
       -2   -1    0    0    0  501  0.00000000000E+00  0.00000000000E+00  0.14400486052E+04  0.14400486052E+04  0.25500000920E-02 0. -1.
        2   -1    0    0  501    0  0.00000000000E+00  0.00000000000E+00 -0.13617051258E+04  0.13617051258E+04  0.25500000920E-02 0.  1.
    10030    2    1    2    0    0  0.00000000000E+00  0.00000000000E+00  0.78343479333E+02  0.28017537310E+04  0.28006581849E+04 0.  0.
        4    1    3    3  502    0 -0.34240036757E+03 -0.10517102717E+03  0.13934446174E+04  0.14387454505E+04  0.12699999809E+01 0. -1.
       -4    1    3    3    0  502  0.34240036757E+03  0.10517102717E+03 -0.13151011380E+04  0.13630082805E+04  0.12699999809E+01 0.  1.
</event>
<event>
 5   0  0.5282098E-07  0.2807012E+04  0.7818609E-02  0.8301095E-01
        1   -1    0    0  501    0  0.00000000000E+00  0.00000000000E+00  0.15006631522E+04  0.15006631522E+04  0.50400001928E-02 0.  1.
       -1   -1    0    0    0  501  0.00000000000E+00  0.00000000000E+00 -0.13126389677E+04  0.13126389677E+04  0.50400001928E-02 0. -1.
    10030    2    1    2    0    0  0.00000000000E+00  0.00000000000E+00  0.18802418450E+03  0.28133021199E+04  0.28070118853E+04 0.  0.
        4    1    3    3  502    0 -0.10569422872E+04 -0.75910592259E+03  0.62098357006E+03  0.14418706625E+04  0.12699999809E+01 0.  1.
       -4    1    3    3    0  502  0.10569422872E+04  0.75910592259E+03 -0.43295938556E+03  0.13714314575E+04  0.12699999809E+01 0. -1.
</event>
<event>
 5   0  0.1461146E-06  0.2790499E+04  0.7818609E-02  0.8306224E-01
        2   -1    0    0  501    0  0.00000000000E+00  0.00000000000E+00  0.24840204401E+04  0.24840204401E+04  0.25500000920E-02 0. -1.
       -2   -1    0    0    0  501  0.00000000000E+00  0.00000000000E+00 -0.78369745950E+03  0.78369745951E+03  0.25500000920E-02 0.  1.
    10030    2    1    2    0    0  0.00000000000E+00  0.00000000000E+00  0.17003229806E+04  0.32677178996E+04  0.27904985277E+04 0.  0.
        1    1    3    3  502    0 -0.24433705057E+03 -0.13609929477E+04  0.63196849829E+03  0.15203244986E+04  0.50400001928E-02 0.  1.
       -1    1    3    3    0  502  0.24433705057E+03  0.13609929477E+04  0.10683544823E+04  0.17473934010E+04  0.50400001928E-02 0. -1.
</event>
<event>
 5   0  0.1439207E-06  0.2798366E+04  0.7818609E-02  0.8303776E-01
        2   -1    0    0  501    0  0.00000000000E+00  0.00000000000E+00  0.22812244458E+04  0.22812244458E+04  0.25500000920E-02 0. -1.
       -2   -1    0    0    0  501  0.00000000000E+00  0.00000000000E+00 -0.85818546565E+03  0.85818546566E+03  0.25500000920E-02 0.  1.
    10030    2    1    2    0    0  0.00000000000E+00  0.00000000000E+00  0.14230389802E+04  0.31394099115E+04  0.27983664258E+04 0.  0.
        5    1    3    3  502    0  0.30211638202E+03 -0.96116077659E+03  0.18007109276E+04  0.20634161678E+04  0.46999998093E+01 0. -1.
       -5    1    3    3    0  502 -0.30211638202E+03  0.96116077659E+03 -0.37767194738E+03  0.10759937437E+04  0.46999998093E+01 0.  1.
</event>
<event>
 5   0  0.5362952E-07  0.2802095E+04  0.7818609E-02  0.8302618E-01
        1   -1    0    0  501    0  0.00000000000E+00  0.00000000000E+00  0.13280160669E+04  0.13280160669E+04  0.50400001928E-02 0.  1.
       -1   -1    0    0    0  501  0.00000000000E+00  0.00000000000E+00 -0.14780955341E+04  0.14780955341E+04  0.50400001928E-02 0. -1.
    10030    2    1    2    0    0  0.00000000000E+00  0.00000000000E+00 -0.15007946720E+03  0.28061116010E+04  0.28020953715E+04 0.  0.
        1    1    3    3  502    0  0.36006488281E+03  0.64487673317E+03  0.11172219727E+04  0.13392899825E+04  0.50400001928E-02 0.  1.
       -1    1    3    3    0  502 -0.36006488281E+03 -0.64487673317E+03 -0.12673014399E+04  0.14668216185E+04  0.50400001928E-02 0. -1.
</event>
<event>
 5   0  0.5362952E-07  0.2803628E+04  0.7818609E-02  0.8302143E-01
       -1   -1    0    0    0  501  0.00000000000E+00  0.00000000000E+00  0.64101364474E+03  0.64101364476E+03  0.50400001928E-02 0.  1.
        1   -1    0    0  501    0  0.00000000000E+00  0.00000000000E+00 -0.30655851266E+04  0.30655851266E+04  0.50400001928E-02 0. -1.
    10030    2    1    2    0    0  0.00000000000E+00  0.00000000000E+00 -0.24245714819E+04  0.37065987714E+04  0.28036275754E+04 0.  0.
        1    1    3    3  502    0  0.40581457304E+03  0.12784245685E+04 -0.17509828942E+04  0.22056735799E+04  0.50400001928E-02 0. -1.
       -1    1    3    3    0  502 -0.40581457304E+03 -0.12784245685E+04 -0.67358858769E+03  0.15009251915E+04  0.50400001928E-02 0.  1.
</event>
<event>
 5   0  0.5282098E-07  0.2791851E+04  0.7818609E-02  0.8305803E-01
       -1   -1    0    0    0  501  0.00000000000E+00  0.00000000000E+00  0.13896068826E+04  0.13896068827E+04  0.50400001928E-02 0.  1.
        1   -1    0    0  501    0  0.00000000000E+00  0.00000000000E+00 -0.14022730961E+04  0.14022730961E+04  0.50400001928E-02 0. -1.
    10030    2    1    2    0    0  0.00000000000E+00  0.00000000000E+00 -0.12666213438E+02  0.27918799787E+04  0.27918512465E+04 0.  0.
        4    1    3    3  502    0  0.93338936944E+03 -0.10339826983E+04 -0.97277967373E+02  0.13963525884E+04  0.12699999809E+01 0. -1.
       -4    1    3    3    0  502 -0.93338936944E+03  0.10339826983E+04  0.84611753935E+02  0.13955273903E+04  0.12699999809E+01 0.  1.
</event>
<event>
 5   0  0.1394410E-06  0.2791293E+04  0.7818609E-02  0.8305977E-01
       -2   -1    0    0    0  501  0.00000000000E+00  0.00000000000E+00  0.77059612428E+03  0.77059612429E+03  0.25500000920E-02 0.  1.
        2   -1    0    0  501    0  0.00000000000E+00  0.00000000000E+00 -0.25276905840E+04  0.25276905840E+04  0.25500000920E-02 0. -1.
    10030    2    1    2    0    0  0.00000000000E+00  0.00000000000E+00 -0.17570944597E+04  0.32982867083E+04  0.27912925805E+04 0.  0.
        4    1    3    3  502    0 -0.23228374697E+03  0.93182381887E+03  0.31810204056E+03  0.10116530480E+04  0.12699999809E+01 0.  1.
       -4    1    3    3    0  502  0.23228374697E+03 -0.93182381887E+03 -0.20751965003E+04  0.22866336602E+04  0.12699999809E+01 0. -1.
</event>
<event>
 5   0  0.5362952E-07  0.2808088E+04  0.7818609E-02  0.8300762E-01
       -1   -1    0    0    0  501  0.00000000000E+00  0.00000000000E+00  0.13947268568E+04  0.13947268568E+04  0.50400001928E-02 0. -1.
        1   -1    0    0  501    0  0.00000000000E+00  0.00000000000E+00 -0.14134234959E+04  0.14134234959E+04  0.50400001928E-02 0.  1.
    10030    2    1    2    0    0  0.00000000000E+00  0.00000000000E+00 -0.18696639132E+02  0.28081503527E+04  0.28080881110E+04 0.  0.
        1    1    3    3  502    0  0.86831454735E+03  0.75275520885E+03  0.79734740962E+03  0.13987042036E+04  0.50400001928E-02 0. -1.
       -1    1    3    3    0  502 -0.86831454735E+03 -0.75275520885E+03 -0.81604404875E+03  0.14094461491E+04  0.50400001928E-02 0.  1.
</event>
<event>
 5   0  0.1461146E-06  0.2788260E+04  0.7818609E-02  0.8306922E-01
        2   -1    0    0  501    0  0.00000000000E+00  0.00000000000E+00  0.11161790013E+04  0.11161790013E+04  0.25500000920E-02 0.  1.
       -2   -1    0    0    0  501  0.00000000000E+00  0.00000000000E+00 -0.17412963800E+04  0.17412963800E+04  0.25500000920E-02 0. -1.
    10030    2    1    2    0    0  0.00000000000E+00  0.00000000000E+00 -0.62511737873E+03  0.28574753814E+04  0.27882599983E+04 0.  0.
        1    1    3    3  502    0  0.57207843516E+03  0.11868780630E+04  0.15443408259E+03  0.13265757265E+04  0.50400001928E-02 0.  1.
       -1    1    3    3    0  502 -0.57207843516E+03 -0.11868780630E+04 -0.77955146132E+03  0.15308996548E+04  0.50400001928E-02 0. -1.
</event>
<event>
 5   0  0.5297741E-07  0.2802576E+04  0.7818609E-02  0.8302469E-01
        1   -1    0    0  501    0  0.00000000000E+00  0.00000000000E+00  0.13279861544E+04  0.13279861544E+04  0.50400001928E-02 0. -1.
       -1   -1    0    0    0  501  0.00000000000E+00  0.00000000000E+00 -0.14786356402E+04  0.14786356402E+04  0.50400001928E-02 0.  1.
    10030    2    1    2    0    0  0.00000000000E+00  0.00000000000E+00 -0.15064948574E+03  0.28066217946E+04  0.28025757136E+04 0.  0.
        5    1    3    3  502    0  0.54081828788E+03 -0.99358216453E+03  0.75284899269E+03  0.13588574738E+04  0.46999998093E+01 0. -1.
       -5    1    3    3    0  502 -0.54081828788E+03  0.99358216453E+03 -0.90349847844E+03  0.14477643209E+04  0.46999998093E+01 0.  1.
</event>
<event>
 5   0  0.1499888E-06  0.2814919E+04  0.7818609E-02  0.8298652E-01
        2   -1    0    0  501    0  0.00000000000E+00  0.00000000000E+00  0.16703820376E+04  0.16703820376E+04  0.25500000920E-02 0. -1.
       -2   -1    0    0    0  501  0.00000000000E+00  0.00000000000E+00 -0.11859214371E+04  0.11859214371E+04  0.25500000920E-02 0.  1.
    10030    2    1    2    0    0  0.00000000000E+00  0.00000000000E+00  0.48446060053E+03  0.28563034747E+04  0.28149187317E+04 0.  0.
        3    1    3    3  502    0  0.98705755637E+03 -0.99464707437E+02 -0.77082953418E+03  0.12563256061E+04  0.10100000352E+00 0.  1.
       -3    1    3    3    0  502 -0.98705755637E+03  0.99464707437E+02  0.12552901347E+04  0.15999778686E+04  0.10100000352E+00 0. -1.
</event>
<event>
 5   0  0.5362952E-07  0.2797026E+04  0.7818609E-02  0.8304192E-01
       -1   -1    0    0    0  501  0.00000000000E+00  0.00000000000E+00  0.83141926108E+03  0.83141926109E+03  0.50400001928E-02 0.  1.
        1   -1    0    0  501    0  0.00000000000E+00  0.00000000000E+00 -0.23524100353E+04  0.23524100353E+04  0.50400001928E-02 0. -1.
    10030    2    1    2    0    0  0.00000000000E+00  0.00000000000E+00 -0.15209907742E+04  0.31838292964E+04  0.27970262876E+04 0.  0.
        1    1    3    3  502    0 -0.31963947442E+02  0.92697295555E+03 -0.19519212976E+04  0.21610870658E+04  0.50400001928E-02 0.  1.
       -1    1    3    3    0  502  0.31963947442E+02 -0.92697295555E+03  0.43093052331E+03  0.10227422306E+04  0.50400001928E-02 0. -1.
</event>
<event>
 5   0  0.5297741E-07  0.2797702E+04  0.7818609E-02  0.8303982E-01
        1   -1    0    0  501    0  0.00000000000E+00  0.00000000000E+00  0.17798727359E+04  0.17798727359E+04  0.50400001928E-02 0.  1.
       -1   -1    0    0    0  501  0.00000000000E+00  0.00000000000E+00 -0.10993957540E+04  0.10993957540E+04  0.50400001928E-02 0. -1.
    10030    2    1    2    0    0  0.00000000000E+00  0.00000000000E+00  0.68047698194E+03  0.28792684899E+04  0.27977022919E+04 0.  0.
        5    1    3    3  502    0 -0.48673250120E+02  0.14626791114E+03 -0.10906193451E+04  0.11014699420E+04  0.46999998093E+01 0. -1.
       -5    1    3    3    0  502  0.48673250120E+02 -0.14626791114E+03  0.17710963271E+04  0.17777985479E+04  0.46999998093E+01 0.  1.
</event>
<event>
 5   0  0.1439207E-06  0.2800124E+04  0.7818609E-02  0.8303230E-01
        2   -1    0    0  501    0  0.00000000000E+00  0.00000000000E+00  0.15953112923E+04  0.15953112923E+04  0.25500000920E-02 0.  1.
       -2   -1    0    0    0  501  0.00000000000E+00  0.00000000000E+00 -0.12287088535E+04  0.12287088535E+04  0.25500000920E-02 0. -1.
    10030    2    1    2    0    0  0.00000000000E+00  0.00000000000E+00  0.36660243881E+03  0.28240201459E+04  0.28001236466E+04 0.  0.
        5    1    3    3  502    0 -0.47395013989E+03 -0.10891708240E+03 -0.11407851096E+04  0.12401227448E+04  0.46999998093E+01 0. -1.
       -5    1    3    3    0  502  0.47395013989E+03  0.10891708240E+03  0.15073875484E+04  0.15838974010E+04  0.46999998093E+01 0.  1.
</event>
<event>
 5   0  0.5362952E-07  0.2802434E+04  0.7818609E-02  0.8302513E-01
        1   -1    0    0  501    0  0.00000000000E+00  0.00000000000E+00  0.13056894441E+04  0.13056894441E+04  0.50400001928E-02 0. -1.
       -1   -1    0    0    0  501  0.00000000000E+00  0.00000000000E+00 -0.15037331966E+04  0.15037331966E+04  0.50400001928E-02 0.  1.
    10030    2    1    2    0    0  0.00000000000E+00  0.00000000000E+00 -0.19804375255E+03  0.28094226407E+04  0.28024336292E+04 0.  0.
        1    1    3    3  502    0  0.10486123826E+03  0.21373839841E+03  0.12852652505E+04  0.13071292004E+04  0.50400001928E-02 0. -1.
       -1    1    3    3    0  502 -0.10486123826E+03 -0.21373839841E+03 -0.14833090031E+04  0.15022934403E+04  0.50400001928E-02 0.  1.
</event>
<event>
 5   0  0.5297741E-07  0.2795747E+04  0.7818609E-02  0.8304590E-01
        1   -1    0    0  501    0  0.00000000000E+00  0.00000000000E+00  0.13431586066E+04  0.13431586066E+04  0.50400001928E-02 0.  1.
       -1   -1    0    0    0  501  0.00000000000E+00  0.00000000000E+00 -0.14548167725E+04  0.14548167725E+04  0.50400001928E-02 0. -1.
    10030    2    1    2    0    0  0.00000000000E+00  0.00000000000E+00 -0.11165816588E+03  0.27979753791E+04  0.27957465328E+04 0.  0.
        5    1    3    3  502    0 -0.49709128686E+03 -0.16540559177E+03  0.12411859079E+04  0.13472280078E+04  0.46999998093E+01 0.  1.
       -5    1    3    3    0  502  0.49709128686E+03  0.16540559177E+03 -0.13528440737E+04  0.14507473712E+04  0.46999998093E+01 0. -1.
</event>
<event>
 5   0  0.5551565E-07  0.2793266E+04  0.7818609E-02  0.8305362E-01
       -1   -1    0    0    0  501  0.00000000000E+00  0.00000000000E+00  0.13905927043E+04  0.13905927043E+04  0.50400001928E-02 0. -1.
        1   -1    0    0  501    0  0.00000000000E+00  0.00000000000E+00 -0.14026990643E+04  0.14026990643E+04  0.50400001928E-02 0.  1.
    10030    2    1    2    0    0  0.00000000000E+00  0.00000000000E+00 -0.12106360016E+02  0.27932917686E+04  0.27932655335E+04 0.  0.
        3    1    3    3  502    0 -0.14369015593E+03  0.99838614961E+03  0.95995864157E+03  0.13924591083E+04  0.10100000352E+00 0. -1.
       -3    1    3    3    0  502  0.14369015593E+03 -0.99838614961E+03 -0.97206500159E+03  0.14008326603E+04  0.10100000352E+00 0.  1.
</event>
<event>
 5   0  0.1394410E-06  0.2801264E+04  0.7818609E-02  0.8302876E-01
        2   -1    0    0  501    0  0.00000000000E+00  0.00000000000E+00  0.14837005326E+04  0.14837005326E+04  0.25500000920E-02 0.  1.
       -2   -1    0    0    0  501  0.00000000000E+00  0.00000000000E+00 -0.13222143148E+04  0.13222143148E+04  0.25500000920E-02 0. -1.
    10030    2    1    2    0    0  0.00000000000E+00  0.00000000000E+00  0.16148621777E+03  0.28059148474E+04  0.28012640598E+04 0.  0.
        4    1    3    3  502    0  0.40242613478E+03  0.36416196063E+03  0.13740908148E+04  0.14773922661E+04  0.12699999809E+01 0.  1.
       -4    1    3    3    0  502 -0.40242613478E+03 -0.36416196063E+03 -0.12126045971E+04  0.13285225814E+04  0.12699999809E+01 0. -1.
</event>
<event>
 5   0  0.5214658E-07  0.2797699E+04  0.7818609E-02  0.8303983E-01
       -1   -1    0    0    0  501  0.00000000000E+00  0.00000000000E+00  0.29137089579E+04  0.29137089579E+04  0.50400001928E-02 0. -1.
        1   -1    0    0  501    0  0.00000000000E+00  0.00000000000E+00 -0.67157695563E+03  0.67157695565E+03  0.50400001928E-02 0.  1.
    10030    2    1    2    0    0  0.00000000000E+00  0.00000000000E+00  0.22421320023E+04  0.35852859135E+04  0.27976989056E+04 0.  0.
        2    1    3    3  502    0 -0.71423761794E+02  0.13020927149E+04  0.17697607051E+04  0.21983174805E+04  0.25500000920E-02 0. -1.
       -2    1    3    3    0  502  0.71423761794E+02 -0.13020927149E+04  0.47237129716E+03  0.13869684330E+04  0.25500000920E-02 0.  1.
</event>
<event>
 5   0  0.4710000E-07  0.2800051E+04  0.7818609E-02  0.8303253E-01
       -3   -1    0    0    0  501  0.00000000000E+00  0.00000000000E+00  0.27387550876E+04  0.27387550895E+04  0.10100000352E+00 0. -1.
        3   -1    0    0  501    0  0.00000000000E+00  0.00000000000E+00 -0.71567949439E+03  0.71567950152E+03  0.10100000352E+00 0.  1.
    10030    2    1    2    0    0  0.00000000000E+00  0.00000000000E+00  0.20230755932E+04  0.34544345910E+04  0.28000506223E+04 0.  0.
        5    1    3    3  502    0 -0.23062079464E+03  0.88474244652E+03 -0.29647603052E+03  0.96118430817E+03  0.46999998093E+01 0.  1.
       -5    1    3    3    0  502  0.23062079464E+03 -0.88474244652E+03  0.23195516237E+04  0.24932502828E+04  0.46999998093E+01 0. -1.
</event>
<event>
 5   0  0.1461146E-06  0.2797672E+04  0.7818609E-02  0.8303992E-01
        2   -1    0    0  501    0  0.00000000000E+00  0.00000000000E+00  0.22163617147E+04  0.22163617147E+04  0.25500000920E-02 0.  1.
       -2   -1    0    0    0  501  0.00000000000E+00  0.00000000000E+00 -0.88286217086E+03  0.88286217086E+03  0.25500000920E-02 0. -1.
    10030    2    1    2    0    0  0.00000000000E+00  0.00000000000E+00  0.13334995438E+04  0.30992238855E+04  0.27976718284E+04 0.  0.
        1    1    3    3  502    0  0.95590505975E+02 -0.13815722599E+04  0.44836551479E+03  0.14556479963E+04  0.50400001928E-02 0. -1.
       -1    1    3    3    0  502 -0.95590505975E+02  0.13815722599E+04  0.88513402902E+03  0.16435758892E+04  0.50400001928E-02 0.  1.
</event>
<event>
 5   0  0.1394410E-06  0.2802589E+04  0.7818609E-02  0.8302465E-01
       -2   -1    0    0    0  501  0.00000000000E+00  0.00000000000E+00  0.13421377237E+04  0.13421377237E+04  0.25500000920E-02 0. -1.
        2   -1    0    0  501    0  0.00000000000E+00  0.00000000000E+00 -0.14630582222E+04  0.14630582222E+04  0.25500000920E-02 0.  1.
    10030    2    1    2    0    0  0.00000000000E+00  0.00000000000E+00 -0.12092049849E+03  0.28051959459E+04  0.28025885406E+04 0.  0.
        4    1    3    3  502    0 -0.27538633774E+03 -0.13624931717E+04 -0.23782200454E+03  0.14102433112E+04  0.12699999809E+01 0. -1.
       -4    1    3    3    0  502  0.27538633774E+03  0.13624931717E+04  0.11690150605E+03  0.13949526347E+04  0.12699999809E+01 0.  1.
</event>
<event>
 5   0  0.1394410E-06  0.2800665E+04  0.7818609E-02  0.8303062E-01
        2   -1    0    0  501    0  0.00000000000E+00  0.00000000000E+00  0.97868987698E+03  0.97868987698E+03  0.25500000920E-02 0. -1.
       -2   -1    0    0    0  501  0.00000000000E+00  0.00000000000E+00 -0.20036290692E+04  0.20036290692E+04  0.25500000920E-02 0.  1.
    10030    2    1    2    0    0  0.00000000000E+00  0.00000000000E+00 -0.10249391922E+04  0.29823189462E+04  0.28006652690E+04 0.  0.
        4    1    3    3  502    0  0.21363695586E+03 -0.86409345787E+03 -0.16636190148E+04  0.18867771708E+04  0.12699999809E+01 0.  1.
       -4    1    3    3    0  502 -0.21363695586E+03  0.86409345787E+03  0.63867982263E+03  0.10955417754E+04  0.12699999809E+01 0. -1.
</event>
<event>
 5   0  0.1377807E-06  0.2807631E+04  0.7818609E-02  0.8300903E-01
        2   -1    0    0  501    0  0.00000000000E+00  0.00000000000E+00  0.12374072410E+04  0.12374072410E+04  0.25500000920E-02 0. -1.
       -2   -1    0    0    0  501  0.00000000000E+00  0.00000000000E+00 -0.15926023234E+04  0.15926023234E+04  0.25500000920E-02 0.  1.
    10030    2    1    2    0    0  0.00000000000E+00  0.00000000000E+00 -0.35519508236E+03  0.28300095644E+04  0.28076307785E+04 0.  0.
        2    1    3    3  502    0  0.11050344760E+04 -0.75674077428E+03 -0.60159254725E+03  0.14682204826E+04  0.25500000920E-02 0.  1.
       -2    1    3    3    0  502 -0.11050344760E+04  0.75674077428E+03  0.24639746490E+03  0.13617890818E+04  0.25500000920E-02 0. -1.
</event>
<event>
 5   0  0.1499888E-06  0.2783483E+04  0.7818609E-02  0.8308415E-01
       -2   -1    0    0    0  501  0.00000000000E+00  0.00000000000E+00  0.87505274892E+03  0.87505274893E+03  0.25500000920E-02 0.  1.
        2   -1    0    0  501    0  0.00000000000E+00  0.00000000000E+00 -0.22135165191E+04  0.22135165191E+04  0.25500000920E-02 0. -1.
    10030    2    1    2    0    0  0.00000000000E+00  0.00000000000E+00 -0.13384637702E+04  0.30885692680E+04  0.27834825057E+04 0.  0.
        3    1    3    3  502    0  0.48521743883E+03 -0.12485561561E+03  0.77151330607E+03  0.91992264856E+03  0.10100000352E+00 0.  1.
       -3    1    3    3    0  502 -0.48521743883E+03  0.12485561561E+03 -0.21099770763E+04  0.21686466195E+04  0.10100000352E+00 0. -1.
</event>
<event>
 5   0  0.5551565E-07  0.2831163E+04  0.7818609E-02  0.8293658E-01
        1   -1    0    0  501    0  0.00000000000E+00  0.00000000000E+00  0.20390521649E+04  0.20390521649E+04  0.50400001928E-02 0. -1.
       -1   -1    0    0    0  501  0.00000000000E+00  0.00000000000E+00 -0.98274621319E+03  0.98274621321E+03  0.50400001928E-02 0.  1.
    10030    2    1    2    0    0  0.00000000000E+00  0.00000000000E+00  0.10563059517E+04  0.30217983781E+04  0.28311628661E+04 0.  0.
        3    1    3    3  502    0  0.39593149120E+03  0.72232598310E+03 -0.70060574068E+03  0.10813718073E+04  0.10100000352E+00 0.  1.
       -3    1    3    3    0  502 -0.39593149120E+03 -0.72232598310E+03  0.17569116924E+04  0.19404265708E+04  0.10100000352E+00 0. -1.
</event>
<event>
 5   0  0.5282098E-07  0.2797826E+04  0.7818609E-02  0.8303944E-01
        1   -1    0    0  501    0  0.00000000000E+00  0.00000000000E+00  0.17189031649E+04  0.17189031649E+04  0.50400001928E-02 0.  1.
       -1   -1    0    0    0  501  0.00000000000E+00  0.00000000000E+00 -0.11384922588E+04  0.11384922588E+04  0.50400001928E-02 0. -1.
    10030    2    1    2    0    0  0.00000000000E+00  0.00000000000E+00  0.58041090608E+03  0.28573954237E+04  0.27978262612E+04 0.  0.
        4    1    3    3  502    0 -0.10259899053E+04  0.95034594158E+03  0.25566769189E+03  0.14216821994E+04  0.12699999809E+01 0.  1.
       -4    1    3    3    0  502  0.10259899053E+04 -0.95034594158E+03  0.32474321419E+03  0.14357132243E+04  0.12699999809E+01 0. -1.
</event>
<event>
 5   0  0.1499888E-06  0.2802371E+04  0.7818609E-02  0.8302533E-01
        2   -1    0    0  501    0  0.00000000000E+00  0.00000000000E+00  0.28194662142E+04  0.28194662142E+04  0.25500000920E-02 0.  1.
       -2   -1    0    0    0  501  0.00000000000E+00  0.00000000000E+00 -0.69634502031E+03  0.69634502031E+03  0.25500000920E-02 0. -1.
    10030    2    1    2    0    0  0.00000000000E+00  0.00000000000E+00  0.21231211939E+04  0.35158112345E+04  0.28023713231E+04 0.  0.
        3    1    3    3  502    0  0.18320837784E+03 -0.12837426533E+04  0.39561292092E+03  0.13557544406E+04  0.10100000352E+00 0. -1.
       -3    1    3    3    0  502 -0.18320837784E+03  0.12837426533E+04  0.17275082730E+04  0.21600567939E+04  0.10100000352E+00 0.  1.
</event>
<event>
 5   0  0.1377807E-06  0.2780888E+04  0.7818609E-02  0.8309227E-01
        2   -1    0    0  501    0  0.00000000000E+00  0.00000000000E+00  0.17829275966E+04  0.17829275966E+04  0.25500000920E-02 0.  1.
       -2   -1    0    0    0  501  0.00000000000E+00  0.00000000000E+00 -0.10843594992E+04  0.10843594992E+04  0.25500000920E-02 0. -1.
    10030    2    1    2    0    0  0.00000000000E+00  0.00000000000E+00  0.69856809734E+03  0.28672870958E+04  0.27808879702E+04 0.  0.
        2    1    3    3  502    0  0.42767188217E+03  0.12501971221E+04 -0.97108526932E+02  0.13248872212E+04  0.25500000920E-02 0. -1.
       -2    1    3    3    0  502 -0.42767188217E+03 -0.12501971221E+04  0.79567662428E+03  0.15423998746E+04  0.25500000920E-02 0.  1.
</event>
<event>
 5   0  0.5362952E-07  0.2790859E+04  0.7818609E-02  0.8306112E-01
        1   -1    0    0  501    0  0.00000000000E+00  0.00000000000E+00  0.18024020462E+04  0.18024020462E+04  0.50400001928E-02 0. -1.
       -1   -1    0    0    0  501  0.00000000000E+00  0.00000000000E+00 -0.10803487521E+04  0.10803487521E+04  0.50400001928E-02 0.  1.
    10030    2    1    2    0    0  0.00000000000E+00  0.00000000000E+00  0.72205329407E+03  0.28827507984E+04  0.27908585070E+04 0.  0.
        1    1    3    3  502    0 -0.11192326929E+03 -0.12427691437E+04 -0.28421815003E+03  0.12797585395E+04  0.50400001928E-02 0.  1.
       -1    1    3    3    0  502  0.11192326929E+03  0.12427691437E+04  0.10062714441E+04  0.16029922588E+04  0.50400001928E-02 0. -1.
</event>
<event>
 5   0  0.1461146E-06  0.2806859E+04  0.7818609E-02  0.8301142E-01
        2   -1    0    0  501    0  0.00000000000E+00  0.00000000000E+00  0.17511535365E+04  0.17511535365E+04  0.25500000920E-02 0.  1.
       -2   -1    0    0    0  501  0.00000000000E+00  0.00000000000E+00 -0.11247525089E+04  0.11247525089E+04  0.25500000920E-02 0. -1.
    10030    2    1    2    0    0  0.00000000000E+00  0.00000000000E+00  0.62640102757E+03  0.28759060454E+04  0.28068589802E+04 0.  0.
        1    1    3    3  502    0  0.13149314204E+04  0.26255458602E+03 -0.11127901660E+03  0.13454971462E+04  0.50400001928E-02 0. -1.
       -1    1    3    3    0  502 -0.13149314204E+04 -0.26255458602E+03  0.73768004417E+03  0.15304088991E+04  0.50400001928E-02 0.  1.
</event>
<event>
 5   0  0.5214658E-07  0.2801728E+04  0.7818609E-02  0.8302732E-01
        1   -1    0    0  501    0  0.00000000000E+00  0.00000000000E+00  0.10805945632E+04  0.10805945632E+04  0.50400001928E-02 0.  1.
       -1   -1    0    0    0  501  0.00000000000E+00  0.00000000000E+00 -0.18160556334E+04  0.18160556334E+04  0.50400001928E-02 0. -1.
    10030    2    1    2    0    0  0.00000000000E+00  0.00000000000E+00 -0.73546107022E+03  0.28966501966E+04  0.28017279268E+04 0.  0.
        2    1    3    3  502    0 -0.12169478307E+03  0.59386876990E+03  0.93796200102E+03  0.11168090488E+04  0.25500000920E-02 0.  1.
       -2    1    3    3    0  502  0.12169478307E+03 -0.59386876990E+03 -0.16734230712E+04  0.17798411478E+04  0.25500000920E-02 0. -1.
</event>
<event>
 5   0  0.1439207E-06  0.2804523E+04  0.7818609E-02  0.8301865E-01
        2   -1    0    0  501    0  0.00000000000E+00  0.00000000000E+00  0.18579569334E+04  0.18579569334E+04  0.25500000920E-02 0.  1.
       -2   -1    0    0    0  501  0.00000000000E+00  0.00000000000E+00 -0.10583334345E+04  0.10583334345E+04  0.25500000920E-02 0. -1.
    10030    2    1    2    0    0  0.00000000000E+00  0.00000000000E+00  0.79962349885E+03  0.29162903679E+04  0.28045234479E+04 0.  0.
        5    1    3    3  502    0 -0.32435183710E+03  0.35526123129E+03  0.17694600445E+04  0.18336917941E+04  0.46999998093E+01 0.  1.
       -5    1    3    3    0  502  0.32435183710E+03 -0.35526123129E+03 -0.96983654563E+03  0.10825985738E+04  0.46999998093E+01 0. -1.
</event>
<event>
 5   0  0.5214658E-07  0.2799570E+04  0.7818609E-02  0.8303402E-01
       -1   -1    0    0    0  501  0.00000000000E+00  0.00000000000E+00  0.71127241656E+03  0.71127241657E+03  0.50400001928E-02 0.  1.
        1   -1    0    0  501    0  0.00000000000E+00  0.00000000000E+00 -0.27547793311E+04  0.27547793311E+04  0.50400001928E-02 0. -1.
    10030    2    1    2    0    0  0.00000000000E+00  0.00000000000E+00 -0.20435069146E+04  0.34660517477E+04  0.27995703613E+04 0.  0.
        2    1    3    3  502    0  0.85099780888E+03  0.33018060748E+03 -0.23356100220E+04  0.25076464422E+04  0.25500000920E-02 0. -1.
       -2    1    3    3    0  502 -0.85099780888E+03 -0.33018060748E+03  0.29210310740E+03  0.95840530552E+03  0.25500000920E-02 0.  1.
</event>
<event>
 5   0  0.5551565E-07  0.2806119E+04  0.7818609E-02  0.8301371E-01
       -1   -1    0    0    0  501  0.00000000000E+00  0.00000000000E+00  0.91601615755E+03  0.91601615757E+03  0.50400001928E-02 0. -1.
        1   -1    0    0  501    0  0.00000000000E+00  0.00000000000E+00 -0.21490629162E+04  0.21490629162E+04  0.50400001928E-02 0.  1.
    10030    2    1    2    0    0  0.00000000000E+00  0.00000000000E+00 -0.12330467586E+04  0.30650790737E+04  0.28061192810E+04 0.  0.
        3    1    3    3  502    0  0.13101257583E+04  0.33402443952E+02 -0.69256284834E+02  0.13123801541E+04  0.10100000352E+00 0. -1.
       -3    1    3    3    0  502 -0.13101257583E+04 -0.33402443952E+02 -0.11637904738E+04  0.17526989196E+04  0.10100000352E+00 0.  1.
</event>
<event>
 5   0  0.5297741E-07  0.2799579E+04  0.7818609E-02  0.8303399E-01
        1   -1    0    0  501    0  0.00000000000E+00  0.00000000000E+00  0.16582084767E+04  0.16582084767E+04  0.50400001928E-02 0.  1.
       -1   -1    0    0    0  501  0.00000000000E+00  0.00000000000E+00 -0.11816434925E+04  0.11816434925E+04  0.50400001928E-02 0. -1.
    10030    2    1    2    0    0  0.00000000000E+00  0.00000000000E+00  0.47656498415E+03  0.28398519692E+04  0.27995794368E+04 0.  0.
        5    1    3    3  502    0 -0.18900065243E+02  0.11173119189E+04  0.10934074350E+04  0.15634273394E+04  0.46999998093E+01 0.  1.
       -5    1    3    3    0  502  0.18900065243E+02 -0.11173119189E+04 -0.61684245089E+03  0.12764246299E+04  0.46999998093E+01 0. -1.
</event>
<event>
 5   0  0.1461146E-06  0.2790064E+04  0.7818609E-02  0.8306360E-01
       -2   -1    0    0    0  501  0.00000000000E+00  0.00000000000E+00  0.10853517623E+04  0.10853517623E+04  0.25500000920E-02 0. -1.
        2   -1    0    0  501    0  0.00000000000E+00  0.00000000000E+00 -0.17930720110E+04  0.17930720110E+04  0.25500000920E-02 0.  1.
    10030    2    1    2    0    0  0.00000000000E+00  0.00000000000E+00 -0.70772024874E+03  0.28784237733E+04  0.27900637032E+04 0.  0.
        1    1    3    3  502    0 -0.78614690725E+03  0.65361343474E+03 -0.13330642059E+04  0.16799695411E+04  0.50400001928E-02 0.  1.
       -1    1    3    3    0  502  0.78614690725E+03 -0.65361343474E+03  0.62534395717E+03  0.11984542322E+04  0.50400001928E-02 0. -1.
</event>
<event>
 5   0  0.5551565E-07  0.2797371E+04  0.7818609E-02  0.8304085E-01
        1   -1    0    0  501    0  0.00000000000E+00  0.00000000000E+00  0.10479732501E+04  0.10479732502E+04  0.50400001928E-02 0.  1.
       -1   -1    0    0    0  501  0.00000000000E+00  0.00000000000E+00 -0.18667668821E+04  0.18667668821E+04  0.50400001928E-02 0. -1.
    10030    2    1    2    0    0  0.00000000000E+00  0.00000000000E+00 -0.81879363193E+03  0.29147401322E+04  0.27973714496E+04 0.  0.
        3    1    3    3  502    0  0.13363658913E+04  0.18848010307E+02 -0.83912372014E+03  0.15780867121E+04  0.10100000352E+00 0. -1.
       -3    1    3    3    0  502 -0.13363658913E+04 -0.18848010307E+02  0.20330088203E+02  0.13366534202E+04  0.10100000352E+00 0.  1.
</event>
<event>
 5   0  0.1377807E-06  0.2805466E+04  0.7818609E-02  0.8301573E-01
       -2   -1    0    0    0  501  0.00000000000E+00  0.00000000000E+00  0.12617649990E+04  0.12617649990E+04  0.25500000920E-02 0.  1.
        2   -1    0    0  501    0  0.00000000000E+00  0.00000000000E+00 -0.15594507578E+04  0.15594507578E+04  0.25500000920E-02 0. -1.
    10030    2    1    2    0    0  0.00000000000E+00  0.00000000000E+00 -0.29768575875E+03  0.28212157568E+04  0.28054663668E+04 0.  0.
        2    1    3    3  502    0  0.12038991484E+04  0.57239610106E+03 -0.58792884557E+03  0.14569388400E+04  0.25500000920E-02 0. -1.
       -2    1    3    3    0  502 -0.12038991484E+04 -0.57239610106E+03  0.29024308682E+03  0.13642769167E+04  0.25500000920E-02 0.  1.
</event>
<event>
 5   0  0.5282098E-07  0.2806476E+04  0.7818609E-02  0.8301261E-01
       -1   -1    0    0    0  501  0.00000000000E+00  0.00000000000E+00  0.11799467454E+04  0.11799467454E+04  0.50400001928E-02 0. -1.
        1   -1    0    0  501    0  0.00000000000E+00  0.00000000000E+00 -0.16687839614E+04  0.16687839614E+04  0.50400001928E-02 0.  1.
    10030    2    1    2    0    0  0.00000000000E+00  0.00000000000E+00 -0.48883721604E+03  0.28487307068E+04  0.28064755150E+04 0.  0.
        4    1    3    3  502    0  0.26681482224E+03  0.92815189606E+03 -0.12777930533E+04  0.16016906042E+04  0.12699999809E+01 0.  1.
       -4    1    3    3    0  502 -0.26681482224E+03 -0.92815189606E+03  0.78895583728E+03  0.12470401027E+04  0.12699999809E+01 0. -1.
</event>
<event>
 5   0  0.5297741E-07  0.2794380E+04  0.7818609E-02  0.8305015E-01
        1   -1    0    0  501    0  0.00000000000E+00  0.00000000000E+00  0.14759025917E+04  0.14759025917E+04  0.50400001928E-02 0. -1.
       -1   -1    0    0    0  501  0.00000000000E+00  0.00000000000E+00 -0.13226756191E+04  0.13226756192E+04  0.50400001928E-02 0.  1.
    10030    2    1    2    0    0  0.00000000000E+00  0.00000000000E+00  0.15322697254E+03  0.27985782108E+04  0.27943803422E+04 0.  0.
        5    1    3    3  502    0 -0.69316760563E+03 -0.11608280598E+04 -0.27621558776E+03  0.13799711065E+04  0.46999998093E+01 0. -1.
       -5    1    3    3    0  502  0.69316760563E+03  0.11608280598E+04  0.42944256030E+03  0.14186071043E+04  0.46999998093E+01 0.  1.
</event>
<event>
 5   0  0.1439207E-06  0.2803405E+04  0.7818609E-02  0.8302212E-01
       -2   -1    0    0    0  501  0.00000000000E+00  0.00000000000E+00  0.11622214385E+04  0.11622214385E+04  0.25500000920E-02 0. -1.
        2   -1    0    0  501    0  0.00000000000E+00  0.00000000000E+00 -0.16905301634E+04  0.16905301634E+04  0.25500000920E-02 0.  1.
    10030    2    1    2    0    0  0.00000000000E+00  0.00000000000E+00 -0.52830872496E+03  0.28527516019E+04  0.28034053566E+04 0.  0.
        5    1    3    3  502    0 -0.77972048850E+03  0.85085873858E+03  0.54535041907E+03  0.12764614380E+04  0.46999998093E+01 0. -1.
       -5    1    3    3    0  502  0.77972048850E+03 -0.85085873858E+03 -0.10736591440E+04  0.15762901639E+04  0.46999998093E+01 0.  1.
</event>
<event>
 5   0  0.5297741E-07  0.2800782E+04  0.7818609E-02  0.8303026E-01
       -1   -1    0    0    0  501  0.00000000000E+00  0.00000000000E+00  0.13066926706E+04  0.13066926706E+04  0.50400001928E-02 0.  1.
        1   -1    0    0  501    0  0.00000000000E+00  0.00000000000E+00 -0.15008081426E+04  0.15008081426E+04  0.50400001928E-02 0. -1.
    10030    2    1    2    0    0  0.00000000000E+00  0.00000000000E+00 -0.19411547204E+03  0.28075008132E+04  0.28007820336E+04 0.  0.
        5    1    3    3  502    0 -0.90118510406E+03  0.79511014264E+03  0.62351172855E+03  0.13539289850E+04  0.46999998093E+01 0. -1.
       -5    1    3    3    0  502  0.90118510406E+03 -0.79511014264E+03 -0.81762720059E+03  0.14535718282E+04  0.46999998093E+01 0.  1.
</event>
<event>
 5   0  0.5214658E-07  0.2798642E+04  0.7818609E-02  0.8303690E-01
       -1   -1    0    0    0  501  0.00000000000E+00  0.00000000000E+00  0.10599298461E+04  0.10599298461E+04  0.50400001928E-02 0.  1.
        1   -1    0    0  501    0  0.00000000000E+00  0.00000000000E+00 -0.18473856389E+04  0.18473856389E+04  0.50400001928E-02 0. -1.
    10030    2    1    2    0    0  0.00000000000E+00  0.00000000000E+00 -0.78745579280E+03  0.29073154851E+04  0.27986419393E+04 0.  0.
        2    1    3    3  502    0  0.85824311910E+02 -0.10259440054E+04  0.59079232948E+03  0.11869972583E+04  0.25500000920E-02 0.  1.
       -2    1    3    3    0  502 -0.85824311910E+02  0.10259440054E+04 -0.13782481223E+04  0.17203182267E+04  0.25500000920E-02 0. -1.
</event>
<event>
 5   0  0.1461146E-06  0.2796796E+04  0.7818609E-02  0.8304264E-01
       -2   -1    0    0    0  501  0.00000000000E+00  0.00000000000E+00  0.11489240431E+04  0.11489240431E+04  0.25500000920E-02 0.  1.
        2   -1    0    0  501    0  0.00000000000E+00  0.00000000000E+00 -0.17020417051E+04  0.17020417051E+04  0.25500000920E-02 0. -1.
    10030    2    1    2    0    0  0.00000000000E+00  0.00000000000E+00 -0.55311766199E+03  0.28509657483E+04  0.27967957648E+04 0.  0.
        1    1    3    3  502    0  0.22488243083E+03  0.38564865832E+02  0.11298215961E+04  0.11526301209E+04  0.50400001928E-02 0.  1.
       -1    1    3    3    0  502 -0.22488243083E+03 -0.38564865832E+02 -0.16829392581E+04  0.16983356273E+04  0.50400001928E-02 0. -1.
</event>
<event>
 5   0  0.5282098E-07  0.2800048E+04  0.7818609E-02  0.8303253E-01
       -1   -1    0    0    0  501  0.00000000000E+00  0.00000000000E+00  0.89019403267E+03  0.89019403269E+03  0.50400001928E-02 0. -1.
        1   -1    0    0  501    0  0.00000000000E+00  0.00000000000E+00 -0.22018432963E+04  0.22018432963E+04  0.50400001928E-02 0.  1.
    10030    2    1    2    0    0  0.00000000000E+00  0.00000000000E+00 -0.13116492636E+04  0.30920373290E+04  0.28000484019E+04 0.  0.
        4    1    3    3  502    0  0.76459917882E+03 -0.28089085128E+03  0.60157865369E+03  0.10126253325E+04  0.12699999809E+01 0. -1.
       -4    1    3    3    0  502 -0.76459917882E+03  0.28089085128E+03 -0.19132279173E+04  0.20794119965E+04  0.12699999809E+01 0.  1.
</event>
<event>
 5   0  0.1461146E-06  0.2797890E+04  0.7818609E-02  0.8303924E-01
       -2   -1    0    0    0  501  0.00000000000E+00  0.00000000000E+00  0.82883021779E+03  0.82883021779E+03  0.25500000920E-02 0. -1.
        2   -1    0    0  501    0  0.00000000000E+00  0.00000000000E+00 -0.23612164939E+04  0.23612164939E+04  0.25500000920E-02 0.  1.
    10030    2    1    2    0    0  0.00000000000E+00  0.00000000000E+00 -0.15323862761E+04  0.31900467117E+04  0.27978903344E+04 0.  0.
        1    1    3    3  502    0  0.43567625974E+02 -0.12265257737E+04 -0.68363551482E+00  0.12272995067E+04  0.50400001928E-02 0. -1.
       -1    1    3    3    0  502 -0.43567625974E+02  0.12265257737E+04 -0.15317026406E+04  0.19627472050E+04  0.50400001928E-02 0.  1.
</event>
<event>
 5   0  0.1461146E-06  0.2804590E+04  0.7818609E-02  0.8301845E-01
       -2   -1    0    0    0  501  0.00000000000E+00  0.00000000000E+00  0.13104783493E+04  0.13104783493E+04  0.25500000920E-02 0.  1.
        2   -1    0    0  501    0  0.00000000000E+00  0.00000000000E+00 -0.15005443413E+04  0.15005443413E+04  0.25500000920E-02 0. -1.
    10030    2    1    2    0    0  0.00000000000E+00  0.00000000000E+00 -0.19006599200E+03  0.28110226905E+04  0.28045897178E+04 0.  0.
        1    1    3    3  502    0  0.19746238281E+03 -0.52430887037E+03 -0.13834930623E+04  0.14926299735E+04  0.50400001928E-02 0. -1.
       -1    1    3    3    0  502 -0.19746238281E+03  0.52430887037E+03  0.11934270703E+04  0.13183927170E+04  0.50400001928E-02 0.  1.
</event>
<event>
 5   0  0.5282098E-07  0.2798424E+04  0.7818609E-02  0.8303758E-01
        1   -1    0    0  501    0  0.00000000000E+00  0.00000000000E+00  0.22183411710E+04  0.22183411710E+04  0.50400001928E-02 0.  1.
       -1   -1    0    0    0  501  0.00000000000E+00  0.00000000000E+00 -0.88254864499E+03  0.88254864501E+03  0.50400001928E-02 0. -1.
    10030    2    1    2    0    0  0.00000000000E+00  0.00000000000E+00  0.13357925260E+04  0.31008898160E+04  0.27984238383E+04 0.  0.
        4    1    3    3  502    0  0.11161665732E+03  0.11235086162E+04 -0.24790884685E+03  0.11559369785E+04  0.12699999809E+01 0. -1.
       -4    1    3    3    0  502 -0.11161665732E+03 -0.11235086162E+04  0.15837013729E+04  0.19449528376E+04  0.12699999809E+01 0.  1.
</event>
<event>
 5   0  0.5551565E-07  0.2795965E+04  0.7818609E-02  0.8304522E-01
        1   -1    0    0  501    0  0.00000000000E+00  0.00000000000E+00  0.11505819902E+04  0.11505819903E+04  0.50400001928E-02 0.  1.
       -1   -1    0    0    0  501  0.00000000000E+00  0.00000000000E+00 -0.16985798044E+04  0.16985798044E+04  0.50400001928E-02 0. -1.
    10030    2    1    2    0    0  0.00000000000E+00  0.00000000000E+00 -0.54799781418E+03  0.28491617947E+04  0.27959651872E+04 0.  0.
        3    1    3    3  502    0 -0.11986026931E+03 -0.13871677715E+04 -0.14609422541E+03  0.13999801582E+04  0.10100000352E+00 0.  1.
       -3    1    3    3    0  502  0.11986026931E+03  0.13871677715E+04 -0.40190358878E+03  0.14491816365E+04  0.10100000352E+00 0. -1.
</event>
<event>
 5   0  0.1394410E-06  0.2806184E+04  0.7818609E-02  0.8301351E-01
       -2   -1    0    0    0  501  0.00000000000E+00  0.00000000000E+00  0.91379098682E+03  0.91379098682E+03  0.25500000920E-02 0.  1.
        2   -1    0    0  501    0  0.00000000000E+00  0.00000000000E+00 -0.21543961652E+04  0.21543961652E+04  0.25500000920E-02 0. -1.
    10030    2    1    2    0    0  0.00000000000E+00  0.00000000000E+00 -0.12406051784E+04  0.30681871520E+04  0.28061844542E+04 0.  0.
        4    1    3    3  502    0  0.52546967123E+03 -0.26624682393E+03  0.77203835194E+03  0.97110791182E+03  0.12699999809E+01 0.  1.
       -4    1    3    3    0  502 -0.52546967123E+03  0.26624682393E+03 -0.20126435303E+04  0.20970792402E+04  0.12699999809E+01 0. -1.
</event>
<event>
 5   0  0.5282098E-07  0.2811117E+04  0.7818609E-02  0.8299825E-01
       -1   -1    0    0    0  501  0.00000000000E+00  0.00000000000E+00  0.10589915547E+04  0.10589915547E+04  0.50400001928E-02 0.  1.
        1   -1    0    0  501    0  0.00000000000E+00  0.00000000000E+00 -0.18655438380E+04  0.18655438380E+04  0.50400001928E-02 0. -1.
    10030    2    1    2    0    0  0.00000000000E+00  0.00000000000E+00 -0.80655228324E+03  0.29245353927E+04  0.28111173361E+04 0.  0.
        4    1    3    3  502    0 -0.95470123981E+03 -0.74476405411E+03  0.33929033989E+03  0.12574766404E+04  0.12699999809E+01 0. -1.
       -4    1    3    3    0  502  0.95470123981E+03  0.74476405411E+03 -0.11458426231E+04  0.16670587523E+04  0.12699999809E+01 0.  1.
</event>
<event>
 5   0  0.5362952E-07  0.2798550E+04  0.7818609E-02  0.8303719E-01
       -1   -1    0    0    0  501  0.00000000000E+00  0.00000000000E+00  0.13575986466E+04  0.13575986467E+04  0.50400001928E-02 0.  1.
        1   -1    0    0  501    0  0.00000000000E+00  0.00000000000E+00 -0.14422303398E+04  0.14422303398E+04  0.50400001928E-02 0. -1.
    10030    2    1    2    0    0  0.00000000000E+00  0.00000000000E+00 -0.84631693174E+02  0.27998289865E+04  0.27985495940E+04 0.  0.
        1    1    3    3  502    0 -0.29310738424E+03  0.13190333268E+04  0.32145607568E+03  0.13889185953E+04  0.50400001928E-02 0. -1.
       -1    1    3    3    0  502  0.29310738424E+03 -0.13190333268E+04 -0.40608776885E+03  0.14109103912E+04  0.50400001928E-02 0.  1.
</event>
<event>
 5   0  0.5297741E-07  0.2801205E+04  0.7818609E-02  0.8302894E-01
       -1   -1    0    0    0  501  0.00000000000E+00  0.00000000000E+00  0.11497070545E+04  0.11497070545E+04  0.50400001928E-02 0.  1.
        1   -1    0    0  501    0  0.00000000000E+00  0.00000000000E+00 -0.17062495671E+04  0.17062495671E+04  0.50400001928E-02 0. -1.
    10030    2    1    2    0    0  0.00000000000E+00  0.00000000000E+00 -0.55654251264E+03  0.28559566216E+04  0.28012048580E+04 0.  0.
        5    1    3    3  502    0  0.14120680055E+03 -0.13100648326E+04  0.20583142515E+03  0.13336408406E+04  0.46999998093E+01 0.  1.
       -5    1    3    3    0  502 -0.14120680055E+03  0.13100648326E+04 -0.76237393778E+03  0.15223157810E+04  0.46999998093E+01 0. -1.
</event>
<event>
 5   0  0.1394410E-06  0.2803408E+04  0.7818609E-02  0.8302211E-01
        2   -1    0    0  501    0  0.00000000000E+00  0.00000000000E+00  0.24355351403E+04  0.24355351403E+04  0.25500000920E-02 0. -1.
       -2   -1    0    0    0  501  0.00000000000E+00  0.00000000000E+00 -0.80671168071E+03  0.80671168071E+03  0.25500000920E-02 0.  1.
    10030    2    1    2    0    0  0.00000000000E+00  0.00000000000E+00  0.16288234596E+04  0.32422468211E+04  0.28034083873E+04 0.  0.
        4    1    3    3  502    0 -0.27535714693E+03 -0.13579765284E+04  0.56947898312E+03  0.14980753436E+04  0.12699999809E+01 0.  1.
       -4    1    3    3    0  502  0.27535714693E+03  0.13579765284E+04  0.10593444765E+04  0.17441714775E+04  0.12699999809E+01 0. -1.
</event>
<event>
 5   0  0.1377807E-06  0.2789803E+04  0.7818609E-02  0.8306441E-01
        2   -1    0    0  501    0  0.00000000000E+00  0.00000000000E+00  0.17186479289E+04  0.17186479289E+04  0.25500000920E-02 0. -1.
       -2   -1    0    0    0  501  0.00000000000E+00  0.00000000000E+00 -0.11321402690E+04  0.11321402690E+04  0.25500000920E-02 0.  1.
    10030    2    1    2    0    0  0.00000000000E+00  0.00000000000E+00  0.58650765992E+03  0.28507881978E+04  0.27898032393E+04 0.  0.
        2    1    3    3  502    0  0.63157123431E+03 -0.78807877128E+03  0.12764722415E+04  0.16276767975E+04  0.25500000920E-02 0. -1.
       -2    1    3    3    0  502 -0.63157123431E+03  0.78807877128E+03 -0.68996458160E+03  0.12231114003E+04  0.25500000920E-02 0.  1.
</event>
<event>
 5   0  0.5297741E-07  0.2804498E+04  0.7818609E-02  0.8301873E-01
       -1   -1    0    0    0  501  0.00000000000E+00  0.00000000000E+00  0.10704891892E+04  0.10704891892E+04  0.50400001928E-02 0.  1.
        1   -1    0    0  501    0  0.00000000000E+00  0.00000000000E+00 -0.18368261454E+04  0.18368261454E+04  0.50400001928E-02 0. -1.
    10030    2    1    2    0    0  0.00000000000E+00  0.00000000000E+00 -0.76633695626E+03  0.29073153346E+04  0.28044981947E+04 0.  0.
        5    1    3    3  502    0 -0.12129570532E+03  0.17693171427E+03  0.10533702103E+04  0.10750015673E+04  0.46999998093E+01 0.  1.
       -5    1    3    3    0  502  0.12129570532E+03 -0.17693171427E+03 -0.18197071666E+04  0.18323137673E+04  0.46999998093E+01 0. -1.
</event>
<event>
 5   0  0.5362952E-07  0.2792940E+04  0.7818609E-02  0.8305464E-01
        1   -1    0    0  501    0  0.00000000000E+00  0.00000000000E+00  0.11432086224E+04  0.11432086224E+04  0.50400001928E-02 0.  1.
       -1   -1    0    0    0  501  0.00000000000E+00  0.00000000000E+00 -0.17058373232E+04  0.17058373232E+04  0.50400001928E-02 0. -1.
    10030    2    1    2    0    0  0.00000000000E+00  0.00000000000E+00 -0.56262870079E+03  0.28490459456E+04  0.27929396243E+04 0.  0.
        1    1    3    3  502    0  0.10930758056E+04 -0.71589839075E+03  0.22133447680E+03  0.13252600399E+04  0.50400001928E-02 0. -1.
       -1    1    3    3    0  502 -0.10930758056E+04  0.71589839075E+03 -0.78396317759E+03  0.15237859057E+04  0.50400001928E-02 0.  1.
</event>
<event>
 5   0  0.1499888E-06  0.2816811E+04  0.7818609E-02  0.8298068E-01
        2   -1    0    0  501    0  0.00000000000E+00  0.00000000000E+00  0.20202600380E+04  0.20202600380E+04  0.25500000920E-02 0. -1.
       -2   -1    0    0    0  501  0.00000000000E+00  0.00000000000E+00 -0.98185669717E+03  0.98185669717E+03  0.25500000920E-02 0.  1.
    10030    2    1    2    0    0  0.00000000000E+00  0.00000000000E+00  0.10384033408E+04  0.30021167352E+04  0.28168108551E+04 0.  0.
        3    1    3    3  502    0 -0.21951288606E+03  0.11238312165E+03 -0.95866690015E+03  0.98987782520E+03  0.10100000352E+00 0.  1.
       -3    1    3    3    0  502  0.21951288606E+03 -0.11238312165E+03  0.19970702410E+04  0.20122389100E+04  0.10100000352E+00 0. -1.
</event>
<event>
 5   0  0.1394410E-06  0.2785698E+04  0.7818609E-02  0.8307722E-01
        2   -1    0    0  501    0  0.00000000000E+00  0.00000000000E+00  0.16852343287E+04  0.16852343287E+04  0.25500000920E-02 0. -1.
       -2   -1    0    0    0  501  0.00000000000E+00  0.00000000000E+00 -0.11511916410E+04  0.11511916410E+04  0.25500000920E-02 0.  1.
    10030    2    1    2    0    0  0.00000000000E+00  0.00000000000E+00  0.53404268772E+03  0.28364259698E+04  0.27856975230E+04 0.  0.
        4    1    3    3  502    0  0.43395434333E+03  0.93209759356E+03 -0.68971920125E+03  0.12380777381E+04  0.12699999809E+01 0.  1.
       -4    1    3    3    0  502 -0.43395434333E+03 -0.93209759356E+03  0.12237618890E+04  0.15983482317E+04  0.12699999809E+01 0. -1.
</event>
<event>
 5   0  0.1394410E-06  0.2796280E+04  0.7818609E-02  0.8304424E-01
       -2   -1    0    0    0  501  0.00000000000E+00  0.00000000000E+00  0.15411998346E+04  0.15411998346E+04  0.25500000920E-02 0.  1.
        2   -1    0    0  501    0  0.00000000000E+00  0.00000000000E+00 -0.12683596412E+04  0.12683596412E+04  0.25500000920E-02 0. -1.
    10030    2    1    2    0    0  0.00000000000E+00  0.00000000000E+00  0.27284019337E+03  0.28095594758E+04  0.27962801499E+04 0.  0.
        4    1    3    3  502    0  0.19164307479E+02 -0.22891720025E+03  0.15221082771E+04  0.15393458271E+04  0.12699999809E+01 0.  1.
       -4    1    3    3    0  502 -0.19164307479E+02  0.22891720025E+03 -0.12492680838E+04  0.12702136487E+04  0.12699999809E+01 0. -1.
</event>
<event>
 5   0  0.5551565E-07  0.2764772E+04  0.7818609E-02  0.8314289E-01
        1   -1    0    0  501    0  0.00000000000E+00  0.00000000000E+00  0.14604361376E+04  0.14604361377E+04  0.50400001928E-02 0. -1.
       -1   -1    0    0    0  501  0.00000000000E+00  0.00000000000E+00 -0.13085072964E+04  0.13085072964E+04  0.50400001928E-02 0.  1.
    10030    2    1    2    0    0  0.00000000000E+00  0.00000000000E+00  0.15192884121E+03  0.27689434341E+04  0.27647722091E+04 0.  0.
        3    1    3    3  502    0 -0.13727372273E+04 -0.10333688776E+03  0.20227100578E+03  0.13914020187E+04  0.10100000352E+00 0. -1.
       -3    1    3    3    0  502  0.13727372273E+04  0.10333688776E+03 -0.50342164573E+02  0.13775414154E+04  0.10100000352E+00 0.  1.
</event>
<event>
 5   0  0.5551565E-07  0.2799889E+04  0.7818609E-02  0.8303303E-01
        1   -1    0    0  501    0  0.00000000000E+00  0.00000000000E+00  0.14732056272E+04  0.14732056272E+04  0.50400001928E-02 0. -1.
       -1   -1    0    0    0  501  0.00000000000E+00  0.00000000000E+00 -0.13303263259E+04  0.13303263259E+04  0.50400001928E-02 0.  1.
    10030    2    1    2    0    0  0.00000000000E+00  0.00000000000E+00  0.14287930123E+03  0.28035319531E+04  0.27998887330E+04 0.  0.
        3    1    3    3  502    0 -0.85904674258E+03  0.74350602345E+03 -0.74759884647E+03  0.13600244697E+04  0.10100000352E+00 0.  1.
       -3    1    3    3    0  502  0.85904674258E+03 -0.74350602345E+03  0.89047814769E+03  0.14435074834E+04  0.10100000352E+00 0. -1.
</event>
<event>
 5   0  0.5362952E-07  0.2800032E+04  0.7818609E-02  0.8303259E-01
       -1   -1    0    0    0  501  0.00000000000E+00  0.00000000000E+00  0.97536304684E+03  0.97536304686E+03  0.50400001928E-02 0. -1.
        1   -1    0    0  501    0  0.00000000000E+00  0.00000000000E+00 -0.20095533930E+04  0.20095533930E+04  0.50400001928E-02 0.  1.
    10030    2    1    2    0    0  0.00000000000E+00  0.00000000000E+00 -0.10341903462E+04  0.29849164399E+04  0.28000315143E+04 0.  0.
        1    1    3    3  502    0 -0.87217377571E+03 -0.41562164715E+02  0.64952779210E+03  0.10882558804E+04  0.50400001928E-02 0. -1.
       -1    1    3    3    0  502  0.87217377571E+03  0.41562164715E+02 -0.16837181383E+04  0.18966605594E+04  0.50400001928E-02 0.  1.
</event>
<event>
 5   0  0.5214658E-07  0.2797406E+04  0.7818609E-02  0.8304074E-01
       -1   -1    0    0    0  501  0.00000000000E+00  0.00000000000E+00  0.10056664675E+04  0.10056664675E+04  0.50400001928E-02 0. -1.
        1   -1    0    0  501    0  0.00000000000E+00  0.00000000000E+00 -0.19453471207E+04  0.19453471207E+04  0.50400001928E-02 0.  1.
    10030    2    1    2    0    0  0.00000000000E+00  0.00000000000E+00 -0.93968065316E+03  0.29510135882E+04  0.27974062036E+04 0.  0.
        2    1    3    3  502    0 -0.13365360498E+04 -0.41213457369E+03 -0.48426014405E+03  0.14800984448E+04  0.25500000920E-02 0. -1.
       -2    1    3    3    0  502  0.13365360498E+04  0.41213457369E+03 -0.45542050911E+03  0.14709151435E+04  0.25500000920E-02 0.  1.
</event>
<event>
 5   0  0.1499888E-06  0.2801488E+04  0.7818609E-02  0.8302807E-01
        2   -1    0    0  501    0  0.00000000000E+00  0.00000000000E+00  0.23643248459E+04  0.23643248459E+04  0.25500000920E-02 0. -1.
       -2   -1    0    0    0  501  0.00000000000E+00  0.00000000000E+00 -0.82987056960E+03  0.82987056961E+03  0.25500000920E-02 0.  1.
    10030    2    1    2    0    0  0.00000000000E+00  0.00000000000E+00  0.15344542763E+04  0.31941954155E+04  0.28014878951E+04 0.  0.
        3    1    3    3  502    0 -0.63787121459E+03 -0.24723360620E+03 -0.62644166472E+03  0.92759544627E+03  0.10100000352E+00 0.  1.
       -3    1    3    3    0  502  0.63787121459E+03  0.24723360620E+03  0.21608959410E+04  0.22665999692E+04  0.10100000352E+00 0. -1.
</event>
<event>
 5   0  0.1499888E-06  0.2800009E+04  0.7818609E-02  0.8303265E-01
       -2   -1    0    0    0  501  0.00000000000E+00  0.00000000000E+00  0.13162638913E+04  0.13162638913E+04  0.25500000920E-02 0. -1.
        2   -1    0    0  501    0  0.00000000000E+00  0.00000000000E+00 -0.14890730052E+04  0.14890730053E+04  0.25500000920E-02 0.  1.
    10030    2    1    2    0    0  0.00000000000E+00  0.00000000000E+00 -0.17280911392E+03  0.28053368966E+04  0.28000093060E+04 0.  0.
        3    1    3    3  502    0 -0.10992143674E+04  0.74697998363E+03 -0.52742580452E+03  0.14298354139E+04  0.10100000352E+00 0.  1.
       -3    1    3    3    0  502  0.10992143674E+04 -0.74697998363E+03  0.35461669060E+03  0.13755014827E+04  0.10100000352E+00 0. -1.
</event>
<event>
 5   0  0.5551565E-07  0.2799620E+04  0.7818609E-02  0.8303386E-01
       -1   -1    0    0    0  501  0.00000000000E+00  0.00000000000E+00  0.14227846872E+04  0.14227846872E+04  0.50400001928E-02 0.  1.
        1   -1    0    0  501    0  0.00000000000E+00  0.00000000000E+00 -0.13772067324E+04  0.13772067324E+04  0.50400001928E-02 0. -1.
    10030    2    1    2    0    0  0.00000000000E+00  0.00000000000E+00  0.45577954828E+02  0.27999914196E+04  0.27996204385E+04 0.  0.
        3    1    3    3  502    0 -0.57268040821E+03 -0.32907802507E+03 -0.12115599018E+04  0.13799031134E+04  0.10100000352E+00 0. -1.
       -3    1    3    3    0  502  0.57268040821E+03  0.32907802507E+03  0.12571378567E+04  0.14200883062E+04  0.10100000352E+00 0.  1.
</event>
<event>
 5   0  0.1377807E-06  0.2801622E+04  0.7818609E-02  0.8302765E-01
        2   -1    0    0  501    0  0.00000000000E+00  0.00000000000E+00  0.14735587600E+04  0.14735587600E+04  0.25500000920E-02 0.  1.
       -2   -1    0    0    0  501  0.00000000000E+00  0.00000000000E+00 -0.13316549552E+04  0.13316549552E+04  0.25500000920E-02 0. -1.
    10030    2    1    2    0    0  0.00000000000E+00  0.00000000000E+00  0.14190380486E+03  0.28052137152E+04  0.28016222619E+04 0.  0.
        2    1    3    3  502    0  0.74081178330E+03  0.11366873200E+04  0.41984034067E+03  0.14202556366E+04  0.25500000920E-02 0.  1.
       -2    1    3    3    0  502 -0.74081178330E+03 -0.11366873200E+04 -0.27793653581E+03  0.13849580786E+04  0.25500000920E-02 0. -1.
</event>
<event>
 5   0  0.1461146E-06  0.2781704E+04  0.7818609E-02  0.8308971E-01
       -2   -1    0    0    0  501  0.00000000000E+00  0.00000000000E+00  0.10362968670E+04  0.10362968670E+04  0.25500000920E-02 0.  1.
        2   -1    0    0  501    0  0.00000000000E+00  0.00000000000E+00 -0.18667131096E+04  0.18667131096E+04  0.25500000920E-02 0. -1.
    10030    2    1    2    0    0  0.00000000000E+00  0.00000000000E+00 -0.83041624264E+03  0.29030099766E+04  0.27817037564E+04 0.  0.
        1    1    3    3  502    0  0.13574911965E+04 -0.16769776696E+03 -0.67832181873E+03  0.15267695895E+04  0.50400001928E-02 0. -1.
       -1    1    3    3    0  502 -0.13574911965E+04  0.16769776696E+03 -0.15209442390E+03  0.13762403872E+04  0.50400001928E-02 0.  1.
</event>
<event>
 5   0  0.1394410E-06  0.2859850E+04  0.7818609E-02  0.8284925E-01
       -2   -1    0    0    0  501  0.00000000000E+00  0.00000000000E+00  0.14825773458E+04  0.14825773458E+04  0.25500000920E-02 0. -1.
        2   -1    0    0  501    0  0.00000000000E+00  0.00000000000E+00 -0.13791423132E+04  0.13791423132E+04  0.25500000920E-02 0.  1.
    10030    2    1    2    0    0  0.00000000000E+00  0.00000000000E+00  0.10343503263E+03  0.28617196590E+04  0.28598497514E+04 0.  0.
        4    1    3    3  502    0 -0.63887233171E+03  0.54022910752E+03 -0.11086432888E+04  0.13889193280E+04  0.12699999809E+01 0.  1.
       -4    1    3    3    0  502  0.63887233171E+03 -0.54022910752E+03  0.12120783215E+04  0.14728003310E+04  0.12699999809E+01 0. -1.
</event>
<event>
 5   0  0.5297741E-07  0.2776397E+04  0.7818609E-02  0.8310634E-01
       -1   -1    0    0    0  501  0.00000000000E+00  0.00000000000E+00  0.15733491621E+04  0.15733491621E+04  0.50400001928E-02 0.  1.
        1   -1    0    0  501    0  0.00000000000E+00  0.00000000000E+00 -0.12248362224E+04  0.12248362224E+04  0.50400001928E-02 0. -1.
    10030    2    1    2    0    0  0.00000000000E+00  0.00000000000E+00  0.34851293971E+03  0.27981853845E+04  0.27763969776E+04 0.  0.
        5    1    3    3  502    0 -0.17752796471E+03 -0.72164116741E+03  0.13559727800E+04  0.15462750153E+04  0.46999998093E+01 0.  1.
       -5    1    3    3    0  502  0.17752796471E+03  0.72164116741E+03 -0.10074598403E+04  0.12519103692E+04  0.46999998093E+01 0. -1.
</event>
<event>
 5   0  0.1461146E-06  0.2812753E+04  0.7818609E-02  0.8299320E-01
       -2   -1    0    0    0  501  0.00000000000E+00  0.00000000000E+00  0.11967777289E+04  0.11967777289E+04  0.25500000920E-02 0.  1.
        2   -1    0    0  501    0  0.00000000000E+00  0.00000000000E+00 -0.16526831141E+04  0.16526831141E+04  0.25500000920E-02 0. -1.
    10030    2    1    2    0    0  0.00000000000E+00  0.00000000000E+00 -0.45590538524E+03  0.28494608430E+04  0.28127526332E+04 0.  0.
        1    1    3    3  502    0 -0.12492062090E+04 -0.64386266592E+02  0.42326837389E+03  0.13205369591E+04  0.50400001928E-02 0.  1.
       -1    1    3    3    0  502  0.12492062090E+04  0.64386266592E+02 -0.87917375912E+03  0.15289238839E+04  0.50400001928E-02 0. -1.
</event>
<event>
 5   0  0.1499888E-06  0.2799768E+04  0.7818609E-02  0.8303340E-01
        2   -1    0    0  501    0  0.00000000000E+00  0.00000000000E+00  0.14208133581E+04  0.14208133581E+04  0.25500000920E-02 0. -1.
       -2   -1    0    0    0  501  0.00000000000E+00  0.00000000000E+00 -0.13792631974E+04  0.13792631974E+04  0.25500000920E-02 0.  1.
    10030    2    1    2    0    0  0.00000000000E+00  0.00000000000E+00  0.41550160691E+02  0.28000765555E+04  0.27997682584E+04 0.  0.
        3    1    3    3  502    0  0.13042042934E+04  0.19167475376E+03  0.49198247206E+03  0.14070304947E+04  0.10100000352E+00 0.  1.
       -3    1    3    3    0  502 -0.13042042934E+04 -0.19167475376E+03 -0.45043231137E+03  0.13930460608E+04  0.10100000352E+00 0. -1.
</event>
<event>
 5   0  0.5282098E-07  0.2803308E+04  0.7818609E-02  0.8302242E-01
        1   -1    0    0  501    0  0.00000000000E+00  0.00000000000E+00  0.17517046101E+04  0.17517046101E+04  0.50400001928E-02 0. -1.
       -1   -1    0    0    0  501  0.00000000000E+00  0.00000000000E+00 -0.11215556230E+04  0.11215556230E+04  0.50400001928E-02 0.  1.
    10030    2    1    2    0    0  0.00000000000E+00  0.00000000000E+00  0.63014898710E+03  0.28732602331E+04  0.28033081566E+04 0.  0.
        4    1    3    3  502    0 -0.11172557358E+04 -0.23748587520E+03  0.11477333034E+04  0.16192446600E+04  0.12699999809E+01 0. -1.
       -4    1    3    3    0  502  0.11172557358E+04  0.23748587520E+03 -0.51758431632E+03  0.12540155731E+04  0.12699999809E+01 0.  1.
</event>
<event>
 5   0  0.1439207E-06  0.2798422E+04  0.7818609E-02  0.8303758E-01
        2   -1    0    0  501    0  0.00000000000E+00  0.00000000000E+00  0.10717350576E+04  0.10717350576E+04  0.25500000920E-02 0. -1.
       -2   -1    0    0    0  501  0.00000000000E+00  0.00000000000E+00 -0.18267495320E+04  0.18267495320E+04  0.25500000920E-02 0.  1.
    10030    2    1    2    0    0  0.00000000000E+00  0.00000000000E+00 -0.75501447433E+03  0.28984845896E+04  0.27984220660E+04 0.  0.
        5    1    3    3  502    0 -0.39753152017E+03 -0.25164001764E+03 -0.17423562049E+04  0.18047662571E+04  0.46999998093E+01 0.  1.
       -5    1    3    3    0  502  0.39753152017E+03  0.25164001764E+03  0.98734173055E+03  0.10937183325E+04  0.46999998093E+01 0. -1.
</event>
<event>
 5   0  0.1377807E-06  0.2805179E+04  0.7818609E-02  0.8301662E-01
        2   -1    0    0  501    0  0.00000000000E+00  0.00000000000E+00  0.12009889764E+04  0.12009889764E+04  0.25500000920E-02 0.  1.
       -2   -1    0    0    0  501  0.00000000000E+00  0.00000000000E+00 -0.16380308390E+04  0.16380308390E+04  0.25500000920E-02 0. -1.
    10030    2    1    2    0    0  0.00000000000E+00  0.00000000000E+00 -0.43704186263E+03  0.28390198154E+04  0.28051787684E+04 0.  0.
        2    1    3    3  502    0  0.44430403828E+03  0.11036623716E+04 -0.97030127260E+03  0.15352398082E+04  0.25500000920E-02 0. -1.
       -2    1    3    3    0  502 -0.44430403828E+03 -0.11036623716E+04  0.53325940997E+03  0.13037800073E+04  0.25500000920E-02 0.  1.
</event>
<event>
 5   0  0.1377807E-06  0.2799178E+04  0.7818609E-02  0.8303524E-01
        2   -1    0    0  501    0  0.00000000000E+00  0.00000000000E+00  0.23100156538E+04  0.23100156538E+04  0.25500000920E-02 0. -1.
       -2   -1    0    0    0  501  0.00000000000E+00  0.00000000000E+00 -0.84798088783E+03  0.84798088783E+03  0.25500000920E-02 0.  1.
    10030    2    1    2    0    0  0.00000000000E+00  0.00000000000E+00  0.14620347660E+04  0.31579965417E+04  0.27991778258E+04 0.  0.
        2    1    3    3  502    0 -0.11248354963E+04 -0.33897914715E+03 -0.12721157173E+03  0.11816702331E+04  0.25500000920E-02 0.  1.
       -2    1    3    3    0  502  0.11248354963E+04  0.33897914715E+03  0.15892463378E+04  0.19763263086E+04  0.25500000920E-02 0. -1.
</event>
<event>
 5   0  0.5551565E-07  0.2798453E+04  0.7818609E-02  0.8303749E-01
       -1   -1    0    0    0  501  0.00000000000E+00  0.00000000000E+00  0.17070379729E+04  0.17070379729E+04  0.50400001928E-02 0. -1.
        1   -1    0    0  501    0  0.00000000000E+00  0.00000000000E+00 -0.11469191816E+04  0.11469191817E+04  0.50400001928E-02 0.  1.
    10030    2    1    2    0    0  0.00000000000E+00  0.00000000000E+00  0.56011879123E+03  0.28539571545E+04  0.27984528546E+04 0.  0.
        3    1    3    3  502    0  0.13592145539E+04 -0.26892251092E+02  0.61775717374E+03  0.14932552805E+04  0.10100000352E+00 0. -1.
       -3    1    3    3    0  502 -0.13592145539E+04  0.26892251092E+02 -0.57638382515E+02  0.13607018741E+04  0.10100000352E+00 0.  1.
</event>
<event>
 5   0  0.5214658E-07  0.2803007E+04  0.7818609E-02  0.8302335E-01
        1   -1    0    0  501    0  0.00000000000E+00  0.00000000000E+00  0.23387582440E+04  0.23387582440E+04  0.50400001928E-02 0.  1.
       -1   -1    0    0    0  501  0.00000000000E+00  0.00000000000E+00 -0.83985246522E+03  0.83985246523E+03  0.50400001928E-02 0. -1.
    10030    2    1    2    0    0  0.00000000000E+00  0.00000000000E+00  0.14989057788E+04  0.31786107093E+04  0.28030068689E+04 0.  0.
        2    1    3    3  502    0  0.82377025324E+03 -0.11208461274E+04  0.55528234277E+03  0.14977422848E+04  0.25500000920E-02 0. -1.
       -2    1    3    3    0  502 -0.82377025324E+03  0.11208461274E+04  0.94362343604E+03  0.16808684245E+04  0.25500000920E-02 0.  1.
</event>
<event>
 5   0  0.1461146E-06  0.2791280E+04  0.7818609E-02  0.8305981E-01
        2   -1    0    0  501    0  0.00000000000E+00  0.00000000000E+00  0.23627046248E+04  0.23627046248E+04  0.25500000920E-02 0. -1.
       -2   -1    0    0    0  501  0.00000000000E+00  0.00000000000E+00 -0.82439903113E+03  0.82439903113E+03  0.25500000920E-02 0.  1.
    10030    2    1    2    0    0  0.00000000000E+00  0.00000000000E+00  0.15383055937E+04  0.31871036559E+04  0.27912802823E+04 0.  0.
        1    1    3    3  502    0 -0.70976924927E+03 -0.11566117043E+04  0.11414035958E+04  0.17732245177E+04  0.50400001928E-02 0.  1.
       -1    1    3    3    0  502  0.70976924927E+03  0.11566117043E+04  0.39690199790E+03  0.14138791383E+04  0.50400001928E-02 0. -1.
</event>
<event>
 5   0  0.5214658E-07  0.2795130E+04  0.7818609E-02  0.8304782E-01
        1   -1    0    0  501    0  0.00000000000E+00  0.00000000000E+00  0.88962173415E+03  0.88962173417E+03  0.50400001928E-02 0. -1.
       -1   -1    0    0    0  501  0.00000000000E+00  0.00000000000E+00 -0.21955258518E+04  0.21955258518E+04  0.50400001928E-02 0.  1.
    10030    2    1    2    0    0  0.00000000000E+00  0.00000000000E+00 -0.13059041177E+04  0.30851475860E+04  0.27951297041E+04 0.  0.
        2    1    3    3  502    0  0.53429618440E+03 -0.10035779387E+04  0.24411653378E+03  0.11628559558E+04  0.25500000920E-02 0. -1.
       -2    1    3    3    0  502 -0.53429618440E+03  0.10035779387E+04 -0.15500206514E+04  0.19222916302E+04  0.25500000920E-02 0.  1.
</event>
<event>
 5   0  0.5297741E-07  0.2790658E+04  0.7818609E-02  0.8306174E-01
       -1   -1    0    0    0  501  0.00000000000E+00  0.00000000000E+00  0.11117779504E+04  0.11117779504E+04  0.50400001928E-02 0.  1.
        1   -1    0    0  501    0  0.00000000000E+00  0.00000000000E+00 -0.17511979680E+04  0.17511979680E+04  0.50400001928E-02 0. -1.
    10030    2    1    2    0    0  0.00000000000E+00  0.00000000000E+00 -0.63942001757E+03  0.28629759184E+04  0.27906581931E+04 0.  0.
        5    1    3    3  502    0  0.11170790598E+04 -0.60915792383E+03 -0.90724830996E+03  0.15627093741E+04  0.46999998093E+01 0. -1.
       -5    1    3    3    0  502 -0.11170790598E+04  0.60915792383E+03  0.26782829239E+03  0.13002665443E+04  0.46999998093E+01 0.  1.
</event>
<event>
 5   0  0.1439207E-06  0.2800322E+04  0.7818609E-02  0.8303168E-01
        2   -1    0    0  501    0  0.00000000000E+00  0.00000000000E+00  0.22320073023E+04  0.22320073023E+04  0.25500000920E-02 0. -1.
       -2   -1    0    0    0  501  0.00000000000E+00  0.00000000000E+00 -0.87833518885E+03  0.87833518885E+03  0.25500000920E-02 0.  1.
    10030    2    1    2    0    0  0.00000000000E+00  0.00000000000E+00  0.13536721135E+04  0.31103424912E+04  0.28003218068E+04 0.  0.
        5    1    3    3  502    0 -0.10476264864E+03 -0.13386436365E+04  0.11176160679E+04  0.17470059426E+04  0.46999998093E+01 0. -1.
       -5    1    3    3    0  502  0.10476264864E+03  0.13386436365E+04  0.23605604558E+03  0.13633365486E+04  0.46999998093E+01 0.  1.
</event>
<event>
 5   0  0.5214658E-07  0.2803912E+04  0.7818609E-02  0.8302055E-01
        1   -1    0    0  501    0  0.00000000000E+00  0.00000000000E+00  0.12200443958E+04  0.12200443958E+04  0.50400001928E-02 0.  1.
       -1   -1    0    0    0  501  0.00000000000E+00  0.00000000000E+00 -0.16109906972E+04  0.16109906972E+04  0.50400001928E-02 0. -1.
    10030    2    1    2    0    0  0.00000000000E+00  0.00000000000E+00 -0.39094630136E+03  0.28310350930E+04  0.28039116761E+04 0.  0.
        2    1    3    3  502    0 -0.13270600393E+03 -0.15462068083E+03  0.12050140325E+04  0.12221199847E+04  0.25500000920E-02 0.  1.
       -2    1    3    3    0  502  0.13270600393E+03  0.15462068083E+03 -0.15959603339E+04  0.16089151083E+04  0.25500000920E-02 0. -1.
</event>
<event>
 5   0  0.5551565E-07  0.2799588E+04  0.7818609E-02  0.8303396E-01
       -1   -1    0    0    0  501  0.00000000000E+00  0.00000000000E+00  0.12976602499E+04  0.12976602499E+04  0.50400001928E-02 0.  1.
        1   -1    0    0  501    0  0.00000000000E+00  0.00000000000E+00 -0.15099663369E+04  0.15099663369E+04  0.50400001928E-02 0. -1.
    10030    2    1    2    0    0  0.00000000000E+00  0.00000000000E+00 -0.21230608707E+03  0.28076265868E+04  0.27995880369E+04 0.  0.
        3    1    3    3  502    0  0.38201157105E+03  0.32132970618E+03  0.12053625255E+04  0.13046395857E+04  0.10100000352E+00 0.  1.
       -3    1    3    3    0  502 -0.38201157105E+03 -0.32132970618E+03 -0.14176686125E+04  0.15029870012E+04  0.10100000352E+00 0. -1.
</event>
<event>
 5   0  0.5297741E-07  0.2800322E+04  0.7818609E-02  0.8303168E-01
       -1   -1    0    0    0  501  0.00000000000E+00  0.00000000000E+00  0.10251490444E+04  0.10251490444E+04  0.50400001928E-02 0. -1.
        1   -1    0    0  501    0  0.00000000000E+00  0.00000000000E+00 -0.19123572736E+04  0.19123572736E+04  0.50400001928E-02 0.  1.
    10030    2    1    2    0    0  0.00000000000E+00  0.00000000000E+00 -0.88720822927E+03  0.29375063180E+04  0.28003222897E+04 0.  0.
        5    1    3    3  502    0 -0.20808127481E+03  0.19639785323E+03  0.99414542063E+03  0.10345129970E+04  0.46999998093E+01 0. -1.
       -5    1    3    3    0  502  0.20808127481E+03 -0.19639785323E+03 -0.18813536499E+04  0.19029933210E+04  0.46999998093E+01 0.  1.
</event>
<event>
 5   0  0.1377807E-06  0.2801488E+04  0.7818609E-02  0.8302807E-01
        2   -1    0    0  501    0  0.00000000000E+00  0.00000000000E+00  0.25904537543E+04  0.25904537543E+04  0.25500000920E-02 0. -1.
       -2   -1    0    0    0  501  0.00000000000E+00  0.00000000000E+00 -0.75742854201E+03  0.75742854202E+03  0.25500000920E-02 0.  1.
    10030    2    1    2    0    0  0.00000000000E+00  0.00000000000E+00  0.18330252122E+04  0.33478822963E+04  0.28014878977E+04 0.  0.
        2    1    3    3  502    0  0.94420385803E+03  0.33186306565E+03 -0.25464190647E+03  0.10327131840E+04  0.25500000920E-02 0.  1.
       -2    1    3    3    0  502 -0.94420385803E+03 -0.33186306565E+03  0.20876671187E+04  0.23151691123E+04  0.25500000920E-02 0. -1.
</event>
<event>
 5   0  0.1461146E-06  0.2803837E+04  0.7818609E-02  0.8302078E-01
       -2   -1    0    0    0  501  0.00000000000E+00  0.00000000000E+00  0.96093861336E+03  0.96093861336E+03  0.25500000920E-02 0.  1.
        2   -1    0    0  501    0  0.00000000000E+00  0.00000000000E+00 -0.20452664192E+04  0.20452664192E+04  0.25500000920E-02 0. -1.
    10030    2    1    2    0    0  0.00000000000E+00  0.00000000000E+00 -0.10843278059E+04  0.30062050326E+04  0.28038369973E+04 0.  0.
        1    1    3    3  502    0 -0.24287542539E+03  0.30791375116E+03  0.90092846492E+03  0.98258406731E+03  0.50400001928E-02 0.  1.
       -1    1    3    3    0  502  0.24287542539E+03 -0.30791375116E+03 -0.19852562708E+04  0.20236209653E+04  0.50400001928E-02 0. -1.
</event>
<event>
 5   0  0.5551565E-07  0.2800937E+04  0.7818609E-02  0.8302977E-01
        1   -1    0    0  501    0  0.00000000000E+00  0.00000000000E+00  0.17337715822E+04  0.17337715822E+04  0.50400001928E-02 0.  1.
       -1   -1    0    0    0  501  0.00000000000E+00  0.00000000000E+00 -0.11312403598E+04  0.11312403598E+04  0.50400001928E-02 0. -1.
    10030    2    1    2    0    0  0.00000000000E+00  0.00000000000E+00  0.60253122239E+03  0.28650119421E+04  0.28009372635E+04 0.  0.
        3    1    3    3  502    0  0.98152007070E+02 -0.12717533813E+03 -0.11217845321E+04  0.11332289838E+04  0.10100000352E+00 0. -1.
       -3    1    3    3    0  502 -0.98152007070E+02  0.12717533813E+03  0.17243157545E+04  0.17317829582E+04  0.10100000352E+00 0.  1.
</event>
<event>
 5   0  0.1461146E-06  0.2802552E+04  0.7818609E-02  0.8302477E-01
        2   -1    0    0  501    0  0.00000000000E+00  0.00000000000E+00  0.11304487431E+04  0.11304487431E+04  0.25500000920E-02 0. -1.
       -2   -1    0    0    0  501  0.00000000000E+00  0.00000000000E+00 -0.17369863573E+04  0.17369863573E+04  0.25500000920E-02 0.  1.
    10030    2    1    2    0    0  0.00000000000E+00  0.00000000000E+00 -0.60653761422E+03  0.28674351003E+04  0.28025517261E+04 0.  0.
        1    1    3    3  502    0 -0.90011204847E+03  0.10136028656E+04 -0.66642501922E+03  0.15105345991E+04  0.50400001928E-02 0. -1.
       -1    1    3    3    0  502  0.90011204847E+03 -0.10136028656E+04  0.59887404998E+02  0.13569005012E+04  0.50400001928E-02 0.  1.
</event>
<event>
 5   0  0.1461146E-06  0.2795158E+04  0.7818609E-02  0.8304773E-01
       -2   -1    0    0    0  501  0.00000000000E+00  0.00000000000E+00  0.13833532263E+04  0.13833532263E+04  0.25500000920E-02 0.  1.
        2   -1    0    0  501    0  0.00000000000E+00  0.00000000000E+00 -0.14119512065E+04  0.14119512065E+04  0.25500000920E-02 0. -1.
    10030    2    1    2    0    0  0.00000000000E+00  0.00000000000E+00 -0.28597980243E+02  0.27953044328E+04  0.27951581400E+04 0.  0.
        1    1    3    3  502    0 -0.18858609838E+03  0.98552457741E+03 -0.98718280431E+03  0.14076055194E+04  0.50400001928E-02 0. -1.
       -1    1    3    3    0  502  0.18858609838E+03 -0.98552457741E+03  0.95858482407E+03  0.13876989134E+04  0.50400001928E-02 0.  1.
</event>
<event>
 5   0  0.1439207E-06  0.2790017E+04  0.7818609E-02  0.8306374E-01
       -2   -1    0    0    0  501  0.00000000000E+00  0.00000000000E+00  0.10691443460E+04  0.10691443460E+04  0.25500000920E-02 0. -1.
        2   -1    0    0  501    0  0.00000000000E+00  0.00000000000E+00 -0.18201933292E+04  0.18201933292E+04  0.25500000920E-02 0.  1.
    10030    2    1    2    0    0  0.00000000000E+00  0.00000000000E+00 -0.75104898313E+03  0.28893376752E+04  0.27900174957E+04 0.  0.
        5    1    3    3  502    0  0.33479521381E+03 -0.13115855547E+04 -0.26352997049E+02  0.13539058582E+04  0.46999998093E+01 0. -1.
       -5    1    3    3    0  502 -0.33479521381E+03  0.13115855547E+04 -0.72469598608E+03  0.15354318170E+04  0.46999998093E+01 0.  1.
</event>
<event>
 5   0  0.1499888E-06  0.2799858E+04  0.7818609E-02  0.8303312E-01
        2   -1    0    0  501    0  0.00000000000E+00  0.00000000000E+00  0.23306269989E+04  0.23306269989E+04  0.25500000920E-02 0. -1.
       -2   -1    0    0    0  501  0.00000000000E+00  0.00000000000E+00 -0.84089018370E+03  0.84089018371E+03  0.25500000920E-02 0.  1.
    10030    2    1    2    0    0  0.00000000000E+00  0.00000000000E+00  0.14897368152E+04  0.31715171826E+04  0.27998581145E+04 0.  0.
        3    1    3    3  502    0 -0.86656734443E+03  0.38339149785E+03  0.19121278779E+04  0.21340480394E+04  0.10100000352E+00 0. -1.
       -3    1    3    3    0  502  0.86656734443E+03 -0.38339149785E+03 -0.42239106266E+03  0.10374691432E+04  0.10100000352E+00 0.  1.
</event>
<event>
 5   0  0.5362952E-07  0.2802639E+04  0.7818609E-02  0.8302449E-01
        1   -1    0    0  501    0  0.00000000000E+00  0.00000000000E+00  0.12868673527E+04  0.12868673527E+04  0.50400001928E-02 0. -1.
       -1   -1    0    0    0  501  0.00000000000E+00  0.00000000000E+00 -0.15259510842E+04  0.15259510842E+04  0.50400001928E-02 0.  1.
    10030    2    1    2    0    0  0.00000000000E+00  0.00000000000E+00 -0.23908373149E+03  0.28128184370E+04  0.28026392077E+04 0.  0.
        1    1    3    3  502    0  0.52931027493E+03  0.93582768235E+03  0.78247366533E+03  0.13297397697E+04  0.50400001928E-02 0. -1.
       -1    1    3    3    0  502 -0.52931027493E+03 -0.93582768235E+03 -0.10215573968E+04  0.14830786672E+04  0.50400001928E-02 0.  1.
</event>
<event>
 5   0  0.5362952E-07  0.2799997E+04  0.7818609E-02  0.8303269E-01
       -1   -1    0    0    0  501  0.00000000000E+00  0.00000000000E+00  0.15825384365E+04  0.15825384365E+04  0.50400001928E-02 0.  1.
        1   -1    0    0  501    0  0.00000000000E+00  0.00000000000E+00 -0.12385139254E+04  0.12385139254E+04  0.50400001928E-02 0. -1.
    10030    2    1    2    0    0  0.00000000000E+00  0.00000000000E+00  0.34402451105E+03  0.28210523619E+04  0.27999970650E+04 0.  0.
        1    1    3    3  502    0  0.20824345184E+03  0.10556049077E+04  0.10744760161E+04  0.15205807330E+04  0.50400001928E-02 0.  1.
       -1    1    3    3    0  502 -0.20824345184E+03 -0.10556049077E+04 -0.73045150504E+03  0.13004716289E+04  0.50400001928E-02 0. -1.
</event>
<event>
 5   0  0.5362952E-07  0.2835910E+04  0.7818609E-02  0.8292206E-01
        1   -1    0    0  501    0  0.00000000000E+00  0.00000000000E+00  0.11158027823E+04  0.11158027824E+04  0.50400001928E-02 0. -1.
       -1   -1    0    0    0  501  0.00000000000E+00  0.00000000000E+00 -0.18019282578E+04  0.18019282578E+04  0.50400001928E-02 0.  1.
    10030    2    1    2    0    0  0.00000000000E+00  0.00000000000E+00 -0.68612547545E+03  0.29177310402E+04  0.28359101281E+04 0.  0.
        1    1    3    3  502    0 -0.77249179292E+03  0.18925620979E+03 -0.15508290970E+04  0.17428804811E+04  0.50400001928E-02 0.  1.
       -1    1    3    3    0  502  0.77249179292E+03 -0.18925620979E+03  0.86470362156E+03  0.11748505591E+04  0.50400001928E-02 0. -1.
</event>
<event>
 5   0  0.1439207E-06  0.2798616E+04  0.7818609E-02  0.8303698E-01
        2   -1    0    0  501    0  0.00000000000E+00  0.00000000000E+00  0.18638802266E+04  0.18638802266E+04  0.25500000920E-02 0.  1.
       -2   -1    0    0    0  501  0.00000000000E+00  0.00000000000E+00 -0.10505306304E+04  0.10505306304E+04  0.25500000920E-02 0. -1.
    10030    2    1    2    0    0  0.00000000000E+00  0.00000000000E+00  0.81334959621E+03  0.29144108569E+04  0.27986162790E+04 0.  0.
        5    1    3    3  502    0  0.22598486796E+03  0.13700494507E+04  0.58685542238E+03  0.15074899783E+04  0.46999998093E+01 0. -1.
       -5    1    3    3    0  502 -0.22598486796E+03 -0.13700494507E+04  0.22649417383E+03  0.14069208786E+04  0.46999998093E+01 0.  1.
</event>
<event>
 5   0  0.1461146E-06  0.2801357E+04  0.7818609E-02  0.8302847E-01
       -2   -1    0    0    0  501  0.00000000000E+00  0.00000000000E+00  0.17308020897E+04  0.17308020897E+04  0.25500000920E-02 0.  1.
        2   -1    0    0  501    0  0.00000000000E+00  0.00000000000E+00 -0.11335204528E+04  0.11335204528E+04  0.25500000920E-02 0. -1.
    10030    2    1    2    0    0  0.00000000000E+00  0.00000000000E+00  0.59728163689E+03  0.28643225425E+04  0.28013565060E+04 0.  0.
        1    1    3    3  502    0 -0.35260064678E+03 -0.34355355611E+03  0.16394287691E+04  0.17117485070E+04  0.50400001928E-02 0.  1.
       -1    1    3    3    0  502  0.35260064678E+03  0.34355355611E+03 -0.10421471323E+04  0.11525740355E+04  0.50400001928E-02 0. -1.
</event>
<event>
 5   0  0.5297741E-07  0.2805558E+04  0.7818609E-02  0.8301545E-01
       -1   -1    0    0    0  501  0.00000000000E+00  0.00000000000E+00  0.17869136956E+04  0.17869136956E+04  0.50400001928E-02 0. -1.
        1   -1    0    0  501    0  0.00000000000E+00  0.00000000000E+00 -0.11012223149E+04  0.11012223149E+04  0.50400001928E-02 0.  1.
    10030    2    1    2    0    0  0.00000000000E+00  0.00000000000E+00  0.68569138070E+03  0.28881360106E+04  0.28055582236E+04 0.  0.
        5    1    3    3  502    0  0.46746080984E+03 -0.10340944203E+04  0.11916736649E+04  0.16455938419E+04  0.46999998093E+01 0. -1.
       -5    1    3    3    0  502 -0.46746080984E+03  0.10340944203E+04 -0.50598228424E+03  0.12425421686E+04  0.46999998093E+01 0.  1.
</event>
<event>
 5   0  0.5297741E-07  0.2797511E+04  0.7818609E-02  0.8304042E-01
       -1   -1    0    0    0  501  0.00000000000E+00  0.00000000000E+00  0.15425784618E+04  0.15425784618E+04  0.50400001928E-02 0.  1.
        1   -1    0    0  501    0  0.00000000000E+00  0.00000000000E+00 -0.12683416180E+04  0.12683416181E+04  0.50400001928E-02 0. -1.
    10030    2    1    2    0    0  0.00000000000E+00  0.00000000000E+00  0.27423684379E+03  0.28109200799E+04  0.27975106522E+04 0.  0.
        5    1    3    3  502    0 -0.13379050358E+04 -0.12527360584E+03 -0.25308697793E+03  0.13673911179E+04  0.46999998093E+01 0. -1.
       -5    1    3    3    0  502  0.13379050358E+04  0.12527360584E+03  0.52732382172E+03  0.14435289620E+04  0.46999998093E+01 0.  1.
</event>
<event>
 5   0  0.1461146E-06  0.2798307E+04  0.7818609E-02  0.8303794E-01
       -2   -1    0    0    0  501  0.00000000000E+00  0.00000000000E+00  0.12501246225E+04  0.12501246225E+04  0.25500000920E-02 0. -1.
        2   -1    0    0  501    0  0.00000000000E+00  0.00000000000E+00 -0.15659488088E+04  0.15659488088E+04  0.25500000920E-02 0.  1.
    10030    2    1    2    0    0  0.00000000000E+00  0.00000000000E+00 -0.31582418635E+03  0.28160734313E+04  0.27983074624E+04 0.  0.
        1    1    3    3  502    0 -0.82051654689E+03  0.40429805223E+03 -0.12233721661E+04  0.15275286497E+04  0.50400001928E-02 0.  1.
       -1    1    3    3    0  502  0.82051654689E+03 -0.40429805223E+03  0.90754797975E+03  0.12885447817E+04  0.50400001928E-02 0. -1.
</event>
<event>
 5   0  0.5551565E-07  0.2784728E+04  0.7818609E-02  0.8308025E-01
       -1   -1    0    0    0  501  0.00000000000E+00  0.00000000000E+00  0.11274136161E+04  0.11274136161E+04  0.50400001928E-02 0.  1.
        1   -1    0    0  501    0  0.00000000000E+00  0.00000000000E+00 -0.17195800232E+04  0.17195800232E+04  0.50400001928E-02 0. -1.
    10030    2    1    2    0    0  0.00000000000E+00  0.00000000000E+00 -0.59216640703E+03  0.28469936393E+04  0.27847283043E+04 0.  0.
        3    1    3    3  502    0 -0.92684918049E+03 -0.34251879507E+03  0.70682464589E+03  0.12148949002E+04  0.10100000352E+00 0.  1.
       -3    1    3    3    0  502  0.92684918049E+03  0.34251879507E+03 -0.12989910529E+04  0.16320987391E+04  0.10100000352E+00 0. -1.
</event>
<event>
 5   0  0.5214658E-07  0.2798694E+04  0.7818609E-02  0.8303674E-01
        1   -1    0    0  501    0  0.00000000000E+00  0.00000000000E+00  0.12535173107E+04  0.12535173107E+04  0.50400001928E-02 0. -1.
       -1   -1    0    0    0  501  0.00000000000E+00  0.00000000000E+00 -0.15621414996E+04  0.15621414996E+04  0.50400001928E-02 0.  1.
    10030    2    1    2    0    0  0.00000000000E+00  0.00000000000E+00 -0.30862418892E+03  0.28156588103E+04  0.27986935606E+04 0.  0.
        2    1    3    3  502    0 -0.82294119153E+03 -0.10663615569E+04 -0.53583674181E+03  0.14496482983E+04  0.25500000920E-02 0.  1.
       -2    1    3    3    0  502  0.82294119153E+03  0.10663615569E+04  0.22721255288E+03  0.13660105121E+04  0.25500000920E-02 0. -1.
</event>
<event>
 5   0  0.5282098E-07  0.2804113E+04  0.7818609E-02  0.8301993E-01
        1   -1    0    0  501    0  0.00000000000E+00  0.00000000000E+00  0.10020541184E+04  0.10020541184E+04  0.50400001928E-02 0.  1.
       -1   -1    0    0    0  501  0.00000000000E+00  0.00000000000E+00 -0.19617330384E+04  0.19617330384E+04  0.50400001928E-02 0. -1.
    10030    2    1    2    0    0  0.00000000000E+00  0.00000000000E+00 -0.95967892000E+03  0.29637871568E+04  0.28041131720E+04 0.  0.
        4    1    3    3  502    0 -0.13675460196E+04 -0.23451862860E+03 -0.69275494725E+03  0.15508359464E+04  0.12699999809E+01 0. -1.
       -4    1    3    3    0  502  0.13675460196E+04  0.23451862860E+03 -0.26692397276E+03  0.14129512104E+04  0.12699999809E+01 0.  1.
</event>
<event>
 5   0  0.5282098E-07  0.2786437E+04  0.7818609E-02  0.8307492E-01
       -1   -1    0    0    0  501  0.00000000000E+00  0.00000000000E+00  0.89332768827E+03  0.89332768828E+03  0.50400001928E-02 0.  1.
        1   -1    0    0  501    0  0.00000000000E+00  0.00000000000E+00 -0.21728394386E+04  0.21728394386E+04  0.50400001928E-02 0. -1.
    10030    2    1    2    0    0  0.00000000000E+00  0.00000000000E+00 -0.12795117503E+04  0.30661671269E+04  0.27864368880E+04 0.  0.
        4    1    3    3  502    0  0.21633417527E+03 -0.78813322535E+03  0.60183393046E+03  0.10149680532E+04  0.12699999809E+01 0.  1.
       -4    1    3    3    0  502 -0.21633417527E+03  0.78813322535E+03 -0.18813456808E+04  0.20511990737E+04  0.12699999809E+01 0. -1.
</event>
<event>
 5   0  0.5362952E-07  0.2797997E+04  0.7818609E-02  0.8303890E-01
        1   -1    0    0  501    0  0.00000000000E+00  0.00000000000E+00  0.22571256012E+04  0.22571256012E+04  0.50400001928E-02 0. -1.
       -1   -1    0    0    0  501  0.00000000000E+00  0.00000000000E+00 -0.86711914556E+03  0.86711914557E+03  0.50400001928E-02 0.  1.
    10030    2    1    2    0    0  0.00000000000E+00  0.00000000000E+00  0.13900064556E+04  0.31242447467E+04  0.27979970141E+04 0.  0.
        1    1    3    3  502    0  0.16889413318E+03  0.13797518175E+04  0.87139965481E+03  0.16406028357E+04  0.50400001928E-02 0.  1.
       -1    1    3    3    0  502 -0.16889413318E+03 -0.13797518175E+04  0.51860680079E+03  0.14836419110E+04  0.50400001928E-02 0. -1.
</event>
<event>
 5   0  0.5551565E-07  0.2798316E+04  0.7818609E-02  0.8303791E-01
        1   -1    0    0  501    0  0.00000000000E+00  0.00000000000E+00  0.22988269559E+04  0.22988269559E+04  0.50400001928E-02 0. -1.
       -1   -1    0    0    0  501  0.00000000000E+00  0.00000000000E+00 -0.85158342672E+03  0.85158342674E+03  0.50400001928E-02 0.  1.
    10030    2    1    2    0    0  0.00000000000E+00  0.00000000000E+00  0.14472435292E+04  0.31504103826E+04  0.27983158768E+04 0.  0.
        3    1    3    3  502    0  0.85550730743E+03  0.43320165530E+03 -0.42344095469E+03  0.10482646038E+04  0.10100000352E+00 0.  1.
       -3    1    3    3    0  502 -0.85550730743E+03 -0.43320165530E+03  0.18706844839E+04  0.21021457789E+04  0.10100000352E+00 0. -1.
</event>
<event>
 5   0  0.5282098E-07  0.2811333E+04  0.7818609E-02  0.8299759E-01
        1   -1    0    0  501    0  0.00000000000E+00  0.00000000000E+00  0.23392521504E+04  0.23392521504E+04  0.50400001928E-02 0. -1.
       -1   -1    0    0    0  501  0.00000000000E+00  0.00000000000E+00 -0.84467066606E+03  0.84467066608E+03  0.50400001928E-02 0.  1.
    10030    2    1    2    0    0  0.00000000000E+00  0.00000000000E+00  0.14945814844E+04  0.31839228165E+04  0.28113325467E+04 0.  0.
        4    1    3    3  502    0  0.38803137391E+03 -0.43914095249E+03  0.21943110825E+04  0.22712146229E+04  0.12699999809E+01 0. -1.
       -4    1    3    3    0  502 -0.38803137391E+03  0.43914095249E+03 -0.69972959817E+03  0.91270819364E+03  0.12699999809E+01 0.  1.
</event>
<event>
 5   0  0.1439207E-06  0.2793444E+04  0.7818609E-02  0.8305307E-01
        2   -1    0    0  501    0  0.00000000000E+00  0.00000000000E+00  0.14173943820E+04  0.14173943820E+04  0.25500000920E-02 0.  1.
       -2   -1    0    0    0  501  0.00000000000E+00  0.00000000000E+00 -0.13763507001E+04  0.13763507001E+04  0.25500000920E-02 0. -1.
    10030    2    1    2    0    0  0.00000000000E+00  0.00000000000E+00  0.41043681943E+02  0.27937450821E+04  0.27934435738E+04 0.  0.
        5    1    3    3  502    0  0.39145173884E+03  0.98053211990E+03 -0.89397936865E+03  0.13834373508E+04  0.46999998093E+01 0. -1.
       -5    1    3    3    0  502 -0.39145173884E+03 -0.98053211990E+03  0.93502305059E+03  0.14103077314E+04  0.46999998093E+01 0.  1.
</event>
<event>
 5   0  0.5214658E-07  0.2796856E+04  0.7818609E-02  0.8304245E-01
        1   -1    0    0  501    0  0.00000000000E+00  0.00000000000E+00  0.23554215356E+04  0.23554215356E+04  0.50400001928E-02 0.  1.
       -1   -1    0    0    0  501  0.00000000000E+00  0.00000000000E+00 -0.83025526241E+03  0.83025526243E+03  0.50400001928E-02 0. -1.
    10030    2    1    2    0    0  0.00000000000E+00  0.00000000000E+00  0.15251662732E+04  0.31856767980E+04  0.27968561816E+04 0.  0.
        2    1    3    3  502    0  0.81755407107E+03  0.11216222265E+04  0.95711920825E+03  0.16859739787E+04  0.25500000920E-02 0. -1.
       -2    1    3    3    0  502 -0.81755407107E+03 -0.11216222265E+04  0.56804706492E+03  0.14997028193E+04  0.25500000920E-02 0.  1.
</event>
<event>
 5   0  0.5551565E-07  0.2803476E+04  0.7818609E-02  0.8302190E-01
       -1   -1    0    0    0  501  0.00000000000E+00  0.00000000000E+00  0.86855701483E+03  0.86855701485E+03  0.50400001928E-02 0.  1.
        1   -1    0    0  501    0  0.00000000000E+00  0.00000000000E+00 -0.22622226726E+04  0.22622226726E+04  0.50400001928E-02 0. -1.
    10030    2    1    2    0    0  0.00000000000E+00  0.00000000000E+00 -0.13936656578E+04  0.31307796875E+04  0.28034759649E+04 0.  0.
        3    1    3    3  502    0  0.25936729537E+03 -0.11162636478E+04 -0.15982600944E+04  0.19666599261E+04  0.10100000352E+00 0. -1.
       -3    1    3    3    0  502 -0.25936729537E+03  0.11162636478E+04  0.20459443660E+03  0.11641197614E+04  0.10100000352E+00 0.  1.
</event>
<event>
 5   0  0.5214658E-07  0.2784504E+04  0.7818609E-02  0.8308095E-01
       -1   -1    0    0    0  501  0.00000000000E+00  0.00000000000E+00  0.12768207288E+04  0.12768207288E+04  0.50400001928E-02 0. -1.
        1   -1    0    0  501    0  0.00000000000E+00  0.00000000000E+00 -0.15181186649E+04  0.15181186649E+04  0.50400001928E-02 0.  1.
    10030    2    1    2    0    0  0.00000000000E+00  0.00000000000E+00 -0.24129793605E+03  0.27949393937E+04  0.27845038195E+04 0.  0.
        2    1    3    3  502    0 -0.10065474009E+04  0.85325722075E+03 -0.56636249581E+03  0.14359498709E+04  0.25500000920E-02 0.  1.
       -2    1    3    3    0  502  0.10065474009E+04 -0.85325722075E+03  0.32506455975E+03  0.13589895228E+04  0.25500000920E-02 0. -1.
</event>
<event>
 5   0  0.1461146E-06  0.2840629E+04  0.7818609E-02  0.8290765E-01
        2   -1    0    0  501    0  0.00000000000E+00  0.00000000000E+00  0.20794653112E+04  0.20794653112E+04  0.25500000920E-02 0. -1.
       -2   -1    0    0    0  501  0.00000000000E+00  0.00000000000E+00 -0.97010161790E+03  0.97010161790E+03  0.25500000920E-02 0.  1.
    10030    2    1    2    0    0  0.00000000000E+00  0.00000000000E+00  0.11093636933E+04  0.30495669291E+04  0.28406285662E+04 0.  0.
        1    1    3    3  502    0 -0.29508051870E+03 -0.54833956342E+02 -0.93566935160E+03  0.98262730007E+03  0.50400001928E-02 0.  1.
       -1    1    3    3    0  502  0.29508051870E+03  0.54833956342E+02  0.20450330449E+04  0.20669396291E+04  0.50400001928E-02 0. -1.
</event>
<event>
 5   0  0.5362952E-07  0.2795677E+04  0.7818609E-02  0.8304612E-01
        1   -1    0    0  501    0  0.00000000000E+00  0.00000000000E+00  0.15062602006E+04  0.15062602006E+04  0.50400001928E-02 0. -1.
       -1   -1    0    0    0  501  0.00000000000E+00  0.00000000000E+00 -0.12972210439E+04  0.12972210440E+04  0.50400001928E-02 0.  1.
    10030    2    1    2    0    0  0.00000000000E+00  0.00000000000E+00  0.20903915663E+03  0.28034812445E+04  0.27956769698E+04 0.  0.
        1    1    3    3  502    0  0.13511648427E+04  0.34857874602E+03  0.21834228039E+02  0.13955752606E+04  0.50400001928E-02 0. -1.
       -1    1    3    3    0  502 -0.13511648427E+04 -0.34857874602E+03  0.18720492859E+03  0.14079059840E+04  0.50400001928E-02 0.  1.
</event>
<event>
 5   0  0.1377807E-06  0.2794354E+04  0.7818609E-02  0.8305023E-01
       -2   -1    0    0    0  501  0.00000000000E+00  0.00000000000E+00  0.10356512785E+04  0.10356512785E+04  0.25500000920E-02 0. -1.
        2   -1    0    0  501    0  0.00000000000E+00  0.00000000000E+00 -0.18849039604E+04  0.18849039605E+04  0.25500000920E-02 0.  1.
    10030    2    1    2    0    0  0.00000000000E+00  0.00000000000E+00 -0.84925268197E+03  0.29205552389E+04  0.27943537331E+04 0.  0.
        2    1    3    3  502    0 -0.22249044699E+02 -0.81470710078E+03 -0.16107185610E+04  0.18051750504E+04  0.25500000920E-02 0.  1.
       -2    1    3    3    0  502  0.22249044699E+02  0.81470710078E+03  0.76146587898E+03  0.11153801885E+04  0.25500000920E-02 0. -1.
</event>
<event>
 5   0  0.4710000E-07  0.2800614E+04  0.7818609E-02  0.8303078E-01
        3   -1    0    0  501    0  0.00000000000E+00  0.00000000000E+00  0.14582445676E+04  0.14582445711E+04  0.10100000352E+00 0. -1.
       -3   -1    0    0    0  501  0.00000000000E+00  0.00000000000E+00 -0.13446710246E+04  0.13446710284E+04  0.10100000352E+00 0.  1.
    10030    2    1    2    0    0  0.00000000000E+00  0.00000000000E+00  0.11357354295E+03  0.28029155995E+04  0.28006136664E+04 0.  0.
        4    1    3    3  502    0 -0.41495357182E+03 -0.82308187647E+03 -0.99821787862E+03  0.13587092361E+04  0.12699999809E+01 0.  1.
       -4    1    3    3    0  502  0.41495357182E+03  0.82308187647E+03  0.11117914216E+04  0.14442063634E+04  0.12699999809E+01 0. -1.
</event>
<event>
 5   0  0.5362952E-07  0.2799224E+04  0.7818609E-02  0.8303509E-01
       -1   -1    0    0    0  501  0.00000000000E+00  0.00000000000E+00  0.73178673022E+03  0.73178673024E+03  0.50400001928E-02 0.  1.
        1   -1    0    0  501    0  0.00000000000E+00  0.00000000000E+00 -0.26768919535E+04  0.26768919535E+04  0.50400001928E-02 0. -1.
    10030    2    1    2    0    0  0.00000000000E+00  0.00000000000E+00 -0.19451052233E+04  0.34086786837E+04  0.27992241853E+04 0.  0.
        1    1    3    3  502    0  0.13651977354E+02 -0.99406274455E+03  0.22711551240E+03  0.10197688819E+04  0.50400001928E-02 0.  1.
       -1    1    3    3    0  502 -0.13651977354E+02  0.99406274455E+03 -0.21722207357E+04  0.23889098018E+04  0.50400001928E-02 0. -1.
</event>
<event>
 5   0  0.5551565E-07  0.2795870E+04  0.7818609E-02  0.8304552E-01
        1   -1    0    0  501    0  0.00000000000E+00  0.00000000000E+00  0.11552540034E+04  0.11552540034E+04  0.50400001928E-02 0.  1.
       -1   -1    0    0    0  501  0.00000000000E+00  0.00000000000E+00 -0.16915956871E+04  0.16915956871E+04  0.50400001928E-02 0. -1.
    10030    2    1    2    0    0  0.00000000000E+00  0.00000000000E+00 -0.53634168368E+03  0.28468496906E+04  0.27958703044E+04 0.  0.
        3    1    3    3  502    0  0.96940105504E+02  0.56771900707E+02  0.11506502933E+04  0.11561213347E+04  0.10100000352E+00 0.  1.
       -3    1    3    3    0  502 -0.96940105504E+02 -0.56771900707E+02 -0.16869919770E+04  0.16907283559E+04  0.10100000352E+00 0. -1.
</event>
<event>
 5   0  0.1499888E-06  0.2796788E+04  0.7818609E-02  0.8304266E-01
        2   -1    0    0  501    0  0.00000000000E+00  0.00000000000E+00  0.15076691652E+04  0.15076691652E+04  0.25500000920E-02 0. -1.
       -2   -1    0    0    0  501  0.00000000000E+00  0.00000000000E+00 -0.12970388198E+04  0.12970388198E+04  0.25500000920E-02 0.  1.
    10030    2    1    2    0    0  0.00000000000E+00  0.00000000000E+00  0.21063034541E+03  0.28047079849E+04  0.27967877535E+04 0.  0.
        3    1    3    3  502    0  0.36083055646E+03 -0.13106945400E+04  0.43394206512E+03  0.14270334943E+04  0.10100000352E+00 0. -1.
       -3    1    3    3    0  502 -0.36083055646E+03  0.13106945400E+04 -0.22331171971E+03  0.13776744906E+04  0.10100000352E+00 0.  1.
</event>
<event>
 5   0  0.1394410E-06  0.2803881E+04  0.7818609E-02  0.8302064E-01
       -2   -1    0    0    0  501  0.00000000000E+00  0.00000000000E+00  0.10920605834E+04  0.10920605834E+04  0.25500000920E-02 0. -1.
        2   -1    0    0  501    0  0.00000000000E+00  0.00000000000E+00 -0.17997510940E+04  0.17997510940E+04  0.25500000920E-02 0.  1.
    10030    2    1    2    0    0  0.00000000000E+00  0.00000000000E+00 -0.70769051060E+03  0.28918116774E+04  0.28038810458E+04 0.  0.
        4    1    3    3  502    0 -0.97149191341E+03  0.64283645767E+03 -0.11583065549E+04  0.16427753763E+04  0.12699999809E+01 0.  1.
       -4    1    3    3    0  502  0.97149191341E+03 -0.64283645767E+03  0.45061604429E+03  0.12490363011E+04  0.12699999809E+01 0. -1.
</event>
<event>
 5   0  0.5362952E-07  0.2801568E+04  0.7818609E-02  0.8302782E-01
        1   -1    0    0  501    0  0.00000000000E+00  0.00000000000E+00  0.14053452225E+04  0.14053452225E+04  0.50400001928E-02 0.  1.
       -1   -1    0    0    0  501  0.00000000000E+00  0.00000000000E+00 -0.13962377636E+04  0.13962377636E+04  0.50400001928E-02 0. -1.
    10030    2    1    2    0    0  0.00000000000E+00  0.00000000000E+00  0.91074589264E+01  0.28015829860E+04  0.28015681826E+04 0.  0.
        1    1    3    3  502    0  0.40294947644E+03  0.11788548309E+03  0.13409480113E+04  0.14051358784E+04  0.50400001928E-02 0.  1.
       -1    1    3    3    0  502 -0.40294947644E+03 -0.11788548309E+03 -0.13318405523E+04  0.13964471077E+04  0.50400001928E-02 0. -1.
</event>
<event>
 5   0  0.5297741E-07  0.2801029E+04  0.7818609E-02  0.8302949E-01
        1   -1    0    0  501    0  0.00000000000E+00  0.00000000000E+00  0.31326315222E+04  0.31326315222E+04  0.50400001928E-02 0. -1.
       -1   -1    0    0    0  501  0.00000000000E+00  0.00000000000E+00 -0.62613214510E+03  0.62613214512E+03  0.50400001928E-02 0.  1.
    10030    2    1    2    0    0  0.00000000000E+00  0.00000000000E+00  0.25064993771E+04  0.37587636673E+04  0.28010293071E+04 0.  0.
        5    1    3    3  502    0  0.26105911917E+03 -0.74773026774E+03 -0.29675292355E+03  0.84577585957E+03  0.46999998093E+01 0.  1.
       -5    1    3    3    0  502 -0.26105911917E+03  0.74773026774E+03  0.28032523006E+04  0.29129878077E+04  0.46999998093E+01 0. -1.
</event>
<event>
 5   0  0.1499888E-06  0.2804247E+04  0.7818609E-02  0.8301951E-01
        2   -1    0    0  501    0  0.00000000000E+00  0.00000000000E+00  0.20966930967E+04  0.20966930967E+04  0.25500000920E-02 0.  1.
       -2   -1    0    0    0  501  0.00000000000E+00  0.00000000000E+00 -0.93764314535E+03  0.93764314535E+03  0.25500000920E-02 0. -1.
    10030    2    1    2    0    0  0.00000000000E+00  0.00000000000E+00  0.11590499514E+04  0.30343362421E+04  0.28042467153E+04 0.  0.
        3    1    3    3  502    0 -0.10470066427E+04 -0.81140689884E+03  0.82080822452E+02  0.13271553553E+04  0.10100000352E+00 0. -1.
       -3    1    3    3    0  502  0.10470066427E+04  0.81140689884E+03  0.10769691289E+04  0.17071808868E+04  0.10100000352E+00 0.  1.
</event>
<event>
 5   0  0.5282098E-07  0.2855291E+04  0.7818609E-02  0.8286305E-01
        1   -1    0    0  501    0  0.00000000000E+00  0.00000000000E+00  0.63368830242E+03  0.63368830244E+03  0.50400001928E-02 0.  1.
       -1   -1    0    0    0  501  0.00000000000E+00  0.00000000000E+00 -0.32163627236E+04  0.32163627236E+04  0.50400001928E-02 0. -1.
    10030    2    1    2    0    0  0.00000000000E+00  0.00000000000E+00 -0.25826744212E+04  0.38500510261E+04  0.28552908324E+04 0.  0.
        4    1    3    3  502    0  0.32156232843E+03  0.41857540495E+03 -0.30799586680E+04  0.31248607505E+04  0.12699999809E+01 0. -1.
       -4    1    3    3    0  502 -0.32156232843E+03 -0.41857540495E+03  0.49728424680E+03  0.72519027553E+03  0.12699999809E+01 0.  1.
</event>
<event>
 5   0  0.1499888E-06  0.2800412E+04  0.7818609E-02  0.8303141E-01
       -2   -1    0    0    0  501  0.00000000000E+00  0.00000000000E+00  0.25892965116E+04  0.25892965116E+04  0.25500000920E-02 0.  1.
        2   -1    0    0  501    0  0.00000000000E+00  0.00000000000E+00 -0.75718494994E+03  0.75718494994E+03  0.25500000920E-02 0. -1.
    10030    2    1    2    0    0  0.00000000000E+00  0.00000000000E+00  0.18321115616E+04  0.33464814615E+04  0.28004116480E+04 0.  0.
        3    1    3    3  502    0  0.12733969054E+04 -0.42546326781E+03  0.13910839596E+04  0.19333063036E+04  0.10100000352E+00 0.  1.
       -3    1    3    3    0  502 -0.12733969054E+04  0.42546326781E+03  0.44102760208E+03  0.14131751579E+04  0.10100000352E+00 0. -1.
</event>
<event>
 5   0  0.4710000E-07  0.2798735E+04  0.7818609E-02  0.8303661E-01
        3   -1    0    0  501    0  0.00000000000E+00  0.00000000000E+00  0.19623149485E+04  0.19623149511E+04  0.10100000352E+00 0.  1.
       -3   -1    0    0    0  501  0.00000000000E+00  0.00000000000E+00 -0.99791809170E+03  0.99791809681E+03  0.10100000352E+00 0. -1.
    10030    2    1    2    0    0  0.00000000000E+00  0.00000000000E+00  0.96439685682E+03  0.29602330479E+04  0.27987351430E+04 0.  0.
        2    1    3    3  502    0  0.61705645962E+03  0.42761884260E+03 -0.76688361249E+03  0.10731854565E+04  0.25500000920E-02 0. -1.
       -2    1    3    3    0  502 -0.61705645962E+03 -0.42761884260E+03  0.17312804693E+04  0.18870475914E+04  0.25500000920E-02 0.  1.
</event>
<event>
 5   0  0.5214658E-07  0.2863871E+04  0.7818609E-02  0.8283709E-01
        1   -1    0    0  501    0  0.00000000000E+00  0.00000000000E+00  0.25165408736E+04  0.25165408736E+04  0.50400001928E-02 0. -1.
       -1   -1    0    0    0  501  0.00000000000E+00  0.00000000000E+00 -0.81478467859E+03  0.81478467860E+03  0.50400001928E-02 0.  1.
    10030    2    1    2    0    0  0.00000000000E+00  0.00000000000E+00  0.17017561951E+04  0.33313255522E+04  0.28638707701E+04 0.  0.
        2    1    3    3  502    0 -0.29067773416E+03  0.12509820450E+04  0.15874752992E+04  0.20419420774E+04  0.25500000920E-02 0. -1.
       -2    1    3    3    0  502  0.29067773416E+03 -0.12509820450E+04  0.11428089587E+03  0.12893834748E+04  0.25500000920E-02 0.  1.
</event>
<event>
 5   0  0.1439207E-06  0.2795039E+04  0.7818609E-02  0.8304810E-01
        2   -1    0    0  501    0  0.00000000000E+00  0.00000000000E+00  0.14432178935E+04  0.14432178935E+04  0.25500000920E-02 0. -1.
       -2   -1    0    0    0  501  0.00000000000E+00  0.00000000000E+00 -0.13532681446E+04  0.13532681446E+04  0.25500000920E-02 0.  1.
    10030    2    1    2    0    0  0.00000000000E+00  0.00000000000E+00  0.89949748904E+02  0.27964860381E+04  0.27950390345E+04 0.  0.
        5    1    3    3  502    0  0.68554735441E+03 -0.71325150823E+03  0.10325703983E+04  0.14300093030E+04  0.46999998093E+01 0. -1.
       -5    1    3    3    0  502 -0.68554735441E+03  0.71325150823E+03 -0.94262064938E+03  0.13664767352E+04  0.46999998093E+01 0.  1.
</event>
<event>
 5   0  0.5362952E-07  0.2799686E+04  0.7818609E-02  0.8303366E-01
        1   -1    0    0  501    0  0.00000000000E+00  0.00000000000E+00  0.23023934614E+04  0.23023934614E+04  0.50400001928E-02 0.  1.
       -1   -1    0    0    0  501  0.00000000000E+00  0.00000000000E+00 -0.85109740380E+03  0.85109740381E+03  0.50400001928E-02 0. -1.
    10030    2    1    2    0    0  0.00000000000E+00  0.00000000000E+00  0.14512960576E+04  0.31534908652E+04  0.27996864807E+04 0.  0.
        1    1    3    3  502    0  0.87090304220E+03  0.96927249717E+03  0.13017520322E+04  0.18418793761E+04  0.50400001928E-02 0.  1.
       -1    1    3    3    0  502 -0.87090304220E+03 -0.96927249717E+03  0.14954402531E+03  0.13116114891E+04  0.50400001928E-02 0. -1.
</event>
<event>
 5   0  0.5362952E-07  0.2797036E+04  0.7818609E-02  0.8304189E-01
        1   -1    0    0  501    0  0.00000000000E+00  0.00000000000E+00  0.13053185661E+04  0.13053185661E+04  0.50400001928E-02 0.  1.
       -1   -1    0    0    0  501  0.00000000000E+00  0.00000000000E+00 -0.14983723356E+04  0.14983723356E+04  0.50400001928E-02 0. -1.
    10030    2    1    2    0    0  0.00000000000E+00  0.00000000000E+00 -0.19305376949E+03  0.28036909017E+04  0.27970364521E+04 0.  0.
        1    1    3    3  502    0  0.49754855817E+03 -0.18627259524E+03  0.12002282993E+04  0.13125547676E+04  0.50400001928E-02 0.  1.
       -1    1    3    3    0  502 -0.49754855817E+03  0.18627259524E+03 -0.13932820687E+04  0.14911361342E+04  0.50400001928E-02 0. -1.
</event>
<event>
 5   0  0.1499888E-06  0.2799197E+04  0.7818609E-02  0.8303518E-01
       -2   -1    0    0    0  501  0.00000000000E+00  0.00000000000E+00  0.13878587104E+04  0.13878587104E+04  0.25500000920E-02 0. -1.
        2   -1    0    0  501    0  0.00000000000E+00  0.00000000000E+00 -0.14114378005E+04  0.14114378005E+04  0.25500000920E-02 0.  1.
    10030    2    1    2    0    0  0.00000000000E+00  0.00000000000E+00 -0.23579090115E+02  0.27992965108E+04  0.27991972032E+04 0.  0.
        3    1    3    3  502    0 -0.98061395938E+03  0.39831279437E+03  0.90400460246E+03  0.13919343199E+04  0.10100000352E+00 0. -1.
       -3    1    3    3    0  502  0.98061395938E+03 -0.39831279437E+03 -0.92758369258E+03  0.14073621909E+04  0.10100000352E+00 0.  1.
</event>
<event>
 5   0  0.5282098E-07  0.2804971E+04  0.7818609E-02  0.8301727E-01
       -1   -1    0    0    0  501  0.00000000000E+00  0.00000000000E+00  0.10879111762E+04  0.10879111762E+04  0.50400001928E-02 0.  1.
        1   -1    0    0  501    0  0.00000000000E+00  0.00000000000E+00 -0.18080208656E+04  0.18080208656E+04  0.50400001928E-02 0. -1.
    10030    2    1    2    0    0  0.00000000000E+00  0.00000000000E+00 -0.72010968945E+03  0.28959320418E+04  0.28049713770E+04 0.  0.
        4    1    3    3  502    0  0.10974393799E+04  0.40711199290E+03  0.43755947272E+03  0.12496292540E+04  0.12699999809E+01 0.  1.
       -4    1    3    3    0  502 -0.10974393799E+04 -0.40711199290E+03 -0.11576691622E+04  0.16463027878E+04  0.12699999809E+01 0. -1.
</event>
<event>
 5   0  0.5362952E-07  0.2797412E+04  0.7818609E-02  0.8304072E-01
       -1   -1    0    0    0  501  0.00000000000E+00  0.00000000000E+00  0.12421343082E+04  0.12421343082E+04  0.50400001928E-02 0.  1.
        1   -1    0    0  501    0  0.00000000000E+00  0.00000000000E+00 -0.15750134804E+04  0.15750134804E+04  0.50400001928E-02 0. -1.
    10030    2    1    2    0    0  0.00000000000E+00  0.00000000000E+00 -0.33287917223E+03  0.28171477886E+04  0.27974118609E+04 0.  0.
        1    1    3    3  502    0  0.13561102672E+04  0.11621162978E+03  0.15807299880E+03  0.13702289125E+04  0.50400001928E-02 0. -1.
       -1    1    3    3    0  502 -0.13561102672E+04 -0.11621162978E+03 -0.49095217103E+03  0.14469188761E+04  0.50400001928E-02 0.  1.
</event>
<event>
 5   0  0.1439207E-06  0.2800970E+04  0.7818609E-02  0.8302967E-01
        2   -1    0    0  501    0  0.00000000000E+00  0.00000000000E+00  0.15640291275E+04  0.15640291275E+04  0.25500000920E-02 0.  1.
       -2   -1    0    0    0  501  0.00000000000E+00  0.00000000000E+00 -0.12540416299E+04  0.12540416299E+04  0.25500000920E-02 0. -1.
    10030    2    1    2    0    0  0.00000000000E+00  0.00000000000E+00  0.30998749764E+03  0.28180707574E+04  0.28009695723E+04 0.  0.
        5    1    3    3  502    0 -0.13476556875E+04 -0.37853494229E+03  0.19851280164E+03  0.14138224701E+04  0.46999998093E+01 0.  1.
       -5    1    3    3    0  502  0.13476556875E+04  0.37853494229E+03  0.11147469601E+03  0.14042482873E+04  0.46999998093E+01 0. -1.
</event>
<event>
 5   0  0.5297741E-07  0.2803168E+04  0.7818609E-02  0.8302285E-01
        1   -1    0    0  501    0  0.00000000000E+00  0.00000000000E+00  0.16297985272E+04  0.16297985272E+04  0.50400001928E-02 0. -1.
       -1   -1    0    0    0  501  0.00000000000E+00  0.00000000000E+00 -0.12053255870E+04  0.12053255870E+04  0.50400001928E-02 0.  1.
    10030    2    1    2    0    0  0.00000000000E+00  0.00000000000E+00  0.42447294014E+03  0.28351241142E+04  0.28031681123E+04 0.  0.
        5    1    3    3  502    0  0.11392919688E+03  0.66984637049E+03 -0.10276020027E+04  0.12319342466E+04  0.46999998093E+01 0.  1.
       -5    1    3    3    0  502 -0.11392919688E+03 -0.66984637049E+03  0.14520749428E+04  0.16031898676E+04  0.46999998093E+01 0. -1.
</event>
<event>
 5   0  0.1499888E-06  0.2801113E+04  0.7818609E-02  0.8302923E-01
        2   -1    0    0  501    0  0.00000000000E+00  0.00000000000E+00  0.16342795592E+04  0.16342795592E+04  0.25500000920E-02 0.  1.
       -2   -1    0    0    0  501  0.00000000000E+00  0.00000000000E+00 -0.12002585596E+04  0.12002585596E+04  0.25500000920E-02 0. -1.
    10030    2    1    2    0    0  0.00000000000E+00  0.00000000000E+00  0.43402099960E+03  0.28345381189E+04  0.28011126574E+04 0.  0.
        3    1    3    3  502    0 -0.11549594846E+04  0.52228286605E+03 -0.38578836702E+03  0.13249692364E+04  0.10100000352E+00 0. -1.
       -3    1    3    3    0  502  0.11549594846E+04 -0.52228286605E+03  0.81980936662E+03  0.15095688825E+04  0.10100000352E+00 0.  1.
</event>
<event>
 5   0  0.5214658E-07  0.2800094E+04  0.7818609E-02  0.8303239E-01
        1   -1    0    0  501    0  0.00000000000E+00  0.00000000000E+00  0.24961449140E+04  0.24961449140E+04  0.50400001928E-02 0. -1.
       -1   -1    0    0    0  501  0.00000000000E+00  0.00000000000E+00 -0.78526342307E+03  0.78526342308E+03  0.50400001928E-02 0.  1.
    10030    2    1    2    0    0  0.00000000000E+00  0.00000000000E+00  0.17108814909E+04  0.32814083370E+04  0.28000937839E+04 0.  0.
        2    1    3    3  502    0 -0.36704460155E+03 -0.45624928962E+03  0.23457478167E+04  0.24177299215E+04  0.25500000920E-02 0. -1.
       -2    1    3    3    0  502  0.36704460155E+03  0.45624928962E+03 -0.63486632581E+03  0.86367841553E+03  0.25500000920E-02 0.  1.
</event>
<event>
 5   0  0.5282098E-07  0.2748538E+04  0.7818609E-02  0.8319426E-01
       -1   -1    0    0    0  501  0.00000000000E+00  0.00000000000E+00  0.76828519552E+03  0.76828519553E+03  0.50400001928E-02 0.  1.
        1   -1    0    0  501    0  0.00000000000E+00  0.00000000000E+00 -0.24582215943E+04  0.24582215943E+04  0.50400001928E-02 0. -1.
    10030    2    1    2    0    0  0.00000000000E+00  0.00000000000E+00 -0.16899363988E+04  0.32265067898E+04  0.27485379810E+04 0.  0.
        4    1    3    3  502    0  0.12765861595E+04  0.17251283637E+03 -0.28298943761E+03  0.13189077057E+04  0.12699999809E+01 0.  1.
       -4    1    3    3    0  502 -0.12765861595E+04 -0.17251283637E+03 -0.14069469612E+04  0.19075990841E+04  0.12699999809E+01 0. -1.
</event>
<event>
 5   0  0.5362952E-07  0.2802900E+04  0.7818609E-02  0.8302368E-01
       -1   -1    0    0    0  501  0.00000000000E+00  0.00000000000E+00  0.78698601635E+03  0.78698601636E+03  0.50400001928E-02 0. -1.
        1   -1    0    0  501    0  0.00000000000E+00  0.00000000000E+00 -0.24956766405E+04  0.24956766406E+04  0.50400001928E-02 0.  1.
    10030    2    1    2    0    0  0.00000000000E+00  0.00000000000E+00 -0.17086906242E+04  0.32826626569E+04  0.28029003675E+04 0.  0.
        1    1    3    3  502    0  0.11878958043E+04 -0.68960042335E+03 -0.11802105050E+04  0.18109505851E+04  0.50400001928E-02 0. -1.
       -1    1    3    3    0  502 -0.11878958043E+04  0.68960042335E+03 -0.52848011922E+03  0.14717120718E+04  0.50400001928E-02 0.  1.
</event>
<event>
 5   0  0.5282098E-07  0.2797895E+04  0.7818609E-02  0.8303922E-01
        1   -1    0    0  501    0  0.00000000000E+00  0.00000000000E+00  0.15803697359E+04  0.15803697359E+04  0.50400001928E-02 0.  1.
       -1   -1    0    0    0  501  0.00000000000E+00  0.00000000000E+00 -0.12383516687E+04  0.12383516687E+04  0.50400001928E-02 0. -1.
    10030    2    1    2    0    0  0.00000000000E+00  0.00000000000E+00  0.34201806719E+03  0.28187214046E+04  0.27978945653E+04 0.  0.
        4    1    3    3  502    0 -0.56548136435E+03  0.25947560240E+03  0.14333143990E+04  0.15625263329E+04  0.12699999809E+01 0.  1.
       -4    1    3    3    0  502  0.56548136435E+03 -0.25947560240E+03 -0.10912963318E+04  0.12561950718E+04  0.12699999809E+01 0. -1.
</event>
<event>
 5   0  0.1377807E-06  0.2799988E+04  0.7818609E-02  0.8303272E-01
        2   -1    0    0  501    0  0.00000000000E+00  0.00000000000E+00  0.18702694854E+04  0.18702694854E+04  0.25500000920E-02 0. -1.
       -2   -1    0    0    0  501  0.00000000000E+00  0.00000000000E+00 -0.10479685053E+04  0.10479685053E+04  0.25500000920E-02 0.  1.
    10030    2    1    2    0    0  0.00000000000E+00  0.00000000000E+00  0.82230098014E+03  0.29182379907E+04  0.27999882265E+04 0.  0.
        2    1    3    3  502    0 -0.33684769171E+03 -0.12617703900E+04  0.93688680417E+03  0.16072609522E+04  0.25500000920E-02 0. -1.
       -2    1    3    3    0  502  0.33684769171E+03  0.12617703900E+04 -0.11458582404E+03  0.13109770385E+04  0.25500000920E-02 0.  1.
</event>
<event>
 5   0  0.1461146E-06  0.2806483E+04  0.7818609E-02  0.8301259E-01
       -2   -1    0    0    0  501  0.00000000000E+00  0.00000000000E+00  0.91897749842E+03  0.91897749842E+03  0.25500000920E-02 0.  1.
        2   -1    0    0  501    0  0.00000000000E+00  0.00000000000E+00 -0.21426926150E+04  0.21426926150E+04  0.25500000920E-02 0. -1.
    10030    2    1    2    0    0  0.00000000000E+00  0.00000000000E+00 -0.12237151166E+04  0.30616701134E+04  0.28064827092E+04 0.  0.
        1    1    3    3  502    0  0.98563165523E+03  0.73572712768E+03  0.12508186630E+03  0.12362886554E+04  0.50400001928E-02 0.  1.
       -1    1    3    3    0  502 -0.98563165523E+03 -0.73572712768E+03 -0.13487969829E+04  0.18253814580E+04  0.50400001928E-02 0. -1.
</event>
<event>
 5   0  0.1499888E-06  0.2798200E+04  0.7818609E-02  0.8303828E-01
       -2   -1    0    0    0  501  0.00000000000E+00  0.00000000000E+00  0.17423671216E+04  0.17423671216E+04  0.25500000920E-02 0.  1.
        2   -1    0    0  501    0  0.00000000000E+00  0.00000000000E+00 -0.11234602466E+04  0.11234602466E+04  0.25500000920E-02 0. -1.
    10030    2    1    2    0    0  0.00000000000E+00  0.00000000000E+00  0.61890687501E+03  0.28658273681E+04  0.27981995611E+04 0.  0.
        3    1    3    3  502    0 -0.34955872843E+03 -0.25058912970E+03  0.16729803831E+04  0.17273822938E+04  0.10100000352E+00 0.  1.
       -3    1    3    3    0  502  0.34955872843E+03  0.25058912970E+03 -0.10540735081E+04  0.11384450743E+04  0.10100000352E+00 0. -1.
</event>
<event>
 5   0  0.1461146E-06  0.2791803E+04  0.7818609E-02  0.8305818E-01
        2   -1    0    0  501    0  0.00000000000E+00  0.00000000000E+00  0.12625674622E+04  0.12625674622E+04  0.25500000920E-02 0. -1.
       -2   -1    0    0    0  501  0.00000000000E+00  0.00000000000E+00 -0.15433166963E+04  0.15433166963E+04  0.25500000920E-02 0.  1.
    10030    2    1    2    0    0  0.00000000000E+00  0.00000000000E+00 -0.28074923411E+03  0.28058841585E+04  0.27918033202E+04 0.  0.
        1    1    3    3  502    0  0.47639349603E+02 -0.46841544744E+03  0.11803532609E+04  0.12707935944E+04  0.50400001928E-02 0. -1.
       -1    1    3    3    0  502 -0.47639349603E+02  0.46841544744E+03 -0.14611024950E+04  0.15350905641E+04  0.50400001928E-02 0.  1.
</event>
<event>
 5   0  0.1394410E-06  0.2800933E+04  0.7818609E-02  0.8302979E-01
       -2   -1    0    0    0  501  0.00000000000E+00  0.00000000000E+00  0.11138474029E+04  0.11138474029E+04  0.25500000920E-02 0.  1.
        2   -1    0    0  501    0  0.00000000000E+00  0.00000000000E+00 -0.17608393371E+04  0.17608393371E+04  0.25500000920E-02 0. -1.
    10030    2    1    2    0    0  0.00000000000E+00  0.00000000000E+00 -0.64699193422E+03  0.28746867400E+04  0.28009329321E+04 0.  0.
        4    1    3    3  502    0  0.69979011785E+03  0.47282953436E+03 -0.14700656542E+04  0.16953963012E+04  0.12699999809E+01 0. -1.
       -4    1    3    3    0  502 -0.69979011785E+03 -0.47282953436E+03  0.82307372000E+03  0.11792904388E+04  0.12699999809E+01 0.  1.
</event>
<event>
 5   0  0.5551565E-07  0.2800209E+04  0.7818609E-02  0.8303204E-01
       -1   -1    0    0    0  501  0.00000000000E+00  0.00000000000E+00  0.27340954352E+04  0.27340954352E+04  0.50400001928E-02 0.  1.
        1   -1    0    0  501    0  0.00000000000E+00  0.00000000000E+00 -0.71698019524E+03  0.71698019526E+03  0.50400001928E-02 0. -1.
    10030    2    1    2    0    0  0.00000000000E+00  0.00000000000E+00  0.20171152400E+04  0.34510756305E+04  0.28002087629E+04 0.  0.
        3    1    3    3  502    0  0.46117320158E+03  0.12568674895E+04  0.15135488113E+04  0.20206995379E+04  0.10100000352E+00 0. -1.
       -3    1    3    3    0  502 -0.46117320158E+03 -0.12568674895E+04  0.50356642871E+03  0.14303760926E+04  0.10100000352E+00 0.  1.
</event>
<event>
 5   0  0.5362952E-07  0.2801665E+04  0.7818609E-02  0.8302752E-01
        1   -1    0    0  501    0  0.00000000000E+00  0.00000000000E+00  0.10366209200E+04  0.10366209200E+04  0.50400001928E-02 0.  1.
       -1   -1    0    0    0  501  0.00000000000E+00  0.00000000000E+00 -0.18930080581E+04  0.18930080581E+04  0.50400001928E-02 0. -1.
    10030    2    1    2    0    0  0.00000000000E+00  0.00000000000E+00 -0.85638713814E+03  0.29296289781E+04  0.28016650441E+04 0.  0.
        1    1    3    3  502    0 -0.46265378175E+01 -0.26018634378E+03  0.10111242942E+04  0.10440740762E+04  0.50400001928E-02 0.  1.
       -1    1    3    3    0  502  0.46265378175E+01  0.26018634378E+03 -0.18675114323E+04  0.18855549019E+04  0.50400001928E-02 0. -1.
</event>
<event>
 5   0  0.4710000E-07  0.2806261E+04  0.7818609E-02  0.8301327E-01
        3   -1    0    0  501    0  0.00000000000E+00  0.00000000000E+00  0.12994004246E+04  0.12994004285E+04  0.10100000352E+00 0.  1.
       -3   -1    0    0    0  501  0.00000000000E+00  0.00000000000E+00 -0.15151417423E+04  0.15151417456E+04  0.10100000352E+00 0. -1.
    10030    2    1    2    0    0  0.00000000000E+00  0.00000000000E+00 -0.21574131772E+03  0.28145421741E+04  0.28062614514E+04 0.  0.
        4    1    3    3  502    0 -0.76485204793E+03  0.10961609421E+04 -0.53598706007E+03  0.14400872223E+04  0.12699999809E+01 0. -1.
       -4    1    3    3    0  502  0.76485204793E+03 -0.10961609421E+04  0.32024574235E+03  0.13744549519E+04  0.12699999809E+01 0.  1.
</event>
<event>
 5   0  0.5362952E-07  0.2799372E+04  0.7818609E-02  0.8303463E-01
        1   -1    0    0  501    0  0.00000000000E+00  0.00000000000E+00  0.17353254148E+04  0.17353254148E+04  0.50400001928E-02 0.  1.
       -1   -1    0    0    0  501  0.00000000000E+00  0.00000000000E+00 -0.11289644837E+04  0.11289644837E+04  0.50400001928E-02 0. -1.
    10030    2    1    2    0    0  0.00000000000E+00  0.00000000000E+00  0.60636093115E+03  0.28642898985E+04  0.27993719017E+04 0.  0.
        1    1    3    3  502    0 -0.72314809246E+03 -0.11741527290E+04  0.57736422914E+02  0.13801852373E+04  0.50400001928E-02 0. -1.
       -1    1    3    3    0  502  0.72314809246E+03  0.11741527290E+04  0.54862450824E+03  0.14841046613E+04  0.50400001928E-02 0.  1.
</event>
<event>
 5   0  0.5282098E-07  0.2796985E+04  0.7818609E-02  0.8304205E-01
        1   -1    0    0  501    0  0.00000000000E+00  0.00000000000E+00  0.15071047258E+04  0.15071047258E+04  0.50400001928E-02 0.  1.
       -1   -1    0    0    0  501  0.00000000000E+00  0.00000000000E+00 -0.12977075580E+04  0.12977075580E+04  0.50400001928E-02 0. -1.
    10030    2    1    2    0    0  0.00000000000E+00  0.00000000000E+00  0.20939716776E+03  0.28048122838E+04  0.27969849434E+04 0.  0.
        4    1    3    3  502    0 -0.87901904872E+03  0.42624864454E+03  0.11082074002E+04  0.14773244903E+04  0.12699999809E+01 0.  1.
       -4    1    3    3    0  502  0.87901904872E+03 -0.42624864454E+03 -0.89881023242E+03  0.13274877935E+04  0.12699999809E+01 0. -1.
</event>
<event>
 5   0  0.5551565E-07  0.2804843E+04  0.7818609E-02  0.8301766E-01
        1   -1    0    0  501    0  0.00000000000E+00  0.00000000000E+00  0.16149890650E+04  0.16149890650E+04  0.50400001928E-02 0.  1.
       -1   -1    0    0    0  501  0.00000000000E+00  0.00000000000E+00 -0.12178322625E+04  0.12178322625E+04  0.50400001928E-02 0. -1.
    10030    2    1    2    0    0  0.00000000000E+00  0.00000000000E+00  0.39715680251E+03  0.28328213275E+04  0.28048428027E+04 0.  0.
        3    1    3    3  502    0  0.11135171846E+04 -0.92261854159E+02 -0.65743312800E+03  0.12963992819E+04  0.10100000352E+00 0. -1.
       -3    1    3    3    0  502 -0.11135171846E+04  0.92261854159E+02  0.10545899305E+04  0.15364220455E+04  0.10100000352E+00 0.  1.
</event>
<event>
 5   0  0.1394410E-06  0.2802968E+04  0.7818609E-02  0.8302348E-01
        2   -1    0    0  501    0  0.00000000000E+00  0.00000000000E+00  0.91562022180E+03  0.91562022180E+03  0.25500000920E-02 0. -1.
       -2   -1    0    0    0  501  0.00000000000E+00  0.00000000000E+00 -0.21451654687E+04  0.21451654687E+04  0.25500000920E-02 0.  1.
    10030    2    1    2    0    0  0.00000000000E+00  0.00000000000E+00 -0.12295452469E+04  0.30607856905E+04  0.28029676290E+04 0.  0.
        4    1    3    3  502    0  0.98914293068E+03  0.45263147856E+03 -0.15797251656E+04  0.19180229937E+04  0.12699999809E+01 0.  1.
       -4    1    3    3    0  502 -0.98914293068E+03 -0.45263147856E+03  0.35017991873E+03  0.11427626968E+04  0.12699999809E+01 0. -1.
</event>
<event>
 5   0  0.5214658E-07  0.2807759E+04  0.7818609E-02  0.8300863E-01
        1   -1    0    0  501    0  0.00000000000E+00  0.00000000000E+00  0.17027113862E+04  0.17027113862E+04  0.50400001928E-02 0. -1.
       -1   -1    0    0    0  501  0.00000000000E+00  0.00000000000E+00 -0.11574939623E+04  0.11574939623E+04  0.50400001928E-02 0.  1.
    10030    2    1    2    0    0  0.00000000000E+00  0.00000000000E+00  0.54521742390E+03  0.28602053486E+04  0.28077593552E+04 0.  0.
        2    1    3    3  502    0  0.83760643804E+02 -0.13308849525E+04 -0.17445969603E+03  0.13448817003E+04  0.25500000920E-02 0. -1.
       -2    1    3    3    0  502 -0.83760643804E+02  0.13308849525E+04  0.71967711994E+03  0.15153236483E+04  0.25500000920E-02 0.  1.
</event>
<event>
 5   0  0.5551565E-07  0.2799700E+04  0.7818609E-02  0.8303361E-01
        1   -1    0    0  501    0  0.00000000000E+00  0.00000000000E+00  0.11695821795E+04  0.11695821795E+04  0.50400001928E-02 0.  1.
       -1   -1    0    0    0  501  0.00000000000E+00  0.00000000000E+00 -0.16754534354E+04  0.16754534354E+04  0.50400001928E-02 0. -1.
    10030    2    1    2    0    0  0.00000000000E+00  0.00000000000E+00 -0.50587125587E+03  0.28450356149E+04  0.27997003273E+04 0.  0.
        3    1    3    3  502    0  0.27330183160E+03  0.48858784786E+03  0.10508713531E+04  0.11906899627E+04  0.10100000352E+00 0.  1.
       -3    1    3    3    0  502 -0.27330183160E+03 -0.48858784786E+03 -0.15567426090E+04  0.16543456522E+04  0.10100000352E+00 0. -1.
</event>
<event>
 5   0  0.1439207E-06  0.2793581E+04  0.7818609E-02  0.8305264E-01
       -2   -1    0    0    0  501  0.00000000000E+00  0.00000000000E+00  0.10097552258E+04  0.10097552258E+04  0.25500000920E-02 0.  1.
        2   -1    0    0  501    0  0.00000000000E+00  0.00000000000E+00 -0.19321743933E+04  0.19321743933E+04  0.25500000920E-02 0. -1.
    10030    2    1    2    0    0  0.00000000000E+00  0.00000000000E+00 -0.92241916744E+03  0.29419296191E+04  0.27935806348E+04 0.  0.
        5    1    3    3  502    0 -0.31272301231E+03  0.49858120298E+03  0.87279544201E+03  0.10526979016E+04  0.46999998093E+01 0.  1.
       -5    1    3    3    0  502  0.31272301231E+03 -0.49858120298E+03 -0.17952146095E+04  0.18892317175E+04  0.46999998093E+01 0. -1.
</event>
<event>
 5   0  0.5214658E-07  0.2798258E+04  0.7818609E-02  0.8303809E-01
       -1   -1    0    0    0  501  0.00000000000E+00  0.00000000000E+00  0.14027559879E+04  0.14027559879E+04  0.50400001928E-02 0. -1.
        1   -1    0    0  501    0  0.00000000000E+00  0.00000000000E+00 -0.13955116873E+04  0.13955116873E+04  0.50400001928E-02 0.  1.
    10030    2    1    2    0    0  0.00000000000E+00  0.00000000000E+00  0.72443006706E+01  0.27982676752E+04  0.27982582980E+04 0.  0.
        2    1    3    3  502    0 -0.13696527027E+04  0.28553738558E+03  0.12691418537E+02  0.13991573166E+04  0.25500000920E-02 0. -1.
       -2    1    3    3    0  502  0.13696527027E+04 -0.28553738558E+03 -0.54471178663E+01  0.13991103586E+04  0.25500000920E-02 0.  1.
</event>
<event>
 5   0  0.5297741E-07  0.2793274E+04  0.7818609E-02  0.8305360E-01
       -1   -1    0    0    0  501  0.00000000000E+00  0.00000000000E+00  0.12083835118E+04  0.12083835118E+04  0.50400001928E-02 0.  1.
        1   -1    0    0  501    0  0.00000000000E+00  0.00000000000E+00 -0.16142183688E+04  0.16142183688E+04  0.50400001928E-02 0. -1.
    10030    2    1    2    0    0  0.00000000000E+00  0.00000000000E+00 -0.40583485699E+03  0.28226018806E+04  0.27932739653E+04 0.  0.
        5    1    3    3  502    0  0.12856954589E+04  0.47421750484E+03  0.69501154489E+02  0.13721324846E+04  0.46999998093E+01 0.  1.
       -5    1    3    3    0  502 -0.12856954589E+04 -0.47421750484E+03 -0.47533601148E+03  0.14504693960E+04  0.46999998093E+01 0. -1.
</event>
<event>
 5   0  0.5297741E-07  0.2801848E+04  0.7818609E-02  0.8302695E-01
        1   -1    0    0  501    0  0.00000000000E+00  0.00000000000E+00  0.23725126823E+04  0.23725126823E+04  0.50400001928E-02 0. -1.
       -1   -1    0    0    0  501  0.00000000000E+00  0.00000000000E+00 -0.82721936642E+03  0.82721936643E+03  0.50400001928E-02 0.  1.
    10030    2    1    2    0    0  0.00000000000E+00  0.00000000000E+00  0.15452933158E+04  0.31997320487E+04  0.28018482742E+04 0.  0.
        5    1    3    3  502    0  0.88315059178E+02 -0.10476400985E+04 -0.28469268135E+03  0.10892296996E+04  0.46999998093E+01 0.  1.
       -5    1    3    3    0  502 -0.88315059178E+02  0.10476400985E+04  0.18299859972E+04  0.21105023491E+04  0.46999998093E+01 0. -1.
</event>
<event>
 5   0  0.1377807E-06  0.2798829E+04  0.7818609E-02  0.8303632E-01
        2   -1    0    0  501    0  0.00000000000E+00  0.00000000000E+00  0.16484646507E+04  0.16484646507E+04  0.25500000920E-02 0.  1.
       -2   -1    0    0    0  501  0.00000000000E+00  0.00000000000E+00 -0.11879912164E+04  0.11879912164E+04  0.25500000920E-02 0. -1.
    10030    2    1    2    0    0  0.00000000000E+00  0.00000000000E+00  0.46047343437E+03  0.28364558671E+04  0.27988294164E+04 0.  0.
        2    1    3    3  502    0 -0.11232714616E+04 -0.91104217998E+02  0.10710424598E+04  0.15547252831E+04  0.25500000920E-02 0. -1.
       -2    1    3    3    0  502  0.11232714616E+04  0.91104217998E+02 -0.61056902548E+03  0.12817305840E+04  0.25500000920E-02 0.  1.
</event>
<event>
 5   0  0.1377807E-06  0.2807576E+04  0.7818609E-02  0.8300920E-01
       -2   -1    0    0    0  501  0.00000000000E+00  0.00000000000E+00  0.11248199232E+04  0.11248199232E+04  0.25500000920E-02 0. -1.
        2   -1    0    0  501    0  0.00000000000E+00  0.00000000000E+00 -0.17519427424E+04  0.17519427424E+04  0.25500000920E-02 0.  1.
    10030    2    1    2    0    0  0.00000000000E+00  0.00000000000E+00 -0.62712281918E+03  0.28767626655E+04  0.28075755383E+04 0.  0.
        2    1    3    3  502    0  0.98049040944E+03 -0.96538734917E+03 -0.28707105774E+02  0.13762842275E+04  0.25500000920E-02 0. -1.
       -2    1    3    3    0  502 -0.98049040944E+03  0.96538734917E+03 -0.59841571341E+03  0.15004784380E+04  0.25500000920E-02 0.  1.
</event>
<event>
 5   0  0.1439207E-06  0.2824572E+04  0.7818609E-02  0.8295680E-01
       -2   -1    0    0    0  501  0.00000000000E+00  0.00000000000E+00  0.12794362549E+04  0.12794362549E+04  0.25500000920E-02 0.  1.
        2   -1    0    0  501    0  0.00000000000E+00  0.00000000000E+00 -0.15589296957E+04  0.15589296957E+04  0.25500000920E-02 0. -1.
    10030    2    1    2    0    0  0.00000000000E+00  0.00000000000E+00 -0.27949344077E+03  0.28383659507E+04  0.28245715934E+04 0.  0.
        5    1    3    3  502    0 -0.45925830915E+03  0.95557220686E+03 -0.10773051741E+04  0.15115042062E+04  0.46999998093E+01 0. -1.
       -5    1    3    3    0  502  0.45925830915E+03 -0.95557220686E+03  0.79781173337E+03  0.13268617445E+04  0.46999998093E+01 0.  1.
</event>
<event>
 5   0  0.1394410E-06  0.2799190E+04  0.7818609E-02  0.8303520E-01
       -2   -1    0    0    0  501  0.00000000000E+00  0.00000000000E+00  0.79168020196E+03  0.79168020196E+03  0.25500000920E-02 0. -1.
        2   -1    0    0  501    0  0.00000000000E+00  0.00000000000E+00 -0.24743155065E+04  0.24743155065E+04  0.25500000920E-02 0.  1.
    10030    2    1    2    0    0  0.00000000000E+00  0.00000000000E+00 -0.16826353045E+04  0.32659957084E+04  0.27991903114E+04 0.  0.
        4    1    3    3  502    0  0.66108148950E+01 -0.13690852684E+04 -0.50229916742E+03  0.14583361209E+04  0.12699999809E+01 0. -1.
       -4    1    3    3    0  502 -0.66108148950E+01  0.13690852684E+04 -0.11803361371E+04  0.18076595875E+04  0.12699999809E+01 0.  1.
</event>
<event>
 5   0  0.5362952E-07  0.2797355E+04  0.7818609E-02  0.8304090E-01
        1   -1    0    0  501    0  0.00000000000E+00  0.00000000000E+00  0.19485353608E+04  0.19485353608E+04  0.50400001928E-02 0. -1.
       -1   -1    0    0    0  501  0.00000000000E+00  0.00000000000E+00 -0.10039840442E+04  0.10039840442E+04  0.50400001928E-02 0.  1.
    10030    2    1    2    0    0  0.00000000000E+00  0.00000000000E+00  0.94455131661E+03  0.29525194050E+04  0.27973547589E+04 0.  0.
        1    1    3    3  502    0 -0.91034539318E+03  0.32559710379E+02 -0.64796840533E+03  0.11178783136E+04  0.50400001928E-02 0.  1.
       -1    1    3    3    0  502  0.91034539318E+03 -0.32559710379E+02  0.15925197219E+04  0.18346410914E+04  0.50400001928E-02 0. -1.
</event>
<event>
 5   0  0.1394410E-06  0.2801749E+04  0.7818609E-02  0.8302726E-01
       -2   -1    0    0    0  501  0.00000000000E+00  0.00000000000E+00  0.26166383166E+04  0.26166383166E+04  0.25500000920E-02 0.  1.
        2   -1    0    0  501    0  0.00000000000E+00  0.00000000000E+00 -0.74998866831E+03  0.74998866832E+03  0.25500000920E-02 0. -1.
    10030    2    1    2    0    0  0.00000000000E+00  0.00000000000E+00  0.18666496483E+04  0.33666269849E+04  0.28017488014E+04 0.  0.
        4    1    3    3  502    0  0.87763885073E+02  0.70005812617E+03 -0.52091069778E+03  0.87700253563E+03  0.12699999809E+01 0. -1.
       -4    1    3    3    0  502 -0.87763885073E+02 -0.70005812617E+03  0.23875603460E+04  0.24896244493E+04  0.12699999809E+01 0.  1.
</event>
<event>
 5   0  0.5282098E-07  0.2748584E+04  0.7818609E-02  0.8319411E-01
       -1   -1    0    0    0  501  0.00000000000E+00  0.00000000000E+00  0.75092625612E+03  0.75092625613E+03  0.50400001928E-02 0. -1.
        1   -1    0    0  501    0  0.00000000000E+00  0.00000000000E+00 -0.25151323193E+04  0.25151323193E+04  0.50400001928E-02 0.  1.
    10030    2    1    2    0    0  0.00000000000E+00  0.00000000000E+00 -0.17642060632E+04  0.32660585754E+04  0.27485842874E+04 0.  0.
        4    1    3    3  502    0  0.83168769738E+03  0.76697086623E+03  0.44997317523E+02  0.11322433957E+04  0.12699999809E+01 0. -1.
       -4    1    3    3    0  502 -0.83168769738E+03 -0.76697086623E+03 -0.18092033807E+04  0.21338151797E+04  0.12699999809E+01 0.  1.
</event>
<event>
 5   0  0.1461146E-06  0.2801280E+04  0.7818609E-02  0.8302871E-01
        2   -1    0    0  501    0  0.00000000000E+00  0.00000000000E+00  0.16762893113E+04  0.16762893113E+04  0.25500000920E-02 0.  1.
       -2   -1    0    0    0  501  0.00000000000E+00  0.00000000000E+00 -0.11703184641E+04  0.11703184641E+04  0.25500000920E-02 0. -1.
    10030    2    1    2    0    0  0.00000000000E+00  0.00000000000E+00  0.50597084718E+03  0.28466077754E+04  0.28012799447E+04 0.  0.
        1    1    3    3  502    0 -0.91739934494E+03  0.10404637449E+04  0.45004589390E+03  0.14583304389E+04  0.50400001928E-02 0.  1.
       -1    1    3    3    0  502  0.91739934494E+03 -0.10404637449E+04  0.55924953279E+02  0.13882773365E+04  0.50400001928E-02 0. -1.
</event>
<event>
 5   0  0.5551565E-07  0.2799298E+04  0.7818609E-02  0.8303486E-01
        1   -1    0    0  501    0  0.00000000000E+00  0.00000000000E+00  0.12866303716E+04  0.12866303716E+04  0.50400001928E-02 0. -1.
       -1   -1    0    0    0  501  0.00000000000E+00  0.00000000000E+00 -0.15225956144E+04  0.15225956144E+04  0.50400001928E-02 0.  1.
    10030    2    1    2    0    0  0.00000000000E+00  0.00000000000E+00 -0.23596524284E+03  0.28092259861E+04  0.27992983130E+04 0.  0.
        3    1    3    3  502    0  0.53712169862E+03 -0.64537950732E+03 -0.12417769562E+04  0.14990078208E+04  0.10100000352E+00 0.  1.
       -3    1    3    3    0  502 -0.53712169862E+03  0.64537950732E+03  0.10058117134E+04  0.13102181653E+04  0.10100000352E+00 0. -1.
</event>
<event>
 5   0  0.1499888E-06  0.2794950E+04  0.7818609E-02  0.8304838E-01
        2   -1    0    0  501    0  0.00000000000E+00  0.00000000000E+00  0.27601293119E+04  0.27601293119E+04  0.25500000920E-02 0.  1.
       -2   -1    0    0    0  501  0.00000000000E+00  0.00000000000E+00 -0.70755242798E+03  0.70755242798E+03  0.25500000920E-02 0. -1.
    10030    2    1    2    0    0  0.00000000000E+00  0.00000000000E+00  0.20525768839E+04  0.34676817399E+04  0.27949498716E+04 0.  0.
        3    1    3    3  502    0 -0.10609946604E+04  0.73620748271E+03  0.16889000621E+04  0.21260514004E+04  0.10100000352E+00 0.  1.
       -3    1    3    3    0  502  0.10609946604E+04 -0.73620748271E+03  0.36367682185E+03  0.13416303395E+04  0.10100000352E+00 0. -1.
</event>
<event>
 5   0  0.5297741E-07  0.2790823E+04  0.7818609E-02  0.8306123E-01
        1   -1    0    0  501    0  0.00000000000E+00  0.00000000000E+00  0.14203341764E+04  0.14203341764E+04  0.50400001928E-02 0.  1.
       -1   -1    0    0    0  501  0.00000000000E+00  0.00000000000E+00 -0.13709265015E+04  0.13709265015E+04  0.50400001928E-02 0. -1.
    10030    2    1    2    0    0  0.00000000000E+00  0.00000000000E+00  0.49407674965E+02  0.27912606779E+04  0.27908233648E+04 0.  0.
        5    1    3    3  502    0  0.55398168378E+03  0.10509334540E+04  0.75679862004E+03  0.14085890358E+04  0.46999998093E+01 0.  1.
       -5    1    3    3    0  502 -0.55398168378E+03 -0.10509334540E+04 -0.70739094507E+03  0.13826716421E+04  0.46999998093E+01 0. -1.
</event>
<event>
 5   0  0.1461146E-06  0.2796097E+04  0.7818609E-02  0.8304481E-01
        2   -1    0    0  501    0  0.00000000000E+00  0.00000000000E+00  0.22101246359E+04  0.22101246359E+04  0.25500000920E-02 0. -1.
       -2   -1    0    0    0  501  0.00000000000E+00  0.00000000000E+00 -0.88435718228E+03  0.88435718229E+03  0.25500000920E-02 0.  1.
    10030    2    1    2    0    0  0.00000000000E+00  0.00000000000E+00  0.13257674536E+04  0.30944818182E+04  0.27960969908E+04 0.  0.
        1    1    3    3  502    0 -0.12038804700E+04 -0.35986075613E+03 -0.15480646907E+02  0.12566095656E+04  0.50400001928E-02 0.  1.
       -1    1    3    3    0  502  0.12038804700E+04  0.35986075613E+03  0.13412481005E+04  0.18378722526E+04  0.50400001928E-02 0. -1.
</event>
<event>
 5   0  0.1499888E-06  0.2794029E+04  0.7818609E-02  0.8305124E-01
       -2   -1    0    0    0  501  0.00000000000E+00  0.00000000000E+00  0.16296697205E+04  0.16296697205E+04  0.25500000920E-02 0.  1.
        2   -1    0    0  501    0  0.00000000000E+00  0.00000000000E+00 -0.11975738573E+04  0.11975738573E+04  0.25500000920E-02 0. -1.
    10030    2    1    2    0    0  0.00000000000E+00  0.00000000000E+00  0.43209586318E+03  0.28272435778E+04  0.27940292435E+04 0.  0.
        3    1    3    3  502    0  0.13398429204E+04 -0.24417615352E+03 -0.98856952187E+02  0.13654939592E+04  0.10100000352E+00 0. -1.
       -3    1    3    3    0  502 -0.13398429204E+04  0.24417615352E+03  0.53095281537E+03  0.14617496187E+04  0.10100000352E+00 0.  1.
</event>
<event>
 5   0  0.4710000E-07  0.2792690E+04  0.7818609E-02  0.8305541E-01
       -3   -1    0    0    0  501  0.00000000000E+00  0.00000000000E+00  0.83728223961E+03  0.83728224570E+03  0.10100000352E+00 0.  1.
        3   -1    0    0  501    0  0.00000000000E+00  0.00000000000E+00 -0.23287003974E+04  0.23287003996E+04  0.10100000352E+00 0. -1.
    10030    2    1    2    0    0  0.00000000000E+00  0.00000000000E+00 -0.14914181578E+04  0.31659826453E+04  0.27926900990E+04 0.  0.
        4    1    3    3  502    0 -0.10943392140E+04  0.46683182131E+03  0.82929619422E+02  0.11926395932E+04  0.12699999809E+01 0.  1.
       -4    1    3    3    0  502  0.10943392140E+04 -0.46683182131E+03 -0.15743477772E+04  0.19733430521E+04  0.12699999809E+01 0. -1.
</event>
<event>
 5   0  0.5282098E-07  0.2802531E+04  0.7818609E-02  0.8302483E-01
       -1   -1    0    0    0  501  0.00000000000E+00  0.00000000000E+00  0.15568476327E+04  0.15568476327E+04  0.50400001928E-02 0.  1.
        1   -1    0    0  501    0  0.00000000000E+00  0.00000000000E+00 -0.12612312570E+04  0.12612312570E+04  0.50400001928E-02 0. -1.
    10030    2    1    2    0    0  0.00000000000E+00  0.00000000000E+00  0.29561637571E+03  0.28180788897E+04  0.28025309252E+04 0.  0.
        4    1    3    3  502    0  0.13923758251E+04  0.13341262766E+03  0.23214192175E+03  0.14178860505E+04  0.12699999809E+01 0.  1.
       -4    1    3    3    0  502 -0.13923758251E+04 -0.13341262766E+03  0.63474453959E+02  0.14001928391E+04  0.12699999809E+01 0. -1.
</event>
<event>
 5   0  0.5214658E-07  0.2799275E+04  0.7818609E-02  0.8303493E-01
       -1   -1    0    0    0  501  0.00000000000E+00  0.00000000000E+00  0.12761443156E+04  0.12761443156E+04  0.50400001928E-02 0.  1.
        1   -1    0    0  501    0  0.00000000000E+00  0.00000000000E+00 -0.15350816809E+04  0.15350816809E+04  0.50400001928E-02 0. -1.
    10030    2    1    2    0    0  0.00000000000E+00  0.00000000000E+00 -0.25893736527E+03  0.28112259965E+04  0.27992754499E+04 0.  0.
        2    1    3    3  502    0 -0.55163023594E+03  0.88558782442E+03  0.80747948413E+03  0.13193122562E+04  0.25500000920E-02 0.  1.
       -2    1    3    3    0  502  0.55163023594E+03 -0.88558782442E+03 -0.10664168494E+04  0.14919137404E+04  0.25500000920E-02 0. -1.
</event>
<event>
 5   0  0.1394410E-06  0.2801425E+04  0.7818609E-02  0.8302826E-01
        2   -1    0    0  501    0  0.00000000000E+00  0.00000000000E+00  0.19953643226E+04  0.19953643226E+04  0.25500000920E-02 0. -1.
       -2   -1    0    0    0  501  0.00000000000E+00  0.00000000000E+00 -0.98327681437E+03  0.98327681437E+03  0.25500000920E-02 0.  1.
    10030    2    1    2    0    0  0.00000000000E+00  0.00000000000E+00  0.10120875082E+04  0.29786411369E+04  0.28014249764E+04 0.  0.
        4    1    3    3  502    0  0.75274019946E+03  0.60524991495E+03  0.15846355898E+04  0.18558062487E+04  0.12699999809E+01 0. -1.
       -4    1    3    3    0  502 -0.75274019946E+03 -0.60524991495E+03 -0.57254808163E+03  0.11228348882E+04  0.12699999809E+01 0.  1.
</event>
<event>
 5   0  0.1461146E-06  0.2803659E+04  0.7818609E-02  0.8302133E-01
       -2   -1    0    0    0  501  0.00000000000E+00  0.00000000000E+00  0.72454273604E+03  0.72454273605E+03  0.25500000920E-02 0.  1.
        2   -1    0    0  501    0  0.00000000000E+00  0.00000000000E+00 -0.27122291271E+04  0.27122291271E+04  0.25500000920E-02 0. -1.
    10030    2    1    2    0    0  0.00000000000E+00  0.00000000000E+00 -0.19876863910E+04  0.34367718631E+04  0.28036589754E+04 0.  0.
        1    1    3    3  502    0 -0.26175908281E+03 -0.10644776200E+04  0.77253688053E+02  0.10989078912E+04  0.50400001928E-02 0.  1.
       -1    1    3    3    0  502  0.26175908281E+03  0.10644776200E+04 -0.20649400791E+04  0.23378639719E+04  0.50400001928E-02 0. -1.
</event>
<event>
 5   0  0.5362952E-07  0.2800055E+04  0.7818609E-02  0.8303251E-01
       -1   -1    0    0    0  501  0.00000000000E+00  0.00000000000E+00  0.10519868010E+04  0.10519868010E+04  0.50400001928E-02 0.  1.
        1   -1    0    0  501    0  0.00000000000E+00  0.00000000000E+00 -0.18632143103E+04  0.18632143103E+04  0.50400001928E-02 0. -1.
    10030    2    1    2    0    0  0.00000000000E+00  0.00000000000E+00 -0.81122750936E+03  0.29152011113E+04  0.28000549008E+04 0.  0.
        1    1    3    3  502    0  0.10853108427E+04 -0.54343135411E+03 -0.11320606016E+04  0.16597525321E+04  0.50400001928E-02 0. -1.
       -1    1    3    3    0  502 -0.10853108427E+04  0.54343135411E+03  0.32083309226E+03  0.12554485792E+04  0.50400001928E-02 0.  1.
</event>
<event>
 5   0  0.1439207E-06  0.2797510E+04  0.7818609E-02  0.8304042E-01
        2   -1    0    0  501    0  0.00000000000E+00  0.00000000000E+00  0.12449903553E+04  0.12449903553E+04  0.25500000920E-02 0.  1.
       -2   -1    0    0    0  501  0.00000000000E+00  0.00000000000E+00 -0.15715108450E+04  0.15715108450E+04  0.25500000920E-02 0. -1.
    10030    2    1    2    0    0  0.00000000000E+00  0.00000000000E+00 -0.32652048972E+03  0.28165012003E+04  0.27975102110E+04 0.  0.
        5    1    3    3  502    0 -0.16150422031E+02  0.11020384541E+04 -0.10303525446E+04  0.15087736897E+04  0.46999998093E+01 0. -1.
       -5    1    3    3    0  502  0.16150422031E+02 -0.11020384541E+04  0.70383205491E+03  0.13077275106E+04  0.46999998093E+01 0.  1.
</event>
<event>
 5   0  0.5282098E-07  0.2805059E+04  0.7818609E-02  0.8301699E-01
        1   -1    0    0  501    0  0.00000000000E+00  0.00000000000E+00  0.13410622095E+04  0.13410622095E+04  0.50400001928E-02 0. -1.
       -1   -1    0    0    0  501  0.00000000000E+00  0.00000000000E+00 -0.14668146012E+04  0.14668146012E+04  0.50400001928E-02 0.  1.
    10030    2    1    2    0    0  0.00000000000E+00  0.00000000000E+00 -0.12575239174E+03  0.28078768107E+04  0.28050594503E+04 0.  0.
        4    1    3    3  502    0  0.70115980080E+02 -0.83231666997E+02  0.13368287250E+04  0.13412518085E+04  0.12699999809E+01 0. -1.
       -4    1    3    3    0  502 -0.70115980080E+02  0.83231666997E+02 -0.14625811167E+04  0.14666250021E+04  0.12699999809E+01 0.  1.
</event>
<event>
 5   0  0.5551565E-07  0.2783035E+04  0.7818609E-02  0.8308555E-01
        1   -1    0    0  501    0  0.00000000000E+00  0.00000000000E+00  0.12048712833E+04  0.12048712833E+04  0.50400001928E-02 0.  1.
       -1   -1    0    0    0  501  0.00000000000E+00  0.00000000000E+00 -0.16070765980E+04  0.16070765980E+04  0.50400001928E-02 0. -1.
    10030    2    1    2    0    0  0.00000000000E+00  0.00000000000E+00 -0.40220531470E+03  0.28119478812E+04  0.27830346336E+04 0.  0.
        3    1    3    3  502    0  0.64624590658E+03 -0.56275321173E+03  0.90664304511E+03  0.12475281843E+04  0.10100000352E+00 0.  1.
       -3    1    3    3    0  502 -0.64624590658E+03  0.56275321173E+03 -0.13088483598E+04  0.15644196970E+04  0.10100000352E+00 0. -1.
</event>
<event>
 5   0  0.5214658E-07  0.2795502E+04  0.7818609E-02  0.8304666E-01
       -1   -1    0    0    0  501  0.00000000000E+00  0.00000000000E+00  0.11198607848E+04  0.11198607849E+04  0.50400001928E-02 0. -1.
        1   -1    0    0  501    0  0.00000000000E+00  0.00000000000E+00 -0.17445989018E+04  0.17445989018E+04  0.50400001928E-02 0.  1.
    10030    2    1    2    0    0  0.00000000000E+00  0.00000000000E+00 -0.62473811692E+03  0.28644596866E+04  0.27955020267E+04 0.  0.
        2    1    3    3  502    0  0.34190801480E+03 -0.82538608757E+03  0.78911004236E+03  0.11919974594E+04  0.25500000920E-02 0. -1.
       -2    1    3    3    0  502 -0.34190801480E+03  0.82538608757E+03 -0.14138481593E+04  0.16724622273E+04  0.25500000920E-02 0.  1.
</event>
<event>
 5   0  0.1394410E-06  0.2796830E+04  0.7818609E-02  0.8304253E-01
       -2   -1    0    0    0  501  0.00000000000E+00  0.00000000000E+00  0.16768769010E+04  0.16768769010E+04  0.25500000920E-02 0. -1.
        2   -1    0    0  501    0  0.00000000000E+00  0.00000000000E+00 -0.11661947711E+04  0.11661947712E+04  0.25500000920E-02 0.  1.
    10030    2    1    2    0    0  0.00000000000E+00  0.00000000000E+00  0.51068212989E+03  0.28430716722E+04  0.27968304016E+04 0.  0.
        4    1    3    3  502    0  0.77172004317E+03 -0.10859096427E+04 -0.17690909418E+03  0.13438936036E+04  0.12699999809E+01 0.  1.
       -4    1    3    3    0  502 -0.77172004317E+03  0.10859096427E+04  0.68759122408E+03  0.14991780686E+04  0.12699999809E+01 0. -1.
</event>
<event>
 5   0  0.5362952E-07  0.2800989E+04  0.7818609E-02  0.8302961E-01
       -1   -1    0    0    0  501  0.00000000000E+00  0.00000000000E+00  0.91877765070E+03  0.91877765072E+03  0.50400001928E-02 0.  1.
        1   -1    0    0  501    0  0.00000000000E+00  0.00000000000E+00 -0.21347765933E+04  0.21347765933E+04  0.50400001928E-02 0. -1.
    10030    2    1    2    0    0  0.00000000000E+00  0.00000000000E+00 -0.12159989426E+04  0.30535542440E+04  0.28009891275E+04 0.  0.
        1    1    3    3  502    0  0.79978711006E+03  0.25459957144E+03 -0.18302082096E+04  0.20134901176E+04  0.50400001928E-02 0. -1.
       -1    1    3    3    0  502 -0.79978711006E+03 -0.25459957144E+03  0.61420926705E+03  0.10400641264E+04  0.50400001928E-02 0.  1.
</event>
<event>
 5   0  0.5551565E-07  0.2799439E+04  0.7818609E-02  0.8303442E-01
        1   -1    0    0  501    0  0.00000000000E+00  0.00000000000E+00  0.20446584522E+04  0.20446584522E+04  0.50400001928E-02 0.  1.
       -1   -1    0    0    0  501  0.00000000000E+00  0.00000000000E+00 -0.95821142699E+03  0.95821142701E+03  0.50400001928E-02 0. -1.
    10030    2    1    2    0    0  0.00000000000E+00  0.00000000000E+00  0.10864470252E+04  0.30028698792E+04  0.27994392962E+04 0.  0.
        3    1    3    3  502    0  0.20981931202E+03 -0.24739818927E+03  0.20037807328E+04  0.20298687749E+04  0.10100000352E+00 0.  1.
       -3    1    3    3    0  502 -0.20981931202E+03  0.24739818927E+03 -0.91733370761E+03  0.97300110435E+03  0.10100000352E+00 0. -1.
</event>
<event>
 5   0  0.1377807E-06  0.2797410E+04  0.7818609E-02  0.8304073E-01
       -2   -1    0    0    0  501  0.00000000000E+00  0.00000000000E+00  0.25812011562E+04  0.25812011562E+04  0.25500000920E-02 0. -1.
        2   -1    0    0  501    0  0.00000000000E+00  0.00000000000E+00 -0.75793242359E+03  0.75793242359E+03  0.25500000920E-02 0.  1.
    10030    2    1    2    0    0  0.00000000000E+00  0.00000000000E+00  0.18232687326E+04  0.33391335798E+04  0.27974102653E+04 0.  0.
        2    1    3    3  502    0 -0.98409394761E+03 -0.82590134050E+03  0.15717379347E+04  0.20300034624E+04  0.25500000920E-02 0. -1.
       -2    1    3    3    0  502  0.98409394761E+03  0.82590134050E+03  0.25153079793E+03  0.13091301174E+04  0.25500000920E-02 0.  1.
</event>
<event>
 5   0  0.1394410E-06  0.2801859E+04  0.7818609E-02  0.8302691E-01
       -2   -1    0    0    0  501  0.00000000000E+00  0.00000000000E+00  0.83238608784E+03  0.83238608785E+03  0.25500000920E-02 0. -1.
        2   -1    0    0  501    0  0.00000000000E+00  0.00000000000E+00 -0.23578040443E+04  0.23578040443E+04  0.25500000920E-02 0.  1.
    10030    2    1    2    0    0  0.00000000000E+00  0.00000000000E+00 -0.15254179565E+04  0.31901901322E+04  0.28018588718E+04 0.  0.
        4    1    3    3  502    0  0.13888568118E+03  0.60384399950E+03  0.66789040505E+03  0.91104117043E+03  0.12699999809E+01 0. -1.
       -4    1    3    3    0  502 -0.13888568118E+03 -0.60384399950E+03 -0.21933083615E+04  0.22791489617E+04  0.12699999809E+01 0.  1.
</event>
<event>
 5   0  0.5297741E-07  0.2808235E+04  0.7818609E-02  0.8300716E-01
       -1   -1    0    0    0  501  0.00000000000E+00  0.00000000000E+00  0.18977256660E+04  0.18977256660E+04  0.50400001928E-02 0. -1.
        1   -1    0    0  501    0  0.00000000000E+00  0.00000000000E+00 -0.10388993419E+04  0.10388993419E+04  0.50400001928E-02 0.  1.
    10030    2    1    2    0    0  0.00000000000E+00  0.00000000000E+00  0.85882632412E+03  0.29366250079E+04  0.28082349941E+04 0.  0.
        5    1    3    3  502    0  0.93485712808E+03 -0.27765011284E+03 -0.62695799071E+03  0.11593730406E+04  0.46999998093E+01 0.  1.
       -5    1    3    3    0  502 -0.93485712808E+03  0.27765011284E+03  0.14857843148E+04  0.17772519673E+04  0.46999998093E+01 0. -1.
</event>
<event>
 5   0  0.1394410E-06  0.2808993E+04  0.7818609E-02  0.8300482E-01
        2   -1    0    0  501    0  0.00000000000E+00  0.00000000000E+00  0.19576788850E+04  0.19576788850E+04  0.25500000920E-02 0.  1.
       -2   -1    0    0    0  501  0.00000000000E+00  0.00000000000E+00 -0.10076272565E+04  0.10076272565E+04  0.25500000920E-02 0. -1.
    10030    2    1    2    0    0  0.00000000000E+00  0.00000000000E+00  0.95005162851E+03  0.29653061414E+04  0.28089931320E+04 0.  0.
        4    1    3    3  502    0 -0.42329567124E+03  0.66482285787E+03  0.17022313278E+04  0.18758362839E+04  0.12699999809E+01 0.  1.
       -4    1    3    3    0  502  0.42329567124E+03 -0.66482285787E+03 -0.75217969929E+03  0.10894698576E+04  0.12699999809E+01 0. -1.
</event>
<event>
 5   0  0.5214658E-07  0.2792077E+04  0.7818609E-02  0.8305732E-01
        1   -1    0    0  501    0  0.00000000000E+00  0.00000000000E+00  0.12573042227E+04  0.12573042228E+04  0.50400001928E-02 0.  1.
       -1   -1    0    0    0  501  0.00000000000E+00  0.00000000000E+00 -0.15500808400E+04  0.15500808400E+04  0.50400001928E-02 0. -1.
    10030    2    1    2    0    0  0.00000000000E+00  0.00000000000E+00 -0.29277661728E+03  0.28073850628E+04  0.27920767796E+04 0.  0.
        2    1    3    3  502    0  0.72177766403E+03  0.11316967814E+04  0.23941135670E+03  0.13634582499E+04  0.25500000920E-02 0.  1.
       -2    1    3    3    0  502 -0.72177766403E+03 -0.11316967814E+04 -0.53218797398E+03  0.14439268129E+04  0.25500000920E-02 0. -1.
</event>
<event>
 5   0  0.1439207E-06  0.2798055E+04  0.7818609E-02  0.8303872E-01
        2   -1    0    0  501    0  0.00000000000E+00  0.00000000000E+00  0.18383082981E+04  0.18383082981E+04  0.25500000920E-02 0. -1.
       -2   -1    0    0    0  501  0.00000000000E+00  0.00000000000E+00 -0.10647171626E+04  0.10647171626E+04  0.25500000920E-02 0.  1.
    10030    2    1    2    0    0  0.00000000000E+00  0.00000000000E+00  0.77359113550E+03  0.29030254607E+04  0.27980553212E+04 0.  0.
        5    1    3    3  502    0  0.11196250185E+04  0.34427869220E+03  0.11804563953E+04  0.16630055295E+04  0.46999998093E+01 0. -1.
       -5    1    3    3    0  502 -0.11196250185E+04 -0.34427869220E+03 -0.40686525979E+03  0.12400199311E+04  0.46999998093E+01 0.  1.
</event>
<event>
 5   0  0.5282098E-07  0.2804885E+04  0.7818609E-02  0.8301753E-01
        1   -1    0    0  501    0  0.00000000000E+00  0.00000000000E+00  0.13460043875E+04  0.13460043875E+04  0.50400001928E-02 0. -1.
       -1   -1    0    0    0  501  0.00000000000E+00  0.00000000000E+00 -0.14612466772E+04  0.14612466772E+04  0.50400001928E-02 0.  1.
    10030    2    1    2    0    0  0.00000000000E+00  0.00000000000E+00 -0.11524228963E+03  0.28072510647E+04  0.28048846242E+04 0.  0.
        4    1    3    3  502    0  0.12905760114E+04  0.51751555316E+02  0.48926292495E+03  0.13811750387E+04  0.12699999809E+01 0. -1.
       -4    1    3    3    0  502 -0.12905760114E+04 -0.51751555316E+02 -0.60450521458E+03  0.14260760261E+04  0.12699999809E+01 0.  1.
</event>
<event>
 5   0  0.1499888E-06  0.2791638E+04  0.7818609E-02  0.8305869E-01
        2   -1    0    0  501    0  0.00000000000E+00  0.00000000000E+00  0.14874752107E+04  0.14874752107E+04  0.25500000920E-02 0.  1.
       -2   -1    0    0    0  501  0.00000000000E+00  0.00000000000E+00 -0.13098108177E+04  0.13098108177E+04  0.25500000920E-02 0. -1.
    10030    2    1    2    0    0  0.00000000000E+00  0.00000000000E+00  0.17766439305E+03  0.27972860284E+04  0.27916383162E+04 0.  0.
        3    1    3    3  502    0  0.13849350914E+04 -0.54799948311E+02  0.25428095535E+03  0.14091511828E+04  0.10100000352E+00 0.  1.
       -3    1    3    3    0  502 -0.13849350914E+04  0.54799948311E+02 -0.76616562298E+02  0.13881348456E+04  0.10100000352E+00 0. -1.
</event>
<event>
 5   0  0.5214658E-07  0.2792021E+04  0.7818609E-02  0.8305750E-01
       -1   -1    0    0    0  501  0.00000000000E+00  0.00000000000E+00  0.10127808537E+04  0.10127808537E+04  0.50400001928E-02 0.  1.
        1   -1    0    0  501    0  0.00000000000E+00  0.00000000000E+00 -0.19242522060E+04  0.19242522060E+04  0.50400001928E-02 0. -1.
    10030    2    1    2    0    0  0.00000000000E+00  0.00000000000E+00 -0.91147135230E+03  0.29370330598E+04  0.27920213409E+04 0.  0.
        2    1    3    3  502    0 -0.58897855679E+03  0.12300512529E+04 -0.14204651276E+03  0.13711670346E+04  0.25500000920E-02 0.  1.
       -2    1    3    3    0  502  0.58897855679E+03 -0.12300512529E+04 -0.76942483955E+03  0.15658660252E+04  0.25500000920E-02 0. -1.
</event>
<event>
 5   0  0.1377807E-06  0.2795274E+04  0.7818609E-02  0.8304737E-01
        2   -1    0    0  501    0  0.00000000000E+00  0.00000000000E+00  0.19247935847E+04  0.19247935847E+04  0.25500000920E-02 0. -1.
       -2   -1    0    0    0  501  0.00000000000E+00  0.00000000000E+00 -0.10148564539E+04  0.10148564539E+04  0.25500000920E-02 0.  1.
    10030    2    1    2    0    0  0.00000000000E+00  0.00000000000E+00  0.90993713079E+03  0.29396500386E+04  0.27952740057E+04 0.  0.
        2    1    3    3  502    0  0.10672508188E+04  0.85402802900E+03  0.14836070732E+03  0.13749178463E+04  0.25500000920E-02 0.  1.
       -2    1    3    3    0  502 -0.10672508188E+04 -0.85402802900E+03  0.76157642347E+03  0.15647321922E+04  0.25500000920E-02 0. -1.
</event>
<event>
 5   0  0.4710000E-07  0.2799213E+04  0.7818609E-02  0.8303513E-01
        3   -1    0    0  501    0  0.00000000000E+00  0.00000000000E+00  0.13507055094E+04  0.13507055132E+04  0.10100000352E+00 0.  1.
       -3   -1    0    0    0  501  0.00000000000E+00  0.00000000000E+00 -0.14502781318E+04  0.14502781353E+04  0.10100000352E+00 0. -1.
    10030    2    1    2    0    0  0.00000000000E+00  0.00000000000E+00 -0.99572622329E+02  0.28009836485E+04  0.27992132273E+04 0.  0.
        5    1    3    3  502    0 -0.13089267455E+04  0.21876294169E+03 -0.49473611680E+03  0.14163094171E+04  0.46999998093E+01 0. -1.
       -5    1    3    3    0  502  0.13089267455E+04 -0.21876294169E+03  0.39516349447E+03  0.13846742314E+04  0.46999998093E+01 0.  1.
</event>
<event>
 5   0  0.1394410E-06  0.2801614E+04  0.7818609E-02  0.8302768E-01
        2   -1    0    0  501    0  0.00000000000E+00  0.00000000000E+00  0.67013307816E+03  0.67013307817E+03  0.25500000920E-02 0. -1.
       -2   -1    0    0    0  501  0.00000000000E+00  0.00000000000E+00 -0.29281640031E+04  0.29281640031E+04  0.25500000920E-02 0.  1.
    10030    2    1    2    0    0  0.00000000000E+00  0.00000000000E+00 -0.22580309249E+04  0.35982970813E+04  0.28016135042E+04 0.  0.
        4    1    3    3  502    0  0.57309681723E+03  0.42390561078E+03  0.41976270971E+03  0.82724740805E+03  0.12699999809E+01 0. -1.
       -4    1    3    3    0  502 -0.57309681723E+03 -0.42390561078E+03 -0.26777936346E+04  0.27710496732E+04  0.12699999809E+01 0.  1.
</event>
<event>
 5   0  0.1439207E-06  0.2827636E+04  0.7818609E-02  0.8294739E-01
        2   -1    0    0  501    0  0.00000000000E+00  0.00000000000E+00  0.14866011303E+04  0.14866011303E+04  0.25500000920E-02 0.  1.
       -2   -1    0    0    0  501  0.00000000000E+00  0.00000000000E+00 -0.13445987447E+04  0.13445987447E+04  0.25500000920E-02 0. -1.
    10030    2    1    2    0    0  0.00000000000E+00  0.00000000000E+00  0.14200238557E+03  0.28311998750E+04  0.28276364786E+04 0.  0.
        5    1    3    3  502    0 -0.42567383847E+03 -0.32047892614E+03  0.13822143989E+04  0.14813654827E+04  0.46999998093E+01 0.  1.
       -5    1    3    3    0  502  0.42567383847E+03  0.32047892614E+03 -0.12402120133E+04  0.13498343924E+04  0.46999998093E+01 0. -1.
</event>
<event>
 5   0  0.5282098E-07  0.2799709E+04  0.7818609E-02  0.8303359E-01
       -1   -1    0    0    0  501  0.00000000000E+00  0.00000000000E+00  0.18412599049E+04  0.18412599049E+04  0.50400001928E-02 0. -1.
        1   -1    0    0  501    0  0.00000000000E+00  0.00000000000E+00 -0.10642671392E+04  0.10642671392E+04  0.50400001928E-02 0.  1.
    10030    2    1    2    0    0  0.00000000000E+00  0.00000000000E+00  0.77699276567E+03  0.29055270441E+04  0.27997088503E+04 0.  0.
        4    1    3    3  502    0  0.62730823201E+03  0.11441317647E+04  0.91464744702E+03  0.15934662463E+04  0.12699999809E+01 0.  1.
       -4    1    3    3    0  502 -0.62730823201E+03 -0.11441317647E+04 -0.13765468135E+03  0.13120607978E+04  0.12699999809E+01 0. -1.
</event>
<event>
 5   0  0.5214658E-07  0.2810413E+04  0.7818609E-02  0.8300043E-01
       -1   -1    0    0    0  501  0.00000000000E+00  0.00000000000E+00  0.13247736188E+04  0.13247736188E+04  0.50400001928E-02 0.  1.
        1   -1    0    0  501    0  0.00000000000E+00  0.00000000000E+00 -0.14905223078E+04  0.14905223078E+04  0.50400001928E-02 0. -1.
    10030    2    1    2    0    0  0.00000000000E+00  0.00000000000E+00 -0.16574868901E+03  0.28152959265E+04  0.28104125188E+04 0.  0.
        2    1    3    3  502    0  0.10088770980E+04 -0.97799545584E+03 -0.10012405068E+03  0.14086635283E+04  0.25500000920E-02 0. -1.
       -2    1    3    3    0  502 -0.10088770980E+04  0.97799545584E+03 -0.65624638336E+02  0.14066323982E+04  0.25500000920E-02 0.  1.
</event>
<event>
 5   0  0.1439207E-06  0.2805449E+04  0.7818609E-02  0.8301579E-01
        2   -1    0    0  501    0  0.00000000000E+00  0.00000000000E+00  0.12894689404E+04  0.12894689404E+04  0.25500000920E-02 0. -1.
       -2   -1    0    0    0  501  0.00000000000E+00  0.00000000000E+00 -0.15259277195E+04  0.15259277195E+04  0.25500000920E-02 0.  1.
    10030    2    1    2    0    0  0.00000000000E+00  0.00000000000E+00 -0.23645877917E+03  0.28153966599E+04  0.28054492685E+04 0.  0.
        5    1    3    3  502    0 -0.13828924211E+04 -0.19107229360E+03  0.19055666773E+02  0.13961680695E+04  0.46999998093E+01 0. -1.
       -5    1    3    3    0  502  0.13828924211E+04  0.19107229360E+03 -0.25551444594E+03  0.14192285904E+04  0.46999998093E+01 0.  1.
</event>
<event>
 5   0  0.5551565E-07  0.2800969E+04  0.7818609E-02  0.8302968E-01
        1   -1    0    0  501    0  0.00000000000E+00  0.00000000000E+00  0.13875773422E+04  0.13875773423E+04  0.50400001928E-02 0.  1.
       -1   -1    0    0    0  501  0.00000000000E+00  0.00000000000E+00 -0.14135112224E+04  0.14135112224E+04  0.50400001928E-02 0. -1.
    10030    2    1    2    0    0  0.00000000000E+00  0.00000000000E+00 -0.25933880127E+02  0.28010885646E+04  0.28009685076E+04 0.  0.
        3    1    3    3  502    0 -0.73740708622E+02 -0.22884316602E+03 -0.13927177995E+04  0.14133187065E+04  0.10100000352E+00 0. -1.
       -3    1    3    3    0  502  0.73740708622E+02  0.22884316602E+03  0.13667839194E+04  0.13877698582E+04  0.10100000352E+00 0.  1.
</event>
<event>
 5   0  0.1461146E-06  0.2805692E+04  0.7818609E-02  0.8301503E-01
       -2   -1    0    0    0  501  0.00000000000E+00  0.00000000000E+00  0.10829413322E+04  0.10829413322E+04  0.25500000920E-02 0.  1.
        2   -1    0    0  501    0  0.00000000000E+00  0.00000000000E+00 -0.18172515085E+04  0.18172515085E+04  0.25500000920E-02 0. -1.
    10030    2    1    2    0    0  0.00000000000E+00  0.00000000000E+00 -0.73431017623E+03  0.29001928407E+04  0.28056919072E+04 0.  0.
        1    1    3    3  502    0  0.54554818050E+03 -0.19827485884E+03 -0.16872931117E+04  0.17843468782E+04  0.50400001928E-02 0. -1.
       -1    1    3    3    0  502 -0.54554818050E+03  0.19827485884E+03  0.95298293543E+03  0.11158459626E+04  0.50400001928E-02 0.  1.
</event>
<event>
 5   0  0.5362952E-07  0.2803931E+04  0.7818609E-02  0.8302049E-01
        1   -1    0    0  501    0  0.00000000000E+00  0.00000000000E+00  0.12329608427E+04  0.12329608427E+04  0.50400001928E-02 0. -1.
       -1   -1    0    0    0  501  0.00000000000E+00  0.00000000000E+00 -0.15941358789E+04  0.15941358789E+04  0.50400001928E-02 0.  1.
    10030    2    1    2    0    0  0.00000000000E+00  0.00000000000E+00 -0.36117503626E+03  0.28270967216E+04  0.28039308954E+04 0.  0.
        1    1    3    3  502    0 -0.10765216854E+04 -0.87160928927E+03  0.37778419831E+02  0.13856510749E+04  0.50400001928E-02 0. -1.
       -1    1    3    3    0  502  0.10765216854E+04  0.87160928927E+03 -0.39895345609E+03  0.14414456467E+04  0.50400001928E-02 0.  1.
</event>
<event>
 5   0  0.1461146E-06  0.2795192E+04  0.7818609E-02  0.8304763E-01
        2   -1    0    0  501    0  0.00000000000E+00  0.00000000000E+00  0.12863381846E+04  0.12863381846E+04  0.25500000920E-02 0. -1.
       -2   -1    0    0    0  501  0.00000000000E+00  0.00000000000E+00 -0.15184763068E+04  0.15184763068E+04  0.25500000920E-02 0.  1.
    10030    2    1    2    0    0  0.00000000000E+00  0.00000000000E+00 -0.23213812215E+03  0.28048144914E+04  0.27951916255E+04 0.  0.
        1    1    3    3  502    0 -0.12601671882E+04  0.38660572610E+03  0.35006080671E+03  0.13638283976E+04  0.50400001928E-02 0. -1.
       -1    1    3    3    0  502  0.12601671882E+04 -0.38660572610E+03 -0.58219892886E+03  0.14409860938E+04  0.50400001928E-02 0.  1.
</event>
<event>
 5   0  0.1461146E-06  0.2801911E+04  0.7818609E-02  0.8302675E-01
       -2   -1    0    0    0  501  0.00000000000E+00  0.00000000000E+00  0.96930809865E+03  0.96930809866E+03  0.25500000920E-02 0. -1.
        2   -1    0    0  501    0  0.00000000000E+00  0.00000000000E+00 -0.20248223500E+04  0.20248223500E+04  0.25500000920E-02 0.  1.
    10030    2    1    2    0    0  0.00000000000E+00  0.00000000000E+00 -0.10555142514E+04  0.29941304487E+04  0.28019112778E+04 0.  0.
        1    1    3    3  502    0  0.64909865051E+03  0.12122054475E+04 -0.81430532739E+03  0.15980814345E+04  0.50400001928E-02 0. -1.
       -1    1    3    3    0  502 -0.64909865051E+03 -0.12122054475E+04 -0.24120892397E+03  0.13960490142E+04  0.50400001928E-02 0.  1.
</event>
<event>
 5   0  0.1439207E-06  0.2797607E+04  0.7818609E-02  0.8304012E-01
       -2   -1    0    0    0  501  0.00000000000E+00  0.00000000000E+00  0.13279884599E+04  0.13279884599E+04  0.25500000920E-02 0. -1.
        2   -1    0    0  501    0  0.00000000000E+00  0.00000000000E+00 -0.14733947015E+04  0.14733947015E+04  0.25500000920E-02 0.  1.
    10030    2    1    2    0    0  0.00000000000E+00  0.00000000000E+00 -0.14540624163E+03  0.28013831614E+04  0.27976069492E+04 0.  0.
        5    1    3    3  502    0  0.34399542469E+03  0.94879931637E+03  0.89714749474E+03  0.13503513292E+04  0.46999998093E+01 0. -1.
       -5    1    3    3    0  502 -0.34399542469E+03 -0.94879931637E+03 -0.10425537364E+04  0.14510318322E+04  0.46999998093E+01 0.  1.
</event>
<event>
 5   0  0.1499888E-06  0.2793958E+04  0.7818609E-02  0.8305147E-01
       -2   -1    0    0    0  501  0.00000000000E+00  0.00000000000E+00  0.98958737818E+03  0.98958737819E+03  0.25500000920E-02 0. -1.
        2   -1    0    0  501    0  0.00000000000E+00  0.00000000000E+00 -0.19720846903E+04  0.19720846903E+04  0.25500000920E-02 0.  1.
    10030    2    1    2    0    0  0.00000000000E+00  0.00000000000E+00 -0.98249731209E+03  0.29616720685E+04  0.27939578509E+04 0.  0.
        3    1    3    3  502    0 -0.11818355329E+04  0.67000022411E+03 -0.83622951202E+03  0.15952790772E+04  0.10100000352E+00 0. -1.
       -3    1    3    3    0  502  0.11818355329E+04 -0.67000022411E+03 -0.14626780007E+03  0.13663929913E+04  0.10100000352E+00 0.  1.
</event>
<event>
 5   0  0.5214658E-07  0.2790592E+04  0.7818609E-02  0.8306195E-01
       -1   -1    0    0    0  501  0.00000000000E+00  0.00000000000E+00  0.14505138117E+04  0.14505138117E+04  0.50400001928E-02 0.  1.
        1   -1    0    0  501    0  0.00000000000E+00  0.00000000000E+00 -0.13421804386E+04  0.13421804386E+04  0.50400001928E-02 0. -1.
    10030    2    1    2    0    0  0.00000000000E+00  0.00000000000E+00  0.10833337306E+03  0.27926942503E+04  0.27905922411E+04 0.  0.
        2    1    3    3  502    0 -0.76070414982E+02  0.13527043690E+04  0.38796769790E+03  0.14092958357E+04  0.25500000920E-02 0. -1.
       -2    1    3    3    0  502  0.76070414982E+02 -0.13527043690E+04 -0.27963432484E+03  0.13833984146E+04  0.25500000920E-02 0.  1.
</event>
<event>
 5   0  0.5551565E-07  0.2804262E+04  0.7818609E-02  0.8301947E-01
       -1   -1    0    0    0  501  0.00000000000E+00  0.00000000000E+00  0.14065238633E+04  0.14065238633E+04  0.50400001928E-02 0. -1.
        1   -1    0    0  501    0  0.00000000000E+00  0.00000000000E+00 -0.13977514677E+04  0.13977514677E+04  0.50400001928E-02 0.  1.
    10030    2    1    2    0    0  0.00000000000E+00  0.00000000000E+00  0.87723955238E+01  0.28042753310E+04  0.28042616100E+04 0.  0.
        3    1    3    3  502    0  0.25927167715E+03 -0.71558415232E+03 -0.11731968662E+04  0.13984539244E+04  0.10100000352E+00 0.  1.
       -3    1    3    3    0  502 -0.25927167715E+03  0.71558415232E+03  0.11819692617E+04  0.14058214066E+04  0.10100000352E+00 0. -1.
</event>
<event>
 5   0  0.5214658E-07  0.2816935E+04  0.7818609E-02  0.8298030E-01
        1   -1    0    0  501    0  0.00000000000E+00  0.00000000000E+00  0.18254708256E+04  0.18254708256E+04  0.50400001928E-02 0. -1.
       -1   -1    0    0    0  501  0.00000000000E+00  0.00000000000E+00 -0.10867225206E+04  0.10867225206E+04  0.50400001928E-02 0.  1.
    10030    2    1    2    0    0  0.00000000000E+00  0.00000000000E+00  0.73874830496E+03  0.29121933462E+04  0.28169346865E+04 0.  0.
        2    1    3    3  502    0 -0.12430918081E+04  0.10184346879E+03  0.10458179601E+04  0.16276930120E+04  0.25500000920E-02 0. -1.
       -2    1    3    3    0  502  0.12430918081E+04 -0.10184346879E+03 -0.30706965518E+03  0.12845003342E+04  0.25500000920E-02 0.  1.
</event>
<event>
 5   0  0.5362952E-07  0.2796501E+04  0.7818609E-02  0.8304355E-01
       -1   -1    0    0    0  501  0.00000000000E+00  0.00000000000E+00  0.21194958469E+04  0.21194958469E+04  0.50400001928E-02 0.  1.
        1   -1    0    0  501    0  0.00000000000E+00  0.00000000000E+00 -0.92243845166E+03  0.92243845167E+03  0.50400001928E-02 0. -1.
    10030    2    1    2    0    0  0.00000000000E+00  0.00000000000E+00  0.11970573953E+04  0.30419342986E+04  0.27965010047E+04 0.  0.
        1    1    3    3  502    0  0.66529889910E+02 -0.55190458148E+03 -0.79706905978E+03  0.97177362560E+03  0.50400001928E-02 0. -1.
       -1    1    3    3    0  502 -0.66529889910E+02  0.55190458148E+03  0.19941264551E+04  0.20701606730E+04  0.50400001928E-02 0.  1.
</event>
<event>
 5   0  0.1394410E-06  0.2794003E+04  0.7818609E-02  0.8305133E-01
        2   -1    0    0  501    0  0.00000000000E+00  0.00000000000E+00  0.24796651119E+04  0.24796651119E+04  0.25500000920E-02 0.  1.
       -2   -1    0    0    0  501  0.00000000000E+00  0.00000000000E+00 -0.78704680396E+03  0.78704680397E+03  0.25500000920E-02 0. -1.
    10030    2    1    2    0    0  0.00000000000E+00  0.00000000000E+00  0.16926183080E+04  0.32667119159E+04  0.27940025063E+04 0.  0.
        4    1    3    3  502    0 -0.72155000742E+03  0.11178288987E+04  0.13443266653E+04  0.18913993909E+04  0.12699999809E+01 0.  1.
       -4    1    3    3    0  502  0.72155000742E+03 -0.11178288987E+04  0.34829164267E+03  0.13753125250E+04  0.12699999809E+01 0. -1.
</event>
<event>
 5   0  0.5551565E-07  0.2845947E+04  0.7818609E-02  0.8289144E-01
       -1   -1    0    0    0  501  0.00000000000E+00  0.00000000000E+00  0.11400672400E+04  0.11400672400E+04  0.50400001928E-02 0.  1.
        1   -1    0    0  501    0  0.00000000000E+00  0.00000000000E+00 -0.17760822519E+04  0.17760822520E+04  0.50400001928E-02 0. -1.
    10030    2    1    2    0    0  0.00000000000E+00  0.00000000000E+00 -0.63601501191E+03  0.29161494920E+04  0.28459467255E+04 0.  0.
        3    1    3    3  502    0  0.10676925811E+04 -0.26331498406E+03 -0.12433629135E+04  0.16598956513E+04  0.10100000352E+00 0. -1.
       -3    1    3    3    0  502 -0.10676925811E+04  0.26331498406E+03  0.60734790156E+03  0.12562538407E+04  0.10100000352E+00 0.  1.
</event>
<event>
 5   0  0.1377807E-06  0.2800731E+04  0.7818609E-02  0.8303042E-01
       -2   -1    0    0    0  501  0.00000000000E+00  0.00000000000E+00  0.12182607957E+04  0.12182607957E+04  0.25500000920E-02 0.  1.
        2   -1    0    0  501    0  0.00000000000E+00  0.00000000000E+00 -0.16096906203E+04  0.16096906203E+04  0.25500000920E-02 0. -1.
    10030    2    1    2    0    0  0.00000000000E+00  0.00000000000E+00 -0.39142982453E+03  0.28279514160E+04  0.28007306018E+04 0.  0.
        2    1    3    3  502    0  0.87748317981E+03 -0.45667482363E+03 -0.11965571800E+04  0.15525069115E+04  0.25500000920E-02 0. -1.
       -2    1    3    3    0  502 -0.87748317981E+03  0.45667482363E+03  0.80512735546E+03  0.12754445044E+04  0.25500000920E-02 0.  1.
</event>
<event>
 5   0  0.5297741E-07  0.2798128E+04  0.7818609E-02  0.8303850E-01
       -1   -1    0    0    0  501  0.00000000000E+00  0.00000000000E+00  0.87356603467E+03  0.87356603468E+03  0.50400001928E-02 0.  1.
        1   -1    0    0  501    0  0.00000000000E+00  0.00000000000E+00 -0.22406784338E+04  0.22406784338E+04  0.50400001928E-02 0. -1.
    10030    2    1    2    0    0  0.00000000000E+00  0.00000000000E+00 -0.13671123991E+04  0.31142444685E+04  0.27981283562E+04 0.  0.
        5    1    3    3  502    0  0.13755990920E+04 -0.18240941629E+03 -0.48504570388E+03  0.14699787352E+04  0.46999998093E+01 0.  1.
       -5    1    3    3    0  502 -0.13755990920E+04  0.18240941629E+03 -0.88206669526E+03  0.16442657333E+04  0.46999998093E+01 0. -1.
</event>
<event>
 5   0  0.1394410E-06  0.2790392E+04  0.7818609E-02  0.8306257E-01
       -2   -1    0    0    0  501  0.00000000000E+00  0.00000000000E+00  0.11625740476E+04  0.11625740476E+04  0.25500000920E-02 0.  1.
        2   -1    0    0  501    0  0.00000000000E+00  0.00000000000E+00 -0.16743641682E+04  0.16743641682E+04  0.25500000920E-02 0. -1.
    10030    2    1    2    0    0  0.00000000000E+00  0.00000000000E+00 -0.51179012060E+03  0.28369382159E+04  0.27903923225E+04 0.  0.
        4    1    3    3  502    0 -0.26806864977E+03  0.58608197617E+03 -0.15139601127E+04  0.16454269110E+04  0.12699999809E+01 0. -1.
       -4    1    3    3    0  502  0.26806864977E+03 -0.58608197617E+03  0.10021699921E+04  0.11915113049E+04  0.12699999809E+01 0.  1.
</event>
<event>
 5   0  0.1461146E-06  0.2798897E+04  0.7818609E-02  0.8303611E-01
       -2   -1    0    0    0  501  0.00000000000E+00  0.00000000000E+00  0.87079777484E+03  0.87079777484E+03  0.25500000920E-02 0. -1.
        2   -1    0    0  501    0  0.00000000000E+00  0.00000000000E+00 -0.22490373159E+04  0.22490373159E+04  0.25500000920E-02 0.  1.
    10030    2    1    2    0    0  0.00000000000E+00  0.00000000000E+00 -0.13782395411E+04  0.31198350907E+04  0.27988974188E+04 0.  0.
        1    1    3    3  502    0 -0.78907233229E+03 -0.90452165128E+03 -0.14911077393E+04  0.19142091979E+04  0.50400001928E-02 0.  1.
       -1    1    3    3    0  502  0.78907233229E+03  0.90452165128E+03  0.11286819825E+03  0.12056258928E+04  0.50400001928E-02 0. -1.
</event>
<event>
 5   0  0.1461146E-06  0.2792566E+04  0.7818609E-02  0.8305580E-01
        2   -1    0    0  501    0  0.00000000000E+00  0.00000000000E+00  0.25264656611E+04  0.25264656611E+04  0.25500000920E-02 0. -1.
       -2   -1    0    0    0  501  0.00000000000E+00  0.00000000000E+00 -0.77167332215E+03  0.77167332216E+03  0.25500000920E-02 0.  1.
    10030    2    1    2    0    0  0.00000000000E+00  0.00000000000E+00  0.17547923389E+04  0.32981389833E+04  0.27925659527E+04 0.  0.
        1    1    3    3  502    0 -0.72903787326E+03 -0.61470952746E+03  0.20819680830E+04  0.22899683671E+04  0.50400001928E-02 0. -1.
       -1    1    3    3    0  502  0.72903787326E+03  0.61470952746E+03 -0.32717574402E+03  0.10081706162E+04  0.50400001928E-02 0.  1.
</event>
<event>
 5   0  0.5282098E-07  0.2804143E+04  0.7818609E-02  0.8301983E-01
        1   -1    0    0  501    0  0.00000000000E+00  0.00000000000E+00  0.10437700166E+04  0.10437700166E+04  0.50400001928E-02 0. -1.
       -1   -1    0    0    0  501  0.00000000000E+00  0.00000000000E+00 -0.18833692633E+04  0.18833692633E+04  0.50400001928E-02 0.  1.
    10030    2    1    2    0    0  0.00000000000E+00  0.00000000000E+00 -0.83959924668E+03  0.29271392799E+04  0.28041429116E+04 0.  0.
        4    1    3    3  502    0  0.45247051548E+02  0.70625267879E+02 -0.18807474016E+04  0.18826172276E+04  0.12699999809E+01 0.  1.
       -4    1    3    3    0  502 -0.45247051548E+02 -0.70625267879E+02  0.10411481550E+04  0.10445220522E+04  0.12699999809E+01 0. -1.
</event>
<event>
 5   0  0.1394410E-06  0.2800612E+04  0.7818609E-02  0.8303078E-01
        2   -1    0    0  501    0  0.00000000000E+00  0.00000000000E+00  0.22167602659E+04  0.22167602659E+04  0.25500000920E-02 0.  1.
       -2   -1    0    0    0  501  0.00000000000E+00  0.00000000000E+00 -0.88455963422E+03  0.88455963422E+03  0.25500000920E-02 0. -1.
    10030    2    1    2    0    0  0.00000000000E+00  0.00000000000E+00  0.13322006317E+04  0.31013199001E+04  0.28006118260E+04 0.  0.
        4    1    3    3  502    0  0.99279711360E+03  0.15511187361E+03 -0.41388531932E+03  0.10867421371E+04  0.12699999809E+01 0. -1.
       -4    1    3    3    0  502 -0.99279711360E+03 -0.15511187361E+03  0.17460859510E+04  0.20145777630E+04  0.12699999809E+01 0.  1.
</event>
<event>
 5   0  0.1394410E-06  0.2796755E+04  0.7818609E-02  0.8304277E-01
       -2   -1    0    0    0  501  0.00000000000E+00  0.00000000000E+00  0.13102923872E+04  0.13102923872E+04  0.25500000920E-02 0. -1.
        2   -1    0    0  501    0  0.00000000000E+00  0.00000000000E+00 -0.14923841266E+04  0.14923841266E+04  0.25500000920E-02 0.  1.
    10030    2    1    2    0    0  0.00000000000E+00  0.00000000000E+00 -0.18209173938E+03  0.28026765138E+04  0.27967549480E+04 0.  0.
        4    1    3    3  502    0 -0.19317437669E+03  0.26485482795E+03  0.12712416625E+04  0.13128295385E+04  0.12699999809E+01 0. -1.
       -4    1    3    3    0  502  0.19317437669E+03 -0.26485482795E+03 -0.14533334019E+04  0.14898469753E+04  0.12699999809E+01 0.  1.
</event>
<event>
 5   0  0.5214658E-07  0.2797978E+04  0.7818609E-02  0.8303896E-01
       -1   -1    0    0    0  501  0.00000000000E+00  0.00000000000E+00  0.13185554039E+04  0.13185554039E+04  0.50400001928E-02 0.  1.
        1   -1    0    0  501    0  0.00000000000E+00  0.00000000000E+00 -0.14843289058E+04  0.14843289058E+04  0.50400001928E-02 0. -1.
    10030    2    1    2    0    0  0.00000000000E+00  0.00000000000E+00 -0.16577350190E+03  0.28028843097E+04  0.27979777697E+04 0.  0.
        2    1    3    3  502    0  0.65445890528E+03 -0.12364628600E+04 -0.79269735161E+02  0.14012282305E+04  0.25500000920E-02 0.  1.
       -2    1    3    3    0  502 -0.65445890528E+03  0.12364628600E+04 -0.86503766737E+02  0.14016560793E+04  0.25500000920E-02 0. -1.
</event>
<event>
 5   0  0.1394410E-06  0.2798811E+04  0.7818609E-02  0.8303638E-01
       -2   -1    0    0    0  501  0.00000000000E+00  0.00000000000E+00  0.15039209801E+04  0.15039209801E+04  0.25500000920E-02 0. -1.
        2   -1    0    0  501    0  0.00000000000E+00  0.00000000000E+00 -0.13021532281E+04  0.13021532281E+04  0.25500000920E-02 0.  1.
    10030    2    1    2    0    0  0.00000000000E+00  0.00000000000E+00  0.20176775201E+03  0.28060742082E+04  0.27988108611E+04 0.  0.
        4    1    3    3  502    0 -0.11618496255E+04 -0.64305109122E+03  0.54353240500E+03  0.14348652712E+04  0.12699999809E+01 0. -1.
       -4    1    3    3    0  502  0.11618496255E+04  0.64305109122E+03 -0.34176465298E+03  0.13712089371E+04  0.12699999809E+01 0.  1.
</event>
<event>
 5   0  0.5297741E-07  0.2799033E+04  0.7818609E-02  0.8303569E-01
       -1   -1    0    0    0  501  0.00000000000E+00  0.00000000000E+00  0.17185200756E+04  0.17185200756E+04  0.50400001928E-02 0. -1.
        1   -1    0    0  501    0  0.00000000000E+00  0.00000000000E+00 -0.11397283100E+04  0.11397283100E+04  0.50400001928E-02 0.  1.
    10030    2    1    2    0    0  0.00000000000E+00  0.00000000000E+00  0.57879176563E+03  0.28582483856E+04  0.27990326768E+04 0.  0.
        5    1    3    3  502    0 -0.72202075686E+03  0.84388596037E+03 -0.58018670709E+03  0.12530347930E+04  0.46999998093E+01 0.  1.
       -5    1    3    3    0  502  0.72202075686E+03 -0.84388596037E+03  0.11589784727E+04  0.16052135925E+04  0.46999998093E+01 0. -1.
</event>
<event>
 5   0  0.5297741E-07  0.2804561E+04  0.7818609E-02  0.8301854E-01
       -1   -1    0    0    0  501  0.00000000000E+00  0.00000000000E+00  0.12150367931E+04  0.12150367931E+04  0.50400001928E-02 0. -1.
        1   -1    0    0  501    0  0.00000000000E+00  0.00000000000E+00 -0.16183799525E+04  0.16183799525E+04  0.50400001928E-02 0.  1.
    10030    2    1    2    0    0  0.00000000000E+00  0.00000000000E+00 -0.40334315933E+03  0.28334167456E+04  0.28045614185E+04 0.  0.
        5    1    3    3  502    0  0.65869089073E+03  0.92575930635E+03  0.62865121963E+03  0.12985100803E+04  0.46999998093E+01 0.  1.
       -5    1    3    3    0  502 -0.65869089073E+03 -0.92575930635E+03 -0.10319943790E+04  0.15349066652E+04  0.46999998093E+01 0. -1.
</event>
<event>
 5   0  0.5297741E-07  0.2798960E+04  0.7818609E-02  0.8303591E-01
       -1   -1    0    0    0  501  0.00000000000E+00  0.00000000000E+00  0.21522450507E+04  0.21522450507E+04  0.50400001928E-02 0. -1.
        1   -1    0    0  501    0  0.00000000000E+00  0.00000000000E+00 -0.91000064487E+03  0.91000064489E+03  0.50400001928E-02 0.  1.
    10030    2    1    2    0    0  0.00000000000E+00  0.00000000000E+00  0.12422444058E+04  0.30622456956E+04  0.27989600812E+04 0.  0.
        5    1    3    3  502    0 -0.13380127271E+04  0.28755131743E+03  0.30110387725E+03  0.14013027699E+04  0.46999998093E+01 0.  1.
       -5    1    3    3    0  502  0.13380127271E+04 -0.28755131743E+03  0.94114052858E+03  0.16609429257E+04  0.46999998093E+01 0. -1.
</event>
<event>
 5   0  0.5214658E-07  0.2873870E+04  0.7818609E-02  0.8280695E-01
       -1   -1    0    0    0  501  0.00000000000E+00  0.00000000000E+00  0.13810275307E+04  0.13810275307E+04  0.50400001928E-02 0. -1.
        1   -1    0    0  501    0  0.00000000000E+00  0.00000000000E+00 -0.14951058414E+04  0.14951058415E+04  0.50400001928E-02 0.  1.
    10030    2    1    2    0    0  0.00000000000E+00  0.00000000000E+00 -0.11407831075E+03  0.28761333722E+04  0.28738700934E+04 0.  0.
        2    1    3    3  502    0  0.94237009592E+03 -0.99280560901E+03  0.38040684391E+03  0.14207159258E+04  0.25500000920E-02 0. -1.
       -2    1    3    3    0  502 -0.94237009592E+03  0.99280560901E+03 -0.49448515466E+03  0.14554174464E+04  0.25500000920E-02 0.  1.
</event>
<event>
 5   0  0.1499888E-06  0.2780111E+04  0.7818609E-02  0.8309470E-01
       -2   -1    0    0    0  501  0.00000000000E+00  0.00000000000E+00  0.23436182557E+04  0.23436182557E+04  0.25500000920E-02 0.  1.
        2   -1    0    0  501    0  0.00000000000E+00  0.00000000000E+00 -0.82447483118E+03  0.82447483118E+03  0.25500000920E-02 0. -1.
    10030    2    1    2    0    0  0.00000000000E+00  0.00000000000E+00  0.15191434245E+04  0.31680930869E+04  0.27801109803E+04 0.  0.
        3    1    3    3  502    0  0.15293818728E+03  0.95754854285E+03 -0.37539719819E+03  0.10398136216E+04  0.10100000352E+00 0. -1.
       -3    1    3    3    0  502 -0.15293818728E+03 -0.95754854285E+03  0.18945406227E+04  0.21282794653E+04  0.10100000352E+00 0.  1.
</event>
<event>
 5   0  0.1439207E-06  0.2754101E+04  0.7818609E-02  0.8317662E-01
       -2   -1    0    0    0  501  0.00000000000E+00  0.00000000000E+00  0.10118966280E+04  0.10118966280E+04  0.25500000920E-02 0. -1.
        2   -1    0    0  501    0  0.00000000000E+00  0.00000000000E+00 -0.18739736068E+04  0.18739736068E+04  0.25500000920E-02 0.  1.
    10030    2    1    2    0    0  0.00000000000E+00  0.00000000000E+00 -0.86207697875E+03  0.28858702348E+04  0.27541006326E+04 0.  0.
        5    1    3    3  502    0  0.44597809955E+03  0.88117246885E+03  0.57450181024E+03  0.11425566967E+04  0.46999998093E+01 0. -1.
       -5    1    3    3    0  502 -0.44597809955E+03 -0.88117246885E+03 -0.14365787890E+04  0.17433135381E+04  0.46999998093E+01 0.  1.
</event>
<event>
 5   0  0.1377807E-06  0.2800321E+04  0.7818609E-02  0.8303169E-01
        2   -1    0    0  501    0  0.00000000000E+00  0.00000000000E+00  0.23766919008E+04  0.23766919008E+04  0.25500000920E-02 0.  1.
       -2   -1    0    0    0  501  0.00000000000E+00  0.00000000000E+00 -0.82486475080E+03  0.82486475080E+03  0.25500000920E-02 0. -1.
    10030    2    1    2    0    0  0.00000000000E+00  0.00000000000E+00  0.15518271500E+04  0.32015566516E+04  0.28003209620E+04 0.  0.
        2    1    3    3  502    0 -0.37293787403E+03 -0.10595888226E+04  0.17315210908E+04  0.20639710314E+04  0.25500000920E-02 0.  1.
       -2    1    3    3    0  502  0.37293787403E+03  0.10595888226E+04 -0.17969394074E+03  0.11375856202E+04  0.25500000920E-02 0. -1.
</event>
<event>
 5   0  0.5282098E-07  0.2793688E+04  0.7818609E-02  0.8305231E-01
        1   -1    0    0  501    0  0.00000000000E+00  0.00000000000E+00  0.24594738358E+04  0.24594738358E+04  0.50400001928E-02 0. -1.
       -1   -1    0    0    0  501  0.00000000000E+00  0.00000000000E+00 -0.79332969174E+03  0.79332969176E+03  0.50400001928E-02 0.  1.
    10030    2    1    2    0    0  0.00000000000E+00  0.00000000000E+00  0.16661441441E+04  0.32528035276E+04  0.27936883291E+04 0.  0.
        4    1    3    3  502    0 -0.41392122015E+03 -0.11069997541E+04 -0.33867165837E+02  0.11823399807E+04  0.12699999809E+01 0.  1.
       -4    1    3    3    0  502  0.41392122015E+03  0.11069997541E+04  0.17000113099E+04  0.20704635469E+04  0.12699999809E+01 0. -1.
</event>
<event>
 5   0  0.1461146E-06  0.2800543E+04  0.7818609E-02  0.8303100E-01
        2   -1    0    0  501    0  0.00000000000E+00  0.00000000000E+00  0.23106206537E+04  0.23106206537E+04  0.25500000920E-02 0. -1.
       -2   -1    0    0    0  501  0.00000000000E+00  0.00000000000E+00 -0.84858608121E+03  0.84858608121E+03  0.25500000920E-02 0.  1.
    10030    2    1    2    0    0  0.00000000000E+00  0.00000000000E+00  0.14620345725E+04  0.31592067349E+04  0.28005431799E+04 0.  0.
        1    1    3    3  502    0 -0.11099720542E+04  0.80615930734E+03  0.41429340663E+03  0.14330281982E+04  0.50400001928E-02 0.  1.
       -1    1    3    3    0  502  0.11099720542E+04 -0.80615930734E+03  0.10477411658E+04  0.17261785367E+04  0.50400001928E-02 0. -1.
</event>
<event>
 5   0  0.5214658E-07  0.2793680E+04  0.7818609E-02  0.8305233E-01
       -1   -1    0    0    0  501  0.00000000000E+00  0.00000000000E+00  0.21811112175E+04  0.21811112175E+04  0.50400001928E-02 0. -1.
        1   -1    0    0  501    0  0.00000000000E+00  0.00000000000E+00 -0.89457235128E+03  0.89457235129E+03  0.50400001928E-02 0.  1.
    10030    2    1    2    0    0  0.00000000000E+00  0.00000000000E+00  0.12865388662E+04  0.30756835688E+04  0.27936798601E+04 0.  0.
        2    1    3    3  502    0 -0.38419432635E+03  0.13379441338E+04  0.51553150054E+03  0.14844098200E+04  0.25500000920E-02 0.  1.
       -2    1    3    3    0  502  0.38419432635E+03 -0.13379441338E+04  0.77100736564E+03  0.15912737488E+04  0.25500000920E-02 0. -1.
</event>
<event>
 5   0  0.5362952E-07  0.2797872E+04  0.7818609E-02  0.8303929E-01
        1   -1    0    0  501    0  0.00000000000E+00  0.00000000000E+00  0.14778005205E+04  0.14778005205E+04  0.50400001928E-02 0. -1.
       -1   -1    0    0    0  501  0.00000000000E+00  0.00000000000E+00 -0.13242799403E+04  0.13242799403E+04  0.50400001928E-02 0.  1.
    10030    2    1    2    0    0  0.00000000000E+00  0.00000000000E+00  0.15352058023E+03  0.28020804608E+04  0.27978717519E+04 0.  0.
        1    1    3    3  502    0 -0.14017012347E+03  0.13875493060E+04  0.18683852332E+03  0.14070712043E+04  0.50400001928E-02 0. -1.
       -1    1    3    3    0  502  0.14017012347E+03 -0.13875493060E+04 -0.33317943089E+02  0.13950092564E+04  0.50400001928E-02 0.  1.
</event>
<event>
 5   0  0.5551565E-07  0.2797868E+04  0.7818609E-02  0.8303931E-01
       -1   -1    0    0    0  501  0.00000000000E+00  0.00000000000E+00  0.27519804105E+04  0.27519804105E+04  0.50400001928E-02 0.  1.
        1   -1    0    0  501    0  0.00000000000E+00  0.00000000000E+00 -0.71113021702E+03  0.71113021703E+03  0.50400001928E-02 0. -1.
    10030    2    1    2    0    0  0.00000000000E+00  0.00000000000E+00  0.20408501935E+04  0.34631106276E+04  0.27978680645E+04 0.  0.
        3    1    3    3  502    0 -0.68694100962E+03  0.89146550983E+03  0.20489033085E+04  0.23376491361E+04  0.10100000352E+00 0.  1.
       -3    1    3    3    0  502  0.68694100962E+03 -0.89146550983E+03 -0.80531149491E+01  0.11254614915E+04  0.10100000352E+00 0. -1.
</event>
<event>
 5   0  0.5214658E-07  0.2799640E+04  0.7818609E-02  0.8303380E-01
        1   -1    0    0  501    0  0.00000000000E+00  0.00000000000E+00  0.18669725407E+04  0.18669725407E+04  0.50400001928E-02 0.  1.
       -1   -1    0    0    0  501  0.00000000000E+00  0.00000000000E+00 -0.10495580284E+04  0.10495580284E+04  0.50400001928E-02 0. -1.
    10030    2    1    2    0    0  0.00000000000E+00  0.00000000000E+00  0.81741451224E+03  0.29165305691E+04  0.27996399904E+04 0.  0.
        2    1    3    3  502    0  0.85576890489E+03 -0.67725053513E+03  0.13219425670E+04  0.17142172722E+04  0.25500000920E-02 0.  1.
       -2    1    3    3    0  502 -0.85576890489E+03  0.67725053513E+03 -0.50452805472E+03  0.12023132969E+04  0.25500000920E-02 0. -1.
</event>
<event>
 5   0  0.5551565E-07  0.2800628E+04  0.7818609E-02  0.8303073E-01
        1   -1    0    0  501    0  0.00000000000E+00  0.00000000000E+00  0.20305902434E+04  0.20305902434E+04  0.50400001928E-02 0. -1.
       -1   -1    0    0    0  501  0.00000000000E+00  0.00000000000E+00 -0.96566954149E+03  0.96566954151E+03  0.50400001928E-02 0.  1.
    10030    2    1    2    0    0  0.00000000000E+00  0.00000000000E+00  0.10649207019E+04  0.29962597849E+04  0.28006278934E+04 0.  0.
        3    1    3    3  502    0  0.86860962574E+03  0.10541160063E+04  0.86262031336E+03  0.16154742498E+04  0.10100000352E+00 0.  1.
       -3    1    3    3    0  502 -0.86860962574E+03 -0.10541160063E+04  0.20230038857E+03  0.13807855351E+04  0.10100000352E+00 0. -1.
</event>
<event>
 5   0  0.5362952E-07  0.2797399E+04  0.7818609E-02  0.8304076E-01
        1   -1    0    0  501    0  0.00000000000E+00  0.00000000000E+00  0.16839849994E+04  0.16839849994E+04  0.50400001928E-02 0. -1.
       -1   -1    0    0    0  501  0.00000000000E+00  0.00000000000E+00 -0.11617447316E+04  0.11617447316E+04  0.50400001928E-02 0.  1.
    10030    2    1    2    0    0  0.00000000000E+00  0.00000000000E+00  0.52224026784E+03  0.28457297310E+04  0.27973992930E+04 0.  0.
        1    1    3    3  502    0  0.54773797475E+03  0.33300203427E+03 -0.10035205691E+04  0.11907815821E+04  0.50400001928E-02 0.  1.
       -1    1    3    3    0  502 -0.54773797475E+03 -0.33300203427E+03  0.15257608369E+04  0.16549481488E+04  0.50400001928E-02 0. -1.
</event>
<event>
 5   0  0.5214658E-07  0.2800057E+04  0.7818609E-02  0.8303251E-01
       -1   -1    0    0    0  501  0.00000000000E+00  0.00000000000E+00  0.11807776199E+04  0.11807776199E+04  0.50400001928E-02 0.  1.
        1   -1    0    0  501    0  0.00000000000E+00  0.00000000000E+00 -0.16599908512E+04  0.16599908512E+04  0.50400001928E-02 0. -1.
    10030    2    1    2    0    0  0.00000000000E+00  0.00000000000E+00 -0.47921323133E+03  0.28407684712E+04  0.28000571754E+04 0.  0.
        2    1    3    3  502    0 -0.27807976101E+03  0.11851908569E+04  0.46187557615E+03  0.13020502174E+04  0.25500000920E-02 0.  1.
       -2    1    3    3    0  502  0.27807976101E+03 -0.11851908569E+04 -0.94108880749E+03  0.15387182537E+04  0.25500000920E-02 0. -1.
</event>
<event>
 5   0  0.1377807E-06  0.2804183E+04  0.7818609E-02  0.8301971E-01
        2   -1    0    0  501    0  0.00000000000E+00  0.00000000000E+00  0.15512002001E+04  0.15512002001E+04  0.25500000920E-02 0.  1.
       -2   -1    0    0    0  501  0.00000000000E+00  0.00000000000E+00 -0.12673159664E+04  0.12673159664E+04  0.25500000920E-02 0. -1.
    10030    2    1    2    0    0  0.00000000000E+00  0.00000000000E+00  0.28388423373E+03  0.28185161665E+04  0.28041831472E+04 0.  0.
        2    1    3    3  502    0  0.37571497102E+03  0.13410968686E+04 -0.20619621545E+02  0.13928846755E+04  0.25500000920E-02 0.  1.
       -2    1    3    3    0  502 -0.37571497102E+03 -0.13410968686E+04  0.30450385527E+03  0.14256314911E+04  0.25500000920E-02 0. -1.
</event>
<event>
 5   0  0.5214658E-07  0.2801654E+04  0.7818609E-02  0.8302755E-01
        1   -1    0    0  501    0  0.00000000000E+00  0.00000000000E+00  0.14030157561E+04  0.14030157561E+04  0.50400001928E-02 0.  1.
       -1   -1    0    0    0  501  0.00000000000E+00  0.00000000000E+00 -0.13986420426E+04  0.13986420426E+04  0.50400001928E-02 0. -1.
    10030    2    1    2    0    0  0.00000000000E+00  0.00000000000E+00  0.43737135135E+01  0.28016577987E+04  0.28016543848E+04 0.  0.
        2    1    3    3  502    0 -0.11510092098E+04  0.78064273058E+03 -0.16541868456E+03  0.14005672476E+04  0.25500000920E-02 0.  1.
       -2    1    3    3    0  502  0.11510092098E+04 -0.78064273058E+03  0.16979239807E+03  0.14010905511E+04  0.25500000920E-02 0. -1.
</event>
<event>
 5   0  0.5297741E-07  0.2798004E+04  0.7818609E-02  0.8303888E-01
        1   -1    0    0  501    0  0.00000000000E+00  0.00000000000E+00  0.17273452009E+04  0.17273452009E+04  0.50400001928E-02 0. -1.
       -1   -1    0    0    0  501  0.00000000000E+00  0.00000000000E+00 -0.11330718449E+04  0.11330718449E+04  0.50400001928E-02 0.  1.
    10030    2    1    2    0    0  0.00000000000E+00  0.00000000000E+00  0.59427335608E+03  0.28604170458E+04  0.27980037266E+04 0.  0.
        5    1    3    3  502    0 -0.43179255836E+01 -0.32133555393E+03 -0.10948185558E+04  0.11410192561E+04  0.46999998093E+01 0.  1.
       -5    1    3    3    0  502  0.43179255836E+01  0.32133555393E+03  0.16890919118E+04  0.17193977897E+04  0.46999998093E+01 0. -1.
</event>
<event>
 5   0  0.1499888E-06  0.2771571E+04  0.7818609E-02  0.8312149E-01
        2   -1    0    0  501    0  0.00000000000E+00  0.00000000000E+00  0.23853886265E+04  0.23853886265E+04  0.25500000920E-02 0. -1.
       -2   -1    0    0    0  501  0.00000000000E+00  0.00000000000E+00 -0.80506829869E+03  0.80506829869E+03  0.25500000920E-02 0.  1.
    10030    2    1    2    0    0  0.00000000000E+00  0.00000000000E+00  0.15803203278E+04  0.31904569252E+04  0.27715705030E+04 0.  0.
        3    1    3    3  502    0 -0.60664464472E+03  0.72192103056E+03 -0.37880388794E+03  0.10162086868E+04  0.10100000352E+00 0.  1.
       -3    1    3    3    0  502  0.60664464472E+03 -0.72192103056E+03  0.19591242157E+04  0.21742482384E+04  0.10100000352E+00 0. -1.
</event>
<event>
 5   0  0.1499888E-06  0.2800124E+04  0.7818609E-02  0.8303230E-01
       -2   -1    0    0    0  501  0.00000000000E+00  0.00000000000E+00  0.12936392971E+04  0.12936392971E+04  0.25500000920E-02 0. -1.
        2   -1    0    0  501    0  0.00000000000E+00  0.00000000000E+00 -0.15152401626E+04  0.15152401626E+04  0.25500000920E-02 0.  1.
    10030    2    1    2    0    0  0.00000000000E+00  0.00000000000E+00 -0.22160086549E+03  0.28088794598E+04  0.28001244393E+04 0.  0.
        3    1    3    3  502    0 -0.74513951488E+03 -0.39068518586E+01 -0.12998022067E+04  0.14982436207E+04  0.10100000352E+00 0.  1.
       -3    1    3    3    0  502  0.74513951488E+03  0.39068518586E+01  0.10782013412E+04  0.13106358390E+04  0.10100000352E+00 0. -1.
</event>
<event>
 5   0  0.1394410E-06  0.2806327E+04  0.7818609E-02  0.8301307E-01
        2   -1    0    0  501    0  0.00000000000E+00  0.00000000000E+00  0.16048257829E+04  0.16048257829E+04  0.25500000920E-02 0. -1.
       -2   -1    0    0    0  501  0.00000000000E+00  0.00000000000E+00 -0.12268421894E+04  0.12268421894E+04  0.25500000920E-02 0.  1.
    10030    2    1    2    0    0  0.00000000000E+00  0.00000000000E+00  0.37798359343E+03  0.28316679723E+04  0.28063271207E+04 0.  0.
        4    1    3    3  502    0 -0.49351552260E+03  0.26336439412E+03  0.14874482269E+04  0.15891577064E+04  0.12699999809E+01 0. -1.
       -4    1    3    3    0  502  0.49351552260E+03 -0.26336439412E+03 -0.11094646335E+04  0.12425102659E+04  0.12699999809E+01 0.  1.
</event>
<event>
 5   0  0.1499888E-06  0.2799591E+04  0.7818609E-02  0.8303395E-01
       -2   -1    0    0    0  501  0.00000000000E+00  0.00000000000E+00  0.11607894096E+04  0.11607894096E+04  0.25500000920E-02 0.  1.
        2   -1    0    0  501    0  0.00000000000E+00  0.00000000000E+00 -0.16880127031E+04  0.16880127031E+04  0.25500000920E-02 0. -1.
    10030    2    1    2    0    0  0.00000000000E+00  0.00000000000E+00 -0.52722329345E+03  0.28488021127E+04  0.27995908765E+04 0.  0.
        3    1    3    3  502    0  0.45166954486E+03  0.18872733132E+03  0.10708533137E+04  0.11774337404E+04  0.10100000352E+00 0.  1.
       -3    1    3    3    0  502 -0.45166954486E+03 -0.18872733132E+03 -0.15980766071E+04  0.16713683723E+04  0.10100000352E+00 0. -1.
</event>
<event>
 5   0  0.1461146E-06  0.2802272E+04  0.7818609E-02  0.8302563E-01
       -2   -1    0    0    0  501  0.00000000000E+00  0.00000000000E+00  0.18315461356E+04  0.18315461356E+04  0.25500000920E-02 0.  1.
        2   -1    0    0  501    0  0.00000000000E+00  0.00000000000E+00 -0.10718716390E+04  0.10718716390E+04  0.25500000920E-02 0. -1.
    10030    2    1    2    0    0  0.00000000000E+00  0.00000000000E+00  0.75967449663E+03  0.29034177746E+04  0.28022721911E+04 0.  0.
        1    1    3    3  502    0  0.60655291765E+03 -0.69010265286E+03  0.14758633647E+04  0.17384823222E+04  0.50400001928E-02 0.  1.
       -1    1    3    3    0  502 -0.60655291765E+03  0.69010265286E+03 -0.71618886806E+03  0.11649354524E+04  0.50400001928E-02 0. -1.
</event>
<event>
 5   0  0.1439207E-06  0.2802207E+04  0.7818609E-02  0.8302584E-01
       -2   -1    0    0    0  501  0.00000000000E+00  0.00000000000E+00  0.65044761851E+03  0.65044761851E+03  0.25500000920E-02 0.  1.
        2   -1    0    0  501    0  0.00000000000E+00  0.00000000000E+00 -0.30180614657E+04  0.30180614657E+04  0.25500000920E-02 0. -1.
    10030    2    1    2    0    0  0.00000000000E+00  0.00000000000E+00 -0.23676138472E+04  0.36685090843E+04  0.28022069109E+04 0.  0.
        5    1    3    3  502    0  0.19791547586E+03 -0.13621394552E+04 -0.84123368930E+03  0.16131616909E+04  0.46999998093E+01 0.  1.
       -5    1    3    3    0  502 -0.19791547586E+03  0.13621394552E+04 -0.15263801579E+04  0.20553473934E+04  0.46999998093E+01 0. -1.
</event>
<event>
 5   0  0.1439207E-06  0.2800586E+04  0.7818609E-02  0.8303086E-01
       -2   -1    0    0    0  501  0.00000000000E+00  0.00000000000E+00  0.96738916834E+03  0.96738916834E+03  0.25500000920E-02 0.  1.
        2   -1    0    0  501    0  0.00000000000E+00  0.00000000000E+00 -0.20269206661E+04  0.20269206661E+04  0.25500000920E-02 0. -1.
    10030    2    1    2    0    0  0.00000000000E+00  0.00000000000E+00 -0.10595314978E+04  0.29943098345E+04  0.28005864368E+04 0.  0.
        5    1    3    3  502    0  0.48594389843E+03 -0.11161346171E+04 -0.12696617001E+04  0.17589658549E+04  0.46999998093E+01 0. -1.
       -5    1    3    3    0  502 -0.48594389843E+03  0.11161346171E+04  0.21013020233E+03  0.12353439796E+04  0.46999998093E+01 0.  1.
</event>
<event>
 5   0  0.5551565E-07  0.2803927E+04  0.7818609E-02  0.8302050E-01
       -1   -1    0    0    0  501  0.00000000000E+00  0.00000000000E+00  0.79752517150E+03  0.79752517152E+03  0.50400001928E-02 0.  1.
        1   -1    0    0  501    0  0.00000000000E+00  0.00000000000E+00 -0.24645013394E+04  0.24645013394E+04  0.50400001928E-02 0. -1.
    10030    2    1    2    0    0  0.00000000000E+00  0.00000000000E+00 -0.16669761679E+04  0.32620265110E+04  0.28039271413E+04 0.  0.
        3    1    3    3  502    0  0.87599978734E+02  0.13933368173E+04 -0.68431873261E+03  0.15547840302E+04  0.10100000352E+00 0. -1.
       -3    1    3    3    0  502 -0.87599978734E+02 -0.13933368173E+04 -0.98265743533E+03  0.17072424807E+04  0.10100000352E+00 0.  1.
</event>
<event>
 5   0  0.5362952E-07  0.2800098E+04  0.7818609E-02  0.8303238E-01
       -1   -1    0    0    0  501  0.00000000000E+00  0.00000000000E+00  0.17808212383E+04  0.17808212383E+04  0.50400001928E-02 0. -1.
        1   -1    0    0  501    0  0.00000000000E+00  0.00000000000E+00 -0.11006927629E+04  0.11006927629E+04  0.50400001928E-02 0.  1.
    10030    2    1    2    0    0  0.00000000000E+00  0.00000000000E+00  0.68012847539E+03  0.28815140013E+04  0.28000978905E+04 0.  0.
        1    1    3    3  502    0 -0.83022199594E+03  0.10596250737E+04 -0.55913773789E+02  0.13472936612E+04  0.50400001928E-02 0. -1.
       -1    1    3    3    0  502  0.83022199594E+03 -0.10596250737E+04  0.73604224918E+03  0.15342203401E+04  0.50400001928E-02 0.  1.
</event>
<event>
 5   0  0.5551565E-07  0.2798606E+04  0.7818609E-02  0.8303701E-01
        1   -1    0    0  501    0  0.00000000000E+00  0.00000000000E+00  0.16581978558E+04  0.16581978558E+04  0.50400001928E-02 0.  1.
       -1   -1    0    0    0  501  0.00000000000E+00  0.00000000000E+00 -0.11808293288E+04  0.11808293288E+04  0.50400001928E-02 0. -1.
    10030    2    1    2    0    0  0.00000000000E+00  0.00000000000E+00  0.47736852702E+03  0.28390271846E+04  0.27986058394E+04 0.  0.
        3    1    3    3  502    0  0.66318198440E+02  0.12123407757E+04  0.94434641825E+03  0.15381672301E+04  0.10100000352E+00 0.  1.
       -3    1    3    3    0  502 -0.66318198440E+02 -0.12123407757E+04 -0.46697789123E+03  0.13008599544E+04  0.10100000352E+00 0. -1.
</event>
<event>
 5   0  0.5362952E-07  0.2791539E+04  0.7818609E-02  0.8305900E-01
        1   -1    0    0  501    0  0.00000000000E+00  0.00000000000E+00  0.18775828969E+04  0.18775828969E+04  0.50400001928E-02 0. -1.
       -1   -1    0    0    0  501  0.00000000000E+00  0.00000000000E+00 -0.10375961923E+04  0.10375961923E+04  0.50400001928E-02 0.  1.
    10030    2    1    2    0    0  0.00000000000E+00  0.00000000000E+00  0.83998670460E+03  0.29151790891E+04  0.27915392632E+04 0.  0.
        1    1    3    3  502    0  0.17748231455E+03 -0.49729732147E+03  0.17692593508E+04  0.18463702901E+04  0.50400001928E-02 0. -1.
       -1    1    3    3    0  502 -0.17748231455E+03  0.49729732147E+03 -0.92927264616E+03  0.10688087990E+04  0.50400001928E-02 0.  1.
</event>
<event>
 5   0  0.5282098E-07  0.2809824E+04  0.7818609E-02  0.8300225E-01
       -1   -1    0    0    0  501  0.00000000000E+00  0.00000000000E+00  0.11781811839E+04  0.11781811839E+04  0.50400001928E-02 0. -1.
        1   -1    0    0  501    0  0.00000000000E+00  0.00000000000E+00 -0.16752757190E+04  0.16752757190E+04  0.50400001928E-02 0.  1.
    10030    2    1    2    0    0  0.00000000000E+00  0.00000000000E+00 -0.49709453509E+03  0.28534569029E+04  0.28098244287E+04 0.  0.
        4    1    3    3  502    0 -0.11486370297E+04 -0.61276352400E+03 -0.78488725670E+03  0.15201630771E+04  0.12699999809E+01 0.  1.
       -4    1    3    3    0  502  0.11486370297E+04  0.61276352400E+03  0.28779272161E+03  0.13332938258E+04  0.12699999809E+01 0. -1.
</event>
<event>
 5   0  0.1394410E-06  0.2796454E+04  0.7818609E-02  0.8304370E-01
       -2   -1    0    0    0  501  0.00000000000E+00  0.00000000000E+00  0.99192574067E+03  0.99192574068E+03  0.25500000920E-02 0.  1.
        2   -1    0    0  501    0  0.00000000000E+00  0.00000000000E+00 -0.19709528533E+04  0.19709528533E+04  0.25500000920E-02 0. -1.
    10030    2    1    2    0    0  0.00000000000E+00  0.00000000000E+00 -0.97902711261E+03  0.29628785940E+04  0.27964540896E+04 0.  0.
        4    1    3    3  502    0 -0.10749762308E+04  0.46317332111E+03 -0.12998391086E+04  0.17491960277E+04  0.12699999809E+01 0. -1.
       -4    1    3    3    0  502  0.10749762308E+04 -0.46317332111E+03  0.32081199595E+03  0.12136825663E+04  0.12699999809E+01 0.  1.
</event>
<event>
 5   0  0.1439207E-06  0.2799243E+04  0.7818609E-02  0.8303503E-01
       -2   -1    0    0    0  501  0.00000000000E+00  0.00000000000E+00  0.84873443835E+03  0.84873443835E+03  0.25500000920E-02 0.  1.
        2   -1    0    0  501    0  0.00000000000E+00  0.00000000000E+00 -0.23080717692E+04  0.23080717692E+04  0.25500000920E-02 0. -1.
    10030    2    1    2    0    0  0.00000000000E+00  0.00000000000E+00 -0.14593373309E+04  0.31568062076E+04  0.27992427524E+04 0.  0.
        5    1    3    3  502    0 -0.55886117668E+03 -0.33197062223E+03 -0.21275096051E+04  0.22246009797E+04  0.46999998093E+01 0. -1.
       -5    1    3    3    0  502  0.55886117668E+03  0.33197062223E+03  0.66817227426E+03  0.93220522790E+03  0.46999998093E+01 0.  1.
</event>
<event>
 5   0  0.5362952E-07  0.2793750E+04  0.7818609E-02  0.8305211E-01
       -1   -1    0    0    0  501  0.00000000000E+00  0.00000000000E+00  0.12418181825E+04  0.12418181825E+04  0.50400001928E-02 0.  1.
        1   -1    0    0  501    0  0.00000000000E+00  0.00000000000E+00 -0.15712928630E+04  0.15712928631E+04  0.50400001928E-02 0. -1.
    10030    2    1    2    0    0  0.00000000000E+00  0.00000000000E+00 -0.32947468056E+03  0.28131110455E+04  0.27937502017E+04 0.  0.
        1    1    3    3  502    0  0.63423536869E+02 -0.13954342110E+04 -0.16380086211E+03  0.14064458414E+04  0.50400001928E-02 0. -1.
       -1    1    3    3    0  502 -0.63423536869E+02  0.13954342110E+04 -0.16567381845E+03  0.14066652041E+04  0.50400001928E-02 0.  1.
</event>
<event>
 5   0  0.1499888E-06  0.2799419E+04  0.7818609E-02  0.8303449E-01
        2   -1    0    0  501    0  0.00000000000E+00  0.00000000000E+00  0.24334094489E+04  0.24334094489E+04  0.25500000920E-02 0.  1.
       -2   -1    0    0    0  501  0.00000000000E+00  0.00000000000E+00 -0.80511994903E+03  0.80511994904E+03  0.25500000920E-02 0. -1.
    10030    2    1    2    0    0  0.00000000000E+00  0.00000000000E+00  0.16282894999E+04  0.32385293980E+04  0.27994188622E+04 0.  0.
        3    1    3    3  502    0  0.82250361911E+02 -0.38542014478E+02 -0.80170678966E+03  0.80683604017E+03  0.10100000352E+00 0. -1.
       -3    1    3    3    0  502 -0.82250361911E+02  0.38542014478E+02  0.24299962896E+04  0.24316933578E+04  0.10100000352E+00 0.  1.
</event>
<event>
 5   0  0.1461146E-06  0.2790463E+04  0.7818609E-02  0.8306235E-01
        2   -1    0    0  501    0  0.00000000000E+00  0.00000000000E+00  0.10514258507E+04  0.10514258508E+04  0.25500000920E-02 0. -1.
       -2   -1    0    0    0  501  0.00000000000E+00  0.00000000000E+00 -0.18514575176E+04  0.18514575176E+04  0.25500000920E-02 0.  1.
    10030    2    1    2    0    0  0.00000000000E+00  0.00000000000E+00 -0.80003166687E+03  0.29028833684E+04  0.27904625391E+04 0.  0.
        1    1    3    3  502    0  0.70500768754E+03  0.51391520410E+03  0.73266841802E+03  0.11392750709E+04  0.50400001928E-02 0. -1.
       -1    1    3    3    0  502 -0.70500768754E+03 -0.51391520410E+03 -0.15327000849E+04  0.17636082974E+04  0.50400001928E-02 0.  1.
</event>
<event>
 5   0  0.1377807E-06  0.2798211E+04  0.7818609E-02  0.8303824E-01
        2   -1    0    0  501    0  0.00000000000E+00  0.00000000000E+00  0.24613188640E+04  0.24613188640E+04  0.25500000920E-02 0. -1.
       -2   -1    0    0    0  501  0.00000000000E+00  0.00000000000E+00 -0.79530392508E+03  0.79530392508E+03  0.25500000920E-02 0.  1.
    10030    2    1    2    0    0  0.00000000000E+00  0.00000000000E+00  0.16660149390E+04  0.32566227891E+04  0.27982112525E+04 0.  0.
        2    1    3    3  502    0  0.22712065377E+03 -0.62534636593E+03 -0.59941935774E+03  0.89551406197E+03  0.25500000920E-02 0.  1.
       -2    1    3    3    0  502 -0.22712065377E+03  0.62534636593E+03  0.22654342967E+04  0.23611087271E+04  0.25500000920E-02 0. -1.
</event>
<event>
 5   0  0.5214658E-07  0.2795557E+04  0.7818609E-02  0.8304649E-01
       -1   -1    0    0    0  501  0.00000000000E+00  0.00000000000E+00  0.25823779528E+04  0.25823779528E+04  0.50400001928E-02 0.  1.
        1   -1    0    0  501    0  0.00000000000E+00  0.00000000000E+00 -0.75658331327E+03  0.75658331328E+03  0.50400001928E-02 0. -1.
    10030    2    1    2    0    0  0.00000000000E+00  0.00000000000E+00  0.18257946395E+04  0.33389612661E+04  0.27955565225E+04 0.  0.
        2    1    3    3  502    0  0.10249340123E+03  0.13758085903E+04  0.11811148308E+04  0.18161460343E+04  0.25500000920E-02 0.  1.
       -2    1    3    3    0  502 -0.10249340123E+03 -0.13758085903E+04  0.64467980874E+03  0.15228152318E+04  0.25500000920E-02 0. -1.
</event>
<event>
 5   0  0.5282098E-07  0.2793977E+04  0.7818609E-02  0.8305141E-01
        1   -1    0    0  501    0  0.00000000000E+00  0.00000000000E+00  0.13725433128E+04  0.13725433128E+04  0.50400001928E-02 0. -1.
       -1   -1    0    0    0  501  0.00000000000E+00  0.00000000000E+00 -0.14218694753E+04  0.14218694753E+04  0.50400001928E-02 0.  1.
    10030    2    1    2    0    0  0.00000000000E+00  0.00000000000E+00 -0.49326162497E+02  0.27944127882E+04  0.27939774087E+04 0.  0.
        4    1    3    3  502    0  0.53088229596E+03  0.11980507978E+04 -0.50890182727E+03  0.14057540357E+04  0.12699999809E+01 0.  1.
       -4    1    3    3    0  502 -0.53088229596E+03 -0.11980507978E+04  0.45957566477E+03  0.13886587525E+04  0.12699999809E+01 0. -1.
</event>
<event>
 5   0  0.1439207E-06  0.2794992E+04  0.7818609E-02  0.8304825E-01
       -2   -1    0    0    0  501  0.00000000000E+00  0.00000000000E+00  0.79286384400E+03  0.79286384400E+03  0.25500000920E-02 0. -1.
        2   -1    0    0  501    0  0.00000000000E+00  0.00000000000E+00 -0.24632170822E+04  0.24632170822E+04  0.25500000920E-02 0.  1.
    10030    2    1    2    0    0  0.00000000000E+00  0.00000000000E+00 -0.16703532382E+04  0.32560809262E+04  0.27949924969E+04 0.  0.
        5    1    3    3  502    0 -0.12985361218E+04  0.49133002359E+03 -0.64961185549E+03  0.15328466670E+04  0.46999998093E+01 0. -1.
       -5    1    3    3    0  502  0.12985361218E+04 -0.49133002359E+03 -0.10207413827E+04  0.17232342592E+04  0.46999998093E+01 0.  1.
</event>
<event>
 5   0  0.5214658E-07  0.2810256E+04  0.7818609E-02  0.8300091E-01
       -1   -1    0    0    0  501  0.00000000000E+00  0.00000000000E+00  0.14082360022E+04  0.14082360022E+04  0.50400001928E-02 0. -1.
        1   -1    0    0  501    0  0.00000000000E+00  0.00000000000E+00 -0.14020265613E+04  0.14020265613E+04  0.50400001928E-02 0.  1.
    10030    2    1    2    0    0  0.00000000000E+00  0.00000000000E+00  0.62094408781E+01  0.28102625635E+04  0.28102557034E+04 0.  0.
        2    1    3    3  502    0  0.83700116385E+01  0.32049508158E+03 -0.13649618944E+04  0.14021084579E+04  0.25500000920E-02 0.  1.
       -2    1    3    3    0  502 -0.83700116385E+01 -0.32049508158E+03  0.13711713353E+04  0.14081541056E+04  0.25500000920E-02 0. -1.
</event>
<event>
 5   0  0.5297741E-07  0.2838849E+04  0.7818609E-02  0.8291308E-01
        1   -1    0    0  501    0  0.00000000000E+00  0.00000000000E+00  0.11750538328E+04  0.11750538328E+04  0.50400001928E-02 0. -1.
       -1   -1    0    0    0  501  0.00000000000E+00  0.00000000000E+00 -0.17146160139E+04  0.17146160140E+04  0.50400001928E-02 0.  1.
    10030    2    1    2    0    0  0.00000000000E+00  0.00000000000E+00 -0.53956218117E+03  0.28896698467E+04  0.28388491464E+04 0.  0.
        5    1    3    3  502    0 -0.10310493205E+04  0.30375640091E+02 -0.12623051731E+04  0.16301600599E+04  0.46999998093E+01 0.  1.
       -5    1    3    3    0  502  0.10310493205E+04 -0.30375640091E+02  0.72274299189E+03  0.12595097869E+04  0.46999998093E+01 0. -1.
</event>
<event>
 5   0  0.5282098E-07  0.2805988E+04  0.7818609E-02  0.8301412E-01
        1   -1    0    0  501    0  0.00000000000E+00  0.00000000000E+00  0.14999010291E+04  0.14999010291E+04  0.50400001928E-02 0. -1.
       -1   -1    0    0    0  501  0.00000000000E+00  0.00000000000E+00 -0.13123478477E+04  0.13123478477E+04  0.50400001928E-02 0.  1.
    10030    2    1    2    0    0  0.00000000000E+00  0.00000000000E+00  0.18755318140E+03  0.28122488767E+04  0.28059878027E+04 0.  0.
        4    1    3    3  502    0 -0.61928365554E+03  0.37853526233E+03 -0.11095644133E+04  0.13258717852E+04  0.12699999809E+01 0.  1.
       -4    1    3    3    0  502  0.61928365554E+03 -0.37853526233E+03  0.12971175947E+04  0.14863770915E+04  0.12699999809E+01 0. -1.
</event>
<event>
 5   0  0.5551565E-07  0.2801222E+04  0.7818609E-02  0.8302889E-01
       -1   -1    0    0    0  501  0.00000000000E+00  0.00000000000E+00  0.12918036811E+04  0.12918036811E+04  0.50400001928E-02 0.  1.
        1   -1    0    0  501    0  0.00000000000E+00  0.00000000000E+00 -0.15185835263E+04  0.15185835263E+04  0.50400001928E-02 0. -1.
    10030    2    1    2    0    0  0.00000000000E+00  0.00000000000E+00 -0.22677984524E+03  0.28103872074E+04  0.28012224398E+04 0.  0.
        3    1    3    3  502    0 -0.13571103304E+04 -0.33870281442E+03 -0.40739376449E+02  0.13993311803E+04  0.10100000352E+00 0. -1.
       -3    1    3    3    0  502  0.13571103304E+04  0.33870281442E+03 -0.18604046879E+03  0.14110560271E+04  0.10100000352E+00 0.  1.
</event>
<event>
 5   0  0.5297741E-07  0.2799857E+04  0.7818609E-02  0.8303313E-01
       -1   -1    0    0    0  501  0.00000000000E+00  0.00000000000E+00  0.13719654092E+04  0.13719654093E+04  0.50400001928E-02 0. -1.
        1   -1    0    0  501    0  0.00000000000E+00  0.00000000000E+00 -0.14284617129E+04  0.14284617129E+04  0.50400001928E-02 0.  1.
    10030    2    1    2    0    0  0.00000000000E+00  0.00000000000E+00 -0.56496303626E+02  0.28004271221E+04  0.27998571810E+04 0.  0.
        5    1    3    3  502    0 -0.13689019372E+04  0.30082991423E+02 -0.31982158897E+03  0.14060958143E+04  0.46999998093E+01 0.  1.
       -5    1    3    3    0  502  0.13689019372E+04 -0.30082991423E+02  0.26332528534E+03  0.13943313079E+04  0.46999998093E+01 0. -1.
</event>
<event>
 5   0  0.5362952E-07  0.2781979E+04  0.7818609E-02  0.8308885E-01
        1   -1    0    0  501    0  0.00000000000E+00  0.00000000000E+00  0.17203705023E+04  0.17203705023E+04  0.50400001928E-02 0. -1.
       -1   -1    0    0    0  501  0.00000000000E+00  0.00000000000E+00 -0.11246717723E+04  0.11246717724E+04  0.50400001928E-02 0.  1.
    10030    2    1    2    0    0  0.00000000000E+00  0.00000000000E+00  0.59569872994E+03  0.28450422747E+04  0.27819792536E+04 0.  0.
        1    1    3    3  502    0  0.12017988235E+03 -0.89622554066E+03 -0.78308197239E+03  0.11961942983E+04  0.50400001928E-02 0.  1.
       -1    1    3    3    0  502 -0.12017988235E+03  0.89622554066E+03  0.13787807023E+04  0.16488479763E+04  0.50400001928E-02 0. -1.
</event>
<event>
 5   0  0.1461146E-06  0.2800308E+04  0.7818609E-02  0.8303173E-01
       -2   -1    0    0    0  501  0.00000000000E+00  0.00000000000E+00  0.21285670425E+04  0.21285670425E+04  0.25500000920E-02 0. -1.
        2   -1    0    0  501    0  0.00000000000E+00  0.00000000000E+00 -0.92101018349E+03  0.92101018350E+03  0.25500000920E-02 0.  1.
    10030    2    1    2    0    0  0.00000000000E+00  0.00000000000E+00  0.12075568590E+04  0.30495772260E+04  0.28003084990E+04 0.  0.
        1    1    3    3  502    0 -0.10014030489E+04 -0.83657418155E+03  0.11566800116E+04  0.17437239107E+04  0.50400001928E-02 0. -1.
       -1    1    3    3    0  502  0.10014030489E+04  0.83657418155E+03  0.50876847452E+02  0.13058533153E+04  0.50400001928E-02 0.  1.
</event>
<event>
 5   0  0.5362952E-07  0.2799571E+04  0.7818609E-02  0.8303402E-01
        1   -1    0    0  501    0  0.00000000000E+00  0.00000000000E+00  0.14639938686E+04  0.14639938686E+04  0.50400001928E-02 0.  1.
       -1   -1    0    0    0  501  0.00000000000E+00  0.00000000000E+00 -0.13383932824E+04  0.13383932824E+04  0.50400001928E-02 0. -1.
    10030    2    1    2    0    0  0.00000000000E+00  0.00000000000E+00  0.12560058616E+03  0.28023871510E+04  0.27995710808E+04 0.  0.
        1    1    3    3  502    0 -0.86809616353E+02  0.11689802790E+04  0.82865076547E+03  0.14355183361E+04  0.50400001928E-02 0.  1.
       -1    1    3    3    0  502  0.86809616353E+02 -0.11689802790E+04 -0.70305017930E+03  0.13668688148E+04  0.50400001928E-02 0. -1.
</event>
<event>
 5   0  0.1394410E-06  0.2796718E+04  0.7818609E-02  0.8304288E-01
        2   -1    0    0  501    0  0.00000000000E+00  0.00000000000E+00  0.18616084651E+04  0.18616084651E+04  0.25500000920E-02 0. -1.
       -2   -1    0    0    0  501  0.00000000000E+00  0.00000000000E+00 -0.10503860578E+04  0.10503860578E+04  0.25500000920E-02 0.  1.
    10030    2    1    2    0    0  0.00000000000E+00  0.00000000000E+00  0.81122240728E+03  0.29119945230E+04  0.27967177740E+04 0.  0.
        4    1    3    3  502    0 -0.34586849376E+03  0.13351778927E+04  0.16572170890E+03  0.13891689306E+04  0.12699999809E+01 0. -1.
       -4    1    3    3    0  502  0.34586849376E+03 -0.13351778927E+04  0.64550069837E+03  0.15228255923E+04  0.12699999809E+01 0.  1.
</event>
<event>
 5   0  0.1439207E-06  0.2818418E+04  0.7818609E-02  0.8297573E-01
       -2   -1    0    0    0  501  0.00000000000E+00  0.00000000000E+00  0.18407236467E+04  0.18407236467E+04  0.25500000920E-02 0. -1.
        2   -1    0    0  501    0  0.00000000000E+00  0.00000000000E+00 -0.10788527912E+04  0.10788527912E+04  0.25500000920E-02 0.  1.
    10030    2    1    2    0    0  0.00000000000E+00  0.00000000000E+00  0.76187085554E+03  0.29195764379E+04  0.28184178853E+04 0.  0.
        5    1    3    3  502    0 -0.20112468938E+02 -0.14015379083E+04  0.53153122784E+03  0.14990865738E+04  0.46999998093E+01 0. -1.
       -5    1    3    3    0  502  0.20112468938E+02  0.14015379083E+04  0.23033962770E+03  0.14204898640E+04  0.46999998093E+01 0.  1.
</event>
<event>
 5   0  0.5214658E-07  0.2802284E+04  0.7818609E-02  0.8302560E-01
        1   -1    0    0  501    0  0.00000000000E+00  0.00000000000E+00  0.29927349423E+04  0.29927349423E+04  0.50400001928E-02 0.  1.
       -1   -1    0    0    0  501  0.00000000000E+00  0.00000000000E+00 -0.65598824009E+03  0.65598824011E+03  0.50400001928E-02 0. -1.
    10030    2    1    2    0    0  0.00000000000E+00  0.00000000000E+00  0.23367467022E+04  0.36487231824E+04  0.28022840169E+04 0.  0.
        2    1    3    3  502    0 -0.43835036115E+03  0.12715164673E+04  0.16798230773E+04  0.21519086265E+04  0.25500000920E-02 0.  1.
       -2    1    3    3    0  502  0.43835036115E+03 -0.12715164673E+04  0.65692362485E+03  0.14968145559E+04  0.25500000920E-02 0. -1.
</event>
<event>
 5   0  0.5362952E-07  0.2801147E+04  0.7818609E-02  0.8302912E-01
        1   -1    0    0  501    0  0.00000000000E+00  0.00000000000E+00  0.21624879125E+04  0.21624879125E+04  0.50400001928E-02 0.  1.
       -1   -1    0    0    0  501  0.00000000000E+00  0.00000000000E+00 -0.90710591480E+03  0.90710591481E+03  0.50400001928E-02 0. -1.
    10030    2    1    2    0    0  0.00000000000E+00  0.00000000000E+00  0.12553819977E+04  0.30695938273E+04  0.28011466053E+04 0.  0.
        1    1    3    3  502    0 -0.54736219281E+03 -0.96652429761E+03 -0.30719863560E+03  0.11524519902E+04  0.50400001928E-02 0. -1.
       -1    1    3    3    0  502  0.54736219281E+03  0.96652429761E+03  0.15625806333E+04  0.19171418371E+04  0.50400001928E-02 0.  1.
</event>
<event>
 5   0  0.1377807E-06  0.2795143E+04  0.7818609E-02  0.8304778E-01
        2   -1    0    0  501    0  0.00000000000E+00  0.00000000000E+00  0.17733535175E+04  0.17733535175E+04  0.25500000920E-02 0.  1.
       -2   -1    0    0    0  501  0.00000000000E+00  0.00000000000E+00 -0.11014190820E+04  0.11014190820E+04  0.25500000920E-02 0. -1.
    10030    2    1    2    0    0  0.00000000000E+00  0.00000000000E+00  0.67193443556E+03  0.28747725995E+04  0.27951425032E+04 0.  0.
        2    1    3    3  502    0  0.62986223921E+02 -0.72660808063E+03  0.15621047520E+04  0.17239773268E+04  0.25500000920E-02 0.  1.
       -2    1    3    3    0  502 -0.62986223921E+02  0.72660808063E+03 -0.89017031645E+03  0.11507952726E+04  0.25500000920E-02 0. -1.
</event>
<event>
 5   0  0.5551565E-07  0.2816527E+04  0.7818609E-02  0.8298156E-01
        1   -1    0    0  501    0  0.00000000000E+00  0.00000000000E+00  0.13884672611E+04  0.13884672611E+04  0.50400001928E-02 0.  1.
       -1   -1    0    0    0  501  0.00000000000E+00  0.00000000000E+00 -0.14283423198E+04  0.14283423198E+04  0.50400001928E-02 0. -1.
    10030    2    1    2    0    0  0.00000000000E+00  0.00000000000E+00 -0.39875058658E+02  0.28168095809E+04  0.28165273289E+04 0.  0.
        3    1    3    3  502    0 -0.13594721313E+04 -0.36589489501E+03 -0.54043563841E+02  0.14088875991E+04  0.10100000352E+00 0. -1.
       -3    1    3    3    0  502  0.13594721313E+04  0.36589489501E+03  0.14168505183E+02  0.14079219818E+04  0.10100000352E+00 0.  1.
</event>
<event>
 5   0  0.5551565E-07  0.2785889E+04  0.7818609E-02  0.8307663E-01
        1   -1    0    0  501    0  0.00000000000E+00  0.00000000000E+00  0.20397741253E+04  0.20397741253E+04  0.50400001928E-02 0.  1.
       -1   -1    0    0    0  501  0.00000000000E+00  0.00000000000E+00 -0.95122992801E+03  0.95122992802E+03  0.50400001928E-02 0. -1.
    10030    2    1    2    0    0  0.00000000000E+00  0.00000000000E+00  0.10885441973E+04  0.29910040533E+04  0.27858888667E+04 0.  0.
        3    1    3    3  502    0  0.66551039853E+03 -0.10283855468E+04  0.12562841978E+04  0.17546312773E+04  0.10100000352E+00 0.  1.
       -3    1    3    3    0  502 -0.66551039853E+03  0.10283855468E+04 -0.16774000054E+03  0.12363727760E+04  0.10100000352E+00 0. -1.
</event>
<event>
 5   0  0.1377807E-06  0.2800589E+04  0.7818609E-02  0.8303085E-01
        2   -1    0    0  501    0  0.00000000000E+00  0.00000000000E+00  0.17358890393E+04  0.17358890393E+04  0.25500000920E-02 0.  1.
       -2   -1    0    0    0  501  0.00000000000E+00  0.00000000000E+00 -0.11295796890E+04  0.11295796890E+04  0.25500000920E-02 0. -1.
    10030    2    1    2    0    0  0.00000000000E+00  0.00000000000E+00  0.60630935035E+03  0.28654687283E+04  0.28005892246E+04 0.  0.
        2    1    3    3  502    0 -0.35649306828E+03 -0.12551230993E+04 -0.21695582660E+03  0.13226833078E+04  0.25500000920E-02 0. -1.
       -2    1    3    3    0  502  0.35649306828E+03  0.12551230993E+04  0.82326517695E+03  0.15427854205E+04  0.25500000920E-02 0.  1.
</event>
<event>
 5   0  0.5297741E-07  0.2788600E+04  0.7818609E-02  0.8306816E-01
       -1   -1    0    0    0  501  0.00000000000E+00  0.00000000000E+00  0.11018792749E+04  0.11018792749E+04  0.50400001928E-02 0. -1.
        1   -1    0    0  501    0  0.00000000000E+00  0.00000000000E+00 -0.17643243518E+04  0.17643243518E+04  0.50400001928E-02 0.  1.
    10030    2    1    2    0    0  0.00000000000E+00  0.00000000000E+00 -0.66244507696E+03  0.28662036267E+04  0.27885999623E+04 0.  0.
        5    1    3    3  502    0  0.15263772449E+02 -0.45516234487E+03 -0.16857140875E+04  0.17461557255E+04  0.46999998093E+01 0.  1.
       -5    1    3    3    0  502 -0.15263772449E+02  0.45516234487E+03  0.10232690106E+04  0.11200479012E+04  0.46999998093E+01 0. -1.
</event>
<event>
 5   0  0.1499888E-06  0.2800065E+04  0.7818609E-02  0.8303248E-01
        2   -1    0    0  501    0  0.00000000000E+00  0.00000000000E+00  0.22133037605E+04  0.22133037605E+04  0.25500000920E-02 0.  1.
       -2   -1    0    0    0  501  0.00000000000E+00  0.00000000000E+00 -0.88559542307E+03  0.88559542308E+03  0.25500000920E-02 0. -1.
    10030    2    1    2    0    0  0.00000000000E+00  0.00000000000E+00  0.13277083375E+04  0.30988991836E+04  0.28000654851E+04 0.  0.
        3    1    3    3  502    0 -0.92357860308E+03 -0.13214492389E+03  0.18191126736E+04  0.20444144996E+04  0.10100000352E+00 0.  1.
       -3    1    3    3    0  502  0.92357860308E+03  0.13214492389E+03 -0.49140433611E+03  0.10544846840E+04  0.10100000352E+00 0. -1.
</event>
<event>
 5   0  0.1499888E-06  0.2788025E+04  0.7818609E-02  0.8306996E-01
        2   -1    0    0  501    0  0.00000000000E+00  0.00000000000E+00  0.15635576139E+04  0.15635576139E+04  0.25500000920E-02 0.  1.
       -2   -1    0    0    0  501  0.00000000000E+00  0.00000000000E+00 -0.12428520818E+04  0.12428520818E+04  0.25500000920E-02 0. -1.
    10030    2    1    2    0    0  0.00000000000E+00  0.00000000000E+00  0.32070553204E+03  0.28064096957E+04  0.27880249894E+04 0.  0.
        3    1    3    3  502    0  0.10533683674E+04  0.28087749564E+03  0.10348703673E+04  0.15031413015E+04  0.10100000352E+00 0.  1.
       -3    1    3    3    0  502 -0.10533683674E+04 -0.28087749564E+03 -0.71416483526E+03  0.13032683941E+04  0.10100000352E+00 0. -1.
</event>
<event>
 5   0  0.1377807E-06  0.2799934E+04  0.7818609E-02  0.8303289E-01
       -2   -1    0    0    0  501  0.00000000000E+00  0.00000000000E+00  0.89637545294E+03  0.89637545295E+03  0.25500000920E-02 0. -1.
        2   -1    0    0  501    0  0.00000000000E+00  0.00000000000E+00 -0.21864799413E+04  0.21864799413E+04  0.25500000920E-02 0.  1.
    10030    2    1    2    0    0  0.00000000000E+00  0.00000000000E+00 -0.12901044884E+04  0.30828553942E+04  0.27999335333E+04 0.  0.
        2    1    3    3  502    0  0.93496930339E+03  0.88038064003E+03 -0.31354416169E+02  0.12846091892E+04  0.25500000920E-02 0. -1.
       -2    1    3    3    0  502 -0.93496930339E+03 -0.88038064003E+03 -0.12587500722E+04  0.17982462050E+04  0.25500000920E-02 0.  1.
</event>
<event>
 5   0  0.5282098E-07  0.2814541E+04  0.7818609E-02  0.8298768E-01
       -1   -1    0    0    0  501  0.00000000000E+00  0.00000000000E+00  0.14660193569E+04  0.14660193569E+04  0.50400001928E-02 0. -1.
        1   -1    0    0  501    0  0.00000000000E+00  0.00000000000E+00 -0.13508763198E+04  0.13508763198E+04  0.50400001928E-02 0.  1.
    10030    2    1    2    0    0  0.00000000000E+00  0.00000000000E+00  0.11514303709E+03  0.28168956768E+04  0.28145414075E+04 0.  0.
        4    1    3    3  502    0 -0.84103066413E+03 -0.11247449030E+04  0.14723186493E+03  0.14121127823E+04  0.12699999809E+01 0. -1.
       -4    1    3    3    0  502  0.84103066413E+03  0.11247449030E+04 -0.32088827832E+02  0.14047828945E+04  0.12699999809E+01 0.  1.
</event>
<event>
 5   0  0.1461146E-06  0.2801236E+04  0.7818609E-02  0.8302885E-01
        2   -1    0    0  501    0  0.00000000000E+00  0.00000000000E+00  0.19772615205E+04  0.19772615205E+04  0.25500000920E-02 0. -1.
       -2   -1    0    0    0  501  0.00000000000E+00  0.00000000000E+00 -0.99214547488E+03  0.99214547488E+03  0.25500000920E-02 0.  1.
    10030    2    1    2    0    0  0.00000000000E+00  0.00000000000E+00  0.98511604562E+03  0.29694069954E+04  0.28012362058E+04 0.  0.
        1    1    3    3  502    0  0.17505065287E+03 -0.61803439553E+03 -0.82680036573E+03  0.10469995654E+04  0.50400001928E-02 0.  1.
       -1    1    3    3    0  502 -0.17505065287E+03  0.61803439553E+03  0.18119164113E+04  0.19224074300E+04  0.50400001928E-02 0. -1.
</event>
<event>
 5   0  0.1377807E-06  0.2790150E+04  0.7818609E-02  0.8306333E-01
       -2   -1    0    0    0  501  0.00000000000E+00  0.00000000000E+00  0.12917387905E+04  0.12917387905E+04  0.25500000920E-02 0. -1.
        2   -1    0    0  501    0  0.00000000000E+00  0.00000000000E+00 -0.15066782836E+04  0.15066782836E+04  0.25500000920E-02 0.  1.
    10030    2    1    2    0    0  0.00000000000E+00  0.00000000000E+00 -0.21493949311E+03  0.27984170742E+04  0.27901503786E+04 0.  0.
        2    1    3    3  502    0 -0.61511724639E+03  0.44160374684E+03 -0.12826287768E+04  0.14894695952E+04  0.25500000920E-02 0.  1.
       -2    1    3    3    0  502  0.61511724639E+03 -0.44160374684E+03  0.10676892837E+04  0.13089474789E+04  0.25500000920E-02 0. -1.
</event>
<event>
 5   0  0.1461146E-06  0.2800926E+04  0.7818609E-02  0.8302981E-01
        2   -1    0    0  501    0  0.00000000000E+00  0.00000000000E+00  0.29768046329E+04  0.29768046329E+04  0.25500000920E-02 0.  1.
       -2   -1    0    0    0  501  0.00000000000E+00  0.00000000000E+00 -0.65885952735E+03  0.65885952736E+03  0.25500000920E-02 0. -1.
    10030    2    1    2    0    0  0.00000000000E+00  0.00000000000E+00  0.23179451056E+04  0.36356641603E+04  0.28009256281E+04 0.  0.
        1    1    3    3  502    0 -0.38837295877E+03  0.13105457745E+04  0.15546720978E+04  0.20701133094E+04  0.50400001928E-02 0. -1.
       -1    1    3    3    0  502  0.38837295877E+03 -0.13105457745E+04  0.76327300782E+03  0.15655508509E+04  0.50400001928E-02 0.  1.
</event>
<event>
 5   0  0.1499888E-06  0.2800253E+04  0.7818609E-02  0.8303190E-01
       -2   -1    0    0    0  501  0.00000000000E+00  0.00000000000E+00  0.75813406848E+03  0.75813406849E+03  0.25500000920E-02 0. -1.
        2   -1    0    0  501    0  0.00000000000E+00  0.00000000000E+00 -0.25857613902E+04  0.25857613902E+04  0.25500000920E-02 0.  1.
    10030    2    1    2    0    0  0.00000000000E+00  0.00000000000E+00 -0.18276273218E+04  0.33438954587E+04  0.28002527050E+04 0.  0.
        3    1    3    3  502    0  0.63699014829E+03 -0.42520854728E+03 -0.23134539565E+04  0.24369300311E+04  0.10100000352E+00 0.  1.
       -3    1    3    3    0  502 -0.63699014829E+03  0.42520854728E+03  0.48582663470E+03  0.90696542761E+03  0.10100000352E+00 0. -1.
</event>
<event>
 5   0  0.5214658E-07  0.2788836E+04  0.7818609E-02  0.8306743E-01
        1   -1    0    0  501    0  0.00000000000E+00  0.00000000000E+00  0.12149513905E+04  0.12149513905E+04  0.50400001928E-02 0. -1.
       -1   -1    0    0    0  501  0.00000000000E+00  0.00000000000E+00 -0.16003945068E+04  0.16003945068E+04  0.50400001928E-02 0.  1.
    10030    2    1    2    0    0  0.00000000000E+00  0.00000000000E+00 -0.38544311631E+03  0.28153458972E+04  0.27888359803E+04 0.  0.
        2    1    3    3  502    0 -0.12367859681E+03 -0.13019945714E+04  0.29552374743E+03  0.13408283054E+04  0.25500000920E-02 0. -1.
       -2    1    3    3    0  502  0.12367859681E+03  0.13019945714E+04 -0.68096686374E+03  0.14745175919E+04  0.25500000920E-02 0.  1.
</event>
<event>
 5   0  0.1461146E-06  0.2800179E+04  0.7818609E-02  0.8303213E-01
        2   -1    0    0  501    0  0.00000000000E+00  0.00000000000E+00  0.12450684636E+04  0.12450684636E+04  0.25500000920E-02 0. -1.
       -2   -1    0    0    0  501  0.00000000000E+00  0.00000000000E+00 -0.15744115013E+04  0.15744115013E+04  0.25500000920E-02 0.  1.
    10030    2    1    2    0    0  0.00000000000E+00  0.00000000000E+00 -0.32934303768E+03  0.28194799650E+04  0.28001786436E+04 0.  0.
        1    1    3    3  502    0 -0.83197028998E+03  0.10355059658E+04 -0.61021785693E+03  0.14617841843E+04  0.50400001928E-02 0.  1.
       -1    1    3    3    0  502  0.83197028998E+03 -0.10355059658E+04  0.28087481925E+03  0.13576957806E+04  0.50400001928E-02 0. -1.
</event>
<event>
 5   0  0.1394410E-06  0.2797371E+04  0.7818609E-02  0.8304085E-01
       -2   -1    0    0    0  501  0.00000000000E+00  0.00000000000E+00  0.14310594695E+04  0.14310594695E+04  0.25500000920E-02 0. -1.
        2   -1    0    0  501    0  0.00000000000E+00  0.00000000000E+00 -0.13670439499E+04  0.13670439499E+04  0.25500000920E-02 0.  1.
    10030    2    1    2    0    0  0.00000000000E+00  0.00000000000E+00  0.64015519541E+02  0.27981034194E+04  0.27973710442E+04 0.  0.
        4    1    3    3  502    0 -0.10008439538E+04 -0.88587283799E+03  0.44425674421E+03  0.14084832170E+04  0.12699999809E+01 0. -1.
       -4    1    3    3    0  502  0.10008439538E+04  0.88587283799E+03 -0.38024122467E+03  0.13896202024E+04  0.12699999809E+01 0.  1.
</event>
<event>
 5   0  0.5362952E-07  0.2800096E+04  0.7818609E-02  0.8303238E-01
       -1   -1    0    0    0  501  0.00000000000E+00  0.00000000000E+00  0.12729545648E+04  0.12729545648E+04  0.50400001928E-02 0. -1.
        1   -1    0    0  501    0  0.00000000000E+00  0.00000000000E+00 -0.15398311221E+04  0.15398311221E+04  0.50400001928E-02 0.  1.
    10030    2    1    2    0    0  0.00000000000E+00  0.00000000000E+00 -0.26687655736E+03  0.28127856869E+04  0.28000964668E+04 0.  0.
        1    1    3    3  502    0 -0.10288153134E+04  0.18928606615E+03 -0.10681629366E+04  0.14950793367E+04  0.50400001928E-02 0.  1.
       -1    1    3    3    0  502  0.10288153134E+04 -0.18928606615E+03  0.80128637920E+03  0.13177063502E+04  0.50400001928E-02 0. -1.
</event>
<event>
 5   0  0.5214658E-07  0.2802258E+04  0.7818609E-02  0.8302568E-01
        1   -1    0    0  501    0  0.00000000000E+00  0.00000000000E+00  0.18193595995E+04  0.18193595995E+04  0.50400001928E-02 0. -1.
       -1   -1    0    0    0  501  0.00000000000E+00  0.00000000000E+00 -0.10790403244E+04  0.10790403244E+04  0.50400001928E-02 0.  1.
    10030    2    1    2    0    0  0.00000000000E+00  0.00000000000E+00  0.74031927504E+03  0.28983999239E+04  0.28022579271E+04 0.  0.
        2    1    3    3  502    0 -0.65436968738E+03 -0.11628535465E+04  0.81230009566E+03  0.15621329981E+04  0.25500000920E-02 0. -1.
       -2    1    3    3    0  502  0.65436968738E+03  0.11628535465E+04 -0.71980820615E+02  0.13362669258E+04  0.25500000920E-02 0.  1.
</event>
<event>
 5   0  0.5297741E-07  0.2802642E+04  0.7818609E-02  0.8302449E-01
        1   -1    0    0  501    0  0.00000000000E+00  0.00000000000E+00  0.12550463081E+04  0.12550463081E+04  0.50400001928E-02 0. -1.
       -1   -1    0    0    0  501  0.00000000000E+00  0.00000000000E+00 -0.15646436859E+04  0.15646436859E+04  0.50400001928E-02 0.  1.
    10030    2    1    2    0    0  0.00000000000E+00  0.00000000000E+00 -0.30959737777E+03  0.28196899940E+04  0.28026418120E+04 0.  0.
        5    1    3    3  502    0 -0.12962360149E+04 -0.49564971119E+03  0.40758955054E+02  0.13883730856E+04  0.46999998093E+01 0. -1.
       -5    1    3    3    0  502  0.12962360149E+04  0.49564971119E+03 -0.35035633283E+03  0.14313169084E+04  0.46999998093E+01 0.  1.
</event>
<event>
 5   0  0.4710000E-07  0.2800214E+04  0.7818609E-02  0.8303202E-01
       -3   -1    0    0    0  501  0.00000000000E+00  0.00000000000E+00  0.79911133955E+03  0.79911134594E+03  0.10100000352E+00 0.  1.
        3   -1    0    0  501    0  0.00000000000E+00  0.00000000000E+00 -0.24530987559E+04  0.24530987580E+04  0.10100000352E+00 0. -1.
    10030    2    1    2    0    0  0.00000000000E+00  0.00000000000E+00 -0.16539874163E+04  0.32522101039E+04  0.28002135966E+04 0.  0.
        5    1    3    3  502    0 -0.43214901113E+03 -0.81933080615E+03  0.39233786198E+03  0.10059854997E+04  0.46999998093E+01 0.  1.
       -5    1    3    3    0  502  0.43214901113E+03  0.81933080615E+03 -0.20463252783E+04  0.22462246042E+04  0.46999998093E+01 0. -1.
</event>
<event>
 5   0  0.5551565E-07  0.2811225E+04  0.7818609E-02  0.8299792E-01
        1   -1    0    0  501    0  0.00000000000E+00  0.00000000000E+00  0.12676586976E+04  0.12676586976E+04  0.50400001928E-02 0.  1.
       -1   -1    0    0    0  501  0.00000000000E+00  0.00000000000E+00 -0.15585787107E+04  0.15585787108E+04  0.50400001928E-02 0. -1.
    10030    2    1    2    0    0  0.00000000000E+00  0.00000000000E+00 -0.29092001312E+03  0.28262374084E+04  0.28112245436E+04 0.  0.
        3    1    3    3  502    0 -0.93004464304E+03  0.10371138512E+03  0.90895306566E+03  0.13045822225E+04  0.10100000352E+00 0.  1.
       -3    1    3    3    0  502  0.93004464304E+03 -0.10371138512E+03 -0.11998730788E+04  0.15216551859E+04  0.10100000352E+00 0. -1.
</event>
<event>
 5   0  0.1394410E-06  0.2793426E+04  0.7818609E-02  0.8305312E-01
       -2   -1    0    0    0  501  0.00000000000E+00  0.00000000000E+00  0.15471840331E+04  0.15471840331E+04  0.25500000920E-02 0.  1.
        2   -1    0    0  501    0  0.00000000000E+00  0.00000000000E+00 -0.12608758301E+04  0.12608758301E+04  0.25500000920E-02 0. -1.
    10030    2    1    2    0    0  0.00000000000E+00  0.00000000000E+00  0.28630820300E+03  0.28080598632E+04  0.27934258193E+04 0.  0.
        4    1    3    3  502    0  0.41904529688E+03  0.13257255117E+04  0.95736215698E+01  0.13904101411E+04  0.12699999809E+01 0. -1.
       -4    1    3    3    0  502 -0.41904529688E+03 -0.13257255117E+04  0.27673458143E+03  0.14176497221E+04  0.12699999809E+01 0.  1.
</event>
<event>
 5   0  0.5362952E-07  0.2800157E+04  0.7818609E-02  0.8303220E-01
        1   -1    0    0  501    0  0.00000000000E+00  0.00000000000E+00  0.19663156880E+04  0.19663156880E+04  0.50400001928E-02 0. -1.
       -1   -1    0    0    0  501  0.00000000000E+00  0.00000000000E+00 -0.99689980042E+03  0.99689980044E+03  0.50400001928E-02 0.  1.
    10030    2    1    2    0    0  0.00000000000E+00  0.00000000000E+00  0.96941588761E+03  0.29632154885E+04  0.28001569363E+04 0.  0.
        1    1    3    3  502    0 -0.50374492868E+02 -0.96952037785E+03  0.15522706359E+04  0.18308608575E+04  0.50400001928E-02 0. -1.
       -1    1    3    3    0  502  0.50374492868E+02  0.96952037785E+03 -0.58285474827E+03  0.11323546309E+04  0.50400001928E-02 0.  1.
</event>
<event>
 5   0  0.1439207E-06  0.2799695E+04  0.7818609E-02  0.8303363E-01
        2   -1    0    0  501    0  0.00000000000E+00  0.00000000000E+00  0.17834917464E+04  0.17834917464E+04  0.25500000920E-02 0.  1.
       -2   -1    0    0    0  501  0.00000000000E+00  0.00000000000E+00 -0.10987284852E+04  0.10987284852E+04  0.25500000920E-02 0. -1.
    10030    2    1    2    0    0  0.00000000000E+00  0.00000000000E+00  0.68476326126E+03  0.28822202316E+04  0.27996951155E+04 0.  0.
        5    1    3    3  502    0  0.66153088533E+03 -0.31751273035E+03 -0.88486211653E+03  0.11495392562E+04  0.46999998093E+01 0. -1.
       -5    1    3    3    0  502 -0.66153088533E+03  0.31751273035E+03  0.15696253778E+04  0.17326809755E+04  0.46999998093E+01 0.  1.
</event>
<event>
 5   0  0.1439207E-06  0.2817306E+04  0.7818609E-02  0.8297915E-01
       -2   -1    0    0    0  501  0.00000000000E+00  0.00000000000E+00  0.21695916567E+04  0.21695916567E+04  0.25500000920E-02 0. -1.
        2   -1    0    0  501    0  0.00000000000E+00  0.00000000000E+00 -0.91459780619E+03  0.91459780619E+03  0.25500000920E-02 0.  1.
    10030    2    1    2    0    0  0.00000000000E+00  0.00000000000E+00  0.12549938505E+04  0.30841894629E+04  0.28173063515E+04 0.  0.
        5    1    3    3  502    0 -0.26890853979E+03  0.39055383402E+03  0.20795881690E+04  0.21329681532E+04  0.46999998093E+01 0. -1.
       -5    1    3    3    0  502  0.26890853979E+03 -0.39055383402E+03 -0.82459431844E+03  0.95122130971E+03  0.46999998093E+01 0.  1.
</event>
<event>
 5   0  0.1439207E-06  0.2801241E+04  0.7818609E-02  0.8302883E-01
       -2   -1    0    0    0  501  0.00000000000E+00  0.00000000000E+00  0.12310428991E+04  0.12310428991E+04  0.25500000920E-02 0. -1.
        2   -1    0    0  501    0  0.00000000000E+00  0.00000000000E+00 -0.15935575107E+04  0.15935575107E+04  0.25500000920E-02 0.  1.
    10030    2    1    2    0    0  0.00000000000E+00  0.00000000000E+00 -0.36251461162E+03  0.28246004098E+04  0.28012409092E+04 0.  0.
        5    1    3    3  502    0 -0.12909701440E+04 -0.11901066120E+03  0.35320812585E+03  0.13437058906E+04  0.46999998093E+01 0. -1.
       -5    1    3    3    0  502  0.12909701440E+04  0.11901066120E+03 -0.71572273747E+03  0.14808945192E+04  0.46999998093E+01 0.  1.
</event>
<event>
 5   0  0.1377807E-06  0.2801346E+04  0.7818609E-02  0.8302850E-01
        2   -1    0    0  501    0  0.00000000000E+00  0.00000000000E+00  0.20589603512E+04  0.20589603512E+04  0.25500000920E-02 0. -1.
       -2   -1    0    0    0  501  0.00000000000E+00  0.00000000000E+00 -0.95285249266E+03  0.95285249267E+03  0.25500000920E-02 0.  1.
    10030    2    1    2    0    0  0.00000000000E+00  0.00000000000E+00  0.11061078586E+04  0.30118128439E+04  0.28013464641E+04 0.  0.
        2    1    3    3  502    0 -0.18284515698E+03 -0.11126897257E+04 -0.34025895563E+03  0.11778314540E+04  0.25500000920E-02 0.  1.
       -2    1    3    3    0  502  0.18284515698E+03  0.11126897257E+04  0.14463668142E+04  0.18339813899E+04  0.25500000920E-02 0. -1.
</event>
<event>
 5   0  0.5282098E-07  0.2732638E+04  0.7818609E-02  0.8324492E-01
        1   -1    0    0  501    0  0.00000000000E+00  0.00000000000E+00  0.17416452736E+04  0.17416452736E+04  0.50400001928E-02 0. -1.
       -1   -1    0    0    0  501  0.00000000000E+00  0.00000000000E+00 -0.10718756577E+04  0.10718756578E+04  0.50400001928E-02 0.  1.
    10030    2    1    2    0    0  0.00000000000E+00  0.00000000000E+00  0.66976961588E+03  0.28135209314E+04  0.27326376805E+04 0.  0.
        4    1    3    3  502    0 -0.11868217510E+04  0.66499861926E+03  0.46534977845E+03  0.14378181601E+04  0.12699999809E+01 0.  1.
       -4    1    3    3    0  502  0.11868217510E+04 -0.66499861926E+03  0.20441983743E+03  0.13757027713E+04  0.12699999809E+01 0. -1.
</event>
<event>
 5   0  0.1461146E-06  0.2799732E+04  0.7818609E-02  0.8303352E-01
       -2   -1    0    0    0  501  0.00000000000E+00  0.00000000000E+00  0.66356398389E+03  0.66356398390E+03  0.25500000920E-02 0.  1.
        2   -1    0    0  501    0  0.00000000000E+00  0.00000000000E+00 -0.29531808165E+04  0.29531808165E+04  0.25500000920E-02 0. -1.
    10030    2    1    2    0    0  0.00000000000E+00  0.00000000000E+00 -0.22896168326E+04  0.36167448004E+04  0.27997317213E+04 0.  0.
        1    1    3    3  502    0  0.11408328424E+04 -0.34384012073E+03 -0.20940082183E+04  0.24092729238E+04  0.50400001928E-02 0. -1.
       -1    1    3    3    0  502 -0.11408328424E+04  0.34384012073E+03 -0.19560861427E+03  0.12074718766E+04  0.50400001928E-02 0.  1.
</event>
<event>
 5   0  0.1439207E-06  0.2798438E+04  0.7818609E-02  0.8303754E-01
        2   -1    0    0  501    0  0.00000000000E+00  0.00000000000E+00  0.22247656214E+04  0.22247656214E+04  0.25500000920E-02 0.  1.
       -2   -1    0    0    0  501  0.00000000000E+00  0.00000000000E+00 -0.88000877997E+03  0.88000877997E+03  0.25500000920E-02 0. -1.
    10030    2    1    2    0    0  0.00000000000E+00  0.00000000000E+00  0.13447568415E+04  0.31047744014E+04  0.27984376214E+04 0.  0.
        5    1    3    3  502    0 -0.95599363228E+03  0.44636176979E+03 -0.34726258648E+03  0.11107547202E+04  0.46999998093E+01 0. -1.
       -5    1    3    3    0  502  0.95599363228E+03 -0.44636176979E+03  0.16920194279E+04  0.19940196812E+04  0.46999998093E+01 0.  1.
</event>
<event>
 5   0  0.1394410E-06  0.2790827E+04  0.7818609E-02  0.8306122E-01
        2   -1    0    0  501    0  0.00000000000E+00  0.00000000000E+00  0.87836182996E+03  0.87836182996E+03  0.25500000920E-02 0.  1.
       -2   -1    0    0    0  501  0.00000000000E+00  0.00000000000E+00 -0.22168294943E+04  0.22168294943E+04  0.25500000920E-02 0. -1.
    10030    2    1    2    0    0  0.00000000000E+00  0.00000000000E+00 -0.13384676643E+04  0.30951913242E+04  0.27908266957E+04 0.  0.
        4    1    3    3  502    0  0.31879312512E+03  0.66616191583E+03 -0.19823221805E+04  0.21154204298E+04  0.12699999809E+01 0. -1.
       -4    1    3    3    0  502 -0.31879312512E+03 -0.66616191583E+03  0.64385451615E+03  0.97977089444E+03  0.12699999809E+01 0.  1.
</event>
<event>
 5   0  0.1439207E-06  0.2794162E+04  0.7818609E-02  0.8305083E-01
        2   -1    0    0  501    0  0.00000000000E+00  0.00000000000E+00  0.22560678242E+04  0.22560678242E+04  0.25500000920E-02 0.  1.
       -2   -1    0    0    0  501  0.00000000000E+00  0.00000000000E+00 -0.86514940184E+03  0.86514940184E+03  0.25500000920E-02 0. -1.
    10030    2    1    2    0    0  0.00000000000E+00  0.00000000000E+00  0.13909184224E+04  0.31212172261E+04  0.27941622921E+04 0.  0.
        5    1    3    3  502    0 -0.30614321254E+03  0.10779331217E+04 -0.23655778122E+03  0.11452707782E+04  0.46999998093E+01 0. -1.
       -5    1    3    3    0  502  0.30614321254E+03 -0.10779331217E+04  0.16274762036E+04  0.19759464479E+04  0.46999998093E+01 0.  1.
</event>
<event>
 5   0  0.1439207E-06  0.2798171E+04  0.7818609E-02  0.8303837E-01
       -2   -1    0    0    0  501  0.00000000000E+00  0.00000000000E+00  0.87499267871E+03  0.87499267871E+03  0.25500000920E-02 0.  1.
        2   -1    0    0  501    0  0.00000000000E+00  0.00000000000E+00 -0.22370926982E+04  0.22370926982E+04  0.25500000920E-02 0. -1.
    10030    2    1    2    0    0  0.00000000000E+00  0.00000000000E+00 -0.13621000195E+04  0.31120853769E+04  0.27981706399E+04 0.  0.
        5    1    3    3  502    0 -0.12419962155E+04 -0.38213099530E+03 -0.10438526736E+03  0.13036476023E+04  0.46999998093E+01 0.  1.
       -5    1    3    3    0  502  0.12419962155E+04  0.38213099530E+03 -0.12577147522E+04  0.18084377746E+04  0.46999998093E+01 0. -1.
</event>
<event>
 5   0  0.5282098E-07  0.2799653E+04  0.7818609E-02  0.8303376E-01
        1   -1    0    0  501    0  0.00000000000E+00  0.00000000000E+00  0.17031006248E+04  0.17031006248E+04  0.50400001928E-02 0. -1.
       -1   -1    0    0    0  501  0.00000000000E+00  0.00000000000E+00 -0.11505565588E+04  0.11505565588E+04  0.50400001928E-02 0.  1.
    10030    2    1    2    0    0  0.00000000000E+00  0.00000000000E+00  0.55254406604E+03  0.28536571836E+04  0.27996525457E+04 0.  0.
        4    1    3    3  502    0  0.10137326993E+04 -0.96498690010E+03  0.30242388560E+03  0.14318922873E+04  0.12699999809E+01 0. -1.
       -4    1    3    3    0  502 -0.10137326993E+04  0.96498690010E+03  0.25012018044E+03  0.14217648963E+04  0.12699999809E+01 0.  1.
</event>
<event>
 5   0  0.5551565E-07  0.2798293E+04  0.7818609E-02  0.8303798E-01
        1   -1    0    0  501    0  0.00000000000E+00  0.00000000000E+00  0.17882649094E+04  0.17882649094E+04  0.50400001928E-02 0.  1.
       -1   -1    0    0    0  501  0.00000000000E+00  0.00000000000E+00 -0.10946988300E+04  0.10946988300E+04  0.50400001928E-02 0. -1.
    10030    2    1    2    0    0  0.00000000000E+00  0.00000000000E+00  0.69356607943E+03  0.28829637394E+04  0.27982934114E+04 0.  0.
        3    1    3    3  502    0  0.29131319946E+03 -0.13062179137E+04  0.76722781470E+03  0.15426299453E+04  0.10100000352E+00 0.  1.
       -3    1    3    3    0  502 -0.29131319946E+03  0.13062179137E+04 -0.73661735269E+02  0.13403337941E+04  0.10100000352E+00 0. -1.
</event>
<event>
 5   0  0.5297741E-07  0.2801362E+04  0.7818609E-02  0.8302846E-01
       -1   -1    0    0    0  501  0.00000000000E+00  0.00000000000E+00  0.14403494319E+04  0.14403494319E+04  0.50400001928E-02 0.  1.
        1   -1    0    0  501    0  0.00000000000E+00  0.00000000000E+00 -0.13621049506E+04  0.13621049506E+04  0.50400001928E-02 0. -1.
    10030    2    1    2    0    0  0.00000000000E+00  0.00000000000E+00  0.78244481355E+02  0.28024543825E+04  0.28013618772E+04 0.  0.
        5    1    3    3  502    0 -0.22987286166E+03  0.75141515670E+03 -0.11208206708E+04  0.13688416038E+04  0.46999998093E+01 0. -1.
       -5    1    3    3    0  502  0.22987286166E+03 -0.75141515670E+03  0.11990651521E+04  0.14336127787E+04  0.46999998093E+01 0.  1.
</event>
<event>
 5   0  0.1461146E-06  0.2813386E+04  0.7818609E-02  0.8299124E-01
       -2   -1    0    0    0  501  0.00000000000E+00  0.00000000000E+00  0.10344031240E+04  0.10344031240E+04  0.25500000920E-02 0.  1.
        2   -1    0    0  501    0  0.00000000000E+00  0.00000000000E+00 -0.19129735584E+04  0.19129735584E+04  0.25500000920E-02 0. -1.
    10030    2    1    2    0    0  0.00000000000E+00  0.00000000000E+00 -0.87857043440E+03  0.29473766825E+04  0.28133864470E+04 0.  0.
        1    1    3    3  502    0 -0.89455567063E+03 -0.59320268422E+03  0.51322893159E+03  0.11897576260E+04  0.50400001928E-02 0.  1.
       -1    1    3    3    0  502  0.89455567063E+03  0.59320268422E+03 -0.13917993660E+04  0.17576190565E+04  0.50400001928E-02 0. -1.
</event>
<event>
 5   0  0.1439207E-06  0.2801842E+04  0.7818609E-02  0.8302697E-01
        2   -1    0    0  501    0  0.00000000000E+00  0.00000000000E+00  0.15177479046E+04  0.15177479046E+04  0.25500000920E-02 0. -1.
       -2   -1    0    0    0  501  0.00000000000E+00  0.00000000000E+00 -0.12930864774E+04  0.12930864774E+04  0.25500000920E-02 0.  1.
    10030    2    1    2    0    0  0.00000000000E+00  0.00000000000E+00  0.22466142724E+03  0.28108343820E+04  0.28018417454E+04 0.  0.
        5    1    3    3  502    0  0.40474039188E+03 -0.10700531324E+04 -0.69879923152E+03  0.13405860461E+04  0.46999998093E+01 0.  1.
       -5    1    3    3    0  502 -0.40474039188E+03  0.10700531324E+04  0.92346065876E+03  0.14702483359E+04  0.46999998093E+01 0. -1.
</event>
<event>
 5   0  0.5297741E-07  0.2783755E+04  0.7818609E-02  0.8308330E-01
        1   -1    0    0  501    0  0.00000000000E+00  0.00000000000E+00  0.20705224154E+04  0.20705224154E+04  0.50400001928E-02 0.  1.
       -1   -1    0    0    0  501  0.00000000000E+00  0.00000000000E+00 -0.93566883231E+03  0.93566883232E+03  0.50400001928E-02 0. -1.
    10030    2    1    2    0    0  0.00000000000E+00  0.00000000000E+00  0.11348535830E+04  0.30061912477E+04  0.27837552268E+04 0.  0.
        5    1    3    3  502    0  0.71870315208E+03  0.99744018273E+03  0.12721672664E+04  0.17691389947E+04  0.46999998093E+01 0. -1.
       -5    1    3    3    0  502 -0.71870315208E+03 -0.99744018273E+03 -0.13731368336E+03  0.12370522530E+04  0.46999998093E+01 0.  1.
</event>
<event>
 5   0  0.5362952E-07  0.2796099E+04  0.7818609E-02  0.8304480E-01
       -1   -1    0    0    0  501  0.00000000000E+00  0.00000000000E+00  0.11259784885E+04  0.11259784886E+04  0.50400001928E-02 0. -1.
        1   -1    0    0  501    0  0.00000000000E+00  0.00000000000E+00 -0.17358616813E+04  0.17358616813E+04  0.50400001928E-02 0.  1.
    10030    2    1    2    0    0  0.00000000000E+00  0.00000000000E+00 -0.60988319275E+03  0.28618401699E+04  0.27960993632E+04 0.  0.
        1    1    3    3  502    0  0.33873962473E+03  0.10509366173E+04  0.57273414706E+03  0.12438797008E+04  0.50400001928E-02 0. -1.
       -1    1    3    3    0  502 -0.33873962473E+03 -0.10509366173E+04 -0.11826173398E+04  0.16179604690E+04  0.50400001928E-02 0.  1.
</event>
<event>
 5   0  0.1377807E-06  0.2799794E+04  0.7818609E-02  0.8303332E-01
        2   -1    0    0  501    0  0.00000000000E+00  0.00000000000E+00  0.16196487215E+04  0.16196487215E+04  0.25500000920E-02 0. -1.
       -2   -1    0    0    0  501  0.00000000000E+00  0.00000000000E+00 -0.12099606024E+04  0.12099606024E+04  0.25500000920E-02 0.  1.
    10030    2    1    2    0    0  0.00000000000E+00  0.00000000000E+00  0.40968811912E+03  0.28296093240E+04  0.27997936658E+04 0.  0.
        2    1    3    3  502    0  0.10313701868E+04  0.94040184732E+03  0.31383987880E+03  0.14305857424E+04  0.25500000920E-02 0. -1.
       -2    1    3    3    0  502 -0.10313701868E+04 -0.94040184732E+03  0.95848240313E+02  0.13990235816E+04  0.25500000920E-02 0.  1.
</event>
<event>
 5   0  0.5362952E-07  0.2799398E+04  0.7818609E-02  0.8303455E-01
        1   -1    0    0  501    0  0.00000000000E+00  0.00000000000E+00  0.23901845097E+04  0.23901845097E+04  0.50400001928E-02 0. -1.
       -1   -1    0    0    0  501  0.00000000000E+00  0.00000000000E+00 -0.81966784146E+03  0.81966784147E+03  0.50400001928E-02 0.  1.
    10030    2    1    2    0    0  0.00000000000E+00  0.00000000000E+00  0.15705166683E+04  0.32098523512E+04  0.27993980623E+04 0.  0.
        1    1    3    3  502    0 -0.25341266233E+02 -0.10008374059E+04  0.19068634666E+04  0.21537051732E+04  0.50400001928E-02 0. -1.
       -1    1    3    3    0  502  0.25341266233E+02  0.10008374059E+04 -0.33634679836E+03  0.10561471780E+04  0.50400001928E-02 0.  1.
</event>
<event>
 5   0  0.1394410E-06  0.2768308E+04  0.7818609E-02  0.8313176E-01
       -2   -1    0    0    0  501  0.00000000000E+00  0.00000000000E+00  0.13804721271E+04  0.13804721271E+04  0.25500000920E-02 0. -1.
        2   -1    0    0  501    0  0.00000000000E+00  0.00000000000E+00 -0.13878451971E+04  0.13878451971E+04  0.25500000920E-02 0.  1.
    10030    2    1    2    0    0  0.00000000000E+00  0.00000000000E+00 -0.73730699788E+01  0.27683173241E+04  0.27683075055E+04 0.  0.
        4    1    3    3  502    0 -0.19533506340E+03  0.69433784346E+03  0.11776809229E+04  0.13810122363E+04  0.12699999809E+01 0. -1.
       -4    1    3    3    0  502  0.19533506340E+03 -0.69433784346E+03 -0.11850539928E+04  0.13873050878E+04  0.12699999809E+01 0.  1.
</event>
<event>
 5   0  0.1461146E-06  0.2801316E+04  0.7818609E-02  0.8302860E-01
        2   -1    0    0  501    0  0.00000000000E+00  0.00000000000E+00  0.14926200140E+04  0.14926200140E+04  0.25500000920E-02 0. -1.
       -2   -1    0    0    0  501  0.00000000000E+00  0.00000000000E+00 -0.13143617860E+04  0.13143617860E+04  0.25500000920E-02 0.  1.
    10030    2    1    2    0    0  0.00000000000E+00  0.00000000000E+00  0.17825822796E+03  0.28069818001E+04  0.28013159104E+04 0.  0.
        1    1    3    3  502    0  0.80195842249E+03 -0.54976246092E+03  0.10993679788E+04  0.14676464246E+04  0.50400001928E-02 0. -1.
       -1    1    3    3    0  502 -0.80195842249E+03  0.54976246092E+03 -0.92110975082E+03  0.13393353755E+04  0.50400001928E-02 0.  1.
</event>
<event>
 5   0  0.5214658E-07  0.2799677E+04  0.7818609E-02  0.8303369E-01
        1   -1    0    0  501    0  0.00000000000E+00  0.00000000000E+00  0.14987214111E+04  0.14987214111E+04  0.50400001928E-02 0.  1.
       -1   -1    0    0    0  501  0.00000000000E+00  0.00000000000E+00 -0.13074793816E+04  0.13074793816E+04  0.50400001928E-02 0. -1.
    10030    2    1    2    0    0  0.00000000000E+00  0.00000000000E+00  0.19124202948E+03  0.28062007926E+04  0.27996766554E+04 0.  0.
        2    1    3    3  502    0 -0.12131176184E+04 -0.32226930479E+02 -0.60375449797E+03  0.13554380933E+04  0.25500000920E-02 0. -1.
       -2    1    3    3    0  502  0.12131176184E+04  0.32226930479E+02  0.79499652745E+03  0.14507626993E+04  0.25500000920E-02 0.  1.
</event>
<event>
 5   0  0.5362952E-07  0.2810096E+04  0.7818609E-02  0.8300141E-01
       -1   -1    0    0    0  501  0.00000000000E+00  0.00000000000E+00  0.15809453143E+04  0.15809453143E+04  0.50400001928E-02 0. -1.
        1   -1    0    0  501    0  0.00000000000E+00  0.00000000000E+00 -0.12487215678E+04  0.12487215678E+04  0.50400001928E-02 0.  1.
    10030    2    1    2    0    0  0.00000000000E+00  0.00000000000E+00  0.33222374648E+03  0.28296668822E+04  0.28100964479E+04 0.  0.
        1    1    3    3  502    0 -0.93374254017E+03 -0.27543773170E+03 -0.85406745578E+03  0.12950568692E+04  0.50400001928E-02 0.  1.
       -1    1    3    3    0  502  0.93374254017E+03  0.27543773170E+03  0.11862912023E+04  0.15346100130E+04  0.50400001928E-02 0. -1.
</event>
<event>
 5   0  0.4710000E-07  0.2799873E+04  0.7818609E-02  0.8303308E-01
        3   -1    0    0  501    0  0.00000000000E+00  0.00000000000E+00  0.12761961318E+04  0.12761961358E+04  0.10100000352E+00 0. -1.
       -3   -1    0    0    0  501  0.00000000000E+00  0.00000000000E+00 -0.15356742561E+04  0.15356742594E+04  0.10100000352E+00 0.  1.
    10030    2    1    2    0    0  0.00000000000E+00  0.00000000000E+00 -0.25947812426E+03  0.28118703952E+04  0.27998725368E+04 0.  0.
        1    1    3    3  502    0  0.19104018447E+03  0.65665304878E+03  0.10970239054E+04  0.12927300676E+04  0.50400001928E-02 0. -1.
       -1    1    3    3    0  502 -0.19104018447E+03 -0.65665304878E+03 -0.13565020296E+04  0.15191403276E+04  0.50400001928E-02 0.  1.
</event>
<event>
 5   0  0.1394410E-06  0.2814300E+04  0.7818609E-02  0.8298842E-01
        2   -1    0    0  501    0  0.00000000000E+00  0.00000000000E+00  0.12200504636E+04  0.12200504636E+04  0.25500000920E-02 0.  1.
       -2   -1    0    0    0  501  0.00000000000E+00  0.00000000000E+00 -0.16229424571E+04  0.16229424571E+04  0.25500000920E-02 0. -1.
    10030    2    1    2    0    0  0.00000000000E+00  0.00000000000E+00 -0.40289199352E+03  0.28429929207E+04  0.28143004084E+04 0.  0.
        4    1    3    3  502    0 -0.33014037977E+03 -0.13416455535E+04 -0.47074332935E+03  0.14596596715E+04  0.12699999809E+01 0. -1.
       -4    1    3    3    0  502  0.33014037977E+03  0.13416455535E+04  0.67851335825E+02  0.13833332492E+04  0.12699999809E+01 0.  1.
</event>
<event>
 5   0  0.5282098E-07  0.2798276E+04  0.7818609E-02  0.8303804E-01
       -1   -1    0    0    0  501  0.00000000000E+00  0.00000000000E+00  0.19095560633E+04  0.19095560633E+04  0.50400001928E-02 0.  1.
        1   -1    0    0  501    0  0.00000000000E+00  0.00000000000E+00 -0.10251528030E+04  0.10251528030E+04  0.50400001928E-02 0. -1.
    10030    2    1    2    0    0  0.00000000000E+00  0.00000000000E+00  0.88440326034E+03  0.29347088663E+04  0.27982757196E+04 0.  0.
        4    1    3    3  502    0  0.67737905458E+03 -0.11794006776E+04  0.78646978732E+03  0.15711030142E+04  0.12699999809E+01 0.  1.
       -4    1    3    3    0  502 -0.67737905458E+03  0.11794006776E+04  0.97933473029E+02  0.13636058521E+04  0.12699999809E+01 0. -1.
</event>
<event>
 5   0  0.1394410E-06  0.2799719E+04  0.7818609E-02  0.8303356E-01
        2   -1    0    0  501    0  0.00000000000E+00  0.00000000000E+00  0.20393287671E+04  0.20393287671E+04  0.25500000920E-02 0.  1.
       -2   -1    0    0    0  501  0.00000000000E+00  0.00000000000E+00 -0.96090731350E+03  0.96090731350E+03  0.25500000920E-02 0. -1.
    10030    2    1    2    0    0  0.00000000000E+00  0.00000000000E+00  0.10784214536E+04  0.30002360806E+04  0.27997185051E+04 0.  0.
        4    1    3    3  502    0  0.25621404421E+03  0.67034816586E+00 -0.93556594700E+03  0.97001615446E+03  0.12699999809E+01 0. -1.
       -4    1    3    3    0  502 -0.25621404421E+03 -0.67034816586E+00  0.20139874006E+04  0.20302199262E+04  0.12699999809E+01 0.  1.
</event>
<event>
 5   0  0.5214658E-07  0.2815381E+04  0.7818609E-02  0.8298509E-01
       -1   -1    0    0    0  501  0.00000000000E+00  0.00000000000E+00  0.25055722180E+04  0.25055722180E+04  0.50400001928E-02 0.  1.
        1   -1    0    0  501    0  0.00000000000E+00  0.00000000000E+00 -0.79087412237E+03  0.79087412239E+03  0.50400001928E-02 0. -1.
    10030    2    1    2    0    0  0.00000000000E+00  0.00000000000E+00  0.17146980956E+04  0.32964463404E+04  0.28153807764E+04 0.  0.
        2    1    3    3  502    0  0.26599533882E+03 -0.66789219620E+03 -0.55972295031E+03  0.91111101800E+03  0.25500000920E-02 0. -1.
       -2    1    3    3    0  502 -0.26599533882E+03  0.66789219620E+03  0.22744210460E+04  0.23853353224E+04  0.25500000920E-02 0.  1.
</event>
<event>
 5   0  0.1461146E-06  0.2803227E+04  0.7818609E-02  0.8302267E-01
       -2   -1    0    0    0  501  0.00000000000E+00  0.00000000000E+00  0.90505525481E+03  0.90505525481E+03  0.25500000920E-02 0. -1.
        2   -1    0    0  501    0  0.00000000000E+00  0.00000000000E+00 -0.21706080877E+04  0.21706080877E+04  0.25500000920E-02 0.  1.
    10030    2    1    2    0    0  0.00000000000E+00  0.00000000000E+00 -0.12655528329E+04  0.30756633425E+04  0.28032268948E+04 0.  0.
        1    1    3    3  502    0 -0.11852335738E+04 -0.49516713818E+03 -0.17420791620E+02  0.12846293641E+04  0.50400001928E-02 0.  1.
       -1    1    3    3    0  502  0.11852335738E+04  0.49516713818E+03 -0.12481320412E+04  0.17910339783E+04  0.50400001928E-02 0. -1.
</event>
<event>
 5   0  0.5551565E-07  0.2800637E+04  0.7818609E-02  0.8303070E-01
       -1   -1    0    0    0  501  0.00000000000E+00  0.00000000000E+00  0.11750920780E+04  0.11750920780E+04  0.50400001928E-02 0.  1.
        1   -1    0    0  501    0  0.00000000000E+00  0.00000000000E+00 -0.16687138940E+04  0.16687138940E+04  0.50400001928E-02 0. -1.
    10030    2    1    2    0    0  0.00000000000E+00  0.00000000000E+00 -0.49362181599E+03  0.28438059721E+04  0.28006374113E+04 0.  0.
        3    1    3    3  502    0 -0.35717003300E+03  0.12145477326E+02 -0.16216281888E+04  0.16605408571E+04  0.10100000352E+00 0. -1.
       -3    1    3    3    0  502  0.35717003300E+03 -0.12145477326E+02  0.11280063728E+04  0.11832651150E+04  0.10100000352E+00 0.  1.
</event>
<event>
 5   0  0.5362952E-07  0.2801015E+04  0.7818609E-02  0.8302953E-01
       -1   -1    0    0    0  501  0.00000000000E+00  0.00000000000E+00  0.97980878729E+03  0.97980878730E+03  0.50400001928E-02 0. -1.
        1   -1    0    0  501    0  0.00000000000E+00  0.00000000000E+00 -0.20018414445E+04  0.20018414445E+04  0.50400001928E-02 0.  1.
    10030    2    1    2    0    0  0.00000000000E+00  0.00000000000E+00 -0.10220326572E+04  0.29816502318E+04  0.28010154145E+04 0.  0.
        1    1    3    3  502    0 -0.12045519854E+04  0.66887820957E+03 -0.24366572784E+03  0.13991842380E+04  0.50400001928E-02 0.  1.
       -1    1    3    3    0  502  0.12045519854E+04 -0.66887820957E+03 -0.77836692934E+03  0.15824659938E+04  0.50400001928E-02 0. -1.
</event>
<event>
 5   0  0.5551565E-07  0.2799009E+04  0.7818609E-02  0.8303576E-01
        1   -1    0    0  501    0  0.00000000000E+00  0.00000000000E+00  0.13753792810E+04  0.13753792810E+04  0.50400001928E-02 0. -1.
       -1   -1    0    0    0  501  0.00000000000E+00  0.00000000000E+00 -0.14240525554E+04  0.14240525554E+04  0.50400001928E-02 0.  1.
    10030    2    1    2    0    0  0.00000000000E+00  0.00000000000E+00 -0.48673274458E+02  0.27994318364E+04  0.27990086672E+04 0.  0.
        3    1    3    3  502    0 -0.10957566824E+04 -0.46159093628E+02  0.84516180985E+03  0.13845980875E+04  0.10100000352E+00 0. -1.
       -3    1    3    3    0  502  0.10957566824E+04  0.46159093628E+02 -0.89383508431E+03  0.14148337489E+04  0.10100000352E+00 0.  1.
</event>
<event>
 5   0  0.1499888E-06  0.2803064E+04  0.7818609E-02  0.8302318E-01
        2   -1    0    0  501    0  0.00000000000E+00  0.00000000000E+00  0.13669922566E+04  0.13669922566E+04  0.25500000920E-02 0.  1.
       -2   -1    0    0    0  501  0.00000000000E+00  0.00000000000E+00 -0.14369447136E+04  0.14369447136E+04  0.25500000920E-02 0. -1.
    10030    2    1    2    0    0  0.00000000000E+00  0.00000000000E+00 -0.69952456933E+02  0.28039369702E+04  0.28030642495E+04 0.  0.
        3    1    3    3  502    0  0.12364487272E+02  0.13854039519E+04  0.17673865995E+03  0.13966866343E+04  0.10100000352E+00 0. -1.
       -3    1    3    3    0  502 -0.12364487272E+02 -0.13854039519E+04 -0.24669111688E+03  0.14072503359E+04  0.10100000352E+00 0.  1.
</event>
<event>
 5   0  0.1377807E-06  0.2790936E+04  0.7818609E-02  0.8306088E-01
       -2   -1    0    0    0  501  0.00000000000E+00  0.00000000000E+00  0.19534653457E+04  0.19534653457E+04  0.25500000920E-02 0.  1.
        2   -1    0    0  501    0  0.00000000000E+00  0.00000000000E+00 -0.99685963274E+03  0.99685963274E+03  0.25500000920E-02 0. -1.
    10030    2    1    2    0    0  0.00000000000E+00  0.00000000000E+00  0.95660571297E+03  0.29503249785E+04  0.27909358625E+04 0.  0.
        2    1    3    3  502    0 -0.35058457371E+03 -0.10071363934E+03  0.19021780147E+04  0.19368360746E+04  0.25500000920E-02 0.  1.
       -2    1    3    3    0  502  0.35058457371E+03  0.10071363934E+03 -0.94557230169E+03  0.10134889038E+04  0.25500000920E-02 0. -1.
</event>
<event>
 5   0  0.5282098E-07  0.2799405E+04  0.7818609E-02  0.8303453E-01
        1   -1    0    0  501    0  0.00000000000E+00  0.00000000000E+00  0.26957964700E+04  0.26957964700E+04  0.50400001928E-02 0.  1.
       -1   -1    0    0    0  501  0.00000000000E+00  0.00000000000E+00 -0.72674881853E+03  0.72674881855E+03  0.50400001928E-02 0. -1.
    10030    2    1    2    0    0  0.00000000000E+00  0.00000000000E+00  0.19690476515E+04  0.34225452886E+04  0.27994048651E+04 0.  0.
        4    1    3    3  502    0 -0.42511413387E+03 -0.27063648571E+03  0.25810316256E+04  0.26297703321E+04  0.12699999809E+01 0.  1.
       -4    1    3    3    0  502  0.42511413387E+03  0.27063648571E+03 -0.61198397410E+03  0.79277495651E+03  0.12699999809E+01 0. -1.
</event>
<event>
 5   0  0.1394410E-06  0.2802687E+04  0.7818609E-02  0.8302435E-01
        2   -1    0    0  501    0  0.00000000000E+00  0.00000000000E+00  0.11061370665E+04  0.11061370665E+04  0.25500000920E-02 0. -1.
       -2   -1    0    0    0  501  0.00000000000E+00  0.00000000000E+00 -0.17753349050E+04  0.17753349050E+04  0.25500000920E-02 0.  1.
    10030    2    1    2    0    0  0.00000000000E+00  0.00000000000E+00 -0.66919783855E+03  0.28814719715E+04  0.28026870991E+04 0.  0.
        4    1    3    3  502    0  0.91860792339E+03 -0.10384941696E+04 -0.54391845995E+03  0.14893487037E+04  0.12699999809E+01 0. -1.
       -4    1    3    3    0  502 -0.91860792339E+03  0.10384941696E+04 -0.12527937860E+03  0.13921232678E+04  0.12699999809E+01 0.  1.
</event>
<event>
 5   0  0.1439207E-06  0.2796871E+04  0.7818609E-02  0.8304240E-01
        2   -1    0    0  501    0  0.00000000000E+00  0.00000000000E+00  0.21404378080E+04  0.21404378080E+04  0.25500000920E-02 0. -1.
       -2   -1    0    0    0  501  0.00000000000E+00  0.00000000000E+00 -0.91365495472E+03  0.91365495473E+03  0.25500000920E-02 0.  1.
    10030    2    1    2    0    0  0.00000000000E+00  0.00000000000E+00  0.12267828533E+04  0.30540927627E+04  0.27968708290E+04 0.  0.
        5    1    3    3  502    0 -0.10770206416E+03  0.71856744537E+03 -0.69134354498E+03  0.10029540844E+04  0.46999998093E+01 0.  1.
       -5    1    3    3    0  502  0.10770206416E+03 -0.71856744537E+03  0.19181263983E+04  0.20511386784E+04  0.46999998093E+01 0. -1.
</event>
<event>
 5   0  0.5282098E-07  0.2799867E+04  0.7818609E-02  0.8303310E-01
        1   -1    0    0  501    0  0.00000000000E+00  0.00000000000E+00  0.22590231403E+04  0.22590231403E+04  0.50400001928E-02 0. -1.
       -1   -1    0    0    0  501  0.00000000000E+00  0.00000000000E+00 -0.86754895713E+03  0.86754895715E+03  0.50400001928E-02 0.  1.
    10030    2    1    2    0    0  0.00000000000E+00  0.00000000000E+00  0.13914741831E+04  0.31265720974E+04  0.27998665465E+04 0.  0.
        4    1    3    3  502    0 -0.95327570420E+03 -0.10806789336E+03 -0.44273429867E+03  0.10566118066E+04  0.12699999809E+01 0.  1.
       -4    1    3    3    0  502  0.95327570420E+03  0.10806789336E+03  0.18342084818E+04  0.20699602908E+04  0.12699999809E+01 0. -1.
</event>
<event>
 5   0  0.1461146E-06  0.2799424E+04  0.7818609E-02  0.8303447E-01
        2   -1    0    0  501    0  0.00000000000E+00  0.00000000000E+00  0.17140728667E+04  0.17140728667E+04  0.25500000920E-02 0. -1.
       -2   -1    0    0    0  501  0.00000000000E+00  0.00000000000E+00 -0.11430051501E+04  0.11430051501E+04  0.25500000920E-02 0.  1.
    10030    2    1    2    0    0  0.00000000000E+00  0.00000000000E+00  0.57106771656E+03  0.28570780168E+04  0.27994243082E+04 0.  0.
        1    1    3    3  502    0 -0.59192470098E+03  0.28274055626E+03 -0.97640888220E+03  0.11763041184E+04  0.50400001928E-02 0.  1.
       -1    1    3    3    0  502  0.59192470098E+03 -0.28274055626E+03  0.15474765988E+04  0.16807738984E+04  0.50400001928E-02 0. -1.
</event>
<event>
 5   0  0.5362952E-07  0.2797607E+04  0.7818609E-02  0.8304012E-01
        1   -1    0    0  501    0  0.00000000000E+00  0.00000000000E+00  0.16935767108E+04  0.16935767108E+04  0.50400001928E-02 0.  1.
       -1   -1    0    0    0  501  0.00000000000E+00  0.00000000000E+00 -0.11553366015E+04  0.11553366015E+04  0.50400001928E-02 0. -1.
    10030    2    1    2    0    0  0.00000000000E+00  0.00000000000E+00  0.53824010935E+03  0.28489133123E+04  0.27976069499E+04 0.  0.
        1    1    3    3  502    0  0.25816408913E+03 -0.32729821314E+03  0.16288522831E+04  0.16813484402E+04  0.50400001928E-02 0.  1.
       -1    1    3    3    0  502 -0.25816408913E+03  0.32729821314E+03 -0.10906121737E+04  0.11675648722E+04  0.50400001928E-02 0. -1.
</event>
<event>
 5   0  0.1461146E-06  0.2800900E+04  0.7818609E-02  0.8302989E-01
        2   -1    0    0  501    0  0.00000000000E+00  0.00000000000E+00  0.20728582070E+04  0.20728582070E+04  0.25500000920E-02 0. -1.
       -2   -1    0    0    0  501  0.00000000000E+00  0.00000000000E+00 -0.94616253863E+03  0.94616253863E+03  0.25500000920E-02 0.  1.
    10030    2    1    2    0    0  0.00000000000E+00  0.00000000000E+00  0.11266956684E+04  0.30190207457E+04  0.28009004148E+04 0.  0.
        1    1    3    3  502    0  0.74435361222E+03 -0.85811466766E+03 -0.31948232333E+03  0.11800389984E+04  0.50400001928E-02 0.  1.
       -1    1    3    3    0  502 -0.74435361222E+03  0.85811466766E+03  0.14461779917E+04  0.18389817472E+04  0.50400001928E-02 0. -1.
</event>
<event>
 5   0  0.5282098E-07  0.2799868E+04  0.7818609E-02  0.8303309E-01
        1   -1    0    0  501    0  0.00000000000E+00  0.00000000000E+00  0.10840857650E+04  0.10840857650E+04  0.50400001928E-02 0.  1.
       -1   -1    0    0    0  501  0.00000000000E+00  0.00000000000E+00 -0.18078049534E+04  0.18078049534E+04  0.50400001928E-02 0. -1.
    10030    2    1    2    0    0  0.00000000000E+00  0.00000000000E+00 -0.72371918845E+03  0.28918907184E+04  0.27998682940E+04 0.  0.
        4    1    3    3  502    0  0.79588098509E+03  0.89114631720E+03 -0.11153892627E+04  0.16345222915E+04  0.12699999809E+01 0. -1.
       -4    1    3    3    0  502 -0.79588098509E+03 -0.89114631720E+03  0.39167007427E+03  0.12573684269E+04  0.12699999809E+01 0.  1.
</event>
<event>
 5   0  0.1377807E-06  0.2793145E+04  0.7818609E-02  0.8305400E-01
        2   -1    0    0  501    0  0.00000000000E+00  0.00000000000E+00  0.12507184677E+04  0.12507184677E+04  0.25500000920E-02 0.  1.
       -2   -1    0    0    0  501  0.00000000000E+00  0.00000000000E+00 -0.15594352610E+04  0.15594352610E+04  0.25500000920E-02 0. -1.
    10030    2    1    2    0    0  0.00000000000E+00  0.00000000000E+00 -0.30871679334E+03  0.28101537287E+04  0.27931448083E+04 0.  0.
        2    1    3    3  502    0 -0.55721938016E+03 -0.94384289086E+03 -0.10251238747E+04  0.15007370851E+04  0.25500000920E-02 0.  1.
       -2    1    3    3    0  502  0.55721938016E+03  0.94384289086E+03  0.71640708134E+03  0.13094166436E+04  0.25500000920E-02 0. -1.
</event>
<event>
 5   0  0.1377807E-06  0.2874417E+04  0.7818609E-02  0.8280530E-01
        2   -1    0    0  501    0  0.00000000000E+00  0.00000000000E+00  0.18579030800E+04  0.18579030800E+04  0.25500000920E-02 0.  1.
       -2   -1    0    0    0  501  0.00000000000E+00  0.00000000000E+00 -0.11117743231E+04  0.11117743232E+04  0.25500000920E-02 0. -1.
    10030    2    1    2    0    0  0.00000000000E+00  0.00000000000E+00  0.74612875683E+03  0.29696774031E+04  0.28744174639E+04 0.  0.
        2    1    3    3  502    0 -0.13915760245E+03 -0.14300161825E+04  0.33642328373E+03  0.14756326597E+04  0.25500000920E-02 0. -1.
       -2    1    3    3    0  502  0.13915760245E+03  0.14300161825E+04  0.40970547310E+03  0.14940447434E+04  0.25500000920E-02 0.  1.
</event>
<event>
 5   0  0.5282098E-07  0.2796314E+04  0.7818609E-02  0.8304414E-01
       -1   -1    0    0    0  501  0.00000000000E+00  0.00000000000E+00  0.14318480509E+04  0.14318480510E+04  0.50400001928E-02 0.  1.
        1   -1    0    0  501    0  0.00000000000E+00  0.00000000000E+00 -0.13652590539E+04  0.13652590539E+04  0.50400001928E-02 0. -1.
    10030    2    1    2    0    0  0.00000000000E+00  0.00000000000E+00  0.66588997072E+02  0.27971071048E+04  0.27963143710E+04 0.  0.
        4    1    3    3  502    0 -0.99814105729E+03 -0.63351685859E+03 -0.71338394497E+03  0.13807778410E+04  0.12699999809E+01 0. -1.
       -4    1    3    3    0  502  0.99814105729E+03  0.63351685859E+03  0.77997294204E+03  0.14163292638E+04  0.12699999809E+01 0.  1.
</event>
<event>
 5   0  0.5297741E-07  0.2792111E+04  0.7818609E-02  0.8305722E-01
        1   -1    0    0  501    0  0.00000000000E+00  0.00000000000E+00  0.13977615665E+04  0.13977615666E+04  0.50400001928E-02 0. -1.
       -1   -1    0    0    0  501  0.00000000000E+00  0.00000000000E+00 -0.13943516203E+04  0.13943516203E+04  0.50400001928E-02 0.  1.
    10030    2    1    2    0    0  0.00000000000E+00  0.00000000000E+00  0.34099462266E+01  0.27921131869E+04  0.27921111046E+04 0.  0.
        5    1    3    3  502    0 -0.64112828727E+03  0.10413490580E+04  0.67512634953E+03  0.13968790281E+04  0.46999998093E+01 0. -1.
       -5    1    3    3    0  502  0.64112828727E+03 -0.10413490580E+04 -0.67171640330E+03  0.13952341588E+04  0.46999998093E+01 0.  1.
</event>
<event>
 5   0  0.5214658E-07  0.2803815E+04  0.7818609E-02  0.8302085E-01
       -1   -1    0    0    0  501  0.00000000000E+00  0.00000000000E+00  0.13618524314E+04  0.13618524314E+04  0.50400001928E-02 0.  1.
        1   -1    0    0  501    0  0.00000000000E+00  0.00000000000E+00 -0.14431410730E+04  0.14431410731E+04  0.50400001928E-02 0. -1.
    10030    2    1    2    0    0  0.00000000000E+00  0.00000000000E+00 -0.81288641651E+02  0.28049935045E+04  0.28038153857E+04 0.  0.
        2    1    3    3  502    0 -0.10496283767E+04  0.65740280197E+03 -0.69776657465E+03  0.14215401387E+04  0.25500000920E-02 0. -1.
       -2    1    3    3    0  502  0.10496283767E+04 -0.65740280197E+03  0.61647793300E+03  0.13834533657E+04  0.25500000920E-02 0.  1.
</event>
<event>
 5   0  0.1499888E-06  0.2796867E+04  0.7818609E-02  0.8304242E-01
       -2   -1    0    0    0  501  0.00000000000E+00  0.00000000000E+00  0.11948968146E+04  0.11948968147E+04  0.25500000920E-02 0. -1.
        2   -1    0    0  501    0  0.00000000000E+00  0.00000000000E+00 -0.16366405377E+04  0.16366405377E+04  0.25500000920E-02 0.  1.
    10030    2    1    2    0    0  0.00000000000E+00  0.00000000000E+00 -0.44174372307E+03  0.28315373524E+04  0.27968672226E+04 0.  0.
        3    1    3    3  502    0  0.18471387044E+03  0.10118544327E+04  0.73831554236E+03  0.12661273463E+04  0.10100000352E+00 0. -1.
       -3    1    3    3    0  502 -0.18471387044E+03 -0.10118544327E+04 -0.11800592654E+04  0.15654100060E+04  0.10100000352E+00 0.  1.
</event>
<event>
 5   0  0.5214658E-07  0.2814249E+04  0.7818609E-02  0.8298858E-01
       -1   -1    0    0    0  501  0.00000000000E+00  0.00000000000E+00  0.13154877951E+04  0.13154877951E+04  0.50400001928E-02 0. -1.
        1   -1    0    0  501    0  0.00000000000E+00  0.00000000000E+00 -0.15051448270E+04  0.15051448270E+04  0.50400001928E-02 0.  1.
    10030    2    1    2    0    0  0.00000000000E+00  0.00000000000E+00 -0.18965703188E+03  0.28206326221E+04  0.28142492070E+04 0.  0.
        2    1    3    3  502    0 -0.11310897849E+04 -0.74881636003E+03  0.28006483729E+03  0.13851087884E+04  0.25500000920E-02 0. -1.
       -2    1    3    3    0  502  0.11310897849E+04  0.74881636003E+03 -0.46972186917E+03  0.14355238337E+04  0.25500000920E-02 0.  1.
</event>
<event>
 5   0  0.5362952E-07  0.2791182E+04  0.7818609E-02  0.8306011E-01
       -1   -1    0    0    0  501  0.00000000000E+00  0.00000000000E+00  0.97435053125E+03  0.97435053127E+03  0.50400001928E-02 0. -1.
        1   -1    0    0  501    0  0.00000000000E+00  0.00000000000E+00 -0.19989468541E+04  0.19989468541E+04  0.50400001928E-02 0.  1.
    10030    2    1    2    0    0  0.00000000000E+00  0.00000000000E+00 -0.10245963229E+04  0.29732973854E+04  0.27911824944E+04 0.  0.
        1    1    3    3  502    0  0.86923162456E+03  0.51653472841E+03  0.51239100625E+03  0.11335414797E+04  0.50400001928E-02 0. -1.
       -1    1    3    3    0  502 -0.86923162456E+03 -0.51653472841E+03 -0.15369873291E+04  0.18397559057E+04  0.50400001928E-02 0.  1.
</event>
<event>
 5   0  0.1461146E-06  0.2804291E+04  0.7818609E-02  0.8301938E-01
       -2   -1    0    0    0  501  0.00000000000E+00  0.00000000000E+00  0.14273788323E+04  0.14273788323E+04  0.25500000920E-02 0.  1.
        2   -1    0    0  501    0  0.00000000000E+00  0.00000000000E+00 -0.13773578484E+04  0.13773578484E+04  0.25500000920E-02 0. -1.
    10030    2    1    2    0    0  0.00000000000E+00  0.00000000000E+00  0.50020983858E+02  0.28047366807E+04  0.28042905965E+04 0.  0.
        1    1    3    3  502    0  0.90696956028E+03  0.51767311629E+03  0.96080466507E+03  0.14190577307E+04  0.50400001928E-02 0.  1.
       -1    1    3    3    0  502 -0.90696956028E+03 -0.51767311629E+03 -0.91078368121E+03  0.13856789500E+04  0.50400001928E-02 0. -1.
</event>
<event>
 5   0  0.4710000E-07  0.2805978E+04  0.7818609E-02  0.8301415E-01
        3   -1    0    0  501    0  0.00000000000E+00  0.00000000000E+00  0.14311941778E+04  0.14311941814E+04  0.10100000352E+00 0. -1.
       -3   -1    0    0    0  501  0.00000000000E+00  0.00000000000E+00 -0.13753396789E+04  0.13753396826E+04  0.10100000352E+00 0.  1.
    10030    2    1    2    0    0  0.00000000000E+00  0.00000000000E+00  0.55854498972E+02  0.28065338640E+04  0.28059780121E+04 0.  0.
        2    1    3    3  502    0 -0.60585370328E+02  0.93859371746E+03 -0.10133118259E+04  0.13825446141E+04  0.25500000920E-02 0.  1.
       -2    1    3    3    0  502  0.60585370328E+02 -0.93859371746E+03  0.10691663248E+04  0.14239892499E+04  0.25500000920E-02 0. -1.
</event>
<event>
 5   0  0.5297741E-07  0.2800628E+04  0.7818609E-02  0.8303073E-01
        1   -1    0    0  501    0  0.00000000000E+00  0.00000000000E+00  0.17542171336E+04  0.17542171336E+04  0.50400001928E-02 0.  1.
       -1   -1    0    0    0  501  0.00000000000E+00  0.00000000000E+00 -0.11178086515E+04  0.11178086515E+04  0.50400001928E-02 0. -1.
    10030    2    1    2    0    0  0.00000000000E+00  0.00000000000E+00  0.63640848208E+03  0.28720257851E+04  0.28006278500E+04 0.  0.
        5    1    3    3  502    0  0.11848665806E+04 -0.74324265497E+03  0.38729039982E+03  0.14513216052E+04  0.46999998093E+01 0.  1.
       -5    1    3    3    0  502 -0.11848665806E+04  0.74324265497E+03  0.24911808226E+03  0.14207041799E+04  0.46999998093E+01 0. -1.
</event>
<event>
 5   0  0.1377807E-06  0.2798850E+04  0.7818609E-02  0.8303626E-01
       -2   -1    0    0    0  501  0.00000000000E+00  0.00000000000E+00  0.64229917536E+03  0.64229917537E+03  0.25500000920E-02 0.  1.
        2   -1    0    0  501    0  0.00000000000E+00  0.00000000000E+00 -0.30490306785E+04  0.30490306785E+04  0.25500000920E-02 0. -1.
    10030    2    1    2    0    0  0.00000000000E+00  0.00000000000E+00 -0.24067315031E+04  0.36913298538E+04  0.27988496855E+04 0.  0.
        2    1    3    3  502    0 -0.88444694203E+03  0.93014171177E+03 -0.46788817704E+03  0.13661366489E+04  0.25500000920E-02 0.  1.
       -2    1    3    3    0  502  0.88444694203E+03 -0.93014171177E+03 -0.19388433261E+04  0.23251932049E+04  0.25500000920E-02 0. -1.
</event>
<event>
 5   0  0.1377807E-06  0.2811398E+04  0.7818609E-02  0.8299738E-01
        2   -1    0    0  501    0  0.00000000000E+00  0.00000000000E+00  0.13180922531E+04  0.13180922531E+04  0.25500000920E-02 0. -1.
       -2   -1    0    0    0  501  0.00000000000E+00  0.00000000000E+00 -0.14991289809E+04  0.14991289809E+04  0.25500000920E-02 0.  1.
    10030    2    1    2    0    0  0.00000000000E+00  0.00000000000E+00 -0.18103672784E+03  0.28172212340E+04  0.28113984393E+04 0.  0.
        2    1    3    3  502    0  0.59879600618E+03 -0.70077136856E+03  0.97297758141E+03  0.13402695781E+04  0.25500000920E-02 0.  1.
       -2    1    3    3    0  502 -0.59879600618E+03  0.70077136856E+03 -0.11540143092E+04  0.14769516559E+04  0.25500000920E-02 0. -1.
</event>
<event>
 5   0  0.5551565E-07  0.2803095E+04  0.7818609E-02  0.8302308E-01
       -1   -1    0    0    0  501  0.00000000000E+00  0.00000000000E+00  0.10425728448E+04  0.10425728448E+04  0.50400001928E-02 0.  1.
        1   -1    0    0  501    0  0.00000000000E+00  0.00000000000E+00 -0.18841224589E+04  0.18841224589E+04  0.50400001928E-02 0. -1.
    10030    2    1    2    0    0  0.00000000000E+00  0.00000000000E+00 -0.84154961413E+03  0.29266953037E+04  0.28030946555E+04 0.  0.
        3    1    3    3  502    0  0.57104825571E+03 -0.12745653679E+04 -0.54308061987E+03  0.14985157848E+04  0.10100000352E+00 0. -1.
       -3    1    3    3    0  502 -0.57104825571E+03  0.12745653679E+04 -0.29846899426E+03  0.14281795189E+04  0.10100000352E+00 0.  1.
</event>
<event>
 5   0  0.1439207E-06  0.2803619E+04  0.7818609E-02  0.8302146E-01
        2   -1    0    0  501    0  0.00000000000E+00  0.00000000000E+00  0.12937208340E+04  0.12937208340E+04  0.25500000920E-02 0. -1.
       -2   -1    0    0    0  501  0.00000000000E+00  0.00000000000E+00 -0.15189288024E+04  0.15189288024E+04  0.25500000920E-02 0.  1.
    10030    2    1    2    0    0  0.00000000000E+00  0.00000000000E+00 -0.22520796838E+03  0.28126496363E+04  0.28036189734E+04 0.  0.
        5    1    3    3  502    0 -0.27766806561E+03 -0.82819657135E+03 -0.12125107133E+04  0.14943940027E+04  0.46999998093E+01 0.  1.
       -5    1    3    3    0  502  0.27766806561E+03  0.82819657135E+03  0.98730274493E+03  0.13182556336E+04  0.46999998093E+01 0. -1.
</event>
<event>
 5   0  0.5282098E-07  0.2801058E+04  0.7818609E-02  0.8302940E-01
        1   -1    0    0  501    0  0.00000000000E+00  0.00000000000E+00  0.30529674729E+04  0.30529674730E+04  0.50400001928E-02 0. -1.
       -1   -1    0    0    0  501  0.00000000000E+00  0.00000000000E+00 -0.64248354863E+03  0.64248354865E+03  0.50400001928E-02 0.  1.
    10030    2    1    2    0    0  0.00000000000E+00  0.00000000000E+00  0.24104839243E+04  0.36954510216E+04  0.28010579258E+04 0.  0.
        4    1    3    3  502    0  0.76369850682E+03  0.26731624055E+03 -0.30291887943E+03  0.86397618150E+03  0.12699999809E+01 0.  1.
       -4    1    3    3    0  502 -0.76369850682E+03 -0.26731624055E+03  0.27134028038E+04  0.28314748401E+04  0.12699999809E+01 0. -1.
</event>
<event>
 5   0  0.1377807E-06  0.2801595E+04  0.7818609E-02  0.8302773E-01
       -2   -1    0    0    0  501  0.00000000000E+00  0.00000000000E+00  0.10955284619E+04  0.10955284619E+04  0.25500000920E-02 0.  1.
        2   -1    0    0  501    0  0.00000000000E+00  0.00000000000E+00 -0.17911293901E+04  0.17911293901E+04  0.25500000920E-02 0. -1.
    10030    2    1    2    0    0  0.00000000000E+00  0.00000000000E+00 -0.69560092824E+03  0.28866578520E+04  0.28015947072E+04 0.  0.
        2    1    3    3  502    0  0.58581273076E+03 -0.11705572645E+03  0.95769538400E+03  0.11287422412E+04  0.25500000920E-02 0.  1.
       -2    1    3    3    0  502 -0.58581273076E+03  0.11705572645E+03 -0.16532963122E+04  0.17579156108E+04  0.25500000920E-02 0. -1.
</event>
<event>
 5   0  0.5297741E-07  0.2781843E+04  0.7818609E-02  0.8308928E-01
        1   -1    0    0  501    0  0.00000000000E+00  0.00000000000E+00  0.17282791521E+04  0.17282791521E+04  0.50400001928E-02 0.  1.
       -1   -1    0    0    0  501  0.00000000000E+00  0.00000000000E+00 -0.11194158562E+04  0.11194158563E+04  0.50400001928E-02 0. -1.
    10030    2    1    2    0    0  0.00000000000E+00  0.00000000000E+00  0.60886329590E+03  0.28476950084E+04  0.27818433363E+04 0.  0.
        5    1    3    3  502    0  0.14487698502E+03  0.12582902136E+04  0.89280476539E+03  0.15496470700E+04  0.46999998093E+01 0.  1.
       -5    1    3    3    0  502 -0.14487698502E+03 -0.12582902136E+04 -0.28394146949E+03  0.12980479384E+04  0.46999998093E+01 0. -1.
</event>
<event>
 5   0  0.4710000E-07  0.2800470E+04  0.7818609E-02  0.8303122E-01
       -3   -1    0    0    0  501  0.00000000000E+00  0.00000000000E+00  0.10753541861E+04  0.10753541908E+04  0.10100000352E+00 0.  1.
        3   -1    0    0  501    0  0.00000000000E+00  0.00000000000E+00 -0.18232672889E+04  0.18232672917E+04  0.10100000352E+00 0. -1.
    10030    2    1    2    0    0  0.00000000000E+00  0.00000000000E+00 -0.74791310284E+03  0.28986214825E+04  0.28004700480E+04 0.  0.
        2    1    3    3  502    0  0.39332813210E+03 -0.89434241285E+03  0.66424516565E+03  0.11814300703E+04  0.25500000920E-02 0.  1.
       -2    1    3    3    0  502 -0.39332813210E+03  0.89434241285E+03 -0.14121582685E+04  0.17171914122E+04  0.25500000920E-02 0. -1.
</event>
<event>
 5   0  0.5214658E-07  0.2789260E+04  0.7818609E-02  0.8306610E-01
       -1   -1    0    0    0  501  0.00000000000E+00  0.00000000000E+00  0.13419180009E+04  0.13419180009E+04  0.50400001928E-02 0. -1.
        1   -1    0    0  501    0  0.00000000000E+00  0.00000000000E+00 -0.14494130986E+04  0.14494130986E+04  0.50400001928E-02 0.  1.
    10030    2    1    2    0    0  0.00000000000E+00  0.00000000000E+00 -0.10749509775E+03  0.27913310995E+04  0.27892604954E+04 0.  0.
        2    1    3    3  502    0  0.53389907153E+03 -0.11142818681E+03  0.12307663898E+04  0.13461984867E+04  0.25500000920E-02 0. -1.
       -2    1    3    3    0  502 -0.53389907153E+03  0.11142818681E+03 -0.13382614875E+04  0.14451326128E+04  0.25500000920E-02 0.  1.
</event>
<event>
 5   0  0.5297741E-07  0.2803610E+04  0.7818609E-02  0.8302149E-01
        1   -1    0    0  501    0  0.00000000000E+00  0.00000000000E+00  0.20572327414E+04  0.20572327414E+04  0.50400001928E-02 0.  1.
       -1   -1    0    0    0  501  0.00000000000E+00  0.00000000000E+00 -0.95519427260E+03  0.95519427262E+03  0.50400001928E-02 0. -1.
    10030    2    1    2    0    0  0.00000000000E+00  0.00000000000E+00  0.11020384688E+04  0.30124270140E+04  0.28036097674E+04 0.  0.
        5    1    3    3  502    0  0.12377945872E+04  0.43974100586E+03  0.10768868577E+04  0.16985920601E+04  0.46999998093E+01 0.  1.
       -5    1    3    3    0  502 -0.12377945872E+04 -0.43974100586E+03  0.25151611037E+02  0.13138349539E+04  0.46999998093E+01 0. -1.
</event>
<event>
 5   0  0.1377807E-06  0.2794670E+04  0.7818609E-02  0.8304925E-01
       -2   -1    0    0    0  501  0.00000000000E+00  0.00000000000E+00  0.16711212917E+04  0.16711212917E+04  0.25500000920E-02 0.  1.
        2   -1    0    0  501    0  0.00000000000E+00  0.00000000000E+00 -0.11684042532E+04  0.11684042532E+04  0.25500000920E-02 0. -1.
    10030    2    1    2    0    0  0.00000000000E+00  0.00000000000E+00  0.50271703845E+03  0.28395255449E+04  0.27946700878E+04 0.  0.
        2    1    3    3  502    0 -0.94233271818E+03  0.30406533974E+03  0.12531339576E+04  0.15971197195E+04  0.25500000920E-02 0.  1.
       -2    1    3    3    0  502  0.94233271818E+03 -0.30406533974E+03 -0.75041691917E+03  0.12424058255E+04  0.25500000920E-02 0. -1.
</event>
<event>
 5   0  0.1377807E-06  0.2804683E+04  0.7818609E-02  0.8301816E-01
        2   -1    0    0  501    0  0.00000000000E+00  0.00000000000E+00  0.22941959113E+04  0.22941959113E+04  0.25500000920E-02 0.  1.
       -2   -1    0    0    0  501  0.00000000000E+00  0.00000000000E+00 -0.85719001300E+03  0.85719001300E+03  0.25500000920E-02 0. -1.
    10030    2    1    2    0    0  0.00000000000E+00  0.00000000000E+00  0.14370058983E+04  0.31513859243E+04  0.28046831001E+04 0.  0.
        2    1    3    3  502    0 -0.16053928542E+03  0.11157462675E+04 -0.21882371260E+03  0.11482797624E+04  0.25500000920E-02 0. -1.
       -2    1    3    3    0  502  0.16053928542E+03 -0.11157462675E+04  0.16558296109E+04  0.20031061619E+04  0.25500000920E-02 0.  1.
</event>
<event>
 5   0  0.5282098E-07  0.2795946E+04  0.7818609E-02  0.8304528E-01
       -1   -1    0    0    0  501  0.00000000000E+00  0.00000000000E+00  0.97560957634E+03  0.97560957636E+03  0.50400001928E-02 0.  1.
        1   -1    0    0  501    0  0.00000000000E+00  0.00000000000E+00 -0.20031868863E+04  0.20031868863E+04  0.50400001928E-02 0. -1.
    10030    2    1    2    0    0  0.00000000000E+00  0.00000000000E+00 -0.10275773100E+04  0.29787964627E+04  0.27959458575E+04 0.  0.
        4    1    3    3  502    0  0.10543003768E+04  0.91798662104E+03 -0.50438077883E+03  0.14861528535E+04  0.12699999809E+01 0. -1.
       -4    1    3    3    0  502 -0.10543003768E+04 -0.91798662104E+03 -0.52319653116E+03  0.14926436092E+04  0.12699999809E+01 0.  1.
</event>
<event>
 5   0  0.1394410E-06  0.2798312E+04  0.7818609E-02  0.8303793E-01
        2   -1    0    0  501    0  0.00000000000E+00  0.00000000000E+00  0.25488297685E+04  0.25488297685E+04  0.25500000920E-02 0. -1.
       -2   -1    0    0    0  501  0.00000000000E+00  0.00000000000E+00 -0.76805320306E+03  0.76805320306E+03  0.25500000920E-02 0.  1.
    10030    2    1    2    0    0  0.00000000000E+00  0.00000000000E+00  0.17807765654E+04  0.33168829716E+04  0.27983115393E+04 0.  0.
        4    1    3    3  502    0 -0.13554045105E+03  0.36063321196E+03  0.24847185919E+04  0.25144095970E+04  0.12699999809E+01 0. -1.
       -4    1    3    3    0  502  0.13554045105E+03 -0.36063321196E+03 -0.70394202646E+03  0.80247337460E+03  0.12699999809E+01 0.  1.
</event>
<event>
 5   0  0.4710000E-07  0.2800136E+04  0.7818609E-02  0.8303226E-01
       -3   -1    0    0    0  501  0.00000000000E+00  0.00000000000E+00  0.17324678049E+04  0.17324678078E+04  0.10100000352E+00 0. -1.
        3   -1    0    0  501    0  0.00000000000E+00  0.00000000000E+00 -0.11314436749E+04  0.11314436794E+04  0.10100000352E+00 0.  1.
    10030    2    1    2    0    0  0.00000000000E+00  0.00000000000E+00  0.60102413001E+03  0.28639114872E+04  0.28001355327E+04 0.  0.
        3    1    3    3  502    0 -0.12897670812E+04  0.53565502975E+03  0.19944696311E+03  0.14107460920E+04  0.10100000352E+00 0. -1.
       -3    1    3    3    0  502  0.12897670812E+04 -0.53565502975E+03  0.40157716690E+03  0.14531653952E+04  0.10100000352E+00 0.  1.
</event>
<event>
 5   0  0.4710000E-07  0.2801919E+04  0.7818609E-02  0.8302673E-01
        3   -1    0    0  501    0  0.00000000000E+00  0.00000000000E+00  0.29166619494E+04  0.29166619511E+04  0.10100000352E+00 0.  1.
       -3   -1    0    0    0  501  0.00000000000E+00  0.00000000000E+00 -0.67292244497E+03  0.67292245255E+03  0.10100000352E+00 0. -1.
    10030    2    1    2    0    0  0.00000000000E+00  0.00000000000E+00  0.22437395044E+04  0.35895844037E+04  0.28019188474E+04 0.  0.
        2    1    3    3  502    0 -0.12662938529E+04  0.33074970944E+03  0.17621612256E+04  0.21950188330E+04  0.25500000920E-02 0.  1.
       -2    1    3    3    0  502  0.12662938529E+04 -0.33074970944E+03  0.48157827879E+03  0.13945655707E+04  0.25500000920E-02 0. -1.
</event>
<event>
 5   0  0.5551565E-07  0.2807817E+04  0.7818609E-02  0.8300846E-01
        1   -1    0    0  501    0  0.00000000000E+00  0.00000000000E+00  0.15487182557E+04  0.15487182557E+04  0.50400001928E-02 0.  1.
       -1   -1    0    0    0  501  0.00000000000E+00  0.00000000000E+00 -0.12726384593E+04  0.12726384593E+04  0.50400001928E-02 0. -1.
    10030    2    1    2    0    0  0.00000000000E+00  0.00000000000E+00  0.27607979644E+03  0.28213567150E+04  0.28078165288E+04 0.  0.
        3    1    3    3  502    0  0.13424586981E+04  0.14227487362E+03 -0.24920265246E+03  0.13727852956E+04  0.10100000352E+00 0. -1.
       -3    1    3    3    0  502 -0.13424586981E+04 -0.14227487362E+03  0.52528244891E+03  0.14485714194E+04  0.10100000352E+00 0.  1.
</event>
<event>
 5   0  0.1377807E-06  0.2795307E+04  0.7818609E-02  0.8304727E-01
        2   -1    0    0  501    0  0.00000000000E+00  0.00000000000E+00  0.10484295243E+04  0.10484295243E+04  0.25500000920E-02 0.  1.
       -2   -1    0    0    0  501  0.00000000000E+00  0.00000000000E+00 -0.18632012210E+04  0.18632012210E+04  0.25500000920E-02 0. -1.
    10030    2    1    2    0    0  0.00000000000E+00  0.00000000000E+00 -0.81477169671E+03  0.29116307453E+04  0.27953069025E+04 0.  0.
        2    1    3    3  502    0 -0.51445072179E+03  0.59921506644E+03  0.79373415199E+03  0.11197018108E+04  0.25500000920E-02 0.  1.
       -2    1    3    3    0  502  0.51445072179E+03 -0.59921506644E+03 -0.16085058487E+04  0.17919289345E+04  0.25500000920E-02 0. -1.
</event>
<event>
 5   0  0.5362952E-07  0.2804054E+04  0.7818609E-02  0.8302011E-01
       -1   -1    0    0    0  501  0.00000000000E+00  0.00000000000E+00  0.11023508078E+04  0.11023508078E+04  0.50400001928E-02 0. -1.
        1   -1    0    0  501    0  0.00000000000E+00  0.00000000000E+00 -0.17831712682E+04  0.17831712682E+04  0.50400001928E-02 0.  1.
    10030    2    1    2    0    0  0.00000000000E+00  0.00000000000E+00 -0.68082046039E+03  0.28855220761E+04  0.28040544132E+04 0.  0.
        1    1    3    3  502    0 -0.26135054359E+03  0.44153280296E+03  0.10022680204E+04  0.11259647008E+04  0.50400001928E-02 0. -1.
       -1    1    3    3    0  502  0.26135054359E+03 -0.44153280296E+03 -0.16830884808E+04  0.17595573753E+04  0.50400001928E-02 0.  1.
</event>
<event>
 5   0  0.1377807E-06  0.2857757E+04  0.7818609E-02  0.8285558E-01
        2   -1    0    0  501    0  0.00000000000E+00  0.00000000000E+00  0.16641933407E+04  0.16641933407E+04  0.25500000920E-02 0. -1.
       -2   -1    0    0    0  501  0.00000000000E+00  0.00000000000E+00 -0.12268366833E+04  0.12268366833E+04  0.25500000920E-02 0.  1.
    10030    2    1    2    0    0  0.00000000000E+00  0.00000000000E+00  0.43735665738E+03  0.28910300240E+04  0.28577567695E+04 0.  0.
        2    1    3    3  502    0  0.17452905809E+03  0.35157903853E+03  0.16085836768E+04  0.16557806793E+04  0.25500000920E-02 0. -1.
       -2    1    3    3    0  502 -0.17452905809E+03 -0.35157903853E+03 -0.11712270195E+04  0.12352493447E+04  0.25500000920E-02 0.  1.
</event>
<event>
 5   0  0.1377807E-06  0.2800240E+04  0.7818609E-02  0.8303194E-01
       -2   -1    0    0    0  501  0.00000000000E+00  0.00000000000E+00  0.12472364619E+04  0.12472364619E+04  0.25500000920E-02 0.  1.
        2   -1    0    0  501    0  0.00000000000E+00  0.00000000000E+00 -0.15717440657E+04  0.15717440657E+04  0.25500000920E-02 0. -1.
    10030    2    1    2    0    0  0.00000000000E+00  0.00000000000E+00 -0.32450760384E+03  0.28189805276E+04  0.28002403522E+04 0.  0.
        2    1    3    3  502    0 -0.13550351458E+04  0.34550647718E+03 -0.23230060512E+03  0.14175537180E+04  0.25500000920E-02 0. -1.
       -2    1    3    3    0  502  0.13550351458E+04 -0.34550647718E+03 -0.92206998724E+02  0.14014268096E+04  0.25500000920E-02 0.  1.
</event>
<event>
 5   0  0.5551565E-07  0.2801488E+04  0.7818609E-02  0.8302807E-01
       -1   -1    0    0    0  501  0.00000000000E+00  0.00000000000E+00  0.11488125711E+04  0.11488125711E+04  0.50400001928E-02 0. -1.
        1   -1    0    0  501    0  0.00000000000E+00  0.00000000000E+00 -0.17079227744E+04  0.17079227744E+04  0.50400001928E-02 0.  1.
    10030    2    1    2    0    0  0.00000000000E+00  0.00000000000E+00 -0.55911020330E+03  0.28567353456E+04  0.28014875718E+04 0.  0.
        3    1    3    3  502    0 -0.13080988514E+04 -0.40623364847E+03  0.19372312741E+02  0.13698626497E+04  0.10100000352E+00 0. -1.
       -3    1    3    3    0  502  0.13080988514E+04  0.40623364847E+03 -0.57848251604E+03  0.14868726959E+04  0.10100000352E+00 0.  1.
</event>
<event>
 5   0  0.5362952E-07  0.2796398E+04  0.7818609E-02  0.8304388E-01
       -1   -1    0    0    0  501  0.00000000000E+00  0.00000000000E+00  0.97289746692E+03  0.97289746693E+03  0.50400001928E-02 0. -1.
        1   -1    0    0  501    0  0.00000000000E+00  0.00000000000E+00 -0.20094202651E+04  0.20094202651E+04  0.50400001928E-02 0.  1.
    10030    2    1    2    0    0  0.00000000000E+00  0.00000000000E+00 -0.10365227981E+04  0.29823177320E+04  0.27963976011E+04 0.  0.
        1    1    3    3  502    0 -0.34894482148E+03  0.32563464247E+03  0.88332930943E+03  0.10040274288E+04  0.50400001928E-02 0. -1.
       -1    1    3    3    0  502  0.34894482148E+03 -0.32563464247E+03 -0.19198521076E+04  0.19782903032E+04  0.50400001928E-02 0.  1.
</event>
<event>
 5   0  0.5551565E-07  0.2798687E+04  0.7818609E-02  0.8303676E-01
        1   -1    0    0  501    0  0.00000000000E+00  0.00000000000E+00  0.11903978422E+04  0.11903978423E+04  0.50400001928E-02 0.  1.
       -1   -1    0    0    0  501  0.00000000000E+00  0.00000000000E+00 -0.16449651176E+04  0.16449651176E+04  0.50400001928E-02 0. -1.
    10030    2    1    2    0    0  0.00000000000E+00  0.00000000000E+00 -0.45456727536E+03  0.28353629599E+04  0.27986874971E+04 0.  0.
        3    1    3    3  502    0  0.58066102048E+03 -0.11930916854E+04 -0.67754896529E+03  0.14898683167E+04  0.10100000352E+00 0. -1.
       -3    1    3    3    0  502 -0.58066102048E+03  0.11930916854E+04  0.22298168993E+03  0.13454946432E+04  0.10100000352E+00 0.  1.
</event>
<event>
 5   0  0.4710000E-07  0.2799753E+04  0.7818609E-02  0.8303345E-01
       -3   -1    0    0    0  501  0.00000000000E+00  0.00000000000E+00  0.10944187666E+04  0.10944187713E+04  0.10100000352E+00 0. -1.
        3   -1    0    0  501    0  0.00000000000E+00  0.00000000000E+00 -0.17905885694E+04  0.17905885723E+04  0.10100000352E+00 0.  1.
    10030    2    1    2    0    0  0.00000000000E+00  0.00000000000E+00 -0.69616980281E+03  0.28850073435E+04  0.27997526637E+04 0.  0.
        1    1    3    3  502    0  0.49630708116E+02 -0.80575334851E+03 -0.15265674959E+04  0.17268786829E+04  0.50400001928E-02 0.  1.
       -1    1    3    3    0  502 -0.49630708116E+02  0.80575334851E+03  0.83039769310E+03  0.11581286606E+04  0.50400001928E-02 0. -1.
</event>
<event>
 5   0  0.5282098E-07  0.2801634E+04  0.7818609E-02  0.8302761E-01
        1   -1    0    0  501    0  0.00000000000E+00  0.00000000000E+00  0.27210369545E+04  0.27210369545E+04  0.50400001928E-02 0.  1.
       -1   -1    0    0    0  501  0.00000000000E+00  0.00000000000E+00 -0.72115443446E+03  0.72115443448E+03  0.50400001928E-02 0. -1.
    10030    2    1    2    0    0  0.00000000000E+00  0.00000000000E+00  0.19998825200E+04  0.34421913890E+04  0.28016337135E+04 0.  0.
        4    1    3    3  502    0 -0.49633714341E+03  0.11959638425E+04  0.16565512103E+04  0.21025802239E+04  0.12699999809E+01 0.  1.
       -4    1    3    3    0  502  0.49633714341E+03 -0.11959638425E+04  0.34333130974E+03  0.13396111651E+04  0.12699999809E+01 0. -1.
</event>
<event>
 5   0  0.5282098E-07  0.2795578E+04  0.7818609E-02  0.8304642E-01
        1   -1    0    0  501    0  0.00000000000E+00  0.00000000000E+00  0.18681511686E+04  0.18681511686E+04  0.50400001928E-02 0.  1.
       -1   -1    0    0    0  501  0.00000000000E+00  0.00000000000E+00 -0.10458547165E+04  0.10458547165E+04  0.50400001928E-02 0. -1.
    10030    2    1    2    0    0  0.00000000000E+00  0.00000000000E+00  0.82229645214E+03  0.29140058851E+04  0.27955784452E+04 0.  0.
        4    1    3    3  502    0 -0.12005388375E+03  0.11299153586E+04 -0.43739588429E+03  0.12175542801E+04  0.12699999809E+01 0. -1.
       -4    1    3    3    0  502  0.12005388375E+03 -0.11299153586E+04  0.12596923364E+04  0.16964516050E+04  0.12699999809E+01 0.  1.
</event>
<event>
 5   0  0.1461146E-06  0.2817885E+04  0.7818609E-02  0.8297737E-01
        2   -1    0    0  501    0  0.00000000000E+00  0.00000000000E+00  0.18188332342E+04  0.18188332342E+04  0.25500000920E-02 0.  1.
       -2   -1    0    0    0  501  0.00000000000E+00  0.00000000000E+00 -0.10914242758E+04  0.10914242759E+04  0.25500000920E-02 0. -1.
    10030    2    1    2    0    0  0.00000000000E+00  0.00000000000E+00  0.72740895831E+03  0.29102575100E+04  0.28178848419E+04 0.  0.
        1    1    3    3  502    0 -0.63628617201E+03 -0.10242638176E+04 -0.38898113642E+03  0.12669975475E+04  0.50400001928E-02 0. -1.
       -1    1    3    3    0  502  0.63628617201E+03  0.10242638176E+04  0.11163900947E+04  0.16432599625E+04  0.50400001928E-02 0.  1.
</event>
<event>
 5   0  0.1499888E-06  0.2795264E+04  0.7818609E-02  0.8304740E-01
        2   -1    0    0  501    0  0.00000000000E+00  0.00000000000E+00  0.17345564072E+04  0.17345564072E+04  0.25500000920E-02 0.  1.
       -2   -1    0    0    0  501  0.00000000000E+00  0.00000000000E+00 -0.11261522146E+04  0.11261522146E+04  0.25500000920E-02 0. -1.
    10030    2    1    2    0    0  0.00000000000E+00  0.00000000000E+00  0.60840419263E+03  0.28607086217E+04  0.27952635219E+04 0.  0.
        3    1    3    3  502    0  0.40869868891E+03 -0.36920818759E+03  0.16188097597E+04  0.17099398681E+04  0.10100000352E+00 0.  1.
       -3    1    3    3    0  502 -0.40869868891E+03  0.36920818759E+03 -0.10104055671E+04  0.11507687536E+04  0.10100000352E+00 0. -1.
</event>
<event>
 5   0  0.4710000E-07  0.2764054E+04  0.7818609E-02  0.8314516E-01
        3   -1    0    0  501    0  0.00000000000E+00  0.00000000000E+00  0.14743006657E+04  0.14743006692E+04  0.10100000352E+00 0. -1.
       -3   -1    0    0    0  501  0.00000000000E+00  0.00000000000E+00 -0.12955288709E+04  0.12955288749E+04  0.10100000352E+00 0.  1.
    10030    2    1    2    0    0  0.00000000000E+00  0.00000000000E+00  0.17877179481E+03  0.27698295440E+04  0.27640543317E+04 0.  0.
        2    1    3    3  502    0  0.11894495947E+04 -0.27674887423E+03  0.73774533509E+03  0.14267615278E+04  0.25500000920E-02 0. -1.
       -2    1    3    3    0  502 -0.11894495947E+04  0.27674887423E+03 -0.55897354028E+03  0.13430680163E+04  0.25500000920E-02 0.  1.
</event>
<event>
 5   0  0.1377807E-06  0.2810945E+04  0.7818609E-02  0.8299878E-01
        2   -1    0    0  501    0  0.00000000000E+00  0.00000000000E+00  0.13737872303E+04  0.13737872303E+04  0.25500000920E-02 0. -1.
       -2   -1    0    0    0  501  0.00000000000E+00  0.00000000000E+00 -0.14378886569E+04  0.14378886569E+04  0.25500000920E-02 0.  1.
    10030    2    1    2    0    0  0.00000000000E+00  0.00000000000E+00 -0.64101426563E+02  0.28116758872E+04  0.28109450904E+04 0.  0.
        2    1    3    3  502    0  0.12058760123E+04  0.72186031942E+03 -0.43620813851E+02  0.14061017222E+04  0.25500000920E-02 0.  1.
       -2    1    3    3    0  502 -0.12058760123E+04 -0.72186031942E+03 -0.20480612712E+02  0.14055741650E+04  0.25500000920E-02 0. -1.
</event>
<event>
 5   0  0.1394410E-06  0.2799883E+04  0.7818609E-02  0.8303305E-01
        2   -1    0    0  501    0  0.00000000000E+00  0.00000000000E+00  0.14677736418E+04  0.14677736418E+04  0.25500000920E-02 0.  1.
       -2   -1    0    0    0  501  0.00000000000E+00  0.00000000000E+00 -0.13352445918E+04  0.13352445918E+04  0.25500000920E-02 0. -1.
    10030    2    1    2    0    0  0.00000000000E+00  0.00000000000E+00  0.13252904994E+03  0.28030182336E+04  0.27998834384E+04 0.  0.
        4    1    3    3  502    0 -0.22696227403E+03 -0.12343640168E+04  0.68717566970E+03  0.14308663158E+04  0.12699999809E+01 0.  1.
       -4    1    3    3    0  502  0.22696227403E+03  0.12343640168E+04 -0.55464661976E+03  0.13721519178E+04  0.12699999809E+01 0. -1.
</event>
<event>
 5   0  0.5282098E-07  0.2799045E+04  0.7818609E-02  0.8303565E-01
       -1   -1    0    0    0  501  0.00000000000E+00  0.00000000000E+00  0.21942964379E+04  0.21942964379E+04  0.50400001928E-02 0.  1.
        1   -1    0    0  501    0  0.00000000000E+00  0.00000000000E+00 -0.89261564533E+03  0.89261564534E+03  0.50400001928E-02 0. -1.
    10030    2    1    2    0    0  0.00000000000E+00  0.00000000000E+00  0.13016807926E+04  0.30869120833E+04  0.27990450736E+04 0.  0.
        4    1    3    3  502    0 -0.36137982849E+03 -0.33673602760E+03 -0.79328631205E+03  0.93450057170E+03  0.12699999809E+01 0. -1.
       -4    1    3    3    0  502  0.36137982849E+03  0.33673602760E+03  0.20949671046E+04  0.21524115116E+04  0.12699999809E+01 0.  1.
</event>
<event>
 5   0  0.1439207E-06  0.2797315E+04  0.7818609E-02  0.8304102E-01
        2   -1    0    0  501    0  0.00000000000E+00  0.00000000000E+00  0.10804138734E+04  0.10804138734E+04  0.25500000920E-02 0.  1.
       -2   -1    0    0    0  501  0.00000000000E+00  0.00000000000E+00 -0.18106423620E+04  0.18106423620E+04  0.25500000920E-02 0. -1.
    10030    2    1    2    0    0  0.00000000000E+00  0.00000000000E+00 -0.73022848859E+03  0.28910562355E+04  0.27973152327E+04 0.  0.
        5    1    3    3  502    0  0.23914743623E+03  0.78058031554E+03 -0.15388315424E+04  0.17419878677E+04  0.46999998093E+01 0. -1.
       -5    1    3    3    0  502 -0.23914743623E+03 -0.78058031554E+03  0.80860305379E+03  0.11490683678E+04  0.46999998093E+01 0.  1.
</event>
<event>
 5   0  0.1461146E-06  0.2797713E+04  0.7818609E-02  0.8303979E-01
       -2   -1    0    0    0  501  0.00000000000E+00  0.00000000000E+00  0.14977804385E+04  0.14977804385E+04  0.25500000920E-02 0.  1.
        2   -1    0    0  501    0  0.00000000000E+00  0.00000000000E+00 -0.13064661615E+04  0.13064661615E+04  0.25500000920E-02 0. -1.
    10030    2    1    2    0    0  0.00000000000E+00  0.00000000000E+00  0.19131427700E+03  0.28042466000E+04  0.27977129662E+04 0.  0.
        1    1    3    3  502    0 -0.55958892288E+03 -0.59536609232E+03 -0.10424234393E+04  0.13244799633E+04  0.50400001928E-02 0. -1.
       -1    1    3    3    0  502  0.55958892288E+03  0.59536609232E+03  0.12337377163E+04  0.14797666367E+04  0.50400001928E-02 0.  1.
</event>
<event>
 5   0  0.5282098E-07  0.2796669E+04  0.7818609E-02  0.8304303E-01
        1   -1    0    0  501    0  0.00000000000E+00  0.00000000000E+00  0.22955135609E+04  0.22955135609E+04  0.50400001928E-02 0. -1.
       -1   -1    0    0    0  501  0.00000000000E+00  0.00000000000E+00 -0.85180886942E+03  0.85180886943E+03  0.50400001928E-02 0.  1.
    10030    2    1    2    0    0  0.00000000000E+00  0.00000000000E+00  0.14437046915E+04  0.31473224303E+04  0.27966685975E+04 0.  0.
        4    1    3    3  502    0  0.19569554013E+03  0.65312563495E+03  0.20957724093E+04  0.22038905245E+04  0.12699999809E+01 0. -1.
       -4    1    3    3    0  502 -0.19569554013E+03 -0.65312563495E+03 -0.65206771782E+03  0.94343190585E+03  0.12699999809E+01 0.  1.
</event>
<event>
 5   0  0.5551565E-07  0.2794192E+04  0.7818609E-02  0.8305074E-01
       -1   -1    0    0    0  501  0.00000000000E+00  0.00000000000E+00  0.31783948735E+04  0.31783948735E+04  0.50400001928E-02 0.  1.
        1   -1    0    0  501    0  0.00000000000E+00  0.00000000000E+00 -0.61410763105E+03  0.61410763107E+03  0.50400001928E-02 0. -1.
    10030    2    1    2    0    0  0.00000000000E+00  0.00000000000E+00  0.25642872424E+04  0.37925025045E+04  0.27941915083E+04 0.  0.
        3    1    3    3  502    0 -0.90440874848E+03 -0.95454808666E+03  0.64154259208E+03  0.14631111174E+04  0.10100000352E+00 0.  1.
       -3    1    3    3    0  502  0.90440874848E+03  0.95454808666E+03  0.19227446503E+04  0.23293913872E+04  0.10100000352E+00 0. -1.
</event>
<event>
 5   0  0.1394410E-06  0.2804081E+04  0.7818609E-02  0.8302003E-01
        2   -1    0    0  501    0  0.00000000000E+00  0.00000000000E+00  0.19141968559E+04  0.19141968559E+04  0.25500000920E-02 0. -1.
       -2   -1    0    0    0  501  0.00000000000E+00  0.00000000000E+00 -0.10269149446E+04  0.10269149446E+04  0.25500000920E-02 0.  1.
    10030    2    1    2    0    0  0.00000000000E+00  0.00000000000E+00  0.88728191130E+03  0.29411118004E+04  0.28040808534E+04 0.  0.
        4    1    3    3  502    0  0.12791208001E+04 -0.57399325598E+03  0.43328600730E+03  0.14674319937E+04  0.12699999809E+01 0.  1.
       -4    1    3    3    0  502 -0.12791208001E+04  0.57399325598E+03  0.45399590400E+03  0.14736798068E+04  0.12699999809E+01 0. -1.
</event>
<event>
 5   0  0.1499888E-06  0.2798306E+04  0.7818609E-02  0.8303794E-01
        2   -1    0    0  501    0  0.00000000000E+00  0.00000000000E+00  0.14800973764E+04  0.14800973764E+04  0.25500000920E-02 0.  1.
       -2   -1    0    0    0  501  0.00000000000E+00  0.00000000000E+00 -0.13226356255E+04  0.13226356255E+04  0.25500000920E-02 0. -1.
    10030    2    1    2    0    0  0.00000000000E+00  0.00000000000E+00  0.15746175093E+03  0.28027330020E+04  0.27983062873E+04 0.  0.
        3    1    3    3  502    0  0.37869813526E+03 -0.94148352927E+03  0.10434918938E+04  0.14555682245E+04  0.10100000352E+00 0.  1.
       -3    1    3    3    0  502 -0.37869813526E+03  0.94148352927E+03 -0.88603014283E+03  0.13471647775E+04  0.10100000352E+00 0. -1.
</event>
<event>
 5   0  0.1377807E-06  0.2796342E+04  0.7818609E-02  0.8304405E-01
       -2   -1    0    0    0  501  0.00000000000E+00  0.00000000000E+00  0.20074228719E+04  0.20074228719E+04  0.25500000920E-02 0. -1.
        2   -1    0    0  501    0  0.00000000000E+00  0.00000000000E+00 -0.97382665459E+03  0.97382665459E+03  0.25500000920E-02 0.  1.
    10030    2    1    2    0    0  0.00000000000E+00  0.00000000000E+00  0.10335962174E+04  0.29812495265E+04  0.27963418244E+04 0.  0.
        2    1    3    3  502    0 -0.85814483209E+03 -0.10471365481E+04  0.88914043515E+03  0.16197154740E+04  0.25500000920E-02 0. -1.
       -2    1    3    3    0  502  0.85814483209E+03  0.10471365481E+04  0.14445578220E+03  0.13615340526E+04  0.25500000920E-02 0.  1.
</event>
<event>
 5   0  0.1377807E-06  0.2797938E+04  0.7818609E-02  0.8303909E-01
        2   -1    0    0  501    0  0.00000000000E+00  0.00000000000E+00  0.17240875985E+04  0.17240875985E+04  0.25500000920E-02 0. -1.
       -2   -1    0    0    0  501  0.00000000000E+00  0.00000000000E+00 -0.11351595210E+04  0.11351595210E+04  0.25500000920E-02 0.  1.
    10030    2    1    2    0    0  0.00000000000E+00  0.00000000000E+00  0.58892807749E+03  0.28592471194E+04  0.27979381354E+04 0.  0.
        2    1    3    3  502    0 -0.12960151709E+04  0.50908943474E+03  0.15627114023E+03  0.14011595359E+04  0.25500000920E-02 0. -1.
       -2    1    3    3    0  502  0.12960151709E+04 -0.50908943474E+03  0.43265693726E+03  0.14580875835E+04  0.25500000920E-02 0.  1.
</event>
<event>
 5   0  0.1394410E-06  0.2804943E+04  0.7818609E-02  0.8301735E-01
       -2   -1    0    0    0  501  0.00000000000E+00  0.00000000000E+00  0.87947626065E+03  0.87947626065E+03  0.25500000920E-02 0.  1.
        2   -1    0    0  501    0  0.00000000000E+00  0.00000000000E+00 -0.22364752093E+04  0.22364752093E+04  0.25500000920E-02 0. -1.
    10030    2    1    2    0    0  0.00000000000E+00  0.00000000000E+00 -0.13569989487E+04  0.31159514700E+04  0.28049433892E+04 0.  0.
        4    1    3    3  502    0  0.12563080565E+04 -0.21397996262E+02  0.13603217985E+02  0.12565645497E+04  0.12699999809E+01 0.  1.
       -4    1    3    3    0  502 -0.12563080565E+04  0.21397996262E+02 -0.13706021667E+04  0.18593869203E+04  0.12699999809E+01 0. -1.
</event>
<event>
 5   0  0.1439207E-06  0.2797576E+04  0.7818609E-02  0.8304021E-01
       -2   -1    0    0    0  501  0.00000000000E+00  0.00000000000E+00  0.78162809354E+03  0.78162809355E+03  0.25500000920E-02 0.  1.
        2   -1    0    0  501    0  0.00000000000E+00  0.00000000000E+00 -0.25032463065E+04  0.25032463065E+04  0.25500000920E-02 0. -1.
    10030    2    1    2    0    0  0.00000000000E+00  0.00000000000E+00 -0.17216182130E+04  0.32848744001E+04  0.27975758351E+04 0.  0.
        5    1    3    3  502    0 -0.30045493330E+03  0.94561457378E+03  0.29689629394E+03  0.10356783229E+04  0.46999998093E+01 0.  1.
       -5    1    3    3    0  502  0.30045493330E+03 -0.94561457378E+03 -0.20185145069E+04  0.22491960772E+04  0.46999998093E+01 0. -1.
</event>
<event>
 5   0  0.1439207E-06  0.2796910E+04  0.7818609E-02  0.8304228E-01
       -2   -1    0    0    0  501  0.00000000000E+00  0.00000000000E+00  0.80511139922E+03  0.80511139922E+03  0.25500000920E-02 0. -1.
        2   -1    0    0  501    0  0.00000000000E+00  0.00000000000E+00 -0.24290763361E+04  0.24290763361E+04  0.25500000920E-02 0.  1.
    10030    2    1    2    0    0  0.00000000000E+00  0.00000000000E+00 -0.16239649369E+04  0.32341877353E+04  0.27969104725E+04 0.  0.
        5    1    3    3  502    0  0.18745297956E+02 -0.13219774423E+04 -0.28501576375E+03  0.13524909685E+04  0.46999998093E+01 0.  1.
       -5    1    3    3    0  502 -0.18745297956E+02  0.13219774423E+04 -0.13389491732E+04  0.18816967669E+04  0.46999998093E+01 0. -1.
</event>
<event>
 5   0  0.1499888E-06  0.2798101E+04  0.7818609E-02  0.8303858E-01
       -2   -1    0    0    0  501  0.00000000000E+00  0.00000000000E+00  0.99811548173E+03  0.99811548173E+03  0.25500000920E-02 0.  1.
        2   -1    0    0  501    0  0.00000000000E+00  0.00000000000E+00 -0.19610385684E+04  0.19610385684E+04  0.25500000920E-02 0. -1.
    10030    2    1    2    0    0  0.00000000000E+00  0.00000000000E+00 -0.96292308670E+03  0.29591540502E+04  0.27981014674E+04 0.  0.
        3    1    3    3  502    0  0.50190205102E+03 -0.93868825656E+03  0.47870638519E+03  0.11671337221E+04  0.10100000352E+00 0.  1.
       -3    1    3    3    0  502 -0.50190205102E+03  0.93868825656E+03 -0.14416294719E+04  0.17920203281E+04  0.10100000352E+00 0. -1.
</event>
<event>
 5   0  0.5362952E-07  0.2799849E+04  0.7818609E-02  0.8303315E-01
       -1   -1    0    0    0  501  0.00000000000E+00  0.00000000000E+00  0.14457552591E+04  0.14457552591E+04  0.50400001928E-02 0.  1.
        1   -1    0    0  501    0  0.00000000000E+00  0.00000000000E+00 -0.13555468577E+04  0.13555468577E+04  0.50400001928E-02 0. -1.
    10030    2    1    2    0    0  0.00000000000E+00  0.00000000000E+00  0.90208401441E+02  0.28013021168E+04  0.27998492806E+04 0.  0.
        1    1    3    3  502    0 -0.13304663029E+04 -0.17294687862E+01  0.48081315012E+03  0.14146818934E+04  0.50400001928E-02 0.  1.
       -1    1    3    3    0  502  0.13304663029E+04  0.17294687862E+01 -0.39060474868E+03  0.13866202234E+04  0.50400001928E-02 0. -1.
</event>
<event>
 5   0  0.5362952E-07  0.2807206E+04  0.7818609E-02  0.8301035E-01
        1   -1    0    0  501    0  0.00000000000E+00  0.00000000000E+00  0.16502755883E+04  0.16502755883E+04  0.50400001928E-02 0. -1.
       -1   -1    0    0    0  501  0.00000000000E+00  0.00000000000E+00 -0.11938011026E+04  0.11938011026E+04  0.50400001928E-02 0.  1.
    10030    2    1    2    0    0  0.00000000000E+00  0.00000000000E+00  0.45647448569E+03  0.28440766910E+04  0.28072055977E+04 0.  0.
        1    1    3    3  502    0 -0.71674580280E+03  0.72425179564E+03  0.12062324642E+04  0.15790066393E+04  0.50400001928E-02 0. -1.
       -1    1    3    3    0  502  0.71674580280E+03 -0.72425179564E+03 -0.74975797847E+03  0.12650700517E+04  0.50400001928E-02 0.  1.
</event>
<event>
 5   0  0.1377807E-06  0.2779531E+04  0.7818609E-02  0.8309651E-01
        2   -1    0    0  501    0  0.00000000000E+00  0.00000000000E+00  0.14437973719E+04  0.14437973719E+04  0.25500000920E-02 0.  1.
       -2   -1    0    0    0  501  0.00000000000E+00  0.00000000000E+00 -0.13377557414E+04  0.13377557414E+04  0.25500000920E-02 0. -1.
    10030    2    1    2    0    0  0.00000000000E+00  0.00000000000E+00  0.10604163055E+03  0.27815531134E+04  0.27795310567E+04 0.  0.
        2    1    3    3  502    0 -0.63980525060E+03  0.82916690031E+03  0.96723875446E+03  0.14256294453E+04  0.25500000920E-02 0.  1.
       -2    1    3    3    0  502  0.63980525060E+03 -0.82916690031E+03 -0.86119712391E+03  0.13559236680E+04  0.25500000920E-02 0. -1.
</event>
<event>
 5   0  0.1394410E-06  0.2797330E+04  0.7818609E-02  0.8304098E-01
       -2   -1    0    0    0  501  0.00000000000E+00  0.00000000000E+00  0.82042317203E+03  0.82042317204E+03  0.25500000920E-02 0. -1.
        2   -1    0    0  501    0  0.00000000000E+00  0.00000000000E+00 -0.23844562468E+04  0.23844562468E+04  0.25500000920E-02 0.  1.
    10030    2    1    2    0    0  0.00000000000E+00  0.00000000000E+00 -0.15640330748E+04  0.32048794189E+04  0.27973295534E+04 0.  0.
        4    1    3    3  502    0 -0.75106032178E+03 -0.67034808156E+03  0.33042866561E+03  0.10595484290E+04  0.12699999809E+01 0. -1.
       -4    1    3    3    0  502  0.75106032178E+03  0.67034808156E+03 -0.18944617404E+04  0.21453309899E+04  0.12699999809E+01 0.  1.
</event>
<event>
 5   0  0.5297741E-07  0.2796834E+04  0.7818609E-02  0.8304252E-01
        1   -1    0    0  501    0  0.00000000000E+00  0.00000000000E+00  0.22221138414E+04  0.22221138414E+04  0.50400001928E-02 0.  1.
       -1   -1    0    0    0  501  0.00000000000E+00  0.00000000000E+00 -0.88004924910E+03  0.88004924911E+03  0.50400001928E-02 0. -1.
    10030    2    1    2    0    0  0.00000000000E+00  0.00000000000E+00  0.13420645923E+04  0.31021630905E+04  0.27968336508E+04 0.  0.
        5    1    3    3  502    0  0.48824371120E+03 -0.13103603018E+04  0.68325761083E+03  0.15563704877E+04  0.46999998093E+01 0. -1.
       -5    1    3    3    0  502 -0.48824371120E+03  0.13103603018E+04  0.65880698148E+03  0.15457926028E+04  0.46999998093E+01 0.  1.
</event>
<event>
 5   0  0.1394410E-06  0.2801334E+04  0.7818609E-02  0.8302854E-01
       -2   -1    0    0    0  501  0.00000000000E+00  0.00000000000E+00  0.21310866257E+04  0.21310866257E+04  0.25500000920E-02 0.  1.
        2   -1    0    0  501    0  0.00000000000E+00  0.00000000000E+00 -0.92059533120E+03  0.92059533120E+03  0.25500000920E-02 0. -1.
    10030    2    1    2    0    0  0.00000000000E+00  0.00000000000E+00  0.12104912945E+04  0.30516819569E+04  0.28013342521E+04 0.  0.
        4    1    3    3  502    0  0.41763603377E+03  0.95459423654E+03 -0.41446079457E+03  0.11213605024E+04  0.12699999809E+01 0. -1.
       -4    1    3    3    0  502 -0.41763603377E+03 -0.95459423654E+03  0.16249520890E+04  0.19303214545E+04  0.12699999809E+01 0.  1.
</event>
<event>
 5   0  0.5297741E-07  0.2803625E+04  0.7818609E-02  0.8302144E-01
        1   -1    0    0  501    0  0.00000000000E+00  0.00000000000E+00  0.24000929711E+04  0.24000929711E+04  0.50400001928E-02 0. -1.
       -1   -1    0    0    0  501  0.00000000000E+00  0.00000000000E+00 -0.81875119203E+03  0.81875119204E+03  0.50400001928E-02 0.  1.
    10030    2    1    2    0    0  0.00000000000E+00  0.00000000000E+00  0.15813417790E+04  0.32188441631E+04  0.28036254964E+04 0.  0.
        5    1    3    3  502    0 -0.72586781570E+03 -0.24438710155E+03 -0.55728321300E+03  0.94720420753E+03  0.46999998093E+01 0.  1.
       -5    1    3    3    0  502  0.72586781570E+03  0.24438710155E+03  0.21386249920E+04  0.22716399556E+04  0.46999998093E+01 0. -1.
</event>
<event>
 5   0  0.5282098E-07  0.2804436E+04  0.7818609E-02  0.8301892E-01
       -1   -1    0    0    0  501  0.00000000000E+00  0.00000000000E+00  0.74700102660E+03  0.74700102662E+03  0.50400001928E-02 0. -1.
        1   -1    0    0  501    0  0.00000000000E+00  0.00000000000E+00 -0.26321456983E+04  0.26321456983E+04  0.50400001928E-02 0.  1.
    10030    2    1    2    0    0  0.00000000000E+00  0.00000000000E+00 -0.18851446717E+04  0.33791467249E+04  0.28044361564E+04 0.  0.
        4    1    3    3  502    0  0.26560905407E+03  0.11843569176E+04 -0.17885702489E+04  0.21615352475E+04  0.12699999809E+01 0. -1.
       -4    1    3    3    0  502 -0.26560905407E+03 -0.11843569176E+04 -0.96574422802E+02  0.12176114774E+04  0.12699999809E+01 0.  1.
</event>
<event>
 5   0  0.5362952E-07  0.2793247E+04  0.7818609E-02  0.8305368E-01
        1   -1    0    0  501    0  0.00000000000E+00  0.00000000000E+00  0.21634039599E+04  0.21634039599E+04  0.50400001928E-02 0. -1.
       -1   -1    0    0    0  501  0.00000000000E+00  0.00000000000E+00 -0.90161461984E+03  0.90161461986E+03  0.50400001928E-02 0.  1.
    10030    2    1    2    0    0  0.00000000000E+00  0.00000000000E+00  0.12617893401E+04  0.30650185798E+04  0.27932465977E+04 0.  0.
        1    1    3    3  502    0 -0.66667042819E+03 -0.79285968169E+03 -0.39698581460E+03  0.11093573237E+04  0.50400001928E-02 0.  1.
       -1    1    3    3    0  502  0.66667042819E+03  0.79285968169E+03  0.16587751547E+04  0.19556612561E+04  0.50400001928E-02 0. -1.
</event>
<event>
 5   0  0.5362952E-07  0.2800700E+04  0.7818609E-02  0.8303051E-01
       -1   -1    0    0    0  501  0.00000000000E+00  0.00000000000E+00  0.77353562803E+03  0.77353562805E+03  0.50400001928E-02 0.  1.
        1   -1    0    0  501    0  0.00000000000E+00  0.00000000000E+00 -0.25350863262E+04  0.25350863263E+04  0.50400001928E-02 0. -1.
    10030    2    1    2    0    0  0.00000000000E+00  0.00000000000E+00 -0.17615506982E+04  0.33086219543E+04  0.28006996223E+04 0.  0.
        1    1    3    3  502    0  0.85089284283E+03 -0.72601119971E+03 -0.18761111572E+04  0.21842399059E+04  0.50400001928E-02 0. -1.
       -1    1    3    3    0  502 -0.85089284283E+03  0.72601119971E+03  0.11456045901E+03  0.11243820484E+04  0.50400001928E-02 0.  1.
</event>
<event>
 5   0  0.5362952E-07  0.2799645E+04  0.7818609E-02  0.8303379E-01
        1   -1    0    0  501    0  0.00000000000E+00  0.00000000000E+00  0.11770019835E+04  0.11770019835E+04  0.50400001928E-02 0. -1.
       -1   -1    0    0    0  501  0.00000000000E+00  0.00000000000E+00 -0.16648257617E+04  0.16648257617E+04  0.50400001928E-02 0.  1.
    10030    2    1    2    0    0  0.00000000000E+00  0.00000000000E+00 -0.48782377814E+03  0.28418277452E+04  0.27996451373E+04 0.  0.
        1    1    3    3  502    0  0.39319394105E+02 -0.45967624720E+03 -0.15854355088E+04  0.16511977530E+04  0.50400001928E-02 0.  1.
       -1    1    3    3    0  502 -0.39319394105E+02  0.45967624720E+03  0.10976117306E+04  0.11906299922E+04  0.50400001928E-02 0. -1.
</event>
<event>
 5   0  0.5214658E-07  0.2803871E+04  0.7818609E-02  0.8302068E-01
       -1   -1    0    0    0  501  0.00000000000E+00  0.00000000000E+00  0.10915363237E+04  0.10915363237E+04  0.50400001928E-02 0. -1.
        1   -1    0    0  501    0  0.00000000000E+00  0.00000000000E+00 -0.18006028684E+04  0.18006028684E+04  0.50400001928E-02 0.  1.
    10030    2    1    2    0    0  0.00000000000E+00  0.00000000000E+00 -0.70906654471E+03  0.28921391921E+04  0.28038712063E+04 0.  0.
        2    1    3    3  502    0 -0.22582021821E+03 -0.53341092942E+03  0.96233338717E+03  0.11232130424E+04  0.25500000920E-02 0. -1.
       -2    1    3    3    0  502  0.22582021821E+03  0.53341092942E+03 -0.16713999319E+04  0.17689261496E+04  0.25500000920E-02 0.  1.
</event>
<event>
 5   0  0.5297741E-07  0.2798697E+04  0.7818609E-02  0.8303673E-01
       -1   -1    0    0    0  501  0.00000000000E+00  0.00000000000E+00  0.16156934112E+04  0.16156934112E+04  0.50400001928E-02 0.  1.
        1   -1    0    0  501    0  0.00000000000E+00  0.00000000000E+00 -0.12119729294E+04  0.12119729294E+04  0.50400001928E-02 0. -1.
    10030    2    1    2    0    0  0.00000000000E+00  0.00000000000E+00  0.40372048179E+03  0.28276663405E+04  0.27986973230E+04 0.  0.
        5    1    3    3  502    0  0.47243102663E+03 -0.78733094163E+03  0.12687608847E+04  0.15661600682E+04  0.46999998093E+01 0.  1.
       -5    1    3    3    0  502 -0.47243102663E+03  0.78733094163E+03 -0.86504040291E+03  0.12615062724E+04  0.46999998093E+01 0. -1.
</event>
<event>
 5   0  0.1499888E-06  0.2807701E+04  0.7818609E-02  0.8300882E-01
        2   -1    0    0  501    0  0.00000000000E+00  0.00000000000E+00  0.19335886523E+04  0.19335886523E+04  0.25500000920E-02 0.  1.
       -2   -1    0    0    0  501  0.00000000000E+00  0.00000000000E+00 -0.10192426096E+04  0.10192426096E+04  0.25500000920E-02 0. -1.
    10030    2    1    2    0    0  0.00000000000E+00  0.00000000000E+00  0.91434604270E+03  0.29528312620E+04  0.28077007989E+04 0.  0.
        3    1    3    3  502    0  0.24909920987E+03  0.50316979968E+03  0.18103699728E+04  0.18954339113E+04  0.10100000352E+00 0.  1.
       -3    1    3    3    0  502 -0.24909920987E+03 -0.50316979968E+03 -0.89602393008E+03  0.10573973506E+04  0.10100000352E+00 0. -1.
</event>
<event>
 5   0  0.5551565E-07  0.2797424E+04  0.7818609E-02  0.8304069E-01
        1   -1    0    0  501    0  0.00000000000E+00  0.00000000000E+00  0.23464974029E+04  0.23464974029E+04  0.50400001928E-02 0.  1.
       -1   -1    0    0    0  501  0.00000000000E+00  0.00000000000E+00 -0.83375122286E+03  0.83375122288E+03  0.50400001928E-02 0. -1.
    10030    2    1    2    0    0  0.00000000000E+00  0.00000000000E+00  0.15127461800E+04  0.31802486258E+04  0.27974238715E+04 0.  0.
        3    1    3    3  502    0  0.36338280374E+03 -0.91331231452E+03 -0.37489659423E+03  0.10520142169E+04  0.10100000352E+00 0. -1.
       -3    1    3    3    0  502 -0.36338280374E+03  0.91331231452E+03  0.18876427743E+04  0.21282344089E+04  0.10100000352E+00 0.  1.
</event>
<event>
 5   0  0.5214658E-07  0.2800952E+04  0.7818609E-02  0.8302973E-01
        1   -1    0    0  501    0  0.00000000000E+00  0.00000000000E+00  0.15216678674E+04  0.15216678674E+04  0.50400001928E-02 0. -1.
       -1   -1    0    0    0  501  0.00000000000E+00  0.00000000000E+00 -0.12889363406E+04  0.12889363406E+04  0.50400001928E-02 0.  1.
    10030    2    1    2    0    0  0.00000000000E+00  0.00000000000E+00  0.23273152681E+03  0.28106042080E+04  0.28009519900E+04 0.  0.
        2    1    3    3  502    0 -0.75355158404E+03 -0.17459064660E+03  0.12878696351E+04  0.15023082509E+04  0.25500000920E-02 0. -1.
       -2    1    3    3    0  502  0.75355158404E+03  0.17459064660E+03 -0.10551381083E+04  0.13082959571E+04  0.25500000920E-02 0.  1.
</event>
<event>
 5   0  0.1439207E-06  0.2802073E+04  0.7818609E-02  0.8302625E-01
        2   -1    0    0  501    0  0.00000000000E+00  0.00000000000E+00  0.16774938854E+04  0.16774938854E+04  0.25500000920E-02 0.  1.
       -2   -1    0    0    0  501  0.00000000000E+00  0.00000000000E+00 -0.11701402006E+04  0.11701402006E+04  0.25500000920E-02 0. -1.
    10030    2    1    2    0    0  0.00000000000E+00  0.00000000000E+00  0.50735368476E+03  0.28476340860E+04  0.28020728267E+04 0.  0.
        5    1    3    3  502    0 -0.21967997525E+03 -0.61964318453E+03  0.15109935729E+04  0.16478290673E+04  0.46999998093E+01 0.  1.
       -5    1    3    3    0  502  0.21967997525E+03  0.61964318453E+03 -0.10036398882E+04  0.11998050187E+04  0.46999998093E+01 0. -1.
</event>
<event>
 5   0  0.1499888E-06  0.2804153E+04  0.7818609E-02  0.8301980E-01
       -2   -1    0    0    0  501  0.00000000000E+00  0.00000000000E+00  0.70855745971E+03  0.70855745971E+03  0.25500000920E-02 0. -1.
        2   -1    0    0  501    0  0.00000000000E+00  0.00000000000E+00 -0.27743960555E+04  0.27743960555E+04  0.25500000920E-02 0.  1.
    10030    2    1    2    0    0  0.00000000000E+00  0.00000000000E+00 -0.20658385958E+04  0.34829535152E+04  0.28041533634E+04 0.  0.
        3    1    3    3  502    0 -0.80254479027E+03  0.75147124526E+03 -0.21136139156E+04  0.23824674116E+04  0.10100000352E+00 0.  1.
       -3    1    3    3    0  502  0.80254479027E+03 -0.75147124526E+03  0.47775319835E+02  0.11004861036E+04  0.10100000352E+00 0. -1.
</event>
<event>
 5   0  0.5362952E-07  0.2809087E+04  0.7818609E-02  0.8300453E-01
       -1   -1    0    0    0  501  0.00000000000E+00  0.00000000000E+00  0.12683336895E+04  0.12683336895E+04  0.50400001928E-02 0.  1.
        1   -1    0    0  501    0  0.00000000000E+00  0.00000000000E+00 -0.15553811335E+04  0.15553811335E+04  0.50400001928E-02 0. -1.
    10030    2    1    2    0    0  0.00000000000E+00  0.00000000000E+00 -0.28704744400E+03  0.28237148231E+04  0.28090868920E+04 0.  0.
        1    1    3    3  502    0 -0.13845008153E+04  0.17235273829E+03  0.19165658888E+02  0.13953190662E+04  0.50400001928E-02 0. -1.
       -1    1    3    3    0  502  0.13845008153E+04 -0.17235273829E+03 -0.30621310289E+03  0.14283957569E+04  0.50400001928E-02 0.  1.
</event>
<event>
 5   0  0.1394410E-06  0.2801317E+04  0.7818609E-02  0.8302860E-01
       -2   -1    0    0    0  501  0.00000000000E+00  0.00000000000E+00  0.13009941094E+04  0.13009941094E+04  0.25500000920E-02 0.  1.
        2   -1    0    0  501    0  0.00000000000E+00  0.00000000000E+00 -0.15079578239E+04  0.15079578239E+04  0.25500000920E-02 0. -1.
    10030    2    1    2    0    0  0.00000000000E+00  0.00000000000E+00 -0.20696371455E+03  0.28089519333E+04  0.28013170089E+04 0.  0.
        4    1    3    3  502    0 -0.60121138371E+03 -0.15901467714E+03  0.11549693118E+04  0.13117532235E+04  0.12699999809E+01 0.  1.
       -4    1    3    3    0  502  0.60121138371E+03  0.15901467714E+03 -0.13619330263E+04  0.14971987098E+04  0.12699999809E+01 0. -1.
</event>
<event>
 5   0  0.1461146E-06  0.2803439E+04  0.7818609E-02  0.8302201E-01
       -2   -1    0    0    0  501  0.00000000000E+00  0.00000000000E+00  0.10166035304E+04  0.10166035304E+04  0.25500000920E-02 0.  1.
        2   -1    0    0  501    0  0.00000000000E+00  0.00000000000E+00 -0.19327279307E+04  0.19327279307E+04  0.25500000920E-02 0. -1.
    10030    2    1    2    0    0  0.00000000000E+00  0.00000000000E+00 -0.91612440035E+03  0.29493314611E+04  0.28034393431E+04 0.  0.
        1    1    3    3  502    0 -0.35185328574E+03  0.10086883940E+04 -0.14127939547E+04  0.17712254993E+04  0.50400001928E-02 0. -1.
       -1    1    3    3    0  502  0.35185328574E+03 -0.10086883940E+04  0.49666955432E+03  0.11781059618E+04  0.50400001928E-02 0.  1.
</event>
<event>
 5   0  0.1499888E-06  0.2803056E+04  0.7818609E-02  0.8302320E-01
       -2   -1    0    0    0  501  0.00000000000E+00  0.00000000000E+00  0.13325031195E+04  0.13325031195E+04  0.25500000920E-02 0. -1.
        2   -1    0    0  501    0  0.00000000000E+00  0.00000000000E+00 -0.14741282835E+04  0.14741282835E+04  0.25500000920E-02 0.  1.
    10030    2    1    2    0    0  0.00000000000E+00  0.00000000000E+00 -0.14162516407E+03  0.28066314030E+04  0.28030558584E+04 0.  0.
        3    1    3    3  502    0  0.79303373867E+03  0.95737414397E+03  0.57717037335E+03  0.13706178943E+04  0.10100000352E+00 0. -1.
       -3    1    3    3    0  502 -0.79303373867E+03 -0.95737414397E+03 -0.71879553742E+03  0.14360135087E+04  0.10100000352E+00 0.  1.
</event>
<event>
 5   0  0.5297741E-07  0.2802448E+04  0.7818609E-02  0.8302509E-01
        1   -1    0    0  501    0  0.00000000000E+00  0.00000000000E+00  0.12286685451E+04  0.12286685451E+04  0.50400001928E-02 0. -1.
       -1   -1    0    0    0  501  0.00000000000E+00  0.00000000000E+00 -0.15980133558E+04  0.15980133558E+04  0.50400001928E-02 0.  1.
    10030    2    1    2    0    0  0.00000000000E+00  0.00000000000E+00 -0.36934481075E+03  0.28266819009E+04  0.28024480334E+04 0.  0.
        5    1    3    3  502    0  0.13011272479E+04  0.39174401443E+03 -0.52969936004E+03  0.14584234605E+04  0.46999998093E+01 0. -1.
       -5    1    3    3    0  502 -0.13011272479E+04 -0.39174401443E+03  0.16035454929E+03  0.13682584404E+04  0.46999998093E+01 0.  1.
</event>
<event>
 5   0  0.5214658E-07  0.2792127E+04  0.7818609E-02  0.8305717E-01
       -1   -1    0    0    0  501  0.00000000000E+00  0.00000000000E+00  0.80734251217E+03  0.80734251219E+03  0.50400001928E-02 0.  1.
        1   -1    0    0  501    0  0.00000000000E+00  0.00000000000E+00 -0.24140846729E+04  0.24140846729E+04  0.50400001928E-02 0. -1.
    10030    2    1    2    0    0  0.00000000000E+00  0.00000000000E+00 -0.16067421608E+04  0.32214271851E+04  0.27921269201E+04 0.  0.
        2    1    3    3  502    0  0.74105806764E+02 -0.68918579173E+03  0.59477888248E+03  0.91336227487E+03  0.25500000920E-02 0.  1.
       -2    1    3    3    0  502 -0.74105806764E+02  0.68918579173E+03 -0.22015210432E+04  0.23080649103E+04  0.25500000920E-02 0. -1.
</event>
<event>
 5   0  0.5551565E-07  0.2804459E+04  0.7818609E-02  0.8301885E-01
       -1   -1    0    0    0  501  0.00000000000E+00  0.00000000000E+00  0.15320769225E+04  0.15320769225E+04  0.50400001928E-02 0.  1.
        1   -1    0    0  501    0  0.00000000000E+00  0.00000000000E+00 -0.12833869352E+04  0.12833869353E+04  0.50400001928E-02 0. -1.
    10030    2    1    2    0    0  0.00000000000E+00  0.00000000000E+00  0.24868998727E+03  0.28154638578E+04  0.28044589540E+04 0.  0.
        3    1    3    3  502    0 -0.15380760844E+02 -0.13604274619E+04  0.46515917691E+03  0.14378360535E+04  0.10100000352E+00 0.  1.
       -3    1    3    3    0  502  0.15380760844E+02  0.13604274619E+04 -0.21646918963E+03  0.13776278043E+04  0.10100000352E+00 0. -1.
</event>
<event>
 5   0  0.1377807E-06  0.2800438E+04  0.7818609E-02  0.8303133E-01
        2   -1    0    0  501    0  0.00000000000E+00  0.00000000000E+00  0.15903955160E+04  0.15903955160E+04  0.25500000920E-02 0.  1.
       -2   -1    0    0    0  501  0.00000000000E+00  0.00000000000E+00 -0.12327830099E+04  0.12327830099E+04  0.25500000920E-02 0. -1.
    10030    2    1    2    0    0  0.00000000000E+00  0.00000000000E+00  0.35761250610E+03  0.28231785259E+04  0.28004375167E+04 0.  0.
        2    1    3    3  502    0 -0.11947989717E+04 -0.52617100526E+03  0.68909059273E+03  0.14762270674E+04  0.25500000920E-02 0.  1.
       -2    1    3    3    0  502  0.11947989717E+04  0.52617100526E+03 -0.33147808663E+03  0.13469514585E+04  0.25500000920E-02 0. -1.
</event>
<event>
 5   0  0.1394410E-06  0.2800156E+04  0.7818609E-02  0.8303220E-01
        2   -1    0    0  501    0  0.00000000000E+00  0.00000000000E+00  0.11798329182E+04  0.11798329182E+04  0.25500000920E-02 0. -1.
       -2   -1    0    0    0  501  0.00000000000E+00  0.00000000000E+00 -0.16614367156E+04  0.16614367156E+04  0.25500000920E-02 0.  1.
    10030    2    1    2    0    0  0.00000000000E+00  0.00000000000E+00 -0.48160379737E+03  0.28412696339E+04  0.28001555162E+04 0.  0.
        4    1    3    3  502    0  0.21529017999E+03  0.37011676919E+03 -0.15933705788E+04  0.16498992995E+04  0.12699999809E+01 0.  1.
       -4    1    3    3    0  502 -0.21529017999E+03 -0.37011676919E+03  0.11117667814E+04  0.11913703343E+04  0.12699999809E+01 0. -1.
</event>
<event>
 5   0  0.5214658E-07  0.2804760E+04  0.7818609E-02  0.8301792E-01
        1   -1    0    0  501    0  0.00000000000E+00  0.00000000000E+00  0.23969814868E+04  0.23969814869E+04  0.50400001928E-02 0. -1.
       -1   -1    0    0    0  501  0.00000000000E+00  0.00000000000E+00 -0.82047741171E+03  0.82047741172E+03  0.50400001928E-02 0.  1.
    10030    2    1    2    0    0  0.00000000000E+00  0.00000000000E+00  0.15765040751E+04  0.32174588986E+04  0.28047596448E+04 0.  0.
        2    1    3    3  502    0  0.68605227938E+03 -0.23061362370E+03 -0.58966557964E+03  0.93357156625E+03  0.25500000920E-02 0.  1.
       -2    1    3    3    0  502 -0.68605227938E+03  0.23061362370E+03  0.21661696548E+04  0.22838873323E+04  0.25500000920E-02 0. -1.
</event>
<event>
 5   0  0.5297741E-07  0.2778909E+04  0.7818609E-02  0.8309846E-01
       -1   -1    0    0    0  501  0.00000000000E+00  0.00000000000E+00  0.87054244219E+03  0.87054244221E+03  0.50400001928E-02 0. -1.
        1   -1    0    0  501    0  0.00000000000E+00  0.00000000000E+00 -0.22176789283E+04  0.22176789283E+04  0.50400001928E-02 0.  1.
    10030    2    1    2    0    0  0.00000000000E+00  0.00000000000E+00 -0.13471364861E+04  0.30882213705E+04  0.27789088724E+04 0.  0.
        5    1    3    3  502    0  0.10184191008E+04  0.40183486359E+03  0.27717619855E+03  0.11293792355E+04  0.46999998093E+01 0. -1.
       -5    1    3    3    0  502 -0.10184191008E+04 -0.40183486359E+03 -0.16243126846E+04  0.19588421350E+04  0.46999998093E+01 0.  1.
</event>
<event>
 5   0  0.5214658E-07  0.2804657E+04  0.7818609E-02  0.8301824E-01
        1   -1    0    0  501    0  0.00000000000E+00  0.00000000000E+00  0.99454716572E+03  0.99454716573E+03  0.50400001928E-02 0.  1.
       -1   -1    0    0    0  501  0.00000000000E+00  0.00000000000E+00 -0.19773065560E+04  0.19773065560E+04  0.50400001928E-02 0. -1.
    10030    2    1    2    0    0  0.00000000000E+00  0.00000000000E+00 -0.98275939025E+03  0.29718537217E+04  0.28046565786E+04 0.  0.
        2    1    3    3  502    0  0.59393654571E+03  0.10670504889E+04 -0.12217969012E+04  0.17274678098E+04  0.25500000920E-02 0. -1.
       -2    1    3    3    0  502 -0.59393654571E+03 -0.10670504889E+04  0.23903751095E+03  0.12443859119E+04  0.25500000920E-02 0.  1.
</event>
<event>
 5   0  0.1377807E-06  0.2797927E+04  0.7818609E-02  0.8303912E-01
       -2   -1    0    0    0  501  0.00000000000E+00  0.00000000000E+00  0.11587714136E+04  0.11587714136E+04  0.25500000920E-02 0.  1.
        2   -1    0    0  501    0  0.00000000000E+00  0.00000000000E+00 -0.16889426590E+04  0.16889426590E+04  0.25500000920E-02 0. -1.
    10030    2    1    2    0    0  0.00000000000E+00  0.00000000000E+00 -0.53017124538E+03  0.28477140727E+04  0.27979267128E+04 0.  0.
        2    1    3    3  502    0  0.21014760806E+03 -0.61272357956E+03 -0.15271121816E+04  0.16588139791E+04  0.25500000920E-02 0. -1.
       -2    1    3    3    0  502 -0.21014760806E+03  0.61272357956E+03  0.99694093623E+03  0.11889000936E+04  0.25500000920E-02 0.  1.
</event>
<event>
 5   0  0.1499888E-06  0.2800888E+04  0.7818609E-02  0.8302993E-01
       -2   -1    0    0    0  501  0.00000000000E+00  0.00000000000E+00  0.95403647064E+03  0.95403647064E+03  0.25500000920E-02 0. -1.
        2   -1    0    0  501    0  0.00000000000E+00  0.00000000000E+00 -0.20557315291E+04  0.20557315291E+04  0.25500000920E-02 0.  1.
    10030    2    1    2    0    0  0.00000000000E+00  0.00000000000E+00 -0.11016950585E+04  0.30097679998E+04  0.28008876112E+04 0.  0.
        3    1    3    3  502    0 -0.97425552598E+02 -0.84196864889E+03  0.64711968135E+03  0.10663802493E+04  0.10100000352E+00 0. -1.
       -3    1    3    3    0  502  0.97425552598E+02  0.84196864889E+03 -0.17488147398E+04  0.19433877504E+04  0.10100000352E+00 0.  1.
</event>
<event>
 5   0  0.1377807E-06  0.2802150E+04  0.7818609E-02  0.8302601E-01
        2   -1    0    0  501    0  0.00000000000E+00  0.00000000000E+00  0.12051267578E+04  0.12051267578E+04  0.25500000920E-02 0.  1.
       -2   -1    0    0    0  501  0.00000000000E+00  0.00000000000E+00 -0.16288839056E+04  0.16288839056E+04  0.25500000920E-02 0. -1.
    10030    2    1    2    0    0  0.00000000000E+00  0.00000000000E+00 -0.42375714779E+03  0.28340106634E+04  0.28021503029E+04 0.  0.
        2    1    3    3  502    0 -0.26690074398E+03 -0.80277541544E+03  0.91765787832E+03  0.12481107148E+04  0.25500000920E-02 0.  1.
       -2    1    3    3    0  502  0.26690074398E+03  0.80277541544E+03 -0.13414150261E+04  0.15858999486E+04  0.25500000920E-02 0. -1.
</event>
<event>
 5   0  0.5551565E-07  0.2802646E+04  0.7818609E-02  0.8302447E-01
       -1   -1    0    0    0  501  0.00000000000E+00  0.00000000000E+00  0.85213268806E+03  0.85213268808E+03  0.50400001928E-02 0. -1.
        1   -1    0    0  501    0  0.00000000000E+00  0.00000000000E+00 -0.23044605303E+04  0.23044605303E+04  0.50400001928E-02 0.  1.
    10030    2    1    2    0    0  0.00000000000E+00  0.00000000000E+00 -0.14523278423E+04  0.31565932184E+04  0.28026459971E+04 0.  0.
        3    1    3    3  502    0 -0.89346702663E+03 -0.55962393394E+03 -0.17659220264E+04  0.20566824958E+04  0.10100000352E+00 0.  1.
       -3    1    3    3    0  502  0.89346702663E+03  0.55962393394E+03  0.31359418415E+03  0.10999107226E+04  0.10100000352E+00 0. -1.
</event>
<event>
 5   0  0.5297741E-07  0.2806167E+04  0.7818609E-02  0.8301356E-01
        1   -1    0    0  501    0  0.00000000000E+00  0.00000000000E+00  0.18194250476E+04  0.18194250476E+04  0.50400001928E-02 0. -1.
       -1   -1    0    0    0  501  0.00000000000E+00  0.00000000000E+00 -0.10820140669E+04  0.10820140669E+04  0.50400001928E-02 0.  1.
    10030    2    1    2    0    0  0.00000000000E+00  0.00000000000E+00  0.73741098067E+03  0.29014391144E+04  0.28061671334E+04 0.  0.
        5    1    3    3  502    0  0.15443471850E+03  0.60086652127E+03  0.16698951455E+04  0.17814214957E+04  0.46999998093E+01 0. -1.
       -5    1    3    3    0  502 -0.15443471850E+03 -0.60086652127E+03 -0.93248416478E+03  0.11200176187E+04  0.46999998093E+01 0.  1.
</event>
<event>
 5   0  0.1439207E-06  0.2792387E+04  0.7818609E-02  0.8305636E-01
        2   -1    0    0  501    0  0.00000000000E+00  0.00000000000E+00  0.31635895332E+04  0.31635895332E+04  0.25500000920E-02 0.  1.
       -2   -1    0    0    0  501  0.00000000000E+00  0.00000000000E+00 -0.61618498631E+03  0.61618498632E+03  0.25500000920E-02 0. -1.
    10030    2    1    2    0    0  0.00000000000E+00  0.00000000000E+00  0.25474045469E+04  0.37797745196E+04  0.27923870600E+04 0.  0.
        5    1    3    3  502    0  0.91006933322E+03 -0.50203412789E+03  0.25355809803E+04  0.27403389306E+04  0.46999998093E+01 0.  1.
       -5    1    3    3    0  502 -0.91006933322E+03  0.50203412789E+03  0.11823566599E+02  0.10394355889E+04  0.46999998093E+01 0. -1.
</event>
<event>
 5   0  0.5297741E-07  0.2803518E+04  0.7818609E-02  0.8302177E-01
        1   -1    0    0  501    0  0.00000000000E+00  0.00000000000E+00  0.17391899768E+04  0.17391899768E+04  0.50400001928E-02 0.  1.
       -1   -1    0    0    0  501  0.00000000000E+00  0.00000000000E+00 -0.11297952404E+04  0.11297952404E+04  0.50400001928E-02 0. -1.
    10030    2    1    2    0    0  0.00000000000E+00  0.00000000000E+00  0.60939473642E+03  0.28689852172E+04  0.28035181882E+04 0.  0.
        5    1    3    3  502    0 -0.13605384299E+04  0.22426937863E+03  0.56266502798E+03  0.14892869425E+04  0.46999998093E+01 0.  1.
       -5    1    3    3    0  502  0.13605384299E+04 -0.22426937863E+03  0.46729708432E+02  0.13796982746E+04  0.46999998093E+01 0. -1.
</event>
<event>
 5   0  0.5214658E-07  0.2800788E+04  0.7818609E-02  0.8303024E-01
       -1   -1    0    0    0  501  0.00000000000E+00  0.00000000000E+00  0.14636465759E+04  0.14636465759E+04  0.50400001928E-02 0. -1.
        1   -1    0    0  501    0  0.00000000000E+00  0.00000000000E+00 -0.13398746003E+04  0.13398746003E+04  0.50400001928E-02 0.  1.
    10030    2    1    2    0    0  0.00000000000E+00  0.00000000000E+00  0.12377197564E+03  0.28035211762E+04  0.28007876542E+04 0.  0.
        2    1    3    3  502    0  0.17217492889E+02  0.12601764294E+04  0.67302408122E+03  0.14287415754E+04  0.25500000920E-02 0. -1.
       -2    1    3    3    0  502 -0.17217492889E+02 -0.12601764294E+04 -0.54925210558E+03  0.13747796008E+04  0.25500000920E-02 0.  1.
</event>
<event>
 5   0  0.1439207E-06  0.2794047E+04  0.7818609E-02  0.8305119E-01
        2   -1    0    0  501    0  0.00000000000E+00  0.00000000000E+00  0.21388959105E+04  0.21388959105E+04  0.25500000920E-02 0.  1.
       -2   -1    0    0    0  501  0.00000000000E+00  0.00000000000E+00 -0.91246803123E+03  0.91246803123E+03  0.25500000920E-02 0. -1.
    10030    2    1    2    0    0  0.00000000000E+00  0.00000000000E+00  0.12264278793E+04  0.30513639417E+04  0.27940466284E+04 0.  0.
        5    1    3    3  502    0 -0.51933301163E+03 -0.39134429186E+03  0.19635285774E+04  0.20684109108E+04  0.46999998093E+01 0.  1.
       -5    1    3    3    0  502  0.51933301163E+03  0.39134429186E+03 -0.73710069815E+03  0.98295303089E+03  0.46999998093E+01 0. -1.
</event>
<event>
 5   0  0.5362952E-07  0.2802051E+04  0.7818609E-02  0.8302632E-01
        1   -1    0    0  501    0  0.00000000000E+00  0.00000000000E+00  0.19872440520E+04  0.19872440520E+04  0.50400001928E-02 0. -1.
       -1   -1    0    0    0  501  0.00000000000E+00  0.00000000000E+00 -0.98773607917E+03  0.98773607919E+03  0.50400001928E-02 0.  1.
    10030    2    1    2    0    0  0.00000000000E+00  0.00000000000E+00  0.99950797279E+03  0.29749801312E+04  0.28020511403E+04 0.  0.
        1    1    3    3  502    0 -0.10626033603E+04  0.31967558425E+02 -0.46910097468E+03  0.11619825948E+04  0.50400001928E-02 0.  1.
       -1    1    3    3    0  502  0.10626033603E+04 -0.31967558425E+02  0.14686089475E+04  0.18129975363E+04  0.50400001928E-02 0. -1.
</event>
<event>
 5   0  0.1499888E-06  0.2797960E+04  0.7818609E-02  0.8303902E-01
       -2   -1    0    0    0  501  0.00000000000E+00  0.00000000000E+00  0.11149123211E+04  0.11149123211E+04  0.25500000920E-02 0.  1.
        2   -1    0    0  501    0  0.00000000000E+00  0.00000000000E+00 -0.17554251674E+04  0.17554251674E+04  0.25500000920E-02 0. -1.
    10030    2    1    2    0    0  0.00000000000E+00  0.00000000000E+00 -0.64051284630E+03  0.28703374886E+04  0.27979600769E+04 0.  0.
        3    1    3    3  502    0  0.49638509522E+03  0.11543752504E+04 -0.95111494726E+03  0.15759441724E+04  0.10100000352E+00 0. -1.
       -3    1    3    3    0  502 -0.49638509522E+03 -0.11543752504E+04  0.31060210096E+03  0.12943933161E+04  0.10100000352E+00 0.  1.
</event>
<event>
 5   0  0.1461146E-06  0.2799530E+04  0.7818609E-02  0.8303414E-01
        2   -1    0    0  501    0  0.00000000000E+00  0.00000000000E+00  0.13240989042E+04  0.13240989042E+04  0.25500000920E-02 0.  1.
       -2   -1    0    0    0  501  0.00000000000E+00  0.00000000000E+00 -0.14797545993E+04  0.14797545993E+04  0.25500000920E-02 0. -1.
    10030    2    1    2    0    0  0.00000000000E+00  0.00000000000E+00 -0.15565569509E+03  0.28038535035E+04  0.27995295629E+04 0.  0.
        1    1    3    3  502    0  0.30695761529E+03 -0.12295115987E+04 -0.67323717550E+03  0.14349808513E+04  0.50400001928E-02 0. -1.
       -1    1    3    3    0  502 -0.30695761529E+03  0.12295115987E+04  0.51758148041E+03  0.13688726522E+04  0.50400001928E-02 0.  1.
</event>
<event>
 5   0  0.1499888E-06  0.2800652E+04  0.7818609E-02  0.8303066E-01
        2   -1    0    0  501    0  0.00000000000E+00  0.00000000000E+00  0.17799364008E+04  0.17799364008E+04  0.25500000920E-02 0.  1.
       -2   -1    0    0    0  501  0.00000000000E+00  0.00000000000E+00 -0.11016757240E+04  0.11016757240E+04  0.25500000920E-02 0. -1.
    10030    2    1    2    0    0  0.00000000000E+00  0.00000000000E+00  0.67826067680E+03  0.28816121247E+04  0.28006518691E+04 0.  0.
        3    1    3    3  502    0  0.13034106381E+04 -0.27863604912E+03 -0.10269579997E+03  0.13368110475E+04  0.10100000352E+00 0. -1.
       -3    1    3    3    0  502 -0.13034106381E+04  0.27863604912E+03  0.78095647677E+03  0.15448010772E+04  0.10100000352E+00 0.  1.
</event>
<event>
 5   0  0.5214658E-07  0.2802287E+04  0.7818609E-02  0.8302559E-01
       -1   -1    0    0    0  501  0.00000000000E+00  0.00000000000E+00  0.11990577141E+04  0.11990577141E+04  0.50400001928E-02 0. -1.
        1   -1    0    0  501    0  0.00000000000E+00  0.00000000000E+00 -0.16372888272E+04  0.16372888273E+04  0.50400001928E-02 0.  1.
    10030    2    1    2    0    0  0.00000000000E+00  0.00000000000E+00 -0.43823111316E+03  0.28363465413E+04  0.28022874931E+04 0.  0.
        2    1    3    3  502    0  0.49351667152E+03  0.86226361018E+03 -0.12191250361E+04  0.15726802257E+04  0.25500000920E-02 0.  1.
       -2    1    3    3    0  502 -0.49351667152E+03 -0.86226361018E+03  0.78089392295E+03  0.12636663157E+04  0.25500000920E-02 0. -1.
</event>
<event>
 5   0  0.1394410E-06  0.2798418E+04  0.7818609E-02  0.8303760E-01
        2   -1    0    0  501    0  0.00000000000E+00  0.00000000000E+00  0.17864523141E+04  0.17864523141E+04  0.25500000920E-02 0.  1.
       -2   -1    0    0    0  501  0.00000000000E+00  0.00000000000E+00 -0.10959070545E+04  0.10959070545E+04  0.25500000920E-02 0. -1.
    10030    2    1    2    0    0  0.00000000000E+00  0.00000000000E+00  0.69054525964E+03  0.28823593686E+04  0.27984179056E+04 0.  0.
        4    1    3    3  502    0 -0.13652126255E+04  0.10367755013E+03  0.64242163862E+03  0.15123695719E+04  0.12699999809E+01 0.  1.
       -4    1    3    3    0  502  0.13652126255E+04 -0.10367755013E+03  0.48123621020E+02  0.13699897967E+04  0.12699999809E+01 0. -1.
</event>
<event>
 5   0  0.5297741E-07  0.2796001E+04  0.7818609E-02  0.8304511E-01
       -1   -1    0    0    0  501  0.00000000000E+00  0.00000000000E+00  0.17742841866E+04  0.17742841866E+04  0.50400001928E-02 0.  1.
        1   -1    0    0  501    0  0.00000000000E+00  0.00000000000E+00 -0.11015174598E+04  0.11015174598E+04  0.50400001928E-02 0. -1.
    10030    2    1    2    0    0  0.00000000000E+00  0.00000000000E+00  0.67276672676E+03  0.28758016464E+04  0.27960007226E+04 0.  0.
        5    1    3    3  502    0 -0.16256312886E+03 -0.60374605147E+03  0.16224492254E+04  0.17387638266E+04  0.46999998093E+01 0.  1.
       -5    1    3    3    0  502  0.16256312886E+03  0.60374605147E+03 -0.94968249866E+03  0.11370378199E+04  0.46999998093E+01 0. -1.
</event>
<event>
 5   0  0.5214658E-07  0.2795061E+04  0.7818609E-02  0.8304803E-01
       -1   -1    0    0    0  501  0.00000000000E+00  0.00000000000E+00  0.12149929250E+04  0.12149929250E+04  0.50400001928E-02 0. -1.
        1   -1    0    0  501    0  0.00000000000E+00  0.00000000000E+00 -0.16074920239E+04  0.16074920239E+04  0.50400001928E-02 0.  1.
    10030    2    1    2    0    0  0.00000000000E+00  0.00000000000E+00 -0.39249909892E+03  0.28224849489E+04  0.27950609553E+04 0.  0.
        2    1    3    3  502    0  0.16787712977E+03  0.14343498124E+02 -0.15971981746E+04  0.16060605454E+04  0.25500000920E-02 0.  1.
       -2    1    3    3    0  502 -0.16787712977E+03 -0.14343498124E+02  0.12046990756E+04  0.12164244035E+04  0.25500000920E-02 0. -1.
</event>
<event>
 5   0  0.5214658E-07  0.2814917E+04  0.7818609E-02  0.8298652E-01
       -1   -1    0    0    0  501  0.00000000000E+00  0.00000000000E+00  0.26386414363E+04  0.26386414363E+04  0.50400001928E-02 0. -1.
        1   -1    0    0  501    0  0.00000000000E+00  0.00000000000E+00 -0.75074234808E+03  0.75074234810E+03  0.50400001928E-02 0.  1.
    10030    2    1    2    0    0  0.00000000000E+00  0.00000000000E+00  0.18878990882E+04  0.33893837844E+04  0.28149173115E+04 0.  0.
        2    1    3    3  502    0 -0.54539382759E+03 -0.11939501186E+04  0.15555087255E+04  0.20353325792E+04  0.25500000920E-02 0. -1.
       -2    1    3    3    0  502  0.54539382759E+03  0.11939501186E+04  0.33239036271E+03  0.13540512052E+04  0.25500000920E-02 0.  1.
</event>
<event>
 5   0  0.5551565E-07  0.2801659E+04  0.7818609E-02  0.8302753E-01
       -1   -1    0    0    0  501  0.00000000000E+00  0.00000000000E+00  0.10420756282E+04  0.10420756282E+04  0.50400001928E-02 0.  1.
        1   -1    0    0  501    0  0.00000000000E+00  0.00000000000E+00 -0.18830910925E+04  0.18830910925E+04  0.50400001928E-02 0. -1.
    10030    2    1    2    0    0  0.00000000000E+00  0.00000000000E+00 -0.84101546426E+03  0.29251667207E+04  0.28016590322E+04 0.  0.
        3    1    3    3  502    0  0.31017140482E+03  0.61241953656E+03  0.85441189515E+03  0.10960308782E+04  0.10100000352E+00 0.  1.
       -3    1    3    3    0  502 -0.31017140482E+03 -0.61241953656E+03 -0.16954273594E+04  0.18291358425E+04  0.10100000352E+00 0. -1.
</event>
<event>
 5   0  0.5297741E-07  0.2798855E+04  0.7818609E-02  0.8303624E-01
        1   -1    0    0  501    0  0.00000000000E+00  0.00000000000E+00  0.14843977776E+04  0.14843977776E+04  0.50400001928E-02 0.  1.
       -1   -1    0    0    0  501  0.00000000000E+00  0.00000000000E+00 -0.13193213116E+04  0.13193213116E+04  0.50400001928E-02 0. -1.
    10030    2    1    2    0    0  0.00000000000E+00  0.00000000000E+00  0.16507646598E+03  0.28037190892E+04  0.27988552109E+04 0.  0.
        5    1    3    3  502    0  0.12430984124E+04 -0.40037777125E+02 -0.56004268257E+03  0.13640258732E+04  0.46999998093E+01 0.  1.
       -5    1    3    3    0  502 -0.12430984124E+04  0.40037777125E+02  0.72511914855E+03  0.14396932160E+04  0.46999998093E+01 0. -1.
</event>
<event>
 5   0  0.1439207E-06  0.2811321E+04  0.7818609E-02  0.8299762E-01
       -2   -1    0    0    0  501  0.00000000000E+00  0.00000000000E+00  0.11571953410E+04  0.11571953410E+04  0.25500000920E-02 0. -1.
        2   -1    0    0  501    0  0.00000000000E+00  0.00000000000E+00 -0.17074740563E+04  0.17074740563E+04  0.25500000920E-02 0.  1.
    10030    2    1    2    0    0  0.00000000000E+00  0.00000000000E+00 -0.55027871524E+03  0.28646693973E+04  0.28113207024E+04 0.  0.
        5    1    3    3  502    0  0.66879510202E+03  0.54855069740E+03 -0.14041652699E+04  0.16492110087E+04  0.46999998093E+01 0.  1.
       -5    1    3    3    0  502 -0.66879510202E+03 -0.54855069740E+03  0.85388655468E+03  0.12154583886E+04  0.46999998093E+01 0. -1.
</event>
<event>
 5   0  0.5362952E-07  0.2806624E+04  0.7818609E-02  0.8301215E-01
       -1   -1    0    0    0  501  0.00000000000E+00  0.00000000000E+00  0.99793018122E+03  0.99793018124E+03  0.50400001928E-02 0. -1.
        1   -1    0    0  501    0  0.00000000000E+00  0.00000000000E+00 -0.19733689563E+04  0.19733689563E+04  0.50400001928E-02 0.  1.
    10030    2    1    2    0    0  0.00000000000E+00  0.00000000000E+00 -0.97543877508E+03  0.29712991375E+04  0.28066239080E+04 0.  0.
        1    1    3    3  502    0 -0.96262063972E+03 -0.93806895948E+03 -0.91471097866E+03  0.16258253422E+04  0.50400001928E-02 0.  1.
       -1    1    3    3    0  502  0.96262063972E+03  0.93806895948E+03 -0.60727796420E+02  0.13454737954E+04  0.50400001928E-02 0. -1.
</event>
<event>
 5   0  0.5297741E-07  0.2805712E+04  0.7818609E-02  0.8301497E-01
       -1   -1    0    0    0  501  0.00000000000E+00  0.00000000000E+00  0.15752759105E+04  0.15752759106E+04  0.50400001928E-02 0.  1.
        1   -1    0    0  501    0  0.00000000000E+00  0.00000000000E+00 -0.12493076785E+04  0.12493076785E+04  0.50400001928E-02 0. -1.
    10030    2    1    2    0    0  0.00000000000E+00  0.00000000000E+00  0.32596823204E+03  0.28245835891E+04  0.28057115253E+04 0.  0.
        5    1    3    3  502    0 -0.11960018394E+04 -0.64548829994E+03  0.51303930473E+03  0.14526895620E+04  0.46999998093E+01 0.  1.
       -5    1    3    3    0  502  0.11960018394E+04  0.64548829994E+03 -0.18707107269E+03  0.13718940271E+04  0.46999998093E+01 0. -1.
</event>
<event>
 5   0  0.5282098E-07  0.2803994E+04  0.7818609E-02  0.8302029E-01
        1   -1    0    0  501    0  0.00000000000E+00  0.00000000000E+00  0.26375563931E+04  0.26375563931E+04  0.50400001928E-02 0.  1.
       -1   -1    0    0    0  501  0.00000000000E+00  0.00000000000E+00 -0.74523371718E+03  0.74523371720E+03  0.50400001928E-02 0. -1.
    10030    2    1    2    0    0  0.00000000000E+00  0.00000000000E+00  0.18923226759E+04  0.33827901103E+04  0.28039942618E+04 0.  0.
        4    1    3    3  502    0  0.23866756844E+03 -0.13354776628E+04  0.51940366618E+03  0.14526680892E+04  0.12699999809E+01 0. -1.
       -4    1    3    3    0  502 -0.23866756844E+03  0.13354776628E+04  0.13729190097E+04  0.19301220211E+04  0.12699999809E+01 0.  1.
</event>
<event>
 5   0  0.5214658E-07  0.2801348E+04  0.7818609E-02  0.8302850E-01
        1   -1    0    0  501    0  0.00000000000E+00  0.00000000000E+00  0.12376644119E+04  0.12376644119E+04  0.50400001928E-02 0.  1.
       -1   -1    0    0    0  501  0.00000000000E+00  0.00000000000E+00 -0.15851530490E+04  0.15851530490E+04  0.50400001928E-02 0. -1.
    10030    2    1    2    0    0  0.00000000000E+00  0.00000000000E+00 -0.34748863711E+03  0.28228174609E+04  0.28013479013E+04 0.  0.
        2    1    3    3  502    0 -0.28972586239E+03  0.57283520840E+03  0.10807088526E+04  0.12569856305E+04  0.25500000920E-02 0.  1.
       -2    1    3    3    0  502  0.28972586239E+03 -0.57283520840E+03 -0.14281974897E+04  0.15658318303E+04  0.25500000920E-02 0. -1.
</event>
<event>
 5   0  0.1377807E-06  0.2807833E+04  0.7818609E-02  0.8300841E-01
        2   -1    0    0  501    0  0.00000000000E+00  0.00000000000E+00  0.26820299111E+04  0.26820299111E+04  0.25500000920E-02 0.  1.
       -2   -1    0    0    0  501  0.00000000000E+00  0.00000000000E+00 -0.73488438843E+03  0.73488438843E+03  0.25500000920E-02 0. -1.
    10030    2    1    2    0    0  0.00000000000E+00  0.00000000000E+00  0.19471455227E+04  0.34169142995E+04  0.28078332650E+04 0.  0.
        2    1    3    3  502    0  0.38834626930E+03 -0.61575768395E+03 -0.48724655841E+03  0.87600203134E+03  0.25500000920E-02 0. -1.
       -2    1    3    3    0  502 -0.38834626930E+03  0.61575768395E+03  0.24343920811E+04  0.25409122682E+04  0.25500000920E-02 0.  1.
</event>
<event>
 5   0  0.1499888E-06  0.2802331E+04  0.7818609E-02  0.8302545E-01
       -2   -1    0    0    0  501  0.00000000000E+00  0.00000000000E+00  0.95023367022E+03  0.95023367022E+03  0.25500000920E-02 0. -1.
        2   -1    0    0  501    0  0.00000000000E+00  0.00000000000E+00 -0.20660865999E+04  0.20660865999E+04  0.25500000920E-02 0.  1.
    10030    2    1    2    0    0  0.00000000000E+00  0.00000000000E+00 -0.11158529296E+04  0.30163202701E+04  0.28023312101E+04 0.  0.
        3    1    3    3  502    0 -0.63445593778E+03  0.74514368786E+03  0.52138604359E+03  0.11088809085E+04  0.10100000352E+00 0. -1.
       -3    1    3    3    0  502  0.63445593778E+03 -0.74514368786E+03 -0.16372389732E+04  0.19074393616E+04  0.10100000352E+00 0.  1.
</event>
<event>
 5   0  0.1394410E-06  0.2813890E+04  0.7818609E-02  0.8298969E-01
        2   -1    0    0  501    0  0.00000000000E+00  0.00000000000E+00  0.22867585904E+04  0.22867585904E+04  0.25500000920E-02 0.  1.
       -2   -1    0    0    0  501  0.00000000000E+00  0.00000000000E+00 -0.86563334635E+03  0.86563334636E+03  0.25500000920E-02 0. -1.
    10030    2    1    2    0    0  0.00000000000E+00  0.00000000000E+00  0.14211252440E+04  0.31523919367E+04  0.28138901833E+04 0.  0.
        4    1    3    3  502    0 -0.10527961787E+04 -0.55761796148E+03 -0.12792187781E+03  0.11981999852E+04  0.12699999809E+01 0. -1.
       -4    1    3    3    0  502  0.10527961787E+04  0.55761796148E+03  0.15490471218E+04  0.19541919515E+04  0.12699999809E+01 0.  1.
</event>
<event>
 5   0  0.5297741E-07  0.2802658E+04  0.7818609E-02  0.8302444E-01
        1   -1    0    0  501    0  0.00000000000E+00  0.00000000000E+00  0.15895550435E+04  0.15895550435E+04  0.50400001928E-02 0.  1.
       -1   -1    0    0    0  501  0.00000000000E+00  0.00000000000E+00 -0.12353912145E+04  0.12353912145E+04  0.50400001928E-02 0. -1.
    10030    2    1    2    0    0  0.00000000000E+00  0.00000000000E+00  0.35416382909E+03  0.28249462580E+04  0.28026575500E+04 0.  0.
        5    1    3    3  502    0 -0.57779703281E+03 -0.86944235510E+03 -0.76518989650E+03  0.12943404064E+04  0.46999998093E+01 0. -1.
       -5    1    3    3    0  502  0.57779703281E+03  0.86944235510E+03  0.11193537256E+04  0.15306058516E+04  0.46999998093E+01 0.  1.
</event>
<event>
 5   0  0.1461146E-06  0.2795465E+04  0.7818609E-02  0.8304678E-01
       -2   -1    0    0    0  501  0.00000000000E+00  0.00000000000E+00  0.13347440819E+04  0.13347440819E+04  0.25500000920E-02 0.  1.
        2   -1    0    0  501    0  0.00000000000E+00  0.00000000000E+00 -0.14636933081E+04  0.14636933081E+04  0.25500000920E-02 0. -1.
    10030    2    1    2    0    0  0.00000000000E+00  0.00000000000E+00 -0.12894922616E+03  0.27984373900E+04  0.27954648849E+04 0.  0.
        1    1    3    3  502    0 -0.44533950761E+02  0.34623729449E+03 -0.14193510352E+04  0.14616500600E+04  0.50400001928E-02 0. -1.
       -1    1    3    3    0  502  0.44533950761E+02 -0.34623729449E+03  0.12904018090E+04  0.13367873300E+04  0.50400001928E-02 0.  1.
</event>
<event>
 5   0  0.1439207E-06  0.2777641E+04  0.7818609E-02  0.8310244E-01
       -2   -1    0    0    0  501  0.00000000000E+00  0.00000000000E+00  0.59844135569E+03  0.59844135569E+03  0.25500000920E-02 0. -1.
        2   -1    0    0  501    0  0.00000000000E+00  0.00000000000E+00 -0.32230768510E+04  0.32230768510E+04  0.25500000920E-02 0.  1.
    10030    2    1    2    0    0  0.00000000000E+00  0.00000000000E+00 -0.26246354954E+04  0.38215182067E+04  0.27776410713E+04 0.  0.
        5    1    3    3  502    0 -0.62328607118E+03  0.41967609076E+03 -0.29192469238E+04  0.30144051221E+04  0.46999998093E+01 0.  1.
       -5    1    3    3    0  502  0.62328607118E+03 -0.41967609076E+03  0.29461142846E+03  0.80711308467E+03  0.46999998093E+01 0. -1.
</event>
<event>
 5   0  0.5282098E-07  0.2803037E+04  0.7818609E-02  0.8302326E-01
       -1   -1    0    0    0  501  0.00000000000E+00  0.00000000000E+00  0.94849718840E+03  0.94849718842E+03  0.50400001928E-02 0. -1.
        1   -1    0    0  501    0  0.00000000000E+00  0.00000000000E+00 -0.20709120000E+04  0.20709120000E+04  0.50400001928E-02 0.  1.
    10030    2    1    2    0    0  0.00000000000E+00  0.00000000000E+00 -0.11224148116E+04  0.30194091884E+04  0.28030370739E+04 0.  0.
        4    1    3    3  502    0  0.70818170644E+03 -0.10692292937E+04 -0.11700639213E+04  0.17360368097E+04  0.12699999809E+01 0.  1.
       -4    1    3    3    0  502 -0.70818170644E+03  0.10692292937E+04  0.47649109695E+02  0.12833723787E+04  0.12699999809E+01 0. -1.
</event>
<event>
 5   0  0.5214658E-07  0.2790827E+04  0.7818609E-02  0.8306122E-01
        1   -1    0    0  501    0  0.00000000000E+00  0.00000000000E+00  0.20418178541E+04  0.20418178541E+04  0.50400001928E-02 0.  1.
       -1   -1    0    0    0  501  0.00000000000E+00  0.00000000000E+00 -0.95364951111E+03  0.95364951112E+03  0.50400001928E-02 0. -1.
    10030    2    1    2    0    0  0.00000000000E+00  0.00000000000E+00  0.10881683429E+04  0.29954673652E+04  0.27908268297E+04 0.  0.
        2    1    3    3  502    0 -0.12979398506E+04 -0.49545585416E+03  0.40391649457E+03  0.14468147407E+04  0.25500000920E-02 0.  1.
       -2    1    3    3    0  502  0.12979398506E+04  0.49545585416E+03  0.68425184838E+03  0.15486526245E+04  0.25500000920E-02 0. -1.
</event>
<event>
 5   0  0.5214658E-07  0.2741583E+04  0.7818609E-02  0.8321637E-01
       -1   -1    0    0    0  501  0.00000000000E+00  0.00000000000E+00  0.10399465734E+04  0.10399465734E+04  0.50400001928E-02 0.  1.
        1   -1    0    0  501    0  0.00000000000E+00  0.00000000000E+00 -0.18068903884E+04  0.18068903884E+04  0.50400001928E-02 0. -1.
    10030    2    1    2    0    0  0.00000000000E+00  0.00000000000E+00 -0.76694381500E+03  0.28468369619E+04  0.27415830960E+04 0.  0.
        2    1    3    3  502    0 -0.24363843383E+03 -0.13310072140E+04 -0.15566483240E+03  0.13620467798E+04  0.25500000920E-02 0.  1.
       -2    1    3    3    0  502  0.24363843383E+03  0.13310072140E+04 -0.61127898261E+03  0.14847901821E+04  0.25500000920E-02 0. -1.
</event>
<event>
 5   0  0.5297741E-07  0.2802671E+04  0.7818609E-02  0.8302440E-01
        1   -1    0    0  501    0  0.00000000000E+00  0.00000000000E+00  0.15922918503E+04  0.15922918503E+04  0.50400001928E-02 0. -1.
       -1   -1    0    0    0  501  0.00000000000E+00  0.00000000000E+00 -0.12332794568E+04  0.12332794568E+04  0.50400001928E-02 0.  1.
    10030    2    1    2    0    0  0.00000000000E+00  0.00000000000E+00  0.35901239355E+03  0.28255713071E+04  0.28026707464E+04 0.  0.
        5    1    3    3  502    0  0.49702303956E+03 -0.99670229139E+03 -0.67789647215E+03  0.13038454956E+04  0.46999998093E+01 0.  1.
       -5    1    3    3    0  502 -0.49702303956E+03  0.99670229139E+03  0.10369088657E+04  0.15217258115E+04  0.46999998093E+01 0. -1.
</event>
<event>
 5   0  0.5214658E-07  0.2790955E+04  0.7818609E-02  0.8306082E-01
       -1   -1    0    0    0  501  0.00000000000E+00  0.00000000000E+00  0.82544631469E+03  0.82544631471E+03  0.50400001928E-02 0.  1.
        1   -1    0    0  501    0  0.00000000000E+00  0.00000000000E+00 -0.23591570682E+04  0.23591570682E+04  0.50400001928E-02 0. -1.
    10030    2    1    2    0    0  0.00000000000E+00  0.00000000000E+00 -0.15337107535E+04  0.31846033829E+04  0.27909550392E+04 0.  0.
        2    1    3    3  502    0  0.11645016720E+03  0.12000218574E+04  0.34921647266E+02  0.12061644254E+04  0.25500000920E-02 0.  1.
       -2    1    3    3    0  502 -0.11645016720E+03 -0.12000218574E+04 -0.15686324007E+04  0.19784389575E+04  0.25500000920E-02 0. -1.
</event>
<event>
 5   0  0.1377807E-06  0.2801117E+04  0.7818609E-02  0.8302922E-01
        2   -1    0    0  501    0  0.00000000000E+00  0.00000000000E+00  0.20120643085E+04  0.20120643085E+04  0.25500000920E-02 0. -1.
       -2   -1    0    0    0  501  0.00000000000E+00  0.00000000000E+00 -0.97490143342E+03  0.97490143342E+03  0.25500000920E-02 0.  1.
    10030    2    1    2    0    0  0.00000000000E+00  0.00000000000E+00  0.10371628751E+04  0.29869657419E+04  0.28011171903E+04 0.  0.
        2    1    3    3  502    0 -0.36980003366E+03 -0.13234417571E+04  0.80731222769E+03  0.15937387434E+04  0.25500000920E-02 0. -1.
       -2    1    3    3    0  502  0.36980003366E+03  0.13234417571E+04  0.22985064740E+03  0.13932269985E+04  0.25500000920E-02 0.  1.
</event>
<event>
 5   0  0.1377807E-06  0.2825044E+04  0.7818609E-02  0.8295535E-01
       -2   -1    0    0    0  501  0.00000000000E+00  0.00000000000E+00  0.13451517388E+04  0.13451517388E+04  0.25500000920E-02 0.  1.
        2   -1    0    0  501    0  0.00000000000E+00  0.00000000000E+00 -0.14832669052E+04  0.14832669053E+04  0.25500000920E-02 0. -1.
    10030    2    1    2    0    0  0.00000000000E+00  0.00000000000E+00 -0.13811516642E+03  0.28284186441E+04  0.28250444646E+04 0.  0.
        2    1    3    3  502    0  0.30094040835E+03 -0.63009401338E+03  0.11602670260E+04  0.13541798871E+04  0.25500000920E-02 0.  1.
       -2    1    3    3    0  502 -0.30094040835E+03  0.63009401338E+03 -0.12983821924E+04  0.14742387570E+04  0.25500000920E-02 0. -1.
</event>
<event>
 5   0  0.1499888E-06  0.2803682E+04  0.7818609E-02  0.8302126E-01
        2   -1    0    0  501    0  0.00000000000E+00  0.00000000000E+00  0.13015490629E+04  0.13015490629E+04  0.25500000920E-02 0. -1.
       -2   -1    0    0    0  501  0.00000000000E+00  0.00000000000E+00 -0.15098606611E+04  0.15098606611E+04  0.25500000920E-02 0.  1.
    10030    2    1    2    0    0  0.00000000000E+00  0.00000000000E+00 -0.20831159813E+03  0.28114097240E+04  0.28036816714E+04 0.  0.
        3    1    3    3  502    0 -0.12109672546E+04  0.38975513287E+00  0.60398894552E+03  0.13532348281E+04  0.10100000352E+00 0. -1.
       -3    1    3    3    0  502  0.12109672546E+04 -0.38975513287E+00 -0.81230054364E+03  0.14581748959E+04  0.10100000352E+00 0.  1.
</event>
<event>
 5   0  0.5362952E-07  0.2802088E+04  0.7818609E-02  0.8302621E-01
       -1   -1    0    0    0  501  0.00000000000E+00  0.00000000000E+00  0.15053387454E+04  0.15053387454E+04  0.50400001928E-02 0. -1.
        1   -1    0    0  501    0  0.00000000000E+00  0.00000000000E+00 -0.13039748663E+04  0.13039748663E+04  0.50400001928E-02 0.  1.
    10030    2    1    2    0    0  0.00000000000E+00  0.00000000000E+00  0.20136387914E+03  0.28093136117E+04  0.28020877140E+04 0.  0.
        1    1    3    3  502    0 -0.46782012020E+03 -0.51212269821E+03 -0.11197486448E+04  0.13171796955E+04  0.50400001928E-02 0.  1.
       -1    1    3    3    0  502  0.46782012020E+03  0.51212269821E+03  0.13211125239E+04  0.14921339161E+04  0.50400001928E-02 0. -1.
</event>
<event>
 5   0  0.5214658E-07  0.2793833E+04  0.7818609E-02  0.8305185E-01
       -1   -1    0    0    0  501  0.00000000000E+00  0.00000000000E+00  0.13218525009E+04  0.13218525009E+04  0.50400001928E-02 0. -1.
        1   -1    0    0  501    0  0.00000000000E+00  0.00000000000E+00 -0.14762434541E+04  0.14762434541E+04  0.50400001928E-02 0.  1.
    10030    2    1    2    0    0  0.00000000000E+00  0.00000000000E+00 -0.15439095321E+03  0.27980959549E+04  0.27938332818E+04 0.  0.
        2    1    3    3  502    0 -0.12168394075E+04 -0.34568874972E+03 -0.67070173320E+03  0.14317959597E+04  0.25500000920E-02 0.  1.
       -2    1    3    3    0  502  0.12168394075E+04  0.34568874972E+03  0.51631078000E+03  0.13662999952E+04  0.25500000920E-02 0. -1.
</event>
<event>
 5   0  0.5214658E-07  0.2797854E+04  0.7818609E-02  0.8303935E-01
        1   -1    0    0  501    0  0.00000000000E+00  0.00000000000E+00  0.22572339511E+04  0.22572339511E+04  0.50400001928E-02 0. -1.
       -1   -1    0    0    0  501  0.00000000000E+00  0.00000000000E+00 -0.86698911640E+03  0.86698911641E+03  0.50400001928E-02 0.  1.
    10030    2    1    2    0    0  0.00000000000E+00  0.00000000000E+00  0.13902448347E+04  0.31242230675E+04  0.27978543699E+04 0.  0.
        2    1    3    3  502    0 -0.18396604456E+03  0.80427472027E+03  0.19566380093E+04  0.21234720697E+04  0.25500000920E-02 0. -1.
       -2    1    3    3    0  502  0.18396604456E+03 -0.80427472027E+03 -0.56639317467E+03  0.10007509978E+04  0.25500000920E-02 0.  1.
</event>
<event>
 5   0  0.1499888E-06  0.2801121E+04  0.7818609E-02  0.8302920E-01
        2   -1    0    0  501    0  0.00000000000E+00  0.00000000000E+00  0.15662760023E+04  0.15662760023E+04  0.25500000920E-02 0.  1.
       -2   -1    0    0    0  501  0.00000000000E+00  0.00000000000E+00 -0.12523780192E+04  0.12523780192E+04  0.25500000920E-02 0. -1.
    10030    2    1    2    0    0  0.00000000000E+00  0.00000000000E+00  0.31389798308E+03  0.28186540214E+04  0.28011209450E+04 0.  0.
        3    1    3    3  502    0  0.93771965279E+03  0.41206838641E+03  0.11181511021E+04  0.15163707988E+04  0.10100000352E+00 0.  1.
       -3    1    3    3    0  502 -0.93771965279E+03 -0.41206838641E+03 -0.80425311898E+03  0.13022832226E+04  0.10100000352E+00 0. -1.
</event>
<event>
 5   0  0.1377807E-06  0.2792989E+04  0.7818609E-02  0.8305448E-01
        2   -1    0    0  501    0  0.00000000000E+00  0.00000000000E+00  0.83821862192E+03  0.83821862193E+03  0.25500000920E-02 0.  1.
       -2   -1    0    0    0  501  0.00000000000E+00  0.00000000000E+00 -0.23265969177E+04  0.23265969177E+04  0.25500000920E-02 0. -1.
    10030    2    1    2    0    0  0.00000000000E+00  0.00000000000E+00 -0.14883782958E+04  0.31648155396E+04  0.27929889811E+04 0.  0.
        2    1    3    3  502    0  0.93667646469E+02  0.11840621469E+04 -0.15764179254E+04  0.19737959042E+04  0.25500000920E-02 0. -1.
       -2    1    3    3    0  502 -0.93667646469E+02 -0.11840621469E+04  0.88039629674E+02  0.11910196355E+04  0.25500000920E-02 0.  1.
</event>
<event>
 5   0  0.1377807E-06  0.2787721E+04  0.7818609E-02  0.8307091E-01
       -2   -1    0    0    0  501  0.00000000000E+00  0.00000000000E+00  0.13855074540E+04  0.13855074540E+04  0.25500000920E-02 0.  1.
        2   -1    0    0  501    0  0.00000000000E+00  0.00000000000E+00 -0.14022641634E+04  0.14022641634E+04  0.25500000920E-02 0. -1.
    10030    2    1    2    0    0  0.00000000000E+00  0.00000000000E+00 -0.16756709402E+02  0.27877716175E+04  0.27877212565E+04 0.  0.
        2    1    3    3  502    0  0.39686313433E+03  0.60487447627E+03 -0.11998166697E+04  0.14010472941E+04  0.25500000920E-02 0. -1.
       -2    1    3    3    0  502 -0.39686313433E+03 -0.60487447627E+03  0.11830599603E+04  0.13867243234E+04  0.25500000920E-02 0.  1.
</event>
<event>
 5   0  0.5282098E-07  0.2801487E+04  0.7818609E-02  0.8302807E-01
        1   -1    0    0  501    0  0.00000000000E+00  0.00000000000E+00  0.17392741578E+04  0.17392741578E+04  0.50400001928E-02 0.  1.
       -1   -1    0    0    0  501  0.00000000000E+00  0.00000000000E+00 -0.11281045202E+04  0.11281045203E+04  0.50400001928E-02 0. -1.
    10030    2    1    2    0    0  0.00000000000E+00  0.00000000000E+00  0.61116963750E+03  0.28673786780E+04  0.28014874901E+04 0.  0.
        4    1    3    3  502    0  0.14867245224E+03  0.54506774789E+03 -0.10063104431E+04  0.11540644127E+04  0.12699999809E+01 0. -1.
       -4    1    3    3    0  502 -0.14867245224E+03 -0.54506774789E+03  0.16174800806E+04  0.17133142653E+04  0.12699999809E+01 0.  1.
</event>
<event>
 5   0  0.4710000E-07  0.2799847E+04  0.7818609E-02  0.8303316E-01
       -3   -1    0    0    0  501  0.00000000000E+00  0.00000000000E+00  0.18910148588E+04  0.18910148615E+04  0.10100000352E+00 0. -1.
        3   -1    0    0  501    0  0.00000000000E+00  0.00000000000E+00 -0.10363669643E+04  0.10363669692E+04  0.10100000352E+00 0.  1.
    10030    2    1    2    0    0  0.00000000000E+00  0.00000000000E+00  0.85464789451E+03  0.29273818306E+04  0.27998466670E+04 0.  0.
        1    1    3    3  502    0 -0.55841461267E+03  0.58055324390E+02 -0.91350596119E+03  0.10722361874E+04  0.50400001928E-02 0.  1.
       -1    1    3    3    0  502  0.55841461267E+03 -0.58055324390E+02  0.17681538557E+04  0.18551456433E+04  0.50400001928E-02 0. -1.
</event>
<event>
 5   0  0.1461146E-06  0.2798726E+04  0.7818609E-02  0.8303664E-01
       -2   -1    0    0    0  501  0.00000000000E+00  0.00000000000E+00  0.12954119240E+04  0.12954119240E+04  0.25500000920E-02 0. -1.
        2   -1    0    0  501    0  0.00000000000E+00  0.00000000000E+00 -0.15116560349E+04  0.15116560349E+04  0.25500000920E-02 0.  1.
    10030    2    1    2    0    0  0.00000000000E+00  0.00000000000E+00 -0.21624411095E+03  0.28070679589E+04  0.27987263193E+04 0.  0.
        1    1    3    3  502    0 -0.88468106010E+03  0.51638466990E+03 -0.10643279008E+04  0.14771958523E+04  0.50400001928E-02 0.  1.
       -1    1    3    3    0  502  0.88468106010E+03 -0.51638466990E+03  0.84808378989E+03  0.13298721067E+04  0.50400001928E-02 0. -1.
</event>
<event>
 5   0  0.1499888E-06  0.2805810E+04  0.7818609E-02  0.8301467E-01
       -2   -1    0    0    0  501  0.00000000000E+00  0.00000000000E+00  0.72129324096E+03  0.72129324096E+03  0.25500000920E-02 0.  1.
        2   -1    0    0  501    0  0.00000000000E+00  0.00000000000E+00 -0.27286299798E+04  0.27286299798E+04  0.25500000920E-02 0. -1.
    10030    2    1    2    0    0  0.00000000000E+00  0.00000000000E+00 -0.20073367388E+04  0.34499232208E+04  0.28058099447E+04 0.  0.
        3    1    3    3  502    0  0.42613979431E+03 -0.64769607735E+03  0.43394239898E+03  0.88848823782E+03  0.10100000352E+00 0.  1.
       -3    1    3    3    0  502 -0.42613979431E+03  0.64769607735E+03 -0.24412791378E+04  0.25614349829E+04  0.10100000352E+00 0. -1.
</event>
<event>
 5   0  0.5214658E-07  0.2801517E+04  0.7818609E-02  0.8302798E-01
       -1   -1    0    0    0  501  0.00000000000E+00  0.00000000000E+00  0.82056817894E+03  0.82056817895E+03  0.50400001928E-02 0.  1.
        1   -1    0    0  501    0  0.00000000000E+00  0.00000000000E+00 -0.23911774620E+04  0.23911774620E+04  0.50400001928E-02 0. -1.
    10030    2    1    2    0    0  0.00000000000E+00  0.00000000000E+00 -0.15706092830E+04  0.32117456409E+04  0.28015168288E+04 0.  0.
        2    1    3    3  502    0 -0.21711031697E+02 -0.43470548888E+03 -0.23116877750E+04  0.23523053799E+04  0.25500000920E-02 0. -1.
       -2    1    3    3    0  502  0.21711031697E+02  0.43470548888E+03  0.74107849201E+03  0.85944026104E+03  0.25500000920E-02 0.  1.
</event>
<event>
 5   0  0.1499888E-06  0.2801363E+04  0.7818609E-02  0.8302845E-01
        2   -1    0    0  501    0  0.00000000000E+00  0.00000000000E+00  0.21056833724E+04  0.21056833724E+04  0.25500000920E-02 0. -1.
       -2   -1    0    0    0  501  0.00000000000E+00  0.00000000000E+00 -0.93172046362E+03  0.93172046362E+03  0.25500000920E-02 0.  1.
    10030    2    1    2    0    0  0.00000000000E+00  0.00000000000E+00  0.11739629088E+04  0.30374038360E+04  0.28013627312E+04 0.  0.
        3    1    3    3  502    0  0.13943991926E+04  0.14733042088E+02  0.44419594973E+03  0.14635150231E+04  0.10100000352E+00 0. -1.
       -3    1    3    3    0  502 -0.13943991926E+04 -0.14733042088E+02  0.72976695906E+03  0.15738888130E+04  0.10100000352E+00 0.  1.
</event>
<event>
 5   0  0.1377807E-06  0.2796267E+04  0.7818609E-02  0.8304428E-01
        2   -1    0    0  501    0  0.00000000000E+00  0.00000000000E+00  0.17444016422E+04  0.17444016422E+04  0.25500000920E-02 0.  1.
       -2   -1    0    0    0  501  0.00000000000E+00  0.00000000000E+00 -0.11206002256E+04  0.11206002256E+04  0.25500000920E-02 0. -1.
    10030    2    1    2    0    0  0.00000000000E+00  0.00000000000E+00  0.62380141661E+03  0.28650018677E+04  0.27962667067E+04 0.  0.
        2    1    3    3  502    0  0.12847755246E+04 -0.54896657372E+03  0.36577093394E+03  0.14442301838E+04  0.25500000920E-02 0. -1.
       -2    1    3    3    0  502 -0.12847755246E+04  0.54896657372E+03  0.25803048267E+03  0.14207716839E+04  0.25500000920E-02 0.  1.
</event>
<event>
 5   0  0.1439207E-06  0.2795426E+04  0.7818609E-02  0.8304690E-01
        2   -1    0    0  501    0  0.00000000000E+00  0.00000000000E+00  0.16879631739E+04  0.16879631739E+04  0.25500000920E-02 0.  1.
       -2   -1    0    0    0  501  0.00000000000E+00  0.00000000000E+00 -0.11573723616E+04  0.11573723616E+04  0.25500000920E-02 0. -1.
    10030    2    1    2    0    0  0.00000000000E+00  0.00000000000E+00  0.53059081231E+03  0.28453355356E+04  0.27954262108E+04 0.  0.
        5    1    3    3  502    0  0.69347004653E+01 -0.11109700150E+04 -0.59794876282E+03  0.12616922276E+04  0.46999998093E+01 0. -1.
       -5    1    3    3    0  502 -0.69347004653E+01  0.11109700150E+04  0.11285395751E+04  0.15836433080E+04  0.46999998093E+01 0.  1.
</event>
<event>
 5   0  0.5297741E-07  0.2805578E+04  0.7818609E-02  0.8301539E-01
       -1   -1    0    0    0  501  0.00000000000E+00  0.00000000000E+00  0.90357651093E+03  0.90357651094E+03  0.50400001928E-02 0.  1.
        1   -1    0    0  501    0  0.00000000000E+00  0.00000000000E+00 -0.21778082342E+04  0.21778082342E+04  0.50400001928E-02 0. -1.
    10030    2    1    2    0    0  0.00000000000E+00  0.00000000000E+00 -0.12742317233E+04  0.30813847451E+04  0.28055775632E+04 0.  0.
        5    1    3    3  502    0 -0.83360472298E+03 -0.15476980194E+03 -0.18645412101E+04  0.20482642749E+04  0.46999998093E+01 0. -1.
       -5    1    3    3    0  502  0.83360472298E+03  0.15476980194E+03  0.59030948683E+03  0.10331204702E+04  0.46999998093E+01 0.  1.
</event>
<event>
 5   0  0.5297741E-07  0.2801703E+04  0.7818609E-02  0.8302740E-01
        1   -1    0    0  501    0  0.00000000000E+00  0.00000000000E+00  0.15223141587E+04  0.15223141587E+04  0.50400001928E-02 0.  1.
       -1   -1    0    0    0  501  0.00000000000E+00  0.00000000000E+00 -0.12890801457E+04  0.12890801458E+04  0.50400001928E-02 0. -1.
    10030    2    1    2    0    0  0.00000000000E+00  0.00000000000E+00  0.23323401292E+03  0.28113943044E+04  0.28017030232E+04 0.  0.
        5    1    3    3  502    0  0.29796403862E+03 -0.48122764007E+03 -0.11692210415E+04  0.12990236887E+04  0.46999998093E+01 0. -1.
       -5    1    3    3    0  502 -0.29796403862E+03  0.48122764007E+03  0.14024550544E+04  0.15123706158E+04  0.46999998093E+01 0.  1.
</event>
<event>
 5   0  0.1461146E-06  0.2801154E+04  0.7818609E-02  0.8302910E-01
        2   -1    0    0  501    0  0.00000000000E+00  0.00000000000E+00  0.26832366793E+04  0.26832366793E+04  0.25500000920E-02 0.  1.
       -2   -1    0    0    0  501  0.00000000000E+00  0.00000000000E+00 -0.73106326862E+03  0.73106326862E+03  0.25500000920E-02 0. -1.
    10030    2    1    2    0    0  0.00000000000E+00  0.00000000000E+00  0.19521734107E+04  0.34142999480E+04  0.28011538889E+04 0.  0.
        1    1    3    3  502    0  0.80374601219E+03  0.10427505616E+04  0.15584554463E+04  0.20401273892E+04  0.50400001928E-02 0. -1.
       -1    1    3    3    0  502 -0.80374601219E+03 -0.10427505616E+04  0.39371796441E+03  0.13741725588E+04  0.50400001928E-02 0.  1.
</event>
<event>
 5   0  0.5282098E-07  0.2797562E+04  0.7818609E-02  0.8304026E-01
        1   -1    0    0  501    0  0.00000000000E+00  0.00000000000E+00  0.14529643634E+04  0.14529643634E+04  0.50400001928E-02 0. -1.
       -1   -1    0    0    0  501  0.00000000000E+00  0.00000000000E+00 -0.13466184853E+04  0.13466184853E+04  0.50400001928E-02 0.  1.
    10030    2    1    2    0    0  0.00000000000E+00  0.00000000000E+00  0.10634587805E+03  0.27995828487E+04  0.27975622747E+04 0.  0.
        4    1    3    3  502    0  0.21121131258E+03  0.32037086965E+02 -0.13301968149E+04  0.13472422843E+04  0.12699999809E+01 0.  1.
       -4    1    3    3    0  502 -0.21121131258E+03 -0.32037086965E+02  0.14365426929E+04  0.14523405644E+04  0.12699999809E+01 0. -1.
</event>
<event>
 5   0  0.1377807E-06  0.2793375E+04  0.7818609E-02  0.8305328E-01
       -2   -1    0    0    0  501  0.00000000000E+00  0.00000000000E+00  0.12928703909E+04  0.12928703909E+04  0.25500000920E-02 0. -1.
        2   -1    0    0  501    0  0.00000000000E+00  0.00000000000E+00 -0.15088411689E+04  0.15088411689E+04  0.25500000920E-02 0.  1.
    10030    2    1    2    0    0  0.00000000000E+00  0.00000000000E+00 -0.21597077803E+03  0.28017115598E+04  0.27933750710E+04 0.  0.
        2    1    3    3  502    0  0.10712509038E+04 -0.57336723561E+03  0.58284269027E+03  0.13476030897E+04  0.25500000920E-02 0.  1.
       -2    1    3    3    0  502 -0.10712509038E+04  0.57336723561E+03 -0.79881346830E+03  0.14541084701E+04  0.25500000920E-02 0. -1.
</event>
<event>
 5   0  0.5362952E-07  0.2807895E+04  0.7818609E-02  0.8300821E-01
        1   -1    0    0  501    0  0.00000000000E+00  0.00000000000E+00  0.27661164778E+04  0.27661164778E+04  0.50400001928E-02 0. -1.
       -1   -1    0    0    0  501  0.00000000000E+00  0.00000000000E+00 -0.71257625368E+03  0.71257625370E+03  0.50400001928E-02 0.  1.
    10030    2    1    2    0    0  0.00000000000E+00  0.00000000000E+00  0.20535402241E+04  0.34786927315E+04  0.28078952381E+04 0.  0.
        1    1    3    3  502    0  0.12848392521E+04  0.38249582610E+03  0.51005361825E+03  0.14343185331E+04  0.50400001928E-02 0. -1.
       -1    1    3    3    0  502 -0.12848392521E+04 -0.38249582610E+03  0.15434866059E+04  0.20443741984E+04  0.50400001928E-02 0.  1.
</event>
<event>
 5   0  0.1394410E-06  0.2800190E+04  0.7818609E-02  0.8303209E-01
        2   -1    0    0  501    0  0.00000000000E+00  0.00000000000E+00  0.12213308488E+04  0.12213308488E+04  0.25500000920E-02 0. -1.
       -2   -1    0    0    0  501  0.00000000000E+00  0.00000000000E+00 -0.16050246086E+04  0.16050246086E+04  0.25500000920E-02 0.  1.
    10030    2    1    2    0    0  0.00000000000E+00  0.00000000000E+00 -0.38369375981E+03  0.28263554575E+04  0.28001900419E+04 0.  0.
        4    1    3    3  502    0 -0.49199048372E+03 -0.13003930515E+04 -0.35827463295E+03  0.14357712387E+04  0.12699999809E+01 0. -1.
       -4    1    3    3    0  502  0.49199048372E+03  0.13003930515E+04 -0.25419126857E+02  0.13905842187E+04  0.12699999809E+01 0.  1.
</event>
<event>
 5   0  0.5282098E-07  0.2800944E+04  0.7818609E-02  0.8302975E-01
        1   -1    0    0  501    0  0.00000000000E+00  0.00000000000E+00  0.16195026075E+04  0.16195026075E+04  0.50400001928E-02 0.  1.
       -1   -1    0    0    0  501  0.00000000000E+00  0.00000000000E+00 -0.12110646578E+04  0.12110646578E+04  0.50400001928E-02 0. -1.
    10030    2    1    2    0    0  0.00000000000E+00  0.00000000000E+00  0.40843794971E+03  0.28305672654E+04  0.28009443916E+04 0.  0.
        4    1    3    3  502    0 -0.36357541806E+03  0.39119055901E+03  0.15125553777E+04  0.16040706099E+04  0.12699999809E+01 0.  1.
       -4    1    3    3    0  502  0.36357541806E+03 -0.39119055901E+03 -0.11041174280E+04  0.12264966554E+04  0.12699999809E+01 0. -1.
</event>
<event>
 5   0  0.4710000E-07  0.2801340E+04  0.7818609E-02  0.8302852E-01
        4   -1    0    0  501    0  0.00000000000E+00  0.00000000000E+00  0.11529346408E+04  0.11529353403E+04  0.12699999809E+01 0.  1.
       -4   -1    0    0    0  501  0.00000000000E+00  0.00000000000E+00 -0.17016359341E+04  0.17016364080E+04  0.12699999809E+01 0. -1.
    10030    2    1    2    0    0  0.00000000000E+00  0.00000000000E+00 -0.54870129330E+03  0.28545717483E+04  0.28013401716E+04 0.  0.
        1    1    3    3  502    0  0.98936235536E+03 -0.16543567372E+03  0.72180925951E+03  0.12358055832E+04  0.50400001928E-02 0.  1.
       -1    1    3    3    0  502 -0.98936235536E+03  0.16543567372E+03 -0.12705105528E+04  0.16187661651E+04  0.50400001928E-02 0. -1.
</event>
<event>
 5   0  0.5282098E-07  0.2812262E+04  0.7818609E-02  0.8299472E-01
       -1   -1    0    0    0  501  0.00000000000E+00  0.00000000000E+00  0.90897846992E+03  0.90897846993E+03  0.50400001928E-02 0.  1.
        1   -1    0    0  501    0  0.00000000000E+00  0.00000000000E+00 -0.21751932505E+04  0.21751932505E+04  0.50400001928E-02 0. -1.
    10030    2    1    2    0    0  0.00000000000E+00  0.00000000000E+00 -0.12662147806E+04  0.30841717204E+04  0.28122616042E+04 0.  0.
        4    1    3    3  502    0 -0.66402872776E+03 -0.39705088635E+03 -0.19207783750E+04  0.20707425568E+04  0.12699999809E+01 0. -1.
       -4    1    3    3    0  502  0.66402872776E+03  0.39705088635E+03  0.65456359445E+03  0.10134291636E+04  0.12699999809E+01 0.  1.
</event>
<event>
 5   0  0.5297741E-07  0.2810150E+04  0.7818609E-02  0.8300124E-01
       -1   -1    0    0    0  501  0.00000000000E+00  0.00000000000E+00  0.13582370516E+04  0.13582370516E+04  0.50400001928E-02 0. -1.
        1   -1    0    0  501    0  0.00000000000E+00  0.00000000000E+00 -0.14535280747E+04  0.14535280747E+04  0.50400001928E-02 0.  1.
    10030    2    1    2    0    0  0.00000000000E+00  0.00000000000E+00 -0.95291023087E+02  0.28117651263E+04  0.28101499509E+04 0.  0.
        5    1    3    3  502    0 -0.69353972526E+03  0.22665684020E+03 -0.12491033096E+04  0.14466000974E+04  0.46999998093E+01 0.  1.
       -5    1    3    3    0  502  0.69353972526E+03 -0.22665684020E+03  0.11538122865E+04  0.13651650289E+04  0.46999998093E+01 0. -1.
</event>
<event>
 5   0  0.1461146E-06  0.2801584E+04  0.7818609E-02  0.8302777E-01
       -2   -1    0    0    0  501  0.00000000000E+00  0.00000000000E+00  0.11960868083E+04  0.11960868083E+04  0.25500000920E-02 0.  1.
        2   -1    0    0  501    0  0.00000000000E+00  0.00000000000E+00 -0.16405316416E+04  0.16405316417E+04  0.25500000920E-02 0. -1.
    10030    2    1    2    0    0  0.00000000000E+00  0.00000000000E+00 -0.44444483334E+03  0.28366184500E+04  0.28015840199E+04 0.  0.
        1    1    3    3  502    0 -0.59058898550E+03  0.47856934482E+03  0.96909412216E+03  0.12316522988E+04  0.50400001928E-02 0.  1.
       -1    1    3    3    0  502  0.59058898550E+03 -0.47856934482E+03 -0.14135389555E+04  0.16049661511E+04  0.50400001928E-02 0. -1.
</event>
<event>
 5   0  0.5297741E-07  0.2851614E+04  0.7818609E-02  0.8287421E-01
       -1   -1    0    0    0  501  0.00000000000E+00  0.00000000000E+00  0.13091979525E+04  0.13091979526E+04  0.50400001928E-02 0.  1.
        1   -1    0    0  501    0  0.00000000000E+00  0.00000000000E+00 -0.15528028101E+04  0.15528028101E+04  0.50400001928E-02 0. -1.
    10030    2    1    2    0    0  0.00000000000E+00  0.00000000000E+00 -0.24360485751E+03  0.28620007626E+04  0.28516144618E+04 0.  0.
        5    1    3    3  502    0 -0.84492016038E+03  0.65357757554E+03 -0.10696204313E+04  0.15116757859E+04  0.46999998093E+01 0. -1.
       -5    1    3    3    0  502  0.84492016038E+03 -0.65357757554E+03  0.82601557376E+03  0.13503249767E+04  0.46999998093E+01 0.  1.
</event>
<event>
 5   0  0.1461146E-06  0.2795210E+04  0.7818609E-02  0.8304757E-01
        2   -1    0    0  501    0  0.00000000000E+00  0.00000000000E+00  0.10245785547E+04  0.10245785547E+04  0.25500000920E-02 0. -1.
       -2   -1    0    0    0  501  0.00000000000E+00  0.00000000000E+00 -0.19064415745E+04  0.19064415745E+04  0.25500000920E-02 0.  1.
    10030    2    1    2    0    0  0.00000000000E+00  0.00000000000E+00 -0.88186301979E+03  0.29310201292E+04  0.27952095829E+04 0.  0.
        1    1    3    3  502    0  0.47937074315E+03 -0.12681853675E+04 -0.79684716812E+03  0.15725952579E+04  0.50400001928E-02 0.  1.
       -1    1    3    3    0  502 -0.47937074315E+03  0.12681853675E+04 -0.85015851667E+02  0.13584248713E+04  0.50400001928E-02 0. -1.
</event>
<event>
 5   0  0.5551565E-07  0.2790900E+04  0.7818609E-02  0.8306099E-01
        1   -1    0    0  501    0  0.00000000000E+00  0.00000000000E+00  0.68498402996E+03  0.68498402998E+03  0.50400001928E-02 0.  1.
       -1   -1    0    0    0  501  0.00000000000E+00  0.00000000000E+00 -0.28428110320E+04  0.28428110320E+04  0.50400001928E-02 0. -1.
    10030    2    1    2    0    0  0.00000000000E+00  0.00000000000E+00 -0.21578270020E+04  0.35277950620E+04  0.27908996092E+04 0.  0.
        3    1    3    3  502    0 -0.89173160741E+03 -0.37023151611E+03  0.19458132329E+03  0.98494595626E+03  0.10100000352E+00 0.  1.
       -3    1    3    3    0  502  0.89173160741E+03  0.37023151611E+03 -0.23524083253E+04  0.25428491057E+04  0.10100000352E+00 0. -1.
</event>
<event>
 5   0  0.5297741E-07  0.2797585E+04  0.7818609E-02  0.8304019E-01
       -1   -1    0    0    0  501  0.00000000000E+00  0.00000000000E+00  0.13411443424E+04  0.13411443424E+04  0.50400001928E-02 0. -1.
        1   -1    0    0  501    0  0.00000000000E+00  0.00000000000E+00 -0.14589181657E+04  0.14589181658E+04  0.50400001928E-02 0.  1.
    10030    2    1    2    0    0  0.00000000000E+00  0.00000000000E+00 -0.11777382339E+03  0.28000625081E+04  0.27975845610E+04 0.  0.
        5    1    3    3  502    0  0.11252220824E+04  0.15770998400E+03  0.75767919548E+03  0.13656855521E+04  0.46999998093E+01 0. -1.
       -5    1    3    3    0  502 -0.11252220824E+04 -0.15770998400E+03 -0.87545301887E+03  0.14343769561E+04  0.46999998093E+01 0.  1.
</event>
<event>
 5   0  0.1394410E-06  0.2784889E+04  0.7818609E-02  0.8307975E-01
        2   -1    0    0  501    0  0.00000000000E+00  0.00000000000E+00  0.11037615205E+04  0.11037615205E+04  0.25500000920E-02 0.  1.
       -2   -1    0    0    0  501  0.00000000000E+00  0.00000000000E+00 -0.17566310653E+04  0.17566310653E+04  0.25500000920E-02 0. -1.
    10030    2    1    2    0    0  0.00000000000E+00  0.00000000000E+00 -0.65286954474E+03  0.28603925858E+04  0.27848890646E+04 0.  0.
        4    1    3    3  502    0  0.12450828143E+04  0.12913945071E+03  0.30001248896E+03  0.12872130044E+04  0.12699999809E+01 0.  1.
       -4    1    3    3    0  502 -0.12450828143E+04 -0.12913945071E+03 -0.95288203369E+03  0.15731795814E+04  0.12699999809E+01 0. -1.
</event>
<event>
 5   0  0.1377807E-06  0.2801642E+04  0.7818609E-02  0.8302759E-01
        2   -1    0    0  501    0  0.00000000000E+00  0.00000000000E+00  0.14888511023E+04  0.14888511023E+04  0.25500000920E-02 0. -1.
       -2   -1    0    0    0  501  0.00000000000E+00  0.00000000000E+00 -0.13179957612E+04  0.13179957612E+04  0.25500000920E-02 0.  1.
    10030    2    1    2    0    0  0.00000000000E+00  0.00000000000E+00  0.17085534112E+03  0.28068468635E+04  0.28016419771E+04 0.  0.
        2    1    3    3  502    0  0.13296650820E+04  0.42682753500E+03 -0.24815238126E+02  0.13967128449E+04  0.25500000920E-02 0. -1.
       -2    1    3    3    0  502 -0.13296650820E+04 -0.42682753500E+03  0.19567057924E+03  0.14101340187E+04  0.25500000920E-02 0.  1.
</event>
<event>
 5   0  0.5282098E-07  0.2800492E+04  0.7818609E-02  0.8303116E-01
       -1   -1    0    0    0  501  0.00000000000E+00  0.00000000000E+00  0.21044527459E+04  0.21044527459E+04  0.50400001928E-02 0. -1.
        1   -1    0    0  501    0  0.00000000000E+00  0.00000000000E+00 -0.93168578658E+03  0.93168578660E+03  0.50400001928E-02 0.  1.
    10030    2    1    2    0    0  0.00000000000E+00  0.00000000000E+00  0.11727669593E+04  0.30361385325E+04  0.28004918939E+04 0.  0.
        4    1    3    3  502    0 -0.13579159844E+04 -0.45902381247E+02  0.95346574390E+03  0.16598618578E+04  0.12699999809E+01 0. -1.
       -4    1    3    3    0  502  0.13579159844E+04  0.45902381247E+02  0.21930121539E+03  0.13762766747E+04  0.12699999809E+01 0.  1.
</event>
<event>
 5   0  0.1439207E-06  0.2796154E+04  0.7818609E-02  0.8304463E-01
        2   -1    0    0  501    0  0.00000000000E+00  0.00000000000E+00  0.20174841794E+04  0.20174841794E+04  0.25500000920E-02 0.  1.
       -2   -1    0    0    0  501  0.00000000000E+00  0.00000000000E+00 -0.96883996747E+03  0.96883996747E+03  0.25500000920E-02 0. -1.
    10030    2    1    2    0    0  0.00000000000E+00  0.00000000000E+00  0.10486442119E+04  0.29863241469E+04  0.27961540063E+04 0.  0.
        5    1    3    3  502    0 -0.12804411897E+04 -0.55784630591E+03  0.59080592198E+03  0.15165077872E+04  0.46999998093E+01 0.  1.
       -5    1    3    3    0  502  0.12804411897E+04  0.55784630591E+03  0.45783828996E+03  0.14698163596E+04  0.46999998093E+01 0. -1.
</event>
<event>
 5   0  0.5362952E-07  0.2797175E+04  0.7818609E-02  0.8304146E-01
       -1   -1    0    0    0  501  0.00000000000E+00  0.00000000000E+00  0.12891357826E+04  0.12891357826E+04  0.50400001928E-02 0.  1.
        1   -1    0    0  501    0  0.00000000000E+00  0.00000000000E+00 -0.15173324058E+04  0.15173324058E+04  0.50400001928E-02 0. -1.
    10030    2    1    2    0    0  0.00000000000E+00  0.00000000000E+00 -0.22819662325E+03  0.28064681884E+04  0.27971753599E+04 0.  0.
        1    1    3    3  502    0 -0.26779639957E+03  0.13681073991E+04 -0.22678676866E+03  0.14123969009E+04  0.50400001928E-02 0. -1.
       -1    1    3    3    0  502  0.26779639957E+03 -0.13681073991E+04 -0.14098545828E+01  0.13940712876E+04  0.50400001928E-02 0.  1.
</event>
<event>
 5   0  0.1394410E-06  0.2786462E+04  0.7818609E-02  0.8307484E-01
       -2   -1    0    0    0  501  0.00000000000E+00  0.00000000000E+00  0.64444567490E+03  0.64444567490E+03  0.25500000920E-02 0. -1.
        2   -1    0    0  501    0  0.00000000000E+00  0.00000000000E+00 -0.30120339569E+04  0.30120339569E+04  0.25500000920E-02 0.  1.
    10030    2    1    2    0    0  0.00000000000E+00  0.00000000000E+00 -0.23675882820E+04  0.36564796318E+04  0.27864617393E+04 0.  0.
        4    1    3    3  502    0 -0.11140064205E+04  0.46850418972E+03 -0.20934870339E+04  0.24172703727E+04  0.12699999809E+01 0.  1.
       -4    1    3    3    0  502  0.11140064205E+04 -0.46850418972E+03 -0.27410124812E+03  0.12392092591E+04  0.12699999809E+01 0. -1.
</event>
<event>
 5   0  0.5214658E-07  0.2802273E+04  0.7818609E-02  0.8302563E-01
       -1   -1    0    0    0  501  0.00000000000E+00  0.00000000000E+00  0.80901964884E+03  0.80901964885E+03  0.50400001928E-02 0.  1.
        1   -1    0    0  501    0  0.00000000000E+00  0.00000000000E+00 -0.24266209906E+04  0.24266209906E+04  0.50400001928E-02 0. -1.
    10030    2    1    2    0    0  0.00000000000E+00  0.00000000000E+00 -0.16176013418E+04  0.32356406395E+04  0.28022734069E+04 0.  0.
        2    1    3    3  502    0 -0.69300098981E+03  0.83850959144E+03 -0.18284509357E+04  0.21275764454E+04  0.25500000920E-02 0. -1.
       -2    1    3    3    0  502  0.69300098981E+03 -0.83850959144E+03  0.21084959396E+03  0.11080641940E+04  0.25500000920E-02 0.  1.
</event>
<event>
 5   0  0.5214658E-07  0.2802634E+04  0.7818609E-02  0.8302451E-01
        1   -1    0    0  501    0  0.00000000000E+00  0.00000000000E+00  0.10969920541E+04  0.10969920541E+04  0.50400001928E-02 0. -1.
       -1   -1    0    0    0  501  0.00000000000E+00  0.00000000000E+00 -0.17900666718E+04  0.17900666718E+04  0.50400001928E-02 0.  1.
    10030    2    1    2    0    0  0.00000000000E+00  0.00000000000E+00 -0.69307461763E+03  0.28870587259E+04  0.28026337009E+04 0.  0.
        2    1    3    3  502    0 -0.86367784030E+01 -0.10762114988E+04  0.57792783805E+03  0.12215999223E+04  0.25500000920E-02 0. -1.
       -2    1    3    3    0  502  0.86367784030E+01  0.10762114988E+04 -0.12710024557E+04  0.16654588036E+04  0.25500000920E-02 0.  1.
</event>
<event>
 5   0  0.1377807E-06  0.2803250E+04  0.7818609E-02  0.8302260E-01
        2   -1    0    0  501    0  0.00000000000E+00  0.00000000000E+00  0.10983574613E+04  0.10983574613E+04  0.25500000920E-02 0.  1.
       -2   -1    0    0    0  501  0.00000000000E+00  0.00000000000E+00 -0.17886277843E+04  0.17886277843E+04  0.25500000920E-02 0. -1.
    10030    2    1    2    0    0  0.00000000000E+00  0.00000000000E+00 -0.69027032304E+03  0.28869852456E+04  0.28032500226E+04 0.  0.
        2    1    3    3  502    0  0.86427832701E+03 -0.39115299435E+03 -0.14077377211E+04  0.16975580058E+04  0.25500000920E-02 0. -1.
       -2    1    3    3    0  502 -0.86427832701E+03  0.39115299435E+03  0.71746739807E+03  0.11894272398E+04  0.25500000920E-02 0.  1.
</event>
<event>
 5   0  0.5297741E-07  0.2796706E+04  0.7818609E-02  0.8304292E-01
        1   -1    0    0  501    0  0.00000000000E+00  0.00000000000E+00  0.26017613663E+04  0.26017613663E+04  0.50400001928E-02 0. -1.
       -1   -1    0    0    0  501  0.00000000000E+00  0.00000000000E+00 -0.75156437798E+03  0.75156437800E+03  0.50400001928E-02 0.  1.
    10030    2    1    2    0    0  0.00000000000E+00  0.00000000000E+00  0.18501969883E+04  0.33533257443E+04  0.27967060360E+04 0.  0.
        5    1    3    3  502    0  0.13616315688E+04  0.31558489997E+03  0.97503785363E+03  0.17042169064E+04  0.46999998093E+01 0. -1.
       -5    1    3    3    0  502 -0.13616315688E+04 -0.31558489997E+03  0.87515913470E+03  0.16491088379E+04  0.46999998093E+01 0.  1.
</event>
<event>
 5   0  0.5362952E-07  0.2803846E+04  0.7818609E-02  0.8302075E-01
       -1   -1    0    0    0  501  0.00000000000E+00  0.00000000000E+00  0.14222069552E+04  0.14222069552E+04  0.50400001928E-02 0.  1.
        1   -1    0    0  501    0  0.00000000000E+00  0.00000000000E+00 -0.13819278673E+04  0.13819278673E+04  0.50400001928E-02 0. -1.
    10030    2    1    2    0    0  0.00000000000E+00  0.00000000000E+00  0.40279087915E+02  0.28041348226E+04  0.28038455197E+04 0.  0.
        1    1    3    3  502    0  0.87535290078E+02  0.13503494290E+04  0.38662164331E+03  0.14073316249E+04  0.50400001928E-02 0.  1.
       -1    1    3    3    0  502 -0.87535290078E+02 -0.13503494290E+04 -0.34634255539E+03  0.13968031977E+04  0.50400001928E-02 0. -1.
</event>
<event>
 5   0  0.5297741E-07  0.2801736E+04  0.7818609E-02  0.8302730E-01
       -1   -1    0    0    0  501  0.00000000000E+00  0.00000000000E+00  0.12433714870E+04  0.12433714870E+04  0.50400001928E-02 0.  1.
        1   -1    0    0  501    0  0.00000000000E+00  0.00000000000E+00 -0.15783141517E+04  0.15783141517E+04  0.50400001928E-02 0. -1.
    10030    2    1    2    0    0  0.00000000000E+00  0.00000000000E+00 -0.33494266469E+03  0.28216856386E+04  0.28017357575E+04 0.  0.
        5    1    3    3  502    0 -0.28770870499E+03  0.13575561913E+04  0.25395833786E+02  0.13879489003E+04  0.46999998093E+01 0.  1.
       -5    1    3    3    0  502  0.28770870499E+03 -0.13575561913E+04 -0.36033849847E+03  0.14337367384E+04  0.46999998093E+01 0. -1.
</event>
<event>
 5   0  0.1377807E-06  0.2798825E+04  0.7818609E-02  0.8303633E-01
        2   -1    0    0  501    0  0.00000000000E+00  0.00000000000E+00  0.17690015345E+04  0.17690015345E+04  0.25500000920E-02 0. -1.
       -2   -1    0    0    0  501  0.00000000000E+00  0.00000000000E+00 -0.11070399446E+04  0.11070399446E+04  0.25500000920E-02 0.  1.
    10030    2    1    2    0    0  0.00000000000E+00  0.00000000000E+00  0.66196158983E+03  0.28760414791E+04  0.27988250111E+04 0.  0.
        2    1    3    3  502    0  0.26245928149E+03  0.13305056853E+04 -0.23835258433E+02  0.13563548107E+04  0.25500000920E-02 0.  1.
       -2    1    3    3    0  502 -0.26245928149E+03 -0.13305056853E+04  0.68579684826E+03  0.15196866684E+04  0.25500000920E-02 0. -1.
</event>
<event>
 5   0  0.1377807E-06  0.2803256E+04  0.7818609E-02  0.8302258E-01
        2   -1    0    0  501    0  0.00000000000E+00  0.00000000000E+00  0.14970371906E+04  0.14970371906E+04  0.25500000920E-02 0.  1.
       -2   -1    0    0    0  501  0.00000000000E+00  0.00000000000E+00 -0.13122997660E+04  0.13122997660E+04  0.25500000920E-02 0. -1.
    10030    2    1    2    0    0  0.00000000000E+00  0.00000000000E+00  0.18473742455E+03  0.28093369566E+04  0.28032563600E+04 0.  0.
        2    1    3    3  502    0 -0.78398399752E+03 -0.10110437940E+04  0.66607976083E+03  0.14423947828E+04  0.25500000920E-02 0.  1.
       -2    1    3    3    0  502  0.78398399752E+03  0.10110437940E+04 -0.48134233628E+03  0.13669421738E+04  0.25500000920E-02 0. -1.
</event>
<event>
 5   0  0.5362952E-07  0.2798391E+04  0.7818609E-02  0.8303768E-01
        1   -1    0    0  501    0  0.00000000000E+00  0.00000000000E+00  0.21880059454E+04  0.21880059454E+04  0.50400001928E-02 0.  1.
       -1   -1    0    0    0  501  0.00000000000E+00  0.00000000000E+00 -0.89476353551E+03  0.89476353552E+03  0.50400001928E-02 0. -1.
    10030    2    1    2    0    0  0.00000000000E+00  0.00000000000E+00  0.12932424099E+04  0.30827694809E+04  0.27983909201E+04 0.  0.
        1    1    3    3  502    0  0.23517783694E+03 -0.10217731283E+04 -0.37404169133E+03  0.11132098309E+04  0.50400001928E-02 0.  1.
       -1    1    3    3    0  502 -0.23517783694E+03  0.10217731283E+04  0.16672841012E+04  0.19695596500E+04  0.50400001928E-02 0. -1.
</event>
<event>
 5   0  0.1499888E-06  0.2819150E+04  0.7818609E-02  0.8297348E-01
        2   -1    0    0  501    0  0.00000000000E+00  0.00000000000E+00  0.12494925565E+04  0.12494925565E+04  0.25500000920E-02 0. -1.
       -2   -1    0    0    0  501  0.00000000000E+00  0.00000000000E+00 -0.15901667538E+04  0.15901667538E+04  0.25500000920E-02 0.  1.
    10030    2    1    2    0    0  0.00000000000E+00  0.00000000000E+00 -0.34067419733E+03  0.28396593103E+04  0.28191498877E+04 0.  0.
        3    1    3    3  502    0  0.12442354946E+04 -0.43009932070E+03  0.33710775208E+03  0.13589514482E+04  0.10100000352E+00 0. -1.
       -3    1    3    3    0  502 -0.12442354946E+04  0.43009932070E+03 -0.67778194941E+03  0.14807078621E+04  0.10100000352E+00 0.  1.
</event>
<event>
 5   0  0.1499888E-06  0.2789791E+04  0.7818609E-02  0.8306445E-01
        2   -1    0    0  501    0  0.00000000000E+00  0.00000000000E+00  0.14886738681E+04  0.14886738681E+04  0.25500000920E-02 0.  1.
       -2   -1    0    0    0  501  0.00000000000E+00  0.00000000000E+00 -0.13070250155E+04  0.13070250155E+04  0.25500000920E-02 0. -1.
    10030    2    1    2    0    0  0.00000000000E+00  0.00000000000E+00  0.18164885263E+03  0.27956988836E+04  0.27897913797E+04 0.  0.
        3    1    3    3  502    0 -0.89146529582E+03  0.34068110863E+03  0.11103084967E+04  0.14640898058E+04  0.10100000352E+00 0.  1.
       -3    1    3    3    0  502  0.89146529582E+03 -0.34068110863E+03 -0.92865964407E+03  0.13316090778E+04  0.10100000352E+00 0. -1.
</event>
<event>
 5   0  0.1394410E-06  0.2781036E+04  0.7818609E-02  0.8309180E-01
       -2   -1    0    0    0  501  0.00000000000E+00  0.00000000000E+00  0.90329281287E+03  0.90329281287E+03  0.25500000920E-02 0. -1.
        2   -1    0    0  501    0  0.00000000000E+00  0.00000000000E+00 -0.21405461063E+04  0.21405461063E+04  0.25500000920E-02 0.  1.
    10030    2    1    2    0    0  0.00000000000E+00  0.00000000000E+00 -0.12372532934E+04  0.30438389191E+04  0.27810357160E+04 0.  0.
        4    1    3    3  502    0 -0.79704001605E+02  0.57969023333E+03  0.76197997503E+03  0.96073336037E+03  0.12699999809E+01 0. -1.
       -4    1    3    3    0  502  0.79704001605E+02 -0.57969023333E+03 -0.19992332684E+04  0.20831055588E+04  0.12699999809E+01 0.  1.
</event>
<event>
 5   0  0.5282098E-07  0.2797218E+04  0.7818609E-02  0.8304132E-01
        1   -1    0    0  501    0  0.00000000000E+00  0.00000000000E+00  0.19744472742E+04  0.19744472742E+04  0.50400001928E-02 0.  1.
       -1   -1    0    0    0  501  0.00000000000E+00  0.00000000000E+00 -0.99071151559E+03  0.99071151560E+03  0.50400001928E-02 0. -1.
    10030    2    1    2    0    0  0.00000000000E+00  0.00000000000E+00  0.98373575861E+03  0.29651587898E+04  0.27972183694E+04 0.  0.
        4    1    3    3  502    0 -0.29466730793E+02  0.97495886245E+03 -0.57065493780E+03  0.11300715653E+04  0.12699999809E+01 0. -1.
       -4    1    3    3    0  502  0.29466730793E+02 -0.97495886245E+03  0.15543906964E+04  0.18350872245E+04  0.12699999809E+01 0.  1.
</event>
<event>
 5   0  0.5282098E-07  0.2804034E+04  0.7818609E-02  0.8302017E-01
       -1   -1    0    0    0  501  0.00000000000E+00  0.00000000000E+00  0.17574572162E+04  0.17574572162E+04  0.50400001928E-02 0. -1.
        1   -1    0    0  501    0  0.00000000000E+00  0.00000000000E+00 -0.11184636680E+04  0.11184636680E+04  0.50400001928E-02 0.  1.
    10030    2    1    2    0    0  0.00000000000E+00  0.00000000000E+00  0.63899354820E+03  0.28759208841E+04  0.28040342682E+04 0.  0.
        4    1    3    3  502    0 -0.50276726865E+03  0.79924521007E+03  0.13824458485E+04  0.16741343940E+04  0.12699999809E+01 0. -1.
       -4    1    3    3    0  502  0.50276726865E+03 -0.79924521007E+03 -0.74345230028E+03  0.12017864902E+04  0.12699999809E+01 0.  1.
</event>
<event>
 5   0  0.1439207E-06  0.2796016E+04  0.7818609E-02  0.8304506E-01
       -2   -1    0    0    0  501  0.00000000000E+00  0.00000000000E+00  0.10656729582E+04  0.10656729582E+04  0.25500000920E-02 0. -1.
        2   -1    0    0  501    0  0.00000000000E+00  0.00000000000E+00 -0.18339827363E+04  0.18339827363E+04  0.25500000920E-02 0.  1.
    10030    2    1    2    0    0  0.00000000000E+00  0.00000000000E+00 -0.76830977811E+03  0.28996556945E+04  0.27960155993E+04 0.  0.
        5    1    3    3  502    0  0.72223649402E+03  0.82261227317E+03 -0.12859186726E+04  0.16887644678E+04  0.46999998093E+01 0.  1.
       -5    1    3    3    0  502 -0.72223649402E+03 -0.82261227317E+03  0.51760889447E+03  0.12108912267E+04  0.46999998093E+01 0. -1.
</event>
<event>
 5   0  0.5282098E-07  0.2799801E+04  0.7818609E-02  0.8303330E-01
       -1   -1    0    0    0  501  0.00000000000E+00  0.00000000000E+00  0.15642310039E+04  0.15642310039E+04  0.50400001928E-02 0.  1.
        1   -1    0    0  501    0  0.00000000000E+00  0.00000000000E+00 -0.12528334555E+04  0.12528334555E+04  0.50400001928E-02 0. -1.
    10030    2    1    2    0    0  0.00000000000E+00  0.00000000000E+00  0.31139754844E+03  0.28170644594E+04  0.27998006600E+04 0.  0.
        4    1    3    3  502    0 -0.13669986404E+04  0.68293525673E+02 -0.14000115085E+03  0.13758456395E+04  0.12699999809E+01 0. -1.
       -4    1    3    3    0  502  0.13669986404E+04 -0.68293525673E+02  0.45139869929E+03  0.14412188200E+04  0.12699999809E+01 0.  1.
</event>
<event>
 5   0  0.1499888E-06  0.2798618E+04  0.7818609E-02  0.8303698E-01
       -2   -1    0    0    0  501  0.00000000000E+00  0.00000000000E+00  0.16734060112E+04  0.16734060112E+04  0.25500000920E-02 0.  1.
        2   -1    0    0  501    0  0.00000000000E+00  0.00000000000E+00 -0.11701079000E+04  0.11701079000E+04  0.25500000920E-02 0. -1.
    10030    2    1    2    0    0  0.00000000000E+00  0.00000000000E+00  0.50329811121E+03  0.28435139112E+04  0.27986179400E+04 0.  0.
        3    1    3    3  502    0 -0.76653397080E+03  0.80672402979E+03  0.11136023858E+04  0.15743215277E+04  0.10100000352E+00 0.  1.
       -3    1    3    3    0  502  0.76653397080E+03 -0.80672402979E+03 -0.61030427456E+03  0.12691923835E+04  0.10100000352E+00 0. -1.
</event>
<event>
 5   0  0.1439207E-06  0.2796433E+04  0.7818609E-02  0.8304377E-01
       -2   -1    0    0    0  501  0.00000000000E+00  0.00000000000E+00  0.10558345187E+04  0.10558345187E+04  0.25500000920E-02 0. -1.
        2   -1    0    0  501    0  0.00000000000E+00  0.00000000000E+00 -0.18516244709E+04  0.18516244709E+04  0.25500000920E-02 0.  1.
    10030    2    1    2    0    0  0.00000000000E+00  0.00000000000E+00 -0.79578995227E+03  0.29074589896E+04  0.27964327505E+04 0.  0.
        5    1    3    3  502    0  0.48179156515E+03  0.11494237916E+04  0.26105745833E+03  0.12733700372E+04  0.46999998093E+01 0. -1.
       -5    1    3    3    0  502 -0.48179156515E+03 -0.11494237916E+04 -0.10568474106E+04  0.16340889524E+04  0.46999998093E+01 0.  1.
</event>
<event>
 5   0  0.5282098E-07  0.2802734E+04  0.7818609E-02  0.8302420E-01
       -1   -1    0    0    0  501  0.00000000000E+00  0.00000000000E+00  0.19074816262E+04  0.19074816262E+04  0.50400001928E-02 0. -1.
        1   -1    0    0  501    0  0.00000000000E+00  0.00000000000E+00 -0.10295400847E+04  0.10295400847E+04  0.50400001928E-02 0.  1.
    10030    2    1    2    0    0  0.00000000000E+00  0.00000000000E+00  0.87794154146E+03  0.29370217109E+04  0.28027335193E+04 0.  0.
        4    1    3    3  502    0  0.35261248896E+03 -0.10184456017E+04  0.13775759910E+04  0.17490809687E+04  0.12699999809E+01 0. -1.
       -4    1    3    3    0  502 -0.35261248896E+03  0.10184456017E+04 -0.49963444954E+03  0.11879407423E+04  0.12699999809E+01 0.  1.
</event>
<event>
 5   0  0.5551565E-07  0.2802034E+04  0.7818609E-02  0.8302637E-01
        1   -1    0    0  501    0  0.00000000000E+00  0.00000000000E+00  0.13399471847E+04  0.13399471847E+04  0.50400001928E-02 0.  1.
       -1   -1    0    0    0  501  0.00000000000E+00  0.00000000000E+00 -0.14648703003E+04  0.14648703003E+04  0.50400001928E-02 0. -1.
    10030    2    1    2    0    0  0.00000000000E+00  0.00000000000E+00 -0.12492311559E+03  0.28048174850E+04  0.28020341432E+04 0.  0.
        3    1    3    3  502    0  0.57834207209E+03 -0.68957277728E+03  0.10123175500E+04  0.13545394050E+04  0.10100000352E+00 0.  1.
       -3    1    3    3    0  502 -0.57834207209E+03  0.68957277728E+03 -0.11372406656E+04  0.14502780800E+04  0.10100000352E+00 0. -1.
</event>
<event>
 5   0  0.5282098E-07  0.2796998E+04  0.7818609E-02  0.8304201E-01
       -1   -1    0    0    0  501  0.00000000000E+00  0.00000000000E+00  0.11305042370E+04  0.11305042370E+04  0.50400001928E-02 0. -1.
        1   -1    0    0  501    0  0.00000000000E+00  0.00000000000E+00 -0.17300243758E+04  0.17300243759E+04  0.50400001928E-02 0.  1.
    10030    2    1    2    0    0  0.00000000000E+00  0.00000000000E+00 -0.59952013889E+03  0.28605286128E+04  0.27969983103E+04 0.  0.
        4    1    3    3  502    0  0.25264893990E+03  0.12279845552E+04 -0.93352969437E+03  0.15630920823E+04  0.12699999809E+01 0.  1.
       -4    1    3    3    0  502 -0.25264893990E+03 -0.12279845552E+04  0.33400955548E+03  0.12974365305E+04  0.12699999809E+01 0. -1.
</event>
<event>
 5   0  0.1439207E-06  0.2805809E+04  0.7818609E-02  0.8301467E-01
        2   -1    0    0  501    0  0.00000000000E+00  0.00000000000E+00  0.17454634931E+04  0.17454634931E+04  0.25500000920E-02 0. -1.
       -2   -1    0    0    0  501  0.00000000000E+00  0.00000000000E+00 -0.11275753104E+04  0.11275753104E+04  0.25500000920E-02 0.  1.
    10030    2    1    2    0    0  0.00000000000E+00  0.00000000000E+00  0.61788818273E+03  0.28730388036E+04  0.28058093592E+04 0.  0.
        5    1    3    3  502    0  0.46064525016E+03  0.54104027245E+03  0.15475561423E+04  0.17029006801E+04  0.46999998093E+01 0. -1.
       -5    1    3    3    0  502 -0.46064525016E+03 -0.54104027245E+03 -0.92966795954E+03  0.11701381234E+04  0.46999998093E+01 0.  1.
</event>
<event>
 5   0  0.5282098E-07  0.2801558E+04  0.7818609E-02  0.8302785E-01
       -1   -1    0    0    0  501  0.00000000000E+00  0.00000000000E+00  0.10282265930E+04  0.10282265930E+04  0.50400001928E-02 0.  1.
        1   -1    0    0  501    0  0.00000000000E+00  0.00000000000E+00 -0.19083171345E+04  0.19083171345E+04  0.50400001928E-02 0. -1.
    10030    2    1    2    0    0  0.00000000000E+00  0.00000000000E+00 -0.88009054151E+03  0.29365437275E+04  0.28015584417E+04 0.  0.
        4    1    3    3  502    0 -0.61739795383E+03  0.43647807332E+03  0.79596000849E+03  0.10978375517E+04  0.12699999809E+01 0.  1.
       -4    1    3    3    0  502  0.61739795383E+03 -0.43647807332E+03 -0.16760505500E+04  0.18387061758E+04  0.12699999809E+01 0. -1.
</event>
<event>
 5   0  0.5214658E-07  0.2804745E+04  0.7818609E-02  0.8301797E-01
        1   -1    0    0  501    0  0.00000000000E+00  0.00000000000E+00  0.25976732479E+04  0.25976732479E+04  0.50400001928E-02 0.  1.
       -1   -1    0    0    0  501  0.00000000000E+00  0.00000000000E+00 -0.75708080909E+03  0.75708080911E+03  0.50400001928E-02 0. -1.
    10030    2    1    2    0    0  0.00000000000E+00  0.00000000000E+00  0.18405924388E+04  0.33547540571E+04  0.28047449541E+04 0.  0.
        2    1    3    3  502    0 -0.85350214379E+03 -0.96846793029E+03  0.15757025683E+04  0.20369670162E+04  0.25500000920E-02 0.  1.
       -2    1    3    3    0  502  0.85350214379E+03  0.96846793029E+03  0.26488987057E+03  0.13177870408E+04  0.25500000920E-02 0. -1.
</event>
<event>
 5   0  0.5297741E-07  0.2801260E+04  0.7818609E-02  0.8302877E-01
       -1   -1    0    0    0  501  0.00000000000E+00  0.00000000000E+00  0.15475986320E+04  0.15475986320E+04  0.50400001928E-02 0. -1.
        1   -1    0    0  501    0  0.00000000000E+00  0.00000000000E+00 -0.12676187236E+04  0.12676187237E+04  0.50400001928E-02 0.  1.
    10030    2    1    2    0    0  0.00000000000E+00  0.00000000000E+00  0.27997990831E+03  0.28152173556E+04  0.28012604324E+04 0.  0.
        5    1    3    3  502    0 -0.77469039627E+03  0.69054107031E+03 -0.80530841747E+03  0.13135965580E+04  0.46999998093E+01 0.  1.
       -5    1    3    3    0  502  0.77469039627E+03 -0.69054107031E+03  0.10852883258E+04  0.15016207977E+04  0.46999998093E+01 0. -1.
</event>
<event>
 5   0  0.1377807E-06  0.2745197E+04  0.7818609E-02  0.8320487E-01
       -2   -1    0    0    0  501  0.00000000000E+00  0.00000000000E+00  0.17585055031E+04  0.17585055031E+04  0.25500000920E-02 0.  1.
        2   -1    0    0  501    0  0.00000000000E+00  0.00000000000E+00 -0.10713794314E+04  0.10713794314E+04  0.25500000920E-02 0. -1.
    10030    2    1    2    0    0  0.00000000000E+00  0.00000000000E+00  0.68712607170E+03  0.28298849346E+04  0.27451969883E+04 0.  0.
        2    1    3    3  502    0 -0.21798064093E+03  0.94385795750E+03  0.13460042653E+04  0.16583458282E+04  0.25500000920E-02 0.  1.
       -2    1    3    3    0  502  0.21798064093E+03 -0.94385795750E+03 -0.65887819358E+03  0.11715391064E+04  0.25500000920E-02 0. -1.
</event>
<event>
 5   0  0.1394410E-06  0.2803598E+04  0.7818609E-02  0.8302152E-01
       -2   -1    0    0    0  501  0.00000000000E+00  0.00000000000E+00  0.12131700569E+04  0.12131700569E+04  0.25500000920E-02 0. -1.
        2   -1    0    0  501    0  0.00000000000E+00  0.00000000000E+00 -0.16197567659E+04  0.16197567659E+04  0.25500000920E-02 0.  1.
    10030    2    1    2    0    0  0.00000000000E+00  0.00000000000E+00 -0.40658670901E+03  0.28329268228E+04  0.28035979797E+04 0.  0.
        4    1    3    3  502    0 -0.87828817274E+03  0.10547212139E+04 -0.49125145312E+03  0.14577916712E+04  0.12699999809E+01 0.  1.
       -4    1    3    3    0  502  0.87828817274E+03 -0.10547212139E+04  0.84664744112E+02  0.13751351516E+04  0.12699999809E+01 0. -1.
</event>
<event>
 5   0  0.1499888E-06  0.2795358E+04  0.7818609E-02  0.8304711E-01
        2   -1    0    0  501    0  0.00000000000E+00  0.00000000000E+00  0.10835076311E+04  0.10835076311E+04  0.25500000920E-02 0. -1.
       -2   -1    0    0    0  501  0.00000000000E+00  0.00000000000E+00 -0.18029472925E+04  0.18029472925E+04  0.25500000920E-02 0.  1.
    10030    2    1    2    0    0  0.00000000000E+00  0.00000000000E+00 -0.71943966141E+03  0.28864549236E+04  0.27953584027E+04 0.  0.
        3    1    3    3  502    0  0.80201899168E+03  0.62967951057E+03  0.62734856779E+03  0.11972038192E+04  0.10100000352E+00 0. -1.
       -3    1    3    3    0  502 -0.80201899168E+03 -0.62967951057E+03 -0.13467882292E+04  0.16892511044E+04  0.10100000352E+00 0.  1.
</event>
<event>
 5   0  0.5362952E-07  0.2800487E+04  0.7818609E-02  0.8303117E-01
       -1   -1    0    0    0  501  0.00000000000E+00  0.00000000000E+00  0.17678110599E+04  0.17678110599E+04  0.50400001928E-02 0.  1.
        1   -1    0    0  501    0  0.00000000000E+00  0.00000000000E+00 -0.11091017121E+04  0.11091017121E+04  0.50400001928E-02 0. -1.
    10030    2    1    2    0    0  0.00000000000E+00  0.00000000000E+00  0.65870934778E+03  0.28769127721E+04  0.28004872957E+04 0.  0.
        1    1    3    3  502    0 -0.90097592190E+03 -0.10718631557E+04  0.33534800871E+03  0.14398286437E+04  0.50400001928E-02 0.  1.
       -1    1    3    3    0  502  0.90097592190E+03  0.10718631557E+04  0.32336133907E+03  0.14370841283E+04  0.50400001928E-02 0. -1.
</event>
<event>
 5   0  0.5551565E-07  0.2799142E+04  0.7818609E-02  0.8303535E-01
       -1   -1    0    0    0  501  0.00000000000E+00  0.00000000000E+00  0.31328889753E+04  0.31328889753E+04  0.50400001928E-02 0. -1.
        1   -1    0    0  501    0  0.00000000000E+00  0.00000000000E+00 -0.62523719190E+03  0.62523719192E+03  0.50400001928E-02 0.  1.
    10030    2    1    2    0    0  0.00000000000E+00  0.00000000000E+00  0.25076517834E+04  0.37581261672E+04  0.27991418010E+04 0.  0.
        3    1    3    3  502    0  0.28475537028E+02  0.11255989047E+04  0.23698926585E+04  0.26237711359E+04  0.10100000352E+00 0. -1.
       -3    1    3    3    0  502 -0.28475537028E+02 -0.11255989047E+04  0.13775912495E+03  0.11343550314E+04  0.10100000352E+00 0.  1.
</event>
<event>
 5   0  0.5297741E-07  0.2799902E+04  0.7818609E-02  0.8303299E-01
       -1   -1    0    0    0  501  0.00000000000E+00  0.00000000000E+00  0.84637608738E+03  0.84637608739E+03  0.50400001928E-02 0. -1.
        1   -1    0    0  501    0  0.00000000000E+00  0.00000000000E+00 -0.23155932249E+04  0.23155932249E+04  0.50400001928E-02 0.  1.
    10030    2    1    2    0    0  0.00000000000E+00  0.00000000000E+00 -0.14692171376E+04  0.31619693123E+04  0.27999019509E+04 0.  0.
        5    1    3    3  502    0 -0.10429327581E+04 -0.29466131486E+03 -0.17353789776E+04  0.20459951892E+04  0.46999998093E+01 0.  1.
       -5    1    3    3    0  502  0.10429327581E+04  0.29466131486E+03  0.26616184003E+03  0.11159741231E+04  0.46999998093E+01 0. -1.
</event>
<event>
 5   0  0.5297741E-07  0.2803215E+04  0.7818609E-02  0.8302271E-01
        1   -1    0    0  501    0  0.00000000000E+00  0.00000000000E+00  0.14033812937E+04  0.14033812937E+04  0.50400001928E-02 0.  1.
       -1   -1    0    0    0  501  0.00000000000E+00  0.00000000000E+00 -0.13998361653E+04  0.13998361653E+04  0.50400001928E-02 0. -1.
    10030    2    1    2    0    0  0.00000000000E+00  0.00000000000E+00  0.35451284366E+01  0.28032174590E+04  0.28032152173E+04 0.  0.
        5    1    3    3  502    0 -0.15623316899E+03 -0.93602619929E+03  0.10332422203E+04  0.14029131921E+04  0.46999998093E+01 0.  1.
       -5    1    3    3    0  502  0.15623316899E+03  0.93602619929E+03 -0.10296970919E+04  0.14003042669E+04  0.46999998093E+01 0. -1.
</event>
<event>
 5   0  0.1377807E-06  0.2801936E+04  0.7818609E-02  0.8302667E-01
       -2   -1    0    0    0  501  0.00000000000E+00  0.00000000000E+00  0.12892078161E+04  0.12892078161E+04  0.25500000920E-02 0. -1.
        2   -1    0    0  501    0  0.00000000000E+00  0.00000000000E+00 -0.15224168124E+04  0.15224168125E+04  0.25500000920E-02 0.  1.
    10030    2    1    2    0    0  0.00000000000E+00  0.00000000000E+00 -0.23320899635E+03  0.28116246285E+04  0.28019362262E+04 0.  0.
        2    1    3    3  502    0  0.37993620136E+03  0.11101198540E+04  0.65154489989E+03  0.13420984926E+04  0.25500000920E-02 0. -1.
       -2    1    3    3    0  502 -0.37993620136E+03 -0.11101198540E+04 -0.88475389624E+03  0.14695261359E+04  0.25500000920E-02 0.  1.
</event>
<event>
 5   0  0.1377807E-06  0.2799907E+04  0.7818609E-02  0.8303297E-01
        2   -1    0    0  501    0  0.00000000000E+00  0.00000000000E+00  0.20025288149E+04  0.20025288149E+04  0.25500000920E-02 0. -1.
       -2   -1    0    0    0  501  0.00000000000E+00  0.00000000000E+00 -0.97869743562E+03  0.97869743562E+03  0.25500000920E-02 0.  1.
    10030    2    1    2    0    0  0.00000000000E+00  0.00000000000E+00  0.10238313793E+04  0.29812262505E+04  0.27999070098E+04 0.  0.
        2    1    3    3  502    0 -0.83483373948E+03 -0.13261481331E+03 -0.67629801577E+03  0.10825493372E+04  0.25500000920E-02 0.  1.
       -2    1    3    3    0  502  0.83483373948E+03  0.13261481331E+03  0.17001293950E+04  0.18986769133E+04  0.25500000920E-02 0. -1.
</event>
<event>
 5   0  0.5551565E-07  0.2801816E+04  0.7818609E-02  0.8302705E-01
       -1   -1    0    0    0  501  0.00000000000E+00  0.00000000000E+00  0.17872794967E+04  0.17872794967E+04  0.50400001928E-02 0. -1.
        1   -1    0    0  501    0  0.00000000000E+00  0.00000000000E+00 -0.10980613461E+04  0.10980613461E+04  0.50400001928E-02 0.  1.
    10030    2    1    2    0    0  0.00000000000E+00  0.00000000000E+00  0.68921815060E+03  0.28853408427E+04  0.28018155042E+04 0.  0.
        3    1    3    3  502    0 -0.41833185691E+03  0.10911837939E+04  0.11402066089E+04  0.16327139173E+04  0.10100000352E+00 0. -1.
       -3    1    3    3    0  502  0.41833185691E+03 -0.10911837939E+04 -0.45098845832E+03  0.12526269254E+04  0.10100000352E+00 0.  1.
</event>
<event>
 5   0  0.5362952E-07  0.2796340E+04  0.7818609E-02  0.8304405E-01
       -1   -1    0    0    0  501  0.00000000000E+00  0.00000000000E+00  0.16122255430E+04  0.16122255430E+04  0.50400001928E-02 0.  1.
        1   -1    0    0  501    0  0.00000000000E+00  0.00000000000E+00 -0.12125348425E+04  0.12125348426E+04  0.50400001928E-02 0. -1.
    10030    2    1    2    0    0  0.00000000000E+00  0.00000000000E+00  0.39969070043E+03  0.28247603855E+04  0.27963402117E+04 0.  0.
        1    1    3    3  502    0  0.80843198472E+03  0.86978006494E+03 -0.54576196348E+03  0.13068801613E+04  0.50400001928E-02 0. -1.
       -1    1    3    3    0  502 -0.80843198472E+03 -0.86978006494E+03  0.94545266391E+03  0.15178802242E+04  0.50400001928E-02 0.  1.
</event>
<event>
 5   0  0.1461146E-06  0.2738526E+04  0.7818609E-02  0.8322612E-01
        2   -1    0    0  501    0  0.00000000000E+00  0.00000000000E+00  0.13037575443E+04  0.13037575443E+04  0.25500000920E-02 0. -1.
       -2   -1    0    0    0  501  0.00000000000E+00  0.00000000000E+00 -0.14380595823E+04  0.14380595823E+04  0.25500000920E-02 0.  1.
    10030    2    1    2    0    0  0.00000000000E+00  0.00000000000E+00 -0.13430203800E+03  0.27418171267E+04  0.27385259025E+04 0.  0.
        1    1    3    3  502    0  0.45726423576E+03 -0.97778407311E+03 -0.91061750729E+03  0.14122239622E+04  0.50400001928E-02 0.  1.
       -1    1    3    3    0  502 -0.45726423576E+03  0.97778407311E+03  0.77631546930E+03  0.13295931644E+04  0.50400001928E-02 0. -1.
</event>
<event>
 5   0  0.1439207E-06  0.2799918E+04  0.7818609E-02  0.8303294E-01
        2   -1    0    0  501    0  0.00000000000E+00  0.00000000000E+00  0.13117637523E+04  0.13117637523E+04  0.25500000920E-02 0. -1.
       -2   -1    0    0    0  501  0.00000000000E+00  0.00000000000E+00 -0.14940839601E+04  0.14940839601E+04  0.25500000920E-02 0.  1.
    10030    2    1    2    0    0  0.00000000000E+00  0.00000000000E+00 -0.18232020781E+03  0.28058477123E+04  0.27999179857E+04 0.  0.
        5    1    3    3  502    0  0.13869788358E+04 -0.18279443628E+03 -0.38713859411E+02  0.13995159698E+04  0.46999998093E+01 0.  1.
       -5    1    3    3    0  502 -0.13869788358E+04  0.18279443628E+03 -0.14360634840E+03  0.14063317425E+04  0.46999998093E+01 0. -1.
</event>
<event>
 5   0  0.5214658E-07  0.2800838E+04  0.7818609E-02  0.8303008E-01
        1   -1    0    0  501    0  0.00000000000E+00  0.00000000000E+00  0.14071292022E+04  0.14071292022E+04  0.50400001928E-02 0. -1.
       -1   -1    0    0    0  501  0.00000000000E+00  0.00000000000E+00 -0.13937405374E+04  0.13937405374E+04  0.50400001928E-02 0.  1.
    10030    2    1    2    0    0  0.00000000000E+00  0.00000000000E+00  0.13388664780E+02  0.28008697396E+04  0.28008377393E+04 0.  0.
        2    1    3    3  502    0  0.41083722370E+03 -0.11268382593E+04  0.72962812304E+03  0.14038906243E+04  0.25500000920E-02 0. -1.
       -2    1    3    3    0  502 -0.41083722370E+03  0.11268382593E+04 -0.71623945826E+03  0.13969791153E+04  0.25500000920E-02 0.  1.
</event>
<event>
 5   0  0.5214658E-07  0.2792107E+04  0.7818609E-02  0.8305723E-01
        1   -1    0    0  501    0  0.00000000000E+00  0.00000000000E+00  0.15236436190E+04  0.15236436190E+04  0.50400001928E-02 0. -1.
       -1   -1    0    0    0  501  0.00000000000E+00  0.00000000000E+00 -0.12791479940E+04  0.12791479940E+04  0.50400001928E-02 0.  1.
    10030    2    1    2    0    0  0.00000000000E+00  0.00000000000E+00  0.24449562508E+03  0.28027916130E+04  0.27921072177E+04 0.  0.
        2    1    3    3  502    0  0.46679391599E+03  0.12978653440E+04  0.33897830299E+03  0.14203018345E+04  0.25500000920E-02 0. -1.
       -2    1    3    3    0  502 -0.46679391599E+03 -0.12978653440E+04 -0.94482677912E+02  0.13824897785E+04  0.25500000920E-02 0.  1.
</event>
<event>
 5   0  0.5551565E-07  0.2800892E+04  0.7818609E-02  0.8302992E-01
        1   -1    0    0  501    0  0.00000000000E+00  0.00000000000E+00  0.19428572813E+04  0.19428572813E+04  0.50400001928E-02 0. -1.
       -1   -1    0    0    0  501  0.00000000000E+00  0.00000000000E+00 -0.10094662866E+04  0.10094662866E+04  0.50400001928E-02 0.  1.
    10030    2    1    2    0    0  0.00000000000E+00  0.00000000000E+00  0.93339099472E+03  0.29523235679E+04  0.28008919473E+04 0.  0.
        3    1    3    3  502    0  0.37584479814E+03  0.44218040462E+03 -0.87675888346E+03  0.10514223568E+04  0.10100000352E+00 0.  1.
       -3    1    3    3    0  502 -0.37584479814E+03 -0.44218040462E+03  0.18101498782E+04  0.19009012111E+04  0.10100000352E+00 0. -1.
</event>
<event>
 5   0  0.1499888E-06  0.2784602E+04  0.7818609E-02  0.8308065E-01
       -2   -1    0    0    0  501  0.00000000000E+00  0.00000000000E+00  0.11498597554E+04  0.11498597554E+04  0.25500000920E-02 0. -1.
        2   -1    0    0  501    0  0.00000000000E+00  0.00000000000E+00 -0.16858596013E+04  0.16858596013E+04  0.25500000920E-02 0.  1.
    10030    2    1    2    0    0  0.00000000000E+00  0.00000000000E+00 -0.53599984590E+03  0.28357193567E+04  0.27846020246E+04 0.  0.
        3    1    3    3  502    0  0.11522996995E+04 -0.77819555013E+03 -0.34086184239E+03  0.14316318373E+04  0.10100000352E+00 0.  1.
       -3    1    3    3    0  502 -0.11522996995E+04  0.77819555013E+03 -0.19513800351E+03  0.14040875194E+04  0.10100000352E+00 0. -1.
</event>
<event>
 5   0  0.5297741E-07  0.2799162E+04  0.7818609E-02  0.8303528E-01
       -1   -1    0    0    0  501  0.00000000000E+00  0.00000000000E+00  0.88957577136E+03  0.88957577137E+03  0.50400001928E-02 0. -1.
        1   -1    0    0  501    0  0.00000000000E+00  0.00000000000E+00 -0.22019791529E+04  0.22019791530E+04  0.50400001928E-02 0.  1.
    10030    2    1    2    0    0  0.00000000000E+00  0.00000000000E+00 -0.13124033816E+04  0.30915549243E+04  0.27991622343E+04 0.  0.
        5    1    3    3  502    0 -0.35873273394E+03  0.81681011707E+03 -0.18472435946E+04  0.20513895119E+04  0.46999998093E+01 0.  1.
       -5    1    3    3    0  502  0.35873273394E+03 -0.81681011707E+03  0.53484021302E+03  0.10401654124E+04  0.46999998093E+01 0. -1.
</event>
<event>
 5   0  0.5282098E-07  0.2800109E+04  0.7818609E-02  0.8303235E-01
       -1   -1    0    0    0  501  0.00000000000E+00  0.00000000000E+00  0.95071648283E+03  0.95071648284E+03  0.50400001928E-02 0. -1.
        1   -1    0    0  501    0  0.00000000000E+00  0.00000000000E+00 -0.20617633447E+04  0.20617633447E+04  0.50400001928E-02 0.  1.
    10030    2    1    2    0    0  0.00000000000E+00  0.00000000000E+00 -0.11110468619E+04  0.30124798275E+04  0.28001088518E+04 0.  0.
        4    1    3    3  502    0  0.10218500873E+03  0.10298287462E+04 -0.15699943952E+04  0.18803917242E+04  0.12699999809E+01 0.  1.
       -4    1    3    3    0  502 -0.10218500873E+03 -0.10298287462E+04  0.45894753332E+03  0.11320881034E+04  0.12699999809E+01 0. -1.
</event>
<event>
 5   0  0.1499888E-06  0.2804654E+04  0.7818609E-02  0.8301825E-01
        2   -1    0    0  501    0  0.00000000000E+00  0.00000000000E+00  0.14695755474E+04  0.14695755474E+04  0.25500000920E-02 0. -1.
       -2   -1    0    0    0  501  0.00000000000E+00  0.00000000000E+00 -0.13381556273E+04  0.13381556273E+04  0.25500000920E-02 0.  1.
    10030    2    1    2    0    0  0.00000000000E+00  0.00000000000E+00  0.13141992009E+03  0.28077311747E+04  0.28046538386E+04 0.  0.
        3    1    3    3  502    0 -0.42379524885E+03  0.48866606015E+03 -0.11798914975E+04  0.13455634089E+04  0.10100000352E+00 0.  1.
       -3    1    3    3    0  502  0.42379524885E+03 -0.48866606015E+03  0.13113114176E+04  0.14621677658E+04  0.10100000352E+00 0. -1.
</event>
<event>
 5   0  0.1439207E-06  0.2802622E+04  0.7818609E-02  0.8302455E-01
        2   -1    0    0  501    0  0.00000000000E+00  0.00000000000E+00  0.14778447862E+04  0.14778447862E+04  0.25500000920E-02 0.  1.
       -2   -1    0    0    0  501  0.00000000000E+00  0.00000000000E+00 -0.13287405630E+04  0.13287405630E+04  0.25500000920E-02 0. -1.
    10030    2    1    2    0    0  0.00000000000E+00  0.00000000000E+00  0.14910422312E+03  0.28065853492E+04  0.28026218534E+04 0.  0.
        5    1    3    3  502    0  0.11944560653E+04 -0.59399443302E+03  0.50422246501E+03  0.14261195821E+04  0.46999998093E+01 0.  1.
       -5    1    3    3    0  502 -0.11944560653E+04  0.59399443302E+03 -0.35511824188E+03  0.13804657671E+04  0.46999998093E+01 0. -1.
</event>
<event>
 5   0  0.1439207E-06  0.2801413E+04  0.7818609E-02  0.8302830E-01
        2   -1    0    0  501    0  0.00000000000E+00  0.00000000000E+00  0.16349040819E+04  0.16349040819E+04  0.25500000920E-02 0. -1.
       -2   -1    0    0    0  501  0.00000000000E+00  0.00000000000E+00 -0.12000575232E+04  0.12000575232E+04  0.25500000920E-02 0.  1.
    10030    2    1    2    0    0  0.00000000000E+00  0.00000000000E+00  0.43484655872E+03  0.28349616051E+04  0.28014131742E+04 0.  0.
        5    1    3    3  502    0 -0.10196790834E+04 -0.95724961143E+03  0.13979346574E+03  0.14055733900E+04  0.46999998093E+01 0.  1.
       -5    1    3    3    0  502  0.10196790834E+04  0.95724961143E+03  0.29505309298E+03  0.14293882151E+04  0.46999998093E+01 0. -1.
</event>
<event>
 5   0  0.1439207E-06  0.2770522E+04  0.7818609E-02  0.8312479E-01
        2   -1    0    0  501    0  0.00000000000E+00  0.00000000000E+00  0.21890434874E+04  0.21890434874E+04  0.25500000920E-02 0. -1.
       -2   -1    0    0    0  501  0.00000000000E+00  0.00000000000E+00 -0.87661493430E+03  0.87661493430E+03  0.25500000920E-02 0.  1.
    10030    2    1    2    0    0  0.00000000000E+00  0.00000000000E+00  0.13124285531E+04  0.30656584217E+04  0.27705221262E+04 0.  0.
        5    1    3    3  502    0 -0.12295933178E+04  0.39427777326E+03  0.12112140461E+04  0.17704282660E+04  0.46999998093E+01 0. -1.
       -5    1    3    3    0  502  0.12295933178E+04 -0.39427777326E+03  0.10121450702E+03  0.12952301557E+04  0.46999998093E+01 0.  1.
</event>
<event>
 5   0  0.1377807E-06  0.2805344E+04  0.7818609E-02  0.8301611E-01
       -2   -1    0    0    0  501  0.00000000000E+00  0.00000000000E+00  0.74878030999E+03  0.74878030999E+03  0.25500000920E-02 0. -1.
        2   -1    0    0  501    0  0.00000000000E+00  0.00000000000E+00 -0.26275909082E+04  0.26275909082E+04  0.25500000920E-02 0.  1.
    10030    2    1    2    0    0  0.00000000000E+00  0.00000000000E+00 -0.18788105982E+04  0.33763712182E+04  0.28053437114E+04 0.  0.
        2    1    3    3  502    0  0.10742220572E+04  0.89409055498E+03 -0.10825082762E+04  0.17678164828E+04  0.25500000920E-02 0.  1.
       -2    1    3    3    0  502 -0.10742220572E+04 -0.89409055498E+03 -0.79630232203E+03  0.16085547354E+04  0.25500000920E-02 0. -1.
</event>
<event>
 5   0  0.1394410E-06  0.2799384E+04  0.7818609E-02  0.8303460E-01
        2   -1    0    0  501    0  0.00000000000E+00  0.00000000000E+00  0.19406473533E+04  0.19406473533E+04  0.25500000920E-02 0. -1.
       -2   -1    0    0    0  501  0.00000000000E+00  0.00000000000E+00 -0.10095277315E+04  0.10095277315E+04  0.25500000920E-02 0.  1.
    10030    2    1    2    0    0  0.00000000000E+00  0.00000000000E+00  0.93111962174E+03  0.29501750848E+04  0.27993837324E+04 0.  0.
        4    1    3    3  502    0  0.13300731060E+04  0.12091914802E+03  0.24167603155E+02  0.13357775240E+04  0.12699999809E+01 0.  1.
       -4    1    3    3    0  502 -0.13300731060E+04 -0.12091914802E+03  0.90695201858E+03  0.16143975608E+04  0.12699999809E+01 0. -1.
</event>
<event>
 5   0  0.1439207E-06  0.2796330E+04  0.7818609E-02  0.8304409E-01
       -2   -1    0    0    0  501  0.00000000000E+00  0.00000000000E+00  0.11092655914E+04  0.11092655914E+04  0.25500000920E-02 0.  1.
        2   -1    0    0  501    0  0.00000000000E+00  0.00000000000E+00 -0.17623057561E+04  0.17623057561E+04  0.25500000920E-02 0. -1.
    10030    2    1    2    0    0  0.00000000000E+00  0.00000000000E+00 -0.65304016475E+03  0.28715713475E+04  0.27963298352E+04 0.  0.
        5    1    3    3  502    0  0.14828058833E+03 -0.14138058243E+03  0.10937588758E+04  0.11127920607E+04  0.46999998093E+01 0.  1.
       -5    1    3    3    0  502 -0.14828058833E+03  0.14138058243E+03 -0.17467990405E+04  0.17587792869E+04  0.46999998093E+01 0. -1.
</event>
<event>
 5   0  0.1439207E-06  0.2802064E+04  0.7818609E-02  0.8302628E-01
       -2   -1    0    0    0  501  0.00000000000E+00  0.00000000000E+00  0.92529544755E+03  0.92529544756E+03  0.25500000920E-02 0. -1.
        2   -1    0    0  501    0  0.00000000000E+00  0.00000000000E+00 -0.21213660751E+04  0.21213660751E+04  0.25500000920E-02 0.  1.
    10030    2    1    2    0    0  0.00000000000E+00  0.00000000000E+00 -0.11960706275E+04  0.30466615226E+04  0.28020637908E+04 0.  0.
        5    1    3    3  502    0  0.69454572441E+03  0.23270958321E+03  0.70050307334E+03  0.10135453414E+04  0.46999998093E+01 0. -1.
       -5    1    3    3    0  502 -0.69454572441E+03 -0.23270958321E+03 -0.18965737008E+04  0.20331161812E+04  0.46999998093E+01 0.  1.
</event>
<event>
 5   0  0.1394410E-06  0.2813703E+04  0.7818609E-02  0.8299027E-01
        2   -1    0    0  501    0  0.00000000000E+00  0.00000000000E+00  0.95564653301E+03  0.95564653301E+03  0.25500000920E-02 0.  1.
       -2   -1    0    0    0  501  0.00000000000E+00  0.00000000000E+00 -0.20710909350E+04  0.20710909350E+04  0.25500000920E-02 0. -1.
    10030    2    1    2    0    0  0.00000000000E+00  0.00000000000E+00 -0.11154444020E+04  0.30267374681E+04  0.28137028071E+04 0.  0.
        4    1    3    3  502    0  0.57180668916E+02  0.13716376541E+04 -0.88852769122E+03  0.16352805735E+04  0.12699999809E+01 0. -1.
       -4    1    3    3    0  502 -0.57180668916E+02 -0.13716376541E+04 -0.22691671082E+03  0.13914568946E+04  0.12699999809E+01 0.  1.
</event>
<event>
 5   0  0.4710000E-07  0.2807151E+04  0.7818609E-02  0.8301052E-01
       -3   -1    0    0    0  501  0.00000000000E+00  0.00000000000E+00  0.19006933064E+04  0.19006933091E+04  0.10100000352E+00 0.  1.
        3   -1    0    0  501    0  0.00000000000E+00  0.00000000000E+00 -0.10364765966E+04  0.10364766016E+04  0.10100000352E+00 0. -1.
    10030    2    1    2    0    0  0.00000000000E+00  0.00000000000E+00  0.86421670979E+03  0.29371699107E+04  0.28071509690E+04 0.  0.
        5    1    3    3  502    0  0.78306030957E+03  0.11992751184E+02 -0.78660389390E+03  0.11099977704E+04  0.46999998093E+01 0. -1.
       -5    1    3    3    0  502 -0.78306030957E+03 -0.11992751184E+02  0.16508206037E+04  0.18271721402E+04  0.46999998093E+01 0.  1.
</event>
<event>
 5   0  0.1461146E-06  0.2801324E+04  0.7818609E-02  0.8302857E-01
       -2   -1    0    0    0  501  0.00000000000E+00  0.00000000000E+00  0.81179326722E+03  0.81179326722E+03  0.25500000920E-02 0. -1.
        2   -1    0    0  501    0  0.00000000000E+00  0.00000000000E+00 -0.24166913557E+04  0.24166913557E+04  0.25500000920E-02 0.  1.
    10030    2    1    2    0    0  0.00000000000E+00  0.00000000000E+00 -0.16048980885E+04  0.32284846230E+04  0.28013238096E+04 0.  0.
        1    1    3    3  502    0 -0.78636141248E+03 -0.11999364748E+03  0.52620762667E+03  0.95375951521E+03  0.50400001928E-02 0. -1.
       -1    1    3    3    0  502  0.78636141248E+03  0.11999364748E+03 -0.21311057152E+04  0.22747251078E+04  0.50400001928E-02 0.  1.
</event>
<event>
 5   0  0.5214658E-07  0.2798072E+04  0.7818609E-02  0.8303867E-01
       -1   -1    0    0    0  501  0.00000000000E+00  0.00000000000E+00  0.95402774109E+03  0.95402774110E+03  0.50400001928E-02 0.  1.
        1   -1    0    0  501    0  0.00000000000E+00  0.00000000000E+00 -0.20516187117E+04  0.20516187117E+04  0.50400001928E-02 0. -1.
    10030    2    1    2    0    0  0.00000000000E+00  0.00000000000E+00 -0.10975909706E+04  0.30056464528E+04  0.27980715967E+04 0.  0.
        2    1    3    3  502    0  0.20008612640E+01  0.10218332939E+04 -0.15752768182E+04  0.18776699225E+04  0.25500000920E-02 0. -1.
       -2    1    3    3    0  502 -0.20008612640E+01 -0.10218332939E+04  0.47768584756E+03  0.11279765303E+04  0.25500000920E-02 0.  1.
</event>
<event>
 5   0  0.1499888E-06  0.2809876E+04  0.7818609E-02  0.8300209E-01
       -2   -1    0    0    0  501  0.00000000000E+00  0.00000000000E+00  0.15376328183E+04  0.15376328183E+04  0.25500000920E-02 0. -1.
        2   -1    0    0  501    0  0.00000000000E+00  0.00000000000E+00 -0.12836946871E+04  0.12836946871E+04  0.25500000920E-02 0.  1.
    10030    2    1    2    0    0  0.00000000000E+00  0.00000000000E+00  0.25393813122E+03  0.28213275055E+04  0.28098762106E+04 0.  0.
        3    1    3    3  502    0  0.10718771120E+04  0.85939595455E+03  0.42205299747E+03  0.14372232578E+04  0.10100000352E+00 0. -1.
       -3    1    3    3    0  502 -0.10718771120E+04 -0.85939595455E+03 -0.16811486624E+03  0.13841042477E+04  0.10100000352E+00 0.  1.
</event>
<event>
 5   0  0.5282098E-07  0.2800532E+04  0.7818609E-02  0.8303103E-01
        1   -1    0    0  501    0  0.00000000000E+00  0.00000000000E+00  0.18014343355E+04  0.18014343355E+04  0.50400001928E-02 0. -1.
       -1   -1    0    0    0  501  0.00000000000E+00  0.00000000000E+00 -0.10884350147E+04  0.10884350147E+04  0.50400001928E-02 0.  1.
    10030    2    1    2    0    0  0.00000000000E+00  0.00000000000E+00  0.71299932079E+03  0.28898693502E+04  0.28005315263E+04 0.  0.
        4    1    3    3  502    0 -0.13181441130E+04  0.47080243048E+03  0.39756570459E+03  0.14550666423E+04  0.12699999809E+01 0. -1.
       -4    1    3    3    0  502  0.13181441130E+04 -0.47080243048E+03  0.31543361620E+03  0.14348027078E+04  0.12699999809E+01 0.  1.
</event>
<event>
 5   0  0.5362952E-07  0.2800811E+04  0.7818609E-02  0.8303017E-01
        1   -1    0    0  501    0  0.00000000000E+00  0.00000000000E+00  0.24138084823E+04  0.24138084823E+04  0.50400001928E-02 0. -1.
       -1   -1    0    0    0  501  0.00000000000E+00  0.00000000000E+00 -0.81246501914E+03  0.81246501916E+03  0.50400001928E-02 0.  1.
    10030    2    1    2    0    0  0.00000000000E+00  0.00000000000E+00  0.16013434632E+04  0.32262735015E+04  0.28008105647E+04 0.  0.
        1    1    3    3  502    0 -0.16004426361E+03 -0.85030828713E+03  0.20690760469E+04  0.22427023961E+04  0.50400001928E-02 0. -1.
       -1    1    3    3    0  502  0.16004426361E+03  0.85030828713E+03 -0.46773258373E+03  0.98357110540E+03  0.50400001928E-02 0.  1.
</event>
<event>
 5   0  0.5297741E-07  0.2797362E+04  0.7818609E-02  0.8304088E-01
        1   -1    0    0  501    0  0.00000000000E+00  0.00000000000E+00  0.20931049272E+04  0.20931049272E+04  0.50400001928E-02 0.  1.
       -1   -1    0    0    0  501  0.00000000000E+00  0.00000000000E+00 -0.93464409668E+03  0.93464409669E+03  0.50400001928E-02 0. -1.
    10030    2    1    2    0    0  0.00000000000E+00  0.00000000000E+00  0.11584608305E+04  0.30277490239E+04  0.27973617313E+04 0.  0.
        5    1    3    3  502    0  0.26971052447E+03  0.61512198873E+03  0.19071250708E+04  0.20219463281E+04  0.46999998093E+01 0.  1.
       -5    1    3    3    0  502 -0.26971052447E+03 -0.61512198873E+03 -0.74866424033E+03  0.10058026958E+04  0.46999998093E+01 0. -1.
</event>
<event>
 5   0  0.1394410E-06  0.2796099E+04  0.7818609E-02  0.8304480E-01
        2   -1    0    0  501    0  0.00000000000E+00  0.00000000000E+00  0.20809658666E+04  0.20809658666E+04  0.25500000920E-02 0. -1.
       -2   -1    0    0    0  501  0.00000000000E+00  0.00000000000E+00 -0.93924801869E+03  0.93924801869E+03  0.25500000920E-02 0.  1.
    10030    2    1    2    0    0  0.00000000000E+00  0.00000000000E+00  0.11417178479E+04  0.30202138853E+04  0.27960994740E+04 0.  0.
        4    1    3    3  502    0  0.23199810591E+03  0.35455076063E+02  0.20595353238E+04  0.20728645750E+04  0.12699999809E+01 0. -1.
       -4    1    3    3    0  502 -0.23199810591E+03 -0.35455076063E+02 -0.91781747592E+03  0.94734931022E+03  0.12699999809E+01 0.  1.
</event>
<event>
 5   0  0.5214658E-07  0.2792800E+04  0.7818609E-02  0.8305507E-01
        1   -1    0    0  501    0  0.00000000000E+00  0.00000000000E+00  0.25791902273E+04  0.25791902273E+04  0.50400001928E-02 0.  1.
       -1   -1    0    0    0  501  0.00000000000E+00  0.00000000000E+00 -0.75602518861E+03  0.75602518863E+03  0.50400001928E-02 0. -1.
    10030    2    1    2    0    0  0.00000000000E+00  0.00000000000E+00  0.18231650387E+04  0.33352154159E+04  0.27927998697E+04 0.  0.
        2    1    3    3  502    0  0.12506958620E+04  0.44989972266E+03  0.40031874458E+03  0.13881300361E+04  0.25500000920E-02 0. -1.
       -2    1    3    3    0  502 -0.12506958620E+04 -0.44989972266E+03  0.14228462941E+04  0.19470853799E+04  0.25500000920E-02 0.  1.
</event>
<event>
 5   0  0.1377807E-06  0.2803430E+04  0.7818609E-02  0.8302204E-01
       -2   -1    0    0    0  501  0.00000000000E+00  0.00000000000E+00  0.10136859974E+04  0.10136859974E+04  0.25500000920E-02 0. -1.
        2   -1    0    0  501    0  0.00000000000E+00  0.00000000000E+00 -0.19382775245E+04  0.19382775245E+04  0.25500000920E-02 0.  1.
    10030    2    1    2    0    0  0.00000000000E+00  0.00000000000E+00 -0.92459152718E+03  0.29519635219E+04  0.28034298890E+04 0.  0.
        2    1    3    3  502    0 -0.11087318159E+04 -0.59300031083E+03  0.19010266780E+03  0.12716424940E+04  0.25500000920E-02 0. -1.
       -2    1    3    3    0  502  0.11087318159E+04  0.59300031083E+03 -0.11146941950E+04  0.16803210279E+04  0.25500000920E-02 0.  1.
</event>
<event>
 5   0  0.1461146E-06  0.2808802E+04  0.7818609E-02  0.8300541E-01
        2   -1    0    0  501    0  0.00000000000E+00  0.00000000000E+00  0.17177200465E+04  0.17177200465E+04  0.25500000920E-02 0. -1.
       -2   -1    0    0    0  501  0.00000000000E+00  0.00000000000E+00 -0.11482326289E+04  0.11482326289E+04  0.25500000920E-02 0.  1.
    10030    2    1    2    0    0  0.00000000000E+00  0.00000000000E+00  0.56948741760E+03  0.28659526755E+04  0.28088020256E+04 0.  0.
        1    1    3    3  502    0 -0.11207633252E+03 -0.63385389863E+03 -0.98885629680E+03  0.11799019641E+04  0.50400001928E-02 0.  1.
       -1    1    3    3    0  502  0.11207633252E+03  0.63385389863E+03  0.15583437144E+04  0.16860507114E+04  0.50400001928E-02 0. -1.
</event>
<event>
 5   0  0.1439207E-06  0.2802895E+04  0.7818609E-02  0.8302370E-01
        2   -1    0    0  501    0  0.00000000000E+00  0.00000000000E+00  0.10191557649E+04  0.10191557649E+04  0.25500000920E-02 0.  1.
       -2   -1    0    0    0  501  0.00000000000E+00  0.00000000000E+00 -0.19271386636E+04  0.19271386636E+04  0.25500000920E-02 0. -1.
    10030    2    1    2    0    0  0.00000000000E+00  0.00000000000E+00 -0.90798289874E+03  0.29462944285E+04  0.28028945601E+04 0.  0.
        5    1    3    3  502    0  0.29311308797E+03 -0.91116924630E+03 -0.15300273405E+04  0.18047577207E+04  0.46999998093E+01 0. -1.
       -5    1    3    3    0  502 -0.29311308797E+03  0.91116924630E+03  0.62204444179E+03  0.11415367078E+04  0.46999998093E+01 0.  1.
</event>
<event>
 5   0  0.5214658E-07  0.2798173E+04  0.7818609E-02  0.8303836E-01
        1   -1    0    0  501    0  0.00000000000E+00  0.00000000000E+00  0.15576738560E+04  0.15576738560E+04  0.50400001928E-02 0. -1.
       -1   -1    0    0    0  501  0.00000000000E+00  0.00000000000E+00 -0.12566452629E+04  0.12566452629E+04  0.50400001928E-02 0.  1.
    10030    2    1    2    0    0  0.00000000000E+00  0.00000000000E+00  0.30102859311E+03  0.28143191189E+04  0.27981733129E+04 0.  0.
        2    1    3    3  502    0 -0.92945773898E+03  0.37078467652E+02  0.12016172061E+04  0.15195888955E+04  0.25500000920E-02 0. -1.
       -2    1    3    3    0  502  0.92945773898E+03 -0.37078467652E+02 -0.90058861303E+03  0.12947302233E+04  0.25500000920E-02 0.  1.
</event>
<event>
 5   0  0.5282098E-07  0.2811148E+04  0.7818609E-02  0.8299816E-01
       -1   -1    0    0    0  501  0.00000000000E+00  0.00000000000E+00  0.11275128463E+04  0.11275128463E+04  0.50400001928E-02 0. -1.
        1   -1    0    0  501    0  0.00000000000E+00  0.00000000000E+00 -0.17522090402E+04  0.17522090402E+04  0.50400001928E-02 0.  1.
    10030    2    1    2    0    0  0.00000000000E+00  0.00000000000E+00 -0.62469619388E+03  0.28797218866E+04  0.28111479522E+04 0.  0.
        4    1    3    3  502    0  0.62344046494E+03 -0.12546933038E+04 -0.19688985467E+03  0.14148146620E+04  0.12699999809E+01 0.  1.
       -4    1    3    3    0  502 -0.62344046494E+03  0.12546933038E+04 -0.42780633921E+03  0.14649072246E+04  0.12699999809E+01 0. -1.
</event>
<event>
 5   0  0.1394410E-06  0.2795864E+04  0.7818609E-02  0.8304554E-01
        2   -1    0    0  501    0  0.00000000000E+00  0.00000000000E+00  0.19092081389E+04  0.19092081389E+04  0.25500000920E-02 0.  1.
       -2   -1    0    0    0  501  0.00000000000E+00  0.00000000000E+00 -0.10235730401E+04  0.10235730401E+04  0.25500000920E-02 0. -1.
    10030    2    1    2    0    0  0.00000000000E+00  0.00000000000E+00  0.88563509886E+03  0.29327811790E+04  0.27958640731E+04 0.  0.
        4    1    3    3  502    0 -0.10831750301E+04  0.79409589805E+03  0.36070997266E+02  0.13435621202E+04  0.12699999809E+01 0. -1.
       -4    1    3    3    0  502  0.10831750301E+04 -0.79409589805E+03  0.84956410159E+03  0.15892190588E+04  0.12699999809E+01 0.  1.
</event>
<event>
 5   0  0.1499888E-06  0.2797081E+04  0.7818609E-02  0.8304175E-01
       -2   -1    0    0    0  501  0.00000000000E+00  0.00000000000E+00  0.12690764490E+04  0.12690764490E+04  0.25500000920E-02 0.  1.
        2   -1    0    0  501    0  0.00000000000E+00  0.00000000000E+00 -0.15412117680E+04  0.15412117680E+04  0.25500000920E-02 0. -1.
    10030    2    1    2    0    0  0.00000000000E+00  0.00000000000E+00 -0.27213531895E+03  0.28102882170E+04  0.27970810197E+04 0.  0.
        3    1    3    3  502    0 -0.63602956645E+01  0.87596483687E+03 -0.12314267051E+04  0.15112136146E+04  0.10100000352E+00 0. -1.
       -3    1    3    3    0  502  0.63602956645E+01 -0.87596483687E+03  0.95929138614E+03  0.12990746024E+04  0.10100000352E+00 0.  1.
</event>
<event>
 5   0  0.5362952E-07  0.2799174E+04  0.7818609E-02  0.8303525E-01
        1   -1    0    0  501    0  0.00000000000E+00  0.00000000000E+00  0.17820929009E+04  0.17820929009E+04  0.50400001928E-02 0. -1.
       -1   -1    0    0    0  501  0.00000000000E+00  0.00000000000E+00 -0.10991814588E+04  0.10991814588E+04  0.50400001928E-02 0.  1.
    10030    2    1    2    0    0  0.00000000000E+00  0.00000000000E+00  0.68291144206E+03  0.28812743597E+04  0.27991737885E+04 0.  0.
        1    1    3    3  502    0 -0.44343255133E+02 -0.78622911112E+03 -0.84951141953E+03  0.11583575404E+04  0.50400001928E-02 0.  1.
       -1    1    3    3    0  502  0.44343255133E+02  0.78622911112E+03  0.15324228616E+04  0.17229168193E+04  0.50400001928E-02 0. -1.
</event>
<event>
 5   0  0.5551565E-07  0.2804597E+04  0.7818609E-02  0.8301843E-01
       -1   -1    0    0    0  501  0.00000000000E+00  0.00000000000E+00  0.81723558890E+03  0.81723558891E+03  0.50400001928E-02 0.  1.
        1   -1    0    0  501    0  0.00000000000E+00  0.00000000000E+00 -0.24062104063E+04  0.24062104063E+04  0.50400001928E-02 0. -1.
    10030    2    1    2    0    0  0.00000000000E+00  0.00000000000E+00 -0.15889748174E+04  0.32234459952E+04  0.28045967828E+04 0.  0.
        3    1    3    3  502    0  0.10235991096E+04 -0.92963206584E+03 -0.10627302063E+04  0.17439513802E+04  0.10100000352E+00 0. -1.
       -3    1    3    3    0  502 -0.10235991096E+04  0.92963206584E+03 -0.52624461113E+03  0.14794946150E+04  0.10100000352E+00 0.  1.
</event>
<event>
 5   0  0.5214658E-07  0.2799411E+04  0.7818609E-02  0.8303451E-01
       -1   -1    0    0    0  501  0.00000000000E+00  0.00000000000E+00  0.24932977037E+04  0.24932977037E+04  0.50400001928E-02 0. -1.
        1   -1    0    0  501    0  0.00000000000E+00  0.00000000000E+00 -0.78577661554E+03  0.78577661556E+03  0.50400001928E-02 0.  1.
    10030    2    1    2    0    0  0.00000000000E+00  0.00000000000E+00  0.17075210882E+04  0.32790743193E+04  0.27994106745E+04 0.  0.
        2    1    3    3  502    0 -0.13320158517E+04  0.34479471783E+03  0.11547423064E+04  0.17962681929E+04  0.25500000920E-02 0.  1.
       -2    1    3    3    0  502  0.13320158517E+04 -0.34479471783E+03  0.55277878173E+03  0.14828061263E+04  0.25500000920E-02 0. -1.
</event>
<event>
 5   0  0.5214658E-07  0.2807336E+04  0.7818609E-02  0.8300995E-01
        1   -1    0    0  501    0  0.00000000000E+00  0.00000000000E+00  0.15754888738E+04  0.15754888738E+04  0.50400001928E-02 0.  1.
       -1   -1    0    0    0  501  0.00000000000E+00  0.00000000000E+00 -0.12505854562E+04  0.12505854562E+04  0.50400001928E-02 0. -1.
    10030    2    1    2    0    0  0.00000000000E+00  0.00000000000E+00  0.32490341766E+03  0.28260743300E+04  0.28073357277E+04 0.  0.
        2    1    3    3  502    0 -0.20739119590E+03 -0.73420322725E+02  0.15580247351E+04  0.15734810857E+04  0.25500000920E-02 0.  1.
       -2    1    3    3    0  502  0.20739119590E+03  0.73420322725E+02 -0.12331213175E+04  0.12525932442E+04  0.25500000920E-02 0. -1.
</event>
<event>
 5   0  0.1439207E-06  0.2797302E+04  0.7818609E-02  0.8304106E-01
       -2   -1    0    0    0  501  0.00000000000E+00  0.00000000000E+00  0.14901184307E+04  0.14901184307E+04  0.25500000920E-02 0.  1.
        2   -1    0    0  501    0  0.00000000000E+00  0.00000000000E+00 -0.13127983011E+04  0.13127983011E+04  0.25500000920E-02 0. -1.
    10030    2    1    2    0    0  0.00000000000E+00  0.00000000000E+00  0.17732012957E+03  0.28029167318E+04  0.27973022320E+04 0.  0.
        5    1    3    3  502    0  0.11188515300E+03 -0.91055357759E+03 -0.96919408430E+03  0.13345356376E+04  0.46999998093E+01 0. -1.
       -5    1    3    3    0  502 -0.11188515300E+03  0.91055357759E+03  0.11465142139E+04  0.14683810942E+04  0.46999998093E+01 0.  1.
</event>
<event>
 5   0  0.5297741E-07  0.2803196E+04  0.7818609E-02  0.8302277E-01
        1   -1    0    0  501    0  0.00000000000E+00  0.00000000000E+00  0.13020793825E+04  0.13020793825E+04  0.50400001928E-02 0.  1.
       -1   -1    0    0    0  501  0.00000000000E+00  0.00000000000E+00 -0.15087227427E+04  0.15087227427E+04  0.50400001928E-02 0. -1.
    10030    2    1    2    0    0  0.00000000000E+00  0.00000000000E+00 -0.20664336014E+03  0.28108021252E+04  0.28031958742E+04 0.  0.
        5    1    3    3  502    0 -0.21728899529E+03  0.12532018089E+04 -0.69375337193E+03  0.14488081697E+04  0.46999998093E+01 0.  1.
       -5    1    3    3    0  502  0.21728899529E+03 -0.12532018089E+04  0.48711001179E+03  0.13619939556E+04  0.46999998093E+01 0. -1.
</event>
<event>
 5   0  0.5551565E-07  0.2797608E+04  0.7818609E-02  0.8304011E-01
        1   -1    0    0  501    0  0.00000000000E+00  0.00000000000E+00  0.10648127488E+04  0.10648127488E+04  0.50400001928E-02 0. -1.
       -1   -1    0    0    0  501  0.00000000000E+00  0.00000000000E+00 -0.18375550772E+04  0.18375550772E+04  0.50400001928E-02 0.  1.
    10030    2    1    2    0    0  0.00000000000E+00  0.00000000000E+00 -0.77274232848E+03  0.29023678260E+04  0.27976076014E+04 0.  0.
        3    1    3    3  502    0 -0.15741832778E+03  0.95741621034E+03 -0.14316856297E+04  0.17294941695E+04  0.10100000352E+00 0.  1.
       -3    1    3    3    0  502  0.15741832778E+03 -0.95741621034E+03  0.65894330124E+03  0.11728736565E+04  0.10100000352E+00 0. -1.
</event>
<event>
 5   0  0.5297741E-07  0.2796550E+04  0.7818609E-02  0.8304340E-01
        1   -1    0    0  501    0  0.00000000000E+00  0.00000000000E+00  0.16395557928E+04  0.16395557928E+04  0.50400001928E-02 0. -1.
       -1   -1    0    0    0  501  0.00000000000E+00  0.00000000000E+00 -0.11925020379E+04  0.11925020379E+04  0.50400001928E-02 0.  1.
    10030    2    1    2    0    0  0.00000000000E+00  0.00000000000E+00  0.44705375487E+03  0.28320578307E+04  0.27965504638E+04 0.  0.
        5    1    3    3  502    0 -0.55140375219E+03  0.10278191095E+04  0.10044818327E+04  0.15393063574E+04  0.46999998093E+01 0. -1.
       -5    1    3    3    0  502  0.55140375219E+03 -0.10278191095E+04 -0.55742807778E+03  0.12927514733E+04  0.46999998093E+01 0.  1.
</event>
<event>
 5   0  0.5362952E-07  0.2788284E+04  0.7818609E-02  0.8306915E-01
        1   -1    0    0  501    0  0.00000000000E+00  0.00000000000E+00  0.13214941864E+04  0.13214941864E+04  0.50400001928E-02 0.  1.
       -1   -1    0    0    0  501  0.00000000000E+00  0.00000000000E+00 -0.14707840456E+04  0.14707840456E+04  0.50400001928E-02 0. -1.
    10030    2    1    2    0    0  0.00000000000E+00  0.00000000000E+00 -0.14928985913E+03  0.27922782320E+04  0.27882844659E+04 0.  0.
        1    1    3    3  502    0 -0.54826332249E+03  0.11760925467E+04 -0.58512619747E+03  0.14234321256E+04  0.50400001928E-02 0. -1.
       -1    1    3    3    0  502  0.54826332249E+03 -0.11760925467E+04  0.43583633835E+03  0.13688461064E+04  0.50400001928E-02 0.  1.
</event>
<event>
 5   0  0.1377807E-06  0.2796183E+04  0.7818609E-02  0.8304454E-01
        2   -1    0    0  501    0  0.00000000000E+00  0.00000000000E+00  0.15136993017E+04  0.15136993017E+04  0.25500000920E-02 0. -1.
       -2   -1    0    0    0  501  0.00000000000E+00  0.00000000000E+00 -0.12913130748E+04  0.12913130748E+04  0.25500000920E-02 0.  1.
    10030    2    1    2    0    0  0.00000000000E+00  0.00000000000E+00  0.22238622688E+03  0.28050123765E+04  0.27961828979E+04 0.  0.
        2    1    3    3  502    0  0.10984657182E+03 -0.13838685861E+04  0.27755152550E+03  0.14156953706E+04  0.25500000920E-02 0. -1.
       -2    1    3    3    0  502 -0.10984657182E+03  0.13838685861E+04 -0.55165298619E+02  0.13893170060E+04  0.25500000920E-02 0.  1.
</event>
<event>
 5   0  0.1461146E-06  0.2803036E+04  0.7818609E-02  0.8302327E-01
        2   -1    0    0  501    0  0.00000000000E+00  0.00000000000E+00  0.25272940781E+04  0.25272940781E+04  0.25500000920E-02 0.  1.
       -2   -1    0    0    0  501  0.00000000000E+00  0.00000000000E+00 -0.77721546212E+03  0.77721546212E+03  0.25500000920E-02 0. -1.
    10030    2    1    2    0    0  0.00000000000E+00  0.00000000000E+00  0.17500786160E+04  0.33045095402E+04  0.28030355223E+04 0.  0.
        1    1    3    3  502    0 -0.28164244479E+03 -0.13724772682E+04  0.91648103294E+03  0.16742024376E+04  0.50400001928E-02 0.  1.
       -1    1    3    3    0  502  0.28164244479E+03  0.13724772682E+04  0.83359758306E+03  0.16303071026E+04  0.50400001928E-02 0. -1.
</event>
<event>
 5   0  0.5297741E-07  0.2802377E+04  0.7818609E-02  0.8302531E-01
       -1   -1    0    0    0  501  0.00000000000E+00  0.00000000000E+00  0.91353579008E+03  0.91353579010E+03  0.50400001928E-02 0. -1.
        1   -1    0    0  501    0  0.00000000000E+00  0.00000000000E+00 -0.21491534162E+04  0.21491534162E+04  0.50400001928E-02 0.  1.
    10030    2    1    2    0    0  0.00000000000E+00  0.00000000000E+00 -0.12356176261E+04  0.30626892063E+04  0.28023765372E+04 0.  0.
        5    1    3    3  502    0  0.89305029343E+02  0.12476801263E+04  0.72206799487E+02  0.12529632867E+04  0.46999998093E+01 0. -1.
       -5    1    3    3    0  502 -0.89305029343E+02 -0.12476801263E+04 -0.13078244256E+04  0.18097259196E+04  0.46999998093E+01 0.  1.
</event>
<event>
 5   0  0.5214658E-07  0.2803135E+04  0.7818609E-02  0.8302296E-01
        1   -1    0    0  501    0  0.00000000000E+00  0.00000000000E+00  0.19533510906E+04  0.19533510906E+04  0.50400001928E-02 0. -1.
       -1   -1    0    0    0  501  0.00000000000E+00  0.00000000000E+00 -0.10056523079E+04  0.10056523079E+04  0.50400001928E-02 0.  1.
    10030    2    1    2    0    0  0.00000000000E+00  0.00000000000E+00  0.94769878271E+03  0.29590033984E+04  0.28031354104E+04 0.  0.
        2    1    3    3  502    0 -0.55244187293E+03  0.12737546025E+04  0.67620975916E+03  0.15443129375E+04  0.25500000920E-02 0.  1.
       -2    1    3    3    0  502  0.55244187293E+03 -0.12737546025E+04  0.27148902355E+03  0.14146904610E+04  0.25500000920E-02 0. -1.
</event>
<event>
 5   0  0.5551565E-07  0.2801561E+04  0.7818609E-02  0.8302784E-01
        1   -1    0    0  501    0  0.00000000000E+00  0.00000000000E+00  0.17246993452E+04  0.17246993452E+04  0.50400001928E-02 0.  1.
       -1   -1    0    0    0  501  0.00000000000E+00  0.00000000000E+00 -0.11376972116E+04  0.11376972116E+04  0.50400001928E-02 0. -1.
    10030    2    1    2    0    0  0.00000000000E+00  0.00000000000E+00  0.58700213358E+03  0.28623965568E+04  0.28015607335E+04 0.  0.
        3    1    3    3  502    0  0.79752663271E+03  0.10578836522E+04 -0.17137259376E+03  0.13358649361E+04  0.10100000352E+00 0. -1.
       -3    1    3    3    0  502 -0.79752663271E+03 -0.10578836522E+04  0.75837472733E+03  0.15265316206E+04  0.10100000352E+00 0.  1.
</event>
<event>
 5   0  0.1377807E-06  0.2799478E+04  0.7818609E-02  0.8303430E-01
       -2   -1    0    0    0  501  0.00000000000E+00  0.00000000000E+00  0.12879363520E+04  0.12879363520E+04  0.25500000920E-02 0. -1.
        2   -1    0    0  501    0  0.00000000000E+00  0.00000000000E+00 -0.15212473854E+04  0.15212473854E+04  0.25500000920E-02 0.  1.
    10030    2    1    2    0    0  0.00000000000E+00  0.00000000000E+00 -0.23331103335E+03  0.28091837374E+04  0.27994783857E+04 0.  0.
        2    1    3    3  502    0 -0.46653835176E+02  0.26001495799E+03  0.12626955109E+04  0.12900326787E+04  0.25500000920E-02 0. -1.
       -2    1    3    3    0  502  0.46653835176E+02 -0.26001495799E+03 -0.14960065443E+04  0.15191510587E+04  0.25500000920E-02 0.  1.
</event>
<event>
 5   0  0.1461146E-06  0.2802171E+04  0.7818609E-02  0.8302595E-01
       -2   -1    0    0    0  501  0.00000000000E+00  0.00000000000E+00  0.84506813668E+03  0.84506813669E+03  0.25500000920E-02 0.  1.
        2   -1    0    0  501    0  0.00000000000E+00  0.00000000000E+00 -0.23229379005E+04  0.23229379006E+04  0.25500000920E-02 0. -1.
    10030    2    1    2    0    0  0.00000000000E+00  0.00000000000E+00 -0.14778697639E+04  0.31680060372E+04  0.28021711606E+04 0.  0.
        1    1    3    3  502    0  0.37700047264E+03 -0.86632647513E+03  0.43073239412E+03  0.10383550998E+04  0.50400001928E-02 0.  1.
       -1    1    3    3    0  502 -0.37700047264E+03  0.86632647513E+03 -0.19086021580E+04  0.21296509375E+04  0.50400001928E-02 0. -1.
</event>
<event>
 5   0  0.5362952E-07  0.2804478E+04  0.7818609E-02  0.8301879E-01
        1   -1    0    0  501    0  0.00000000000E+00  0.00000000000E+00  0.21679146052E+04  0.21679146052E+04  0.50400001928E-02 0. -1.
       -1   -1    0    0    0  501  0.00000000000E+00  0.00000000000E+00 -0.90698903502E+03  0.90698903503E+03  0.50400001928E-02 0.  1.
    10030    2    1    2    0    0  0.00000000000E+00  0.00000000000E+00  0.12609255702E+04  0.30749036402E+04  0.28044784013E+04 0.  0.
        1    1    3    3  502    0  0.13281100837E+04  0.27237463845E+03  0.23787109548E+03  0.13764617671E+04  0.50400001928E-02 0. -1.
       -1    1    3    3    0  502 -0.13281100837E+04 -0.27237463845E+03  0.10230544747E+04  0.16984418731E+04  0.50400001928E-02 0.  1.
</event>
<event>
 5   0  0.1377807E-06  0.2792564E+04  0.7818609E-02  0.8305581E-01
        2   -1    0    0  501    0  0.00000000000E+00  0.00000000000E+00  0.25988690200E+04  0.25988690200E+04  0.25500000920E-02 0. -1.
       -2   -1    0    0    0  501  0.00000000000E+00  0.00000000000E+00 -0.75017363846E+03  0.75017363847E+03  0.25500000920E-02 0.  1.
    10030    2    1    2    0    0  0.00000000000E+00  0.00000000000E+00  0.18486953815E+04  0.33490426584E+04  0.27925637172E+04 0.  0.
        2    1    3    3  502    0 -0.70987597737E+03 -0.12023109039E+04  0.91079986772E+03  0.16670428345E+04  0.25500000920E-02 0. -1.
       -2    1    3    3    0  502  0.70987597737E+03  0.12023109039E+04  0.93789551377E+03  0.16819998239E+04  0.25500000920E-02 0.  1.
</event>
<event>
 5   0  0.5282098E-07  0.2790180E+04  0.7818609E-02  0.8306324E-01
        1   -1    0    0  501    0  0.00000000000E+00  0.00000000000E+00  0.12897670575E+04  0.12897670575E+04  0.50400001928E-02 0. -1.
       -1   -1    0    0    0  501  0.00000000000E+00  0.00000000000E+00 -0.15090135906E+04  0.15090135906E+04  0.50400001928E-02 0.  1.
    10030    2    1    2    0    0  0.00000000000E+00  0.00000000000E+00 -0.21924653306E+03  0.27987806481E+04  0.27901799358E+04 0.  0.
        4    1    3    3  502    0 -0.55278738384E+03 -0.11303200923E+03 -0.13894575839E+04  0.14996479978E+04  0.12699999809E+01 0.  1.
       -4    1    3    3    0  502  0.55278738384E+03  0.11303200923E+03  0.11702110508E+04  0.12991326504E+04  0.12699999809E+01 0. -1.
</event>
<event>
 5   0  0.5551565E-07  0.2801318E+04  0.7818609E-02  0.8302859E-01
       -1   -1    0    0    0  501  0.00000000000E+00  0.00000000000E+00  0.11460420542E+04  0.11460420542E+04  0.50400001928E-02 0. -1.
        1   -1    0    0  501    0  0.00000000000E+00  0.00000000000E+00 -0.17118447422E+04  0.17118447422E+04  0.50400001928E-02 0.  1.
    10030    2    1    2    0    0  0.00000000000E+00  0.00000000000E+00 -0.56580268801E+03  0.28578867964E+04  0.28013183074E+04 0.  0.
        3    1    3    3  502    0 -0.49265338874E+03 -0.38339606170E+03  0.99627088172E+03  0.11756936597E+04  0.10100000352E+00 0. -1.
       -3    1    3    3    0  502  0.49265338874E+03  0.38339606170E+03 -0.15620735697E+04  0.16821931367E+04  0.10100000352E+00 0.  1.
</event>
<event>
 5   0  0.1439207E-06  0.2798269E+04  0.7818609E-02  0.8303806E-01
        2   -1    0    0  501    0  0.00000000000E+00  0.00000000000E+00  0.17398859087E+04  0.17398859087E+04  0.25500000920E-02 0. -1.
       -2   -1    0    0    0  501  0.00000000000E+00  0.00000000000E+00 -0.11251184270E+04  0.11251184270E+04  0.25500000920E-02 0.  1.
    10030    2    1    2    0    0  0.00000000000E+00  0.00000000000E+00  0.61476748171E+03  0.28650043357E+04  0.27982692485E+04 0.  0.
        5    1    3    3  502    0 -0.11061775185E+04 -0.20937071380E+03 -0.54314482651E+03  0.12499972763E+04  0.46999998093E+01 0.  1.
       -5    1    3    3    0  502  0.11061775185E+04  0.20937071380E+03  0.11579123082E+04  0.16150070594E+04  0.46999998093E+01 0. -1.
</event>
<event>
 5   0  0.1377807E-06  0.2803866E+04  0.7818609E-02  0.8302069E-01
       -2   -1    0    0    0  501  0.00000000000E+00  0.00000000000E+00  0.24799986416E+04  0.24799986416E+04  0.25500000920E-02 0. -1.
        2   -1    0    0  501    0  0.00000000000E+00  0.00000000000E+00 -0.79250713600E+03  0.79250713601E+03  0.25500000920E-02 0.  1.
    10030    2    1    2    0    0  0.00000000000E+00  0.00000000000E+00  0.16874915056E+04  0.32725057776E+04  0.28038663454E+04 0.  0.
        2    1    3    3  502    0  0.99754088336E+03  0.90340808184E+03  0.38545524814E+03  0.13999320429E+04  0.25500000920E-02 0. -1.
       -2    1    3    3    0  502 -0.99754088336E+03 -0.90340808184E+03  0.13020362575E+04  0.18725737347E+04  0.25500000920E-02 0.  1.
</event>
<event>
 5   0  0.4710000E-07  0.2804213E+04  0.7818609E-02  0.8301962E-01
       -3   -1    0    0    0  501  0.00000000000E+00  0.00000000000E+00  0.93857379732E+03  0.93857380275E+03  0.10100000352E+00 0.  1.
        3   -1    0    0  501    0  0.00000000000E+00  0.00000000000E+00 -0.20945631031E+04  0.20945631055E+04  0.10100000352E+00 0. -1.
    10030    2    1    2    0    0  0.00000000000E+00  0.00000000000E+00 -0.11559893058E+04  0.30331369083E+04  0.28042125863E+04 0.  0.
        3    1    3    3  502    0 -0.76273202399E+03  0.11505621850E+04 -0.84370872424E+03  0.16178374157E+04  0.10100000352E+00 0.  1.
       -3    1    3    3    0  502  0.76273202399E+03 -0.11505621850E+04 -0.31228058152E+03  0.14152994926E+04  0.10100000352E+00 0. -1.
</event>
<event>
 5   0  0.5297741E-07  0.2802053E+04  0.7818609E-02  0.8302631E-01
       -1   -1    0    0    0  501  0.00000000000E+00  0.00000000000E+00  0.82087703860E+03  0.82087703861E+03  0.50400001928E-02 0. -1.
        1   -1    0    0  501    0  0.00000000000E+00  0.00000000000E+00 -0.23911925500E+04  0.23911925500E+04  0.50400001928E-02 0.  1.
    10030    2    1    2    0    0  0.00000000000E+00  0.00000000000E+00 -0.15703155114E+04  0.32120695886E+04  0.28020528612E+04 0.  0.
        5    1    3    3  502    0  0.31846164098E+03 -0.30218685671E+03 -0.23102979334E+04  0.23516448168E+04  0.46999998093E+01 0.  1.
       -5    1    3    3    0  502 -0.31846164098E+03  0.30218685671E+03  0.73998242200E+03  0.86042477185E+03  0.46999998093E+01 0. -1.
</event>
<event>
 5   0  0.5214658E-07  0.2787404E+04  0.7818609E-02  0.8307190E-01
        1   -1    0    0  501    0  0.00000000000E+00  0.00000000000E+00  0.18402904881E+04  0.18402904881E+04  0.50400001928E-02 0.  1.
       -1   -1    0    0    0  501  0.00000000000E+00  0.00000000000E+00 -0.10554885367E+04  0.10554885368E+04  0.50400001928E-02 0. -1.
    10030    2    1    2    0    0  0.00000000000E+00  0.00000000000E+00  0.78480195132E+03  0.28957790248E+04  0.27874041791E+04 0.  0.
        2    1    3    3  502    0 -0.19675895094E+02  0.13561042368E+04  0.58987312505E+02  0.13575291323E+04  0.25500000920E-02 0. -1.
       -2    1    3    3    0  502  0.19675895094E+02 -0.13561042368E+04  0.72581463882E+03  0.15382498925E+04  0.25500000920E-02 0.  1.
</event>
<event>
 5   0  0.5362952E-07  0.2798447E+04  0.7818609E-02  0.8303751E-01
       -1   -1    0    0    0  501  0.00000000000E+00  0.00000000000E+00  0.13274808574E+04  0.13274808574E+04  0.50400001928E-02 0.  1.
        1   -1    0    0  501    0  0.00000000000E+00  0.00000000000E+00 -0.14748436798E+04  0.14748436798E+04  0.50400001928E-02 0. -1.
    10030    2    1    2    0    0  0.00000000000E+00  0.00000000000E+00 -0.14736282245E+03  0.28023245372E+04  0.27984472499E+04 0.  0.
        1    1    3    3  502    0 -0.36846761189E+03 -0.12714803972E+03  0.12720152077E+04  0.13303975698E+04  0.50400001928E-02 0.  1.
       -1    1    3    3    0  502  0.36846761189E+03  0.12714803972E+03 -0.14193780302E+04  0.14719269675E+04  0.50400001928E-02 0. -1.
</event>
<event>
 5   0  0.1377807E-06  0.2776895E+04  0.7818609E-02  0.8310478E-01
       -2   -1    0    0    0  501  0.00000000000E+00  0.00000000000E+00  0.11082762132E+04  0.11082762132E+04  0.25500000920E-02 0. -1.
        2   -1    0    0  501    0  0.00000000000E+00  0.00000000000E+00 -0.17394452940E+04  0.17394452940E+04  0.25500000920E-02 0.  1.
    10030    2    1    2    0    0  0.00000000000E+00  0.00000000000E+00 -0.63116908079E+03  0.28477215072E+04  0.27768945558E+04 0.  0.
        2    1    3    3  502    0  0.66256644882E+03 -0.27934086348E+03  0.90246437597E+03  0.11538923550E+04  0.25500000920E-02 0. -1.
       -2    1    3    3    0  502 -0.66256644882E+03  0.27934086348E+03 -0.15336334568E+04  0.16938291522E+04  0.25500000920E-02 0.  1.
</event>
<event>
 5   0  0.5362952E-07  0.2797325E+04  0.7818609E-02  0.8304099E-01
       -1   -1    0    0    0  501  0.00000000000E+00  0.00000000000E+00  0.11211071910E+04  0.11211071910E+04  0.50400001928E-02 0.  1.
        1   -1    0    0  501    0  0.00000000000E+00  0.00000000000E+00 -0.17449323046E+04  0.17449323046E+04  0.50400001928E-02 0. -1.
    10030    2    1    2    0    0  0.00000000000E+00  0.00000000000E+00 -0.62382511361E+03  0.28660394956E+04  0.27973245464E+04 0.  0.
        1    1    3    3  502    0  0.15473135317E+03 -0.83256575398E+03 -0.14524275919E+04  0.16812654271E+04  0.50400001928E-02 0. -1.
       -1    1    3    3    0  502 -0.15473135317E+03  0.83256575398E+03  0.82860247834E+03  0.11847740685E+04  0.50400001928E-02 0.  1.
</event>
<event>
 5   0  0.4710000E-07  0.2798782E+04  0.7818609E-02  0.8303647E-01
        4   -1    0    0  501    0  0.00000000000E+00  0.00000000000E+00  0.11408504133E+04  0.11408511201E+04  0.12699999809E+01 0.  1.
       -4   -1    0    0    0  501  0.00000000000E+00  0.00000000000E+00 -0.17165211486E+04  0.17165216184E+04  0.12699999809E+01 0. -1.
    10030    2    1    2    0    0  0.00000000000E+00  0.00000000000E+00 -0.57567073530E+03  0.28573727385E+04  0.27987822658E+04 0.  0.
        2    1    3    3  502    0  0.12645005726E+04 -0.34075335271E+03  0.21566328881E+03  0.13272472263E+04  0.25500000920E-02 0.  1.
       -2    1    3    3    0  502 -0.12645005726E+04  0.34075335271E+03 -0.79133402411E+03  0.15301255122E+04  0.25500000920E-02 0. -1.
</event>
<event>
 5   0  0.5551565E-07  0.2798003E+04  0.7818609E-02  0.8303888E-01
        1   -1    0    0  501    0  0.00000000000E+00  0.00000000000E+00  0.10208214528E+04  0.10208214528E+04  0.50400001928E-02 0.  1.
       -1   -1    0    0    0  501  0.00000000000E+00  0.00000000000E+00 -0.19172852121E+04  0.19172852121E+04  0.50400001928E-02 0. -1.
    10030    2    1    2    0    0  0.00000000000E+00  0.00000000000E+00 -0.89646375931E+03  0.29381066648E+04  0.27980034850E+04 0.  0.
        3    1    3    3  502    0  0.12523537488E+04 -0.38755952208E+03 -0.96117224475E+03  0.16255597158E+04  0.10100000352E+00 0.  1.
       -3    1    3    3    0  502 -0.12523537488E+04  0.38755952208E+03  0.64708485443E+02  0.13125469491E+04  0.10100000352E+00 0. -1.
</event>
<event>
 5   0  0.4710000E-07  0.2724365E+04  0.7818609E-02  0.8327142E-01
        3   -1    0    0  501    0  0.00000000000E+00  0.00000000000E+00  0.81233838775E+03  0.81233839403E+03  0.10100000352E+00 0.  1.
       -3   -1    0    0    0  501  0.00000000000E+00  0.00000000000E+00 -0.22841969809E+04  0.22841969832E+04  0.10100000352E+00 0. -1.
    10030    2    1    2    0    0  0.00000000000E+00  0.00000000000E+00 -0.14718585932E+04  0.30965353772E+04  0.27243648111E+04 0.  0.
        1    1    3    3  502    0 -0.39877501108E+03 -0.68335204701E+03  0.52439924328E+03  0.94920287399E+03  0.50400001928E-02 0.  1.
       -1    1    3    3    0  502  0.39877501108E+03  0.68335204701E+03 -0.19962578365E+04  0.21473325032E+04  0.50400001928E-02 0. -1.
</event>
<event>
 5   0  0.5297741E-07  0.2795711E+04  0.7818609E-02  0.8304601E-01
        1   -1    0    0  501    0  0.00000000000E+00  0.00000000000E+00  0.10554339830E+04  0.10554339830E+04  0.50400001928E-02 0. -1.
       -1   -1    0    0    0  501  0.00000000000E+00  0.00000000000E+00 -0.18513709804E+04  0.18513709804E+04  0.50400001928E-02 0.  1.
    10030    2    1    2    0    0  0.00000000000E+00  0.00000000000E+00 -0.79593699740E+03  0.29068049634E+04  0.27957108919E+04 0.  0.
        5    1    3    3  502    0  0.12606645141E+04  0.22901869349E+03  0.18303275392E+03  0.12943135857E+04  0.46999998093E+01 0. -1.
       -5    1    3    3    0  502 -0.12606645141E+04 -0.22901869349E+03 -0.97896975131E+03  0.16124913777E+04  0.46999998093E+01 0.  1.
</event>
<event>
 5   0  0.1377807E-06  0.2801060E+04  0.7818609E-02  0.8302939E-01
        2   -1    0    0  501    0  0.00000000000E+00  0.00000000000E+00  0.13133101887E+04  0.13133101887E+04  0.25500000920E-02 0.  1.
       -2   -1    0    0    0  501  0.00000000000E+00  0.00000000000E+00 -0.14935420540E+04  0.14935420540E+04  0.25500000920E-02 0. -1.
    10030    2    1    2    0    0  0.00000000000E+00  0.00000000000E+00 -0.18023186531E+03  0.28068522428E+04  0.28010597972E+04 0.  0.
        2    1    3    3  502    0 -0.33734407194E+03 -0.16875046637E+03  0.12614528155E+04  0.13166400224E+04  0.25500000920E-02 0.  1.
       -2    1    3    3    0  502  0.33734407194E+03  0.16875046637E+03 -0.14416846808E+04  0.14902122204E+04  0.25500000920E-02 0. -1.
</event>
<event>
 5   0  0.4710000E-07  0.2796780E+04  0.7818609E-02  0.8304269E-01
       -3   -1    0    0    0  501  0.00000000000E+00  0.00000000000E+00  0.20143552755E+04  0.20143552781E+04  0.10100000352E+00 0. -1.
        3   -1    0    0  501    0  0.00000000000E+00  0.00000000000E+00 -0.97077927479E+03  0.97077928005E+03  0.10100000352E+00 0.  1.
    10030    2    1    2    0    0  0.00000000000E+00  0.00000000000E+00  0.10435760007E+04  0.29851345581E+04  0.27967798377E+04 0.  0.
        3    1    3    3  502    0  0.12189211817E+03  0.85122783759E+03 -0.65522419181E+03  0.10810944786E+04  0.10100000352E+00 0.  1.
       -3    1    3    3    0  502 -0.12189211817E+03 -0.85122783759E+03  0.16988001925E+04  0.19040400795E+04  0.10100000352E+00 0. -1.
</event>
<event>
 5   0  0.5362952E-07  0.2801591E+04  0.7818609E-02  0.8302774E-01
        1   -1    0    0  501    0  0.00000000000E+00  0.00000000000E+00  0.14940632408E+04  0.14940632408E+04  0.50400001928E-02 0. -1.
       -1   -1    0    0    0  501  0.00000000000E+00  0.00000000000E+00 -0.13133504012E+04  0.13133504012E+04  0.50400001928E-02 0.  1.
    10030    2    1    2    0    0  0.00000000000E+00  0.00000000000E+00  0.18071283963E+03  0.28074136420E+04  0.28015913740E+04 0.  0.
        1    1    3    3  502    0 -0.88694743341E+03 -0.42782250555E+03  0.10886801704E+04  0.14679687869E+04  0.50400001928E-02 0. -1.
       -1    1    3    3    0  502  0.88694743341E+03  0.42782250555E+03 -0.90796733079E+03  0.13394448550E+04  0.50400001928E-02 0.  1.
</event>
<event>
 5   0  0.1377807E-06  0.2800545E+04  0.7818609E-02  0.8303099E-01
       -2   -1    0    0    0  501  0.00000000000E+00  0.00000000000E+00  0.13121627491E+04  0.13121627491E+04  0.25500000920E-02 0. -1.
        2   -1    0    0  501    0  0.00000000000E+00  0.00000000000E+00 -0.14942982523E+04  0.14942982523E+04  0.25500000920E-02 0.  1.
    10030    2    1    2    0    0  0.00000000000E+00  0.00000000000E+00 -0.18213550326E+03  0.28064610014E+04  0.28005445918E+04 0.  0.
        2    1    3    3  502    0  0.54313070949E+03 -0.95429325449E+03  0.77973056576E+03  0.13467168739E+04  0.25500000920E-02 0. -1.
       -2    1    3    3    0  502 -0.54313070949E+03  0.95429325449E+03 -0.96186606902E+03  0.14597441275E+04  0.25500000920E-02 0.  1.
</event>
<event>
 5   0  0.5214658E-07  0.2804394E+04  0.7818609E-02  0.8301905E-01
       -1   -1    0    0    0  501  0.00000000000E+00  0.00000000000E+00  0.12011893982E+04  0.12011893983E+04  0.50400001928E-02 0. -1.
        1   -1    0    0  501    0  0.00000000000E+00  0.00000000000E+00 -0.16368418063E+04  0.16368418063E+04  0.50400001928E-02 0.  1.
    10030    2    1    2    0    0  0.00000000000E+00  0.00000000000E+00 -0.43565240805E+03  0.28380312046E+04  0.28043944261E+04 0.  0.
        2    1    3    3  502    0  0.54735088150E+03 -0.31785562610E+03 -0.14840457788E+04  0.16133868291E+04  0.25500000920E-02 0.  1.
       -2    1    3    3    0  502 -0.54735088150E+03  0.31785562610E+03  0.10483933708E+04  0.12246443755E+04  0.25500000920E-02 0. -1.
</event>
<event>
 5   0  0.5214658E-07  0.2803803E+04  0.7818609E-02  0.8302089E-01
       -1   -1    0    0    0  501  0.00000000000E+00  0.00000000000E+00  0.15300592035E+04  0.15300592036E+04  0.50400001928E-02 0.  1.
        1   -1    0    0  501    0  0.00000000000E+00  0.00000000000E+00 -0.12844784676E+04  0.12844784676E+04  0.50400001928E-02 0. -1.
    10030    2    1    2    0    0  0.00000000000E+00  0.00000000000E+00  0.24558073596E+03  0.28145376712E+04  0.28038032036E+04 0.  0.
        2    1    3    3  502    0 -0.98874355842E+03  0.46133617364E+02  0.11193580373E+04  0.14942237284E+04  0.25500000920E-02 0.  1.
       -2    1    3    3    0  502  0.98874355842E+03 -0.46133617364E+02 -0.87377730134E+03  0.13203139427E+04  0.25500000920E-02 0. -1.
</event>
<event>
 5   0  0.5282098E-07  0.2802661E+04  0.7818609E-02  0.8302443E-01
       -1   -1    0    0    0  501  0.00000000000E+00  0.00000000000E+00  0.75022261371E+03  0.75022261373E+03  0.50400001928E-02 0.  1.
        1   -1    0    0  501    0  0.00000000000E+00  0.00000000000E+00 -0.26175256153E+04  0.26175256153E+04  0.50400001928E-02 0. -1.
    10030    2    1    2    0    0  0.00000000000E+00  0.00000000000E+00 -0.18673030016E+04  0.33677482290E+04  0.28026608133E+04 0.  0.
        4    1    3    3  502    0  0.57902154048E+03 -0.12256710222E+04 -0.50679552308E+03  0.14471968470E+04  0.12699999809E+01 0.  1.
       -4    1    3    3    0  502 -0.57902154048E+03  0.12256710222E+04 -0.13605074785E+04  0.19205513820E+04  0.12699999809E+01 0. -1.
</event>
<event>
 5   0  0.5282098E-07  0.2800520E+04  0.7818609E-02  0.8303107E-01
       -1   -1    0    0    0  501  0.00000000000E+00  0.00000000000E+00  0.85765823405E+03  0.85765823406E+03  0.50400001928E-02 0.  1.
        1   -1    0    0  501    0  0.00000000000E+00  0.00000000000E+00 -0.22861417690E+04  0.22861417690E+04  0.50400001928E-02 0. -1.
    10030    2    1    2    0    0  0.00000000000E+00  0.00000000000E+00 -0.14284835349E+04  0.31438000030E+04  0.28005201748E+04 0.  0.
        4    1    3    3  502    0 -0.39777835624E+03 -0.66425086077E+03  0.59550797237E+03  0.97677437762E+03  0.12699999809E+01 0.  1.
       -4    1    3    3    0  502  0.39777835624E+03  0.66425086077E+03 -0.20239915073E+04  0.21670256254E+04  0.12699999809E+01 0. -1.
</event>
<event>
 5   0  0.5297741E-07  0.2800740E+04  0.7818609E-02  0.8303039E-01
        1   -1    0    0  501    0  0.00000000000E+00  0.00000000000E+00  0.82280734771E+03  0.82280734773E+03  0.50400001928E-02 0.  1.
       -1   -1    0    0    0  501  0.00000000000E+00  0.00000000000E+00 -0.23833485592E+04  0.23833485592E+04  0.50400001928E-02 0. -1.
    10030    2    1    2    0    0  0.00000000000E+00  0.00000000000E+00 -0.15605412115E+04  0.32061559069E+04  0.28007404069E+04 0.  0.
        5    1    3    3  502    0  0.13219618099E+04 -0.45752947391E+03 -0.70698522002E+03  0.15674075532E+04  0.46999998093E+01 0. -1.
       -5    1    3    3    0  502 -0.13219618099E+04  0.45752947391E+03 -0.85355599147E+03  0.16387483538E+04  0.46999998093E+01 0.  1.
</event>
<event>
 5   0  0.5551565E-07  0.2800958E+04  0.7818609E-02  0.8302971E-01
       -1   -1    0    0    0  501  0.00000000000E+00  0.00000000000E+00  0.15406500872E+04  0.15406500873E+04  0.50400001928E-02 0. -1.
        1   -1    0    0  501    0  0.00000000000E+00  0.00000000000E+00 -0.12730610716E+04  0.12730610716E+04  0.50400001928E-02 0.  1.
    10030    2    1    2    0    0  0.00000000000E+00  0.00000000000E+00  0.26758901563E+03  0.28137111589E+04  0.28009581583E+04 0.  0.
        3    1    3    3  502    0 -0.10566860593E+03 -0.83691966454E+03 -0.98921374060E+03  0.13000554657E+04  0.10100000352E+00 0.  1.
       -3    1    3    3    0  502  0.10566860593E+03  0.83691966454E+03  0.12568027562E+04  0.15136556932E+04  0.10100000352E+00 0. -1.
</event>
<event>
 5   0  0.1439207E-06  0.2727940E+04  0.7818609E-02  0.8325996E-01
       -2   -1    0    0    0  501  0.00000000000E+00  0.00000000000E+00  0.15395189181E+04  0.15395189181E+04  0.25500000920E-02 0.  1.
        2   -1    0    0  501    0  0.00000000000E+00  0.00000000000E+00 -0.12084382941E+04  0.12084382941E+04  0.25500000920E-02 0. -1.
    10030    2    1    2    0    0  0.00000000000E+00  0.00000000000E+00  0.33108062403E+03  0.27479572122E+04  0.27279395999E+04 0.  0.
        5    1    3    3  502    0 -0.35201431285E+03  0.13097345992E+04  0.31177001576E+03  0.13915967194E+04  0.46999998093E+01 0. -1.
       -5    1    3    3    0  502  0.35201431285E+03 -0.13097345992E+04  0.19310608270E+02  0.13563604928E+04  0.46999998093E+01 0.  1.
</event>
<event>
 5   0  0.5297741E-07  0.2806686E+04  0.7818609E-02  0.8301196E-01
        1   -1    0    0  501    0  0.00000000000E+00  0.00000000000E+00  0.15227341596E+04  0.15227341596E+04  0.50400001928E-02 0.  1.
       -1   -1    0    0    0  501  0.00000000000E+00  0.00000000000E+00 -0.12933129705E+04  0.12933129705E+04  0.50400001928E-02 0. -1.
    10030    2    1    2    0    0  0.00000000000E+00  0.00000000000E+00  0.22942118911E+03  0.28160471302E+04  0.28066861879E+04 0.  0.
        5    1    3    3  502    0  0.75693647149E+03 -0.52855857354E+03 -0.94570736153E+03  0.13216321316E+04  0.46999998093E+01 0. -1.
       -5    1    3    3    0  502 -0.75693647149E+03  0.52855857354E+03  0.11751285506E+04  0.14944149986E+04  0.46999998093E+01 0.  1.
</event>
<event>
 5   0  0.1461146E-06  0.2802510E+04  0.7818609E-02  0.8302490E-01
       -2   -1    0    0    0  501  0.00000000000E+00  0.00000000000E+00  0.98392295950E+03  0.98392295950E+03  0.25500000920E-02 0.  1.
        2   -1    0    0  501    0  0.00000000000E+00  0.00000000000E+00 -0.19955986797E+04  0.19955986797E+04  0.25500000920E-02 0. -1.
    10030    2    1    2    0    0  0.00000000000E+00  0.00000000000E+00 -0.10116757202E+04  0.29795216392E+04  0.28025098457E+04 0.  0.
        1    1    3    3  502    0 -0.42580438440E+02 -0.28977101227E+03  0.95101788356E+03  0.99509564774E+03  0.50400001928E-02 0.  1.
       -1    1    3    3    0  502  0.42580438440E+02  0.28977101227E+03 -0.19626936037E+04  0.19844259914E+04  0.50400001928E-02 0. -1.
</event>
<event>
 5   0  0.5551565E-07  0.2798361E+04  0.7818609E-02  0.8303777E-01
       -1   -1    0    0    0  501  0.00000000000E+00  0.00000000000E+00  0.11364585606E+04  0.11364585606E+04  0.50400001928E-02 0.  1.
        1   -1    0    0  501    0  0.00000000000E+00  0.00000000000E+00 -0.17226372560E+04  0.17226372560E+04  0.50400001928E-02 0. -1.
    10030    2    1    2    0    0  0.00000000000E+00  0.00000000000E+00 -0.58617869539E+03  0.28590958166E+04  0.27983608462E+04 0.  0.
        3    1    3    3  502    0  0.96677368959E+02 -0.13955790420E+04 -0.26570330059E+03  0.14239331551E+04  0.10100000352E+00 0.  1.
       -3    1    3    3    0  502 -0.96677368959E+02  0.13955790420E+04 -0.32047539480E+03  0.14351626615E+04  0.10100000352E+00 0. -1.
</event>
<event>
 5   0  0.5282098E-07  0.2793939E+04  0.7818609E-02  0.8305153E-01
        1   -1    0    0  501    0  0.00000000000E+00  0.00000000000E+00  0.23210765158E+04  0.23210765158E+04  0.50400001928E-02 0.  1.
       -1   -1    0    0    0  501  0.00000000000E+00  0.00000000000E+00 -0.84078378895E+03  0.84078378896E+03  0.50400001928E-02 0. -1.
    10030    2    1    2    0    0  0.00000000000E+00  0.00000000000E+00  0.14802927268E+04  0.31618603047E+04  0.27939388020E+04 0.  0.
        4    1    3    3  502    0  0.10375326036E+04 -0.39904927671E+03 -0.21732096089E+03  0.11326712858E+04  0.12699999809E+01 0. -1.
       -4    1    3    3    0  502 -0.10375326036E+04  0.39904927671E+03  0.16976136877E+04  0.20291890189E+04  0.12699999809E+01 0.  1.
</event>
<event>
 5   0  0.1461146E-06  0.2793903E+04  0.7818609E-02  0.8305164E-01
       -2   -1    0    0    0  501  0.00000000000E+00  0.00000000000E+00  0.15791084825E+04  0.15791084825E+04  0.25500000920E-02 0.  1.
        2   -1    0    0  501    0  0.00000000000E+00  0.00000000000E+00 -0.12358074676E+04  0.12358074676E+04  0.25500000920E-02 0. -1.
    10030    2    1    2    0    0  0.00000000000E+00  0.00000000000E+00  0.34330101490E+03  0.28149159502E+04  0.27939034020E+04 0.  0.
        1    1    3    3  502    0 -0.42507700913E+03 -0.89777804287E+03  0.11612689519E+04  0.15281496840E+04  0.50400001928E-02 0.  1.
       -1    1    3    3    0  502  0.42507700913E+03  0.89777804287E+03 -0.81796793698E+03  0.12867662662E+04  0.50400001928E-02 0. -1.
</event>
<event>
 5   0  0.1499888E-06  0.2794396E+04  0.7818609E-02  0.8305010E-01
       -2   -1    0    0    0  501  0.00000000000E+00  0.00000000000E+00  0.20804261857E+04  0.20804261857E+04  0.25500000920E-02 0.  1.
        2   -1    0    0  501    0  0.00000000000E+00  0.00000000000E+00 -0.93834724769E+03  0.93834724769E+03  0.25500000920E-02 0. -1.
    10030    2    1    2    0    0  0.00000000000E+00  0.00000000000E+00  0.11420789380E+04  0.30187734334E+04  0.27943959529E+04 0.  0.
        3    1    3    3  502    0  0.10148806149E+04  0.99676295016E+02 -0.46076669715E+03  0.11190281434E+04  0.10100000352E+00 0. -1.
       -3    1    3    3    0  502 -0.10148806149E+04 -0.99676295016E+02  0.16028456352E+04  0.18997452900E+04  0.10100000352E+00 0.  1.
</event>
<event>
 5   0  0.1461146E-06  0.2796867E+04  0.7818609E-02  0.8304242E-01
       -2   -1    0    0    0  501  0.00000000000E+00  0.00000000000E+00  0.11983256893E+04  0.11983256893E+04  0.25500000920E-02 0.  1.
        2   -1    0    0  501    0  0.00000000000E+00  0.00000000000E+00 -0.16319567356E+04  0.16319567356E+04  0.25500000920E-02 0. -1.
    10030    2    1    2    0    0  0.00000000000E+00  0.00000000000E+00 -0.43363104629E+03  0.28302824249E+04  0.27968665896E+04 0.  0.
        1    1    3    3  502    0  0.98721166621E+02 -0.33181557047E+03  0.11542775897E+04  0.12050743527E+04  0.50400001928E-02 0.  1.
       -1    1    3    3    0  502 -0.98721166621E+02  0.33181557047E+03 -0.15879086360E+04  0.16252080721E+04  0.50400001928E-02 0. -1.
</event>
<event>
 5   0  0.1499888E-06  0.2801493E+04  0.7818609E-02  0.8302805E-01
       -2   -1    0    0    0  501  0.00000000000E+00  0.00000000000E+00  0.22442412142E+04  0.22442412142E+04  0.25500000920E-02 0. -1.
        2   -1    0    0  501    0  0.00000000000E+00  0.00000000000E+00 -0.87427827968E+03  0.87427827969E+03  0.25500000920E-02 0.  1.
    10030    2    1    2    0    0  0.00000000000E+00  0.00000000000E+00  0.13699629345E+04  0.31185194939E+04  0.28014934217E+04 0.  0.
        3    1    3    3  502    0  0.14979081121E+03 -0.25073020892E+03  0.22099697714E+04  0.22291857988E+04  0.10100000352E+00 0. -1.
       -3    1    3    3    0  502 -0.14979081121E+03  0.25073020892E+03 -0.84000683696E+03  0.88933369503E+03  0.10100000352E+00 0.  1.
</event>
<event>
 5   0  0.1377807E-06  0.2797760E+04  0.7818609E-02  0.8303964E-01
       -2   -1    0    0    0  501  0.00000000000E+00  0.00000000000E+00  0.15003284259E+04  0.15003284259E+04  0.25500000920E-02 0.  1.
        2   -1    0    0  501    0  0.00000000000E+00  0.00000000000E+00 -0.13042917058E+04  0.13042917058E+04  0.25500000920E-02 0. -1.
    10030    2    1    2    0    0  0.00000000000E+00  0.00000000000E+00  0.19603672011E+03  0.28046201318E+04  0.27977604772E+04 0.  0.
        2    1    3    3  502    0  0.11872261591E+04 -0.39929545369E+03 -0.52634346671E+03  0.13586685605E+04  0.25500000920E-02 0. -1.
       -2    1    3    3    0  502 -0.11872261591E+04  0.39929545369E+03  0.72238018682E+03  0.14459515713E+04  0.25500000920E-02 0.  1.
</event>
<event>
 5   0  0.1461146E-06  0.2799746E+04  0.7818609E-02  0.8303347E-01
       -2   -1    0    0    0  501  0.00000000000E+00  0.00000000000E+00  0.10616769892E+04  0.10616769892E+04  0.25500000920E-02 0. -1.
        2   -1    0    0  501    0  0.00000000000E+00  0.00000000000E+00 -0.18458009315E+04  0.18458009315E+04  0.25500000920E-02 0.  1.
    10030    2    1    2    0    0  0.00000000000E+00  0.00000000000E+00 -0.78412394228E+03  0.29074779208E+04  0.27997459711E+04 0.  0.
        1    1    3    3  502    0  0.28836842860E+03 -0.26207461449E+03 -0.17883453852E+04  0.18303056223E+04  0.50400001928E-02 0.  1.
       -1    1    3    3    0  502 -0.28836842860E+03  0.26207461449E+03  0.10042214429E+04  0.10771722985E+04  0.50400001928E-02 0. -1.
</event>
<event>
 5   0  0.5297741E-07  0.2805693E+04  0.7818609E-02  0.8301503E-01
        1   -1    0    0  501    0  0.00000000000E+00  0.00000000000E+00  0.13373906314E+04  0.13373906314E+04  0.50400001928E-02 0.  1.
       -1   -1    0    0    0  501  0.00000000000E+00  0.00000000000E+00 -0.14715057717E+04  0.14715057717E+04  0.50400001928E-02 0. -1.
    10030    2    1    2    0    0  0.00000000000E+00  0.00000000000E+00 -0.13411514021E+03  0.28088964031E+04  0.28056928080E+04 0.  0.
        5    1    3    3  502    0  0.11641745546E+04  0.57576221189E+03  0.46378500539E+03  0.13791022948E+04  0.46999998093E+01 0.  1.
       -5    1    3    3    0  502 -0.11641745546E+04 -0.57576221189E+03 -0.59790014561E+03  0.14297941084E+04  0.46999998093E+01 0. -1.
</event>
<event>
 5   0  0.5297741E-07  0.2792778E+04  0.7818609E-02  0.8305514E-01
       -1   -1    0    0    0  501  0.00000000000E+00  0.00000000000E+00  0.94836664189E+03  0.94836664190E+03  0.50400001928E-02 0. -1.
        1   -1    0    0  501    0  0.00000000000E+00  0.00000000000E+00 -0.20560632175E+04  0.20560632175E+04  0.50400001928E-02 0.  1.
    10030    2    1    2    0    0  0.00000000000E+00  0.00000000000E+00 -0.11076965756E+04  0.30044298594E+04  0.27927776632E+04 0.  0.
        5    1    3    3  502    0 -0.10456224193E+04  0.90529849360E+03 -0.34695016063E+03  0.14259341185E+04  0.46999998093E+01 0. -1.
       -5    1    3    3    0  502  0.10456224193E+04 -0.90529849360E+03 -0.76074641494E+03  0.15784957409E+04  0.46999998093E+01 0.  1.
</event>
<event>
 5   0  0.1377807E-06  0.2802826E+04  0.7818609E-02  0.8302392E-01
       -2   -1    0    0    0  501  0.00000000000E+00  0.00000000000E+00  0.10421069508E+04  0.10421069508E+04  0.25500000920E-02 0. -1.
        2   -1    0    0  501    0  0.00000000000E+00  0.00000000000E+00 -0.18846029005E+04  0.18846029005E+04  0.25500000920E-02 0.  1.
    10030    2    1    2    0    0  0.00000000000E+00  0.00000000000E+00 -0.84249594975E+03  0.29267098513E+04  0.28028255615E+04 0.  0.
        2    1    3    3  502    0  0.36715678503E+03 -0.84201651471E+03 -0.15264050078E+04  0.17814904332E+04  0.25500000920E-02 0.  1.
       -2    1    3    3    0  502 -0.36715678503E+03  0.84201651471E+03  0.68390905804E+03  0.11452194181E+04  0.25500000920E-02 0. -1.
</event>
<event>
 5   0  0.5551565E-07  0.2799854E+04  0.7818609E-02  0.8303314E-01
        1   -1    0    0  501    0  0.00000000000E+00  0.00000000000E+00  0.14153637464E+04  0.14153637465E+04  0.50400001928E-02 0.  1.
       -1   -1    0    0    0  501  0.00000000000E+00  0.00000000000E+00 -0.13846583556E+04  0.13846583556E+04  0.50400001928E-02 0. -1.
    10030    2    1    2    0    0  0.00000000000E+00  0.00000000000E+00  0.30705390847E+02  0.28000221021E+04  0.27998537374E+04 0.  0.
        3    1    3    3  502    0  0.46756833754E+02 -0.13542994546E+03  0.14080123783E+04  0.14152831304E+04  0.10100000352E+00 0.  1.
       -3    1    3    3    0  502 -0.46756833754E+02  0.13542994546E+03 -0.13773069875E+04  0.13847389716E+04  0.10100000352E+00 0. -1.
</event>
<event>
 5   0  0.5297741E-07  0.2796030E+04  0.7818609E-02  0.8304502E-01
        1   -1    0    0  501    0  0.00000000000E+00  0.00000000000E+00  0.74290552882E+03  0.74290552883E+03  0.50400001928E-02 0. -1.
       -1   -1    0    0    0  501  0.00000000000E+00  0.00000000000E+00 -0.26308136520E+04  0.26308136520E+04  0.50400001928E-02 0.  1.
    10030    2    1    2    0    0  0.00000000000E+00  0.00000000000E+00 -0.18879081232E+04  0.33737191808E+04  0.27960300481E+04 0.  0.
        5    1    3    3  502    0  0.48774234075E+03  0.79271517540E+03  0.31470550671E+03  0.98252307160E+03  0.46999998093E+01 0. -1.
       -5    1    3    3    0  502 -0.48774234075E+03 -0.79271517540E+03 -0.22026136299E+04  0.23911961093E+04  0.46999998093E+01 0.  1.
</event>
<event>
 5   0  0.4710000E-07  0.2794982E+04  0.7818609E-02  0.8304828E-01
       -4   -1    0    0    0  501  0.00000000000E+00  0.00000000000E+00  0.15607231859E+04  0.15607237026E+04  0.12699999809E+01 0. -1.
        4   -1    0    0  501    0  0.00000000000E+00  0.00000000000E+00 -0.12513296278E+04  0.12513302723E+04  0.12699999809E+01 0.  1.
    10030    2    1    2    0    0  0.00000000000E+00  0.00000000000E+00  0.30939355807E+03  0.28120539749E+04  0.27949817860E+04 0.  0.
        5    1    3    3  502    0 -0.46686515887E+03 -0.18309752764E+02  0.14798066837E+04  0.15518209416E+04  0.46999998093E+01 0. -1.
       -5    1    3    3    0  502  0.46686515887E+03  0.18309752764E+02 -0.11704131256E+04  0.12602330333E+04  0.46999998093E+01 0.  1.
</event>
<event>
 5   0  0.1499888E-06  0.2801674E+04  0.7818609E-02  0.8302749E-01
        2   -1    0    0  501    0  0.00000000000E+00  0.00000000000E+00  0.19257773354E+04  0.19257773354E+04  0.25500000920E-02 0. -1.
       -2   -1    0    0    0  501  0.00000000000E+00  0.00000000000E+00 -0.10189879542E+04  0.10189879542E+04  0.25500000920E-02 0.  1.
    10030    2    1    2    0    0  0.00000000000E+00  0.00000000000E+00  0.90678938113E+03  0.29447652896E+04  0.28016737192E+04 0.  0.
        3    1    3    3  502    0 -0.78657438360E+03  0.37972613474E+03 -0.69773615676E+03  0.11179118717E+04  0.10100000352E+00 0.  1.
       -3    1    3    3    0  502  0.78657438360E+03 -0.37972613474E+03  0.16045255379E+04  0.18268534178E+04  0.10100000352E+00 0. -1.
</event>
<event>
 5   0  0.5297741E-07  0.2798374E+04  0.7818609E-02  0.8303773E-01
       -1   -1    0    0    0  501  0.00000000000E+00  0.00000000000E+00  0.95812937574E+03  0.95812937575E+03  0.50400001928E-02 0. -1.
        1   -1    0    0  501    0  0.00000000000E+00  0.00000000000E+00 -0.20432770773E+04  0.20432770773E+04  0.50400001928E-02 0.  1.
    10030    2    1    2    0    0  0.00000000000E+00  0.00000000000E+00 -0.10851477015E+04  0.30014064530E+04  0.27983736638E+04 0.  0.
        5    1    3    3  502    0  0.70349320971E+02  0.26561860543E+03 -0.20140455909E+04  0.20327085386E+04  0.46999998093E+01 0.  1.
       -5    1    3    3    0  502 -0.70349320971E+02 -0.26561860543E+03  0.92889788940E+03  0.96869791444E+03  0.46999998093E+01 0. -1.
</event>
<event>
 5   0  0.1377807E-06  0.2807204E+04  0.7818609E-02  0.8301035E-01
       -2   -1    0    0    0  501  0.00000000000E+00  0.00000000000E+00  0.88719074692E+03  0.88719074692E+03  0.25500000920E-02 0.  1.
        2   -1    0    0  501    0  0.00000000000E+00  0.00000000000E+00 -0.22206036269E+04  0.22206036269E+04  0.25500000920E-02 0. -1.
    10030    2    1    2    0    0  0.00000000000E+00  0.00000000000E+00 -0.13334128800E+04  0.31077943738E+04  0.28072042963E+04 0.  0.
        2    1    3    3  502    0 -0.10377193464E+04 -0.29151242647E+03  0.32859189283E+03  0.11268600484E+04  0.25500000920E-02 0.  1.
       -2    1    3    3    0  502  0.10377193464E+04  0.29151242647E+03 -0.16620047728E+04  0.19809343254E+04  0.25500000920E-02 0. -1.
</event>
<event>
 5   0  0.5362952E-07  0.2799291E+04  0.7818609E-02  0.8303489E-01
       -1   -1    0    0    0  501  0.00000000000E+00  0.00000000000E+00  0.12784251041E+04  0.12784251042E+04  0.50400001928E-02 0.  1.
        1   -1    0    0  501    0  0.00000000000E+00  0.00000000000E+00 -0.15323598988E+04  0.15323598988E+04  0.50400001928E-02 0. -1.
    10030    2    1    2    0    0  0.00000000000E+00  0.00000000000E+00 -0.25393479469E+03  0.28107850030E+04  0.27992908840E+04 0.  0.
        1    1    3    3  502    0 -0.22031723676E+02  0.11091412625E+04 -0.98389274542E+03  0.14828097220E+04  0.50400001928E-02 0. -1.
       -1    1    3    3    0  502  0.22031723676E+02 -0.11091412625E+04  0.72995795072E+03  0.13279752810E+04  0.50400001928E-02 0.  1.
</event>
<event>
 5   0  0.1499888E-06  0.2798099E+04  0.7818609E-02  0.8303859E-01
       -2   -1    0    0    0  501  0.00000000000E+00  0.00000000000E+00  0.14310886686E+04  0.14310886686E+04  0.25500000920E-02 0. -1.
        2   -1    0    0  501    0  0.00000000000E+00  0.00000000000E+00 -0.13677279093E+04  0.13677279093E+04  0.25500000920E-02 0.  1.
    10030    2    1    2    0    0  0.00000000000E+00  0.00000000000E+00  0.63360759322E+02  0.27988165778E+04  0.27980992925E+04 0.  0.
        3    1    3    3  502    0 -0.64735660840E+03 -0.81477293605E+03 -0.90366060189E+03  0.13782336556E+04  0.10100000352E+00 0.  1.
       -3    1    3    3    0  502  0.64735660840E+03  0.81477293605E+03  0.96702136122E+03  0.14205829223E+04  0.10100000352E+00 0. -1.
</event>
<event>
 5   0  0.5214658E-07  0.2801873E+04  0.7818609E-02  0.8302687E-01
       -1   -1    0    0    0  501  0.00000000000E+00  0.00000000000E+00  0.17860428775E+04  0.17860428775E+04  0.50400001928E-02 0.  1.
        1   -1    0    0  501    0  0.00000000000E+00  0.00000000000E+00 -0.10988665623E+04  0.10988665623E+04  0.50400001928E-02 0. -1.
    10030    2    1    2    0    0  0.00000000000E+00  0.00000000000E+00  0.68717631515E+03  0.28849094398E+04  0.28018728001E+04 0.  0.
        2    1    3    3  502    0 -0.13854915030E+04  0.20240896633E+03  0.39039644299E+03  0.14536043056E+04  0.25500000920E-02 0.  1.
       -2    1    3    3    0  502  0.13854915030E+04 -0.20240896633E+03  0.29677987216E+03  0.14313051342E+04  0.25500000920E-02 0. -1.
</event>
<event>
 5   0  0.5551565E-07  0.2803953E+04  0.7818609E-02  0.8302042E-01
       -1   -1    0    0    0  501  0.00000000000E+00  0.00000000000E+00  0.11857389171E+04  0.11857389171E+04  0.50400001928E-02 0.  1.
        1   -1    0    0  501    0  0.00000000000E+00  0.00000000000E+00 -0.16576487841E+04  0.16576487841E+04  0.50400001928E-02 0. -1.
    10030    2    1    2    0    0  0.00000000000E+00  0.00000000000E+00 -0.47190986699E+03  0.28433877013E+04  0.28039534050E+04 0.  0.
        3    1    3    3  502    0 -0.67585293014E+03 -0.66662261077E+03 -0.12821502683E+04  0.15953282449E+04  0.10100000352E+00 0. -1.
       -3    1    3    3    0  502  0.67585293014E+03  0.66662261077E+03  0.81024040133E+03  0.12480594563E+04  0.10100000352E+00 0.  1.
</event>
<event>
 5   0  0.5297741E-07  0.2806247E+04  0.7818609E-02  0.8301332E-01
        1   -1    0    0  501    0  0.00000000000E+00  0.00000000000E+00  0.11913663108E+04  0.11913663108E+04  0.50400001928E-02 0.  1.
       -1   -1    0    0    0  501  0.00000000000E+00  0.00000000000E+00 -0.16525186607E+04  0.16525186607E+04  0.50400001928E-02 0. -1.
    10030    2    1    2    0    0  0.00000000000E+00  0.00000000000E+00 -0.46115234994E+03  0.28438849715E+04  0.28062466466E+04 0.  0.
        5    1    3    3  502    0 -0.53285073667E+03 -0.91185229858E+03  0.70557136215E+03  0.12701407635E+04  0.46999998093E+01 0.  1.
       -5    1    3    3    0  502  0.53285073667E+03  0.91185229858E+03 -0.11667237121E+04  0.15737442080E+04  0.46999998093E+01 0. -1.
</event>
<event>
 5   0  0.5214658E-07  0.2800009E+04  0.7818609E-02  0.8303266E-01
        1   -1    0    0  501    0  0.00000000000E+00  0.00000000000E+00  0.12096867570E+04  0.12096867570E+04  0.50400001928E-02 0.  1.
       -1   -1    0    0    0  501  0.00000000000E+00  0.00000000000E+00 -0.16202642416E+04  0.16202642416E+04  0.50400001928E-02 0. -1.
    10030    2    1    2    0    0  0.00000000000E+00  0.00000000000E+00 -0.41057748458E+03  0.28299509986E+04  0.28000087113E+04 0.  0.
        2    1    3    3  502    0 -0.58147850076E+02  0.84747956073E+03 -0.13300274877E+04  0.15781558530E+04  0.25500000920E-02 0. -1.
       -2    1    3    3    0  502  0.58147850076E+02 -0.84747956073E+03  0.91945000311E+03  0.12517951456E+04  0.25500000920E-02 0.  1.
</event>
<event>
 5   0  0.1394410E-06  0.2801525E+04  0.7818609E-02  0.8302795E-01
       -2   -1    0    0    0  501  0.00000000000E+00  0.00000000000E+00  0.19493577925E+04  0.19493577925E+04  0.25500000920E-02 0. -1.
        2   -1    0    0  501    0  0.00000000000E+00  0.00000000000E+00 -0.10065545489E+04  0.10065545490E+04  0.25500000920E-02 0.  1.
    10030    2    1    2    0    0  0.00000000000E+00  0.00000000000E+00  0.94280324357E+03  0.29559123415E+04  0.28015245518E+04 0.  0.
        4    1    3    3  502    0 -0.79496637750E+02 -0.57258951782E+03 -0.87482538414E+03  0.10485702346E+04  0.12699999809E+01 0.  1.
       -4    1    3    3    0  502  0.79496637750E+02  0.57258951782E+03  0.18176286277E+04  0.19073421068E+04  0.12699999809E+01 0. -1.
</event>
<event>
 5   0  0.5282098E-07  0.2784983E+04  0.7818609E-02  0.8307946E-01
       -1   -1    0    0    0  501  0.00000000000E+00  0.00000000000E+00  0.14615123086E+04  0.14615123086E+04  0.50400001928E-02 0.  1.
        1   -1    0    0  501    0  0.00000000000E+00  0.00000000000E+00 -0.13267305306E+04  0.13267305306E+04  0.50400001928E-02 0. -1.
    10030    2    1    2    0    0  0.00000000000E+00  0.00000000000E+00  0.13478177801E+03  0.27882428393E+04  0.27849833039E+04 0.  0.
        4    1    3    3  502    0  0.14383596590E+03  0.77164557655E+02 -0.13171189013E+04  0.13271951503E+04  0.12699999809E+01 0. -1.
       -4    1    3    3    0  502 -0.14383596590E+03 -0.77164557655E+02  0.14519006793E+04  0.14610476890E+04  0.12699999809E+01 0.  1.
</event>
<event>
 5   0  0.5297741E-07  0.2797070E+04  0.7818609E-02  0.8304179E-01
       -1   -1    0    0    0  501  0.00000000000E+00  0.00000000000E+00  0.10933201599E+04  0.10933201599E+04  0.50400001928E-02 0.  1.
        1   -1    0    0  501    0  0.00000000000E+00  0.00000000000E+00 -0.17889540975E+04  0.17889540975E+04  0.50400001928E-02 0. -1.
    10030    2    1    2    0    0  0.00000000000E+00  0.00000000000E+00 -0.69563393757E+03  0.28822742574E+04  0.27970695951E+04 0.  0.
        5    1    3    3  502    0 -0.36161056913E+03 -0.40588045827E+03 -0.16756250228E+04  0.17616022415E+04  0.46999998093E+01 0. -1.
       -5    1    3    3    0  502  0.36161056913E+03  0.40588045827E+03  0.97999108522E+03  0.11206720159E+04  0.46999998093E+01 0.  1.
</event>
<event>
 5   0  0.5214658E-07  0.2799308E+04  0.7818609E-02  0.8303483E-01
       -1   -1    0    0    0  501  0.00000000000E+00  0.00000000000E+00  0.69801095202E+03  0.69801095204E+03  0.50400001928E-02 0. -1.
        1   -1    0    0  501    0  0.00000000000E+00  0.00000000000E+00 -0.28065907141E+04  0.28065907141E+04  0.50400001928E-02 0.  1.
    10030    2    1    2    0    0  0.00000000000E+00  0.00000000000E+00 -0.21085797621E+04  0.35046016661E+04  0.27993078118E+04 0.  0.
        2    1    3    3  502    0 -0.55965392435E+03  0.60678132355E+03 -0.24694037964E+04  0.26037187251E+04  0.25500000920E-02 0.  1.
       -2    1    3    3    0  502  0.55965392435E+03 -0.60678132355E+03  0.36082403436E+03  0.90088294102E+03  0.25500000920E-02 0. -1.
</event>
<event>
 5   0  0.1461146E-06  0.2800277E+04  0.7818609E-02  0.8303182E-01
       -2   -1    0    0    0  501  0.00000000000E+00  0.00000000000E+00  0.18205931526E+04  0.18205931526E+04  0.25500000920E-02 0.  1.
        2   -1    0    0  501    0  0.00000000000E+00  0.00000000000E+00 -0.10767853389E+04  0.10767853389E+04  0.25500000920E-02 0. -1.
    10030    2    1    2    0    0  0.00000000000E+00  0.00000000000E+00  0.74380781378E+03  0.28973784915E+04  0.28002771397E+04 0.  0.
        1    1    3    3  502    0  0.12224114299E+04 -0.45847134896E+03 -0.15150527790E+03  0.13143209392E+04  0.50400001928E-02 0. -1.
       -1    1    3    3    0  502 -0.12224114299E+04  0.45847134896E+03  0.89531309168E+03  0.15830575523E+04  0.50400001928E-02 0.  1.
</event>
<event>
 5   0  0.1499888E-06  0.2800455E+04  0.7818609E-02  0.8303127E-01
        2   -1    0    0  501    0  0.00000000000E+00  0.00000000000E+00  0.13862182741E+04  0.13862182741E+04  0.25500000920E-02 0.  1.
       -2   -1    0    0    0  501  0.00000000000E+00  0.00000000000E+00 -0.14143779935E+04  0.14143779935E+04  0.25500000920E-02 0. -1.
    10030    2    1    2    0    0  0.00000000000E+00  0.00000000000E+00 -0.28159719394E+02  0.28005962676E+04  0.28004546924E+04 0.  0.
        3    1    3    3  502    0 -0.10294690541E+04 -0.45005950739E+03  0.82159179889E+03  0.13918955377E+04  0.10100000352E+00 0.  1.
       -3    1    3    3    0  502  0.10294690541E+04  0.45005950739E+03 -0.84975151828E+03  0.14087007299E+04  0.10100000352E+00 0. -1.
</event>
<event>
 5   0  0.1499888E-06  0.2855080E+04  0.7818609E-02  0.8286369E-01
       -2   -1    0    0    0  501  0.00000000000E+00  0.00000000000E+00  0.11241355317E+04  0.11241355317E+04  0.25500000920E-02 0.  1.
        2   -1    0    0  501    0  0.00000000000E+00  0.00000000000E+00 -0.18128334804E+04  0.18128334804E+04  0.25500000920E-02 0. -1.
    10030    2    1    2    0    0  0.00000000000E+00  0.00000000000E+00 -0.68869794870E+03  0.29369690121E+04  0.28550800538E+04 0.  0.
        3    1    3    3  502    0 -0.10099446957E+04 -0.63810484629E+03  0.45954099783E+03  0.12799781335E+04  0.10100000352E+00 0.  1.
       -3    1    3    3    0  502  0.10099446957E+04  0.63810484629E+03 -0.11482389465E+04  0.16569908786E+04  0.10100000352E+00 0. -1.
</event>
<event>
 5   0  0.5282098E-07  0.2800288E+04  0.7818609E-02  0.8303179E-01
       -1   -1    0    0    0  501  0.00000000000E+00  0.00000000000E+00  0.12762129698E+04  0.12762129699E+04  0.50400001928E-02 0.  1.
        1   -1    0    0  501    0  0.00000000000E+00  0.00000000000E+00 -0.15361099063E+04  0.15361099064E+04  0.50400001928E-02 0. -1.
    10030    2    1    2    0    0  0.00000000000E+00  0.00000000000E+00 -0.25989693650E+03  0.28123228762E+04  0.28002881178E+04 0.  0.
        4    1    3    3  502    0  0.70041631293E+03 -0.89588831534E+03 -0.95028380686E+03  0.14819715960E+04  0.12699999809E+01 0.  1.
       -4    1    3    3    0  502 -0.70041631293E+03  0.89588831534E+03  0.69038687036E+03  0.13303512802E+04  0.12699999809E+01 0. -1.
</event>
<event>
 5   0  0.1461146E-06  0.2807179E+04  0.7818609E-02  0.8301043E-01
        2   -1    0    0  501    0  0.00000000000E+00  0.00000000000E+00  0.12708424626E+04  0.12708424626E+04  0.25500000920E-02 0.  1.
       -2   -1    0    0    0  501  0.00000000000E+00  0.00000000000E+00 -0.15502027914E+04  0.15502027914E+04  0.25500000920E-02 0. -1.
    10030    2    1    2    0    0  0.00000000000E+00  0.00000000000E+00 -0.27936032878E+03  0.28210452539E+04  0.28071790344E+04 0.  0.
        1    1    3    3  502    0 -0.42203035342E+03  0.62157736081E+03  0.10517541940E+04  0.12925381694E+04  0.50400001928E-02 0.  1.
       -1    1    3    3    0  502  0.42203035342E+03 -0.62157736081E+03 -0.13311145228E+04  0.15285070845E+04  0.50400001928E-02 0. -1.
</event>
<event>
 5   0  0.5214658E-07  0.2795790E+04  0.7818609E-02  0.8304577E-01
        1   -1    0    0  501    0  0.00000000000E+00  0.00000000000E+00  0.67716086313E+03  0.67716086315E+03  0.50400001928E-02 0. -1.
       -1   -1    0    0    0  501  0.00000000000E+00  0.00000000000E+00 -0.28857408338E+04  0.28857408338E+04  0.50400001928E-02 0.  1.
    10030    2    1    2    0    0  0.00000000000E+00  0.00000000000E+00 -0.22085799706E+04  0.35629016969E+04  0.27957902309E+04 0.  0.
        2    1    3    3  502    0  0.75214358029E+02 -0.60481284532E+03  0.49892727849E+03  0.78764472114E+03  0.25500000920E-02 0. -1.
       -2    1    3    3    0  502 -0.75214358029E+02  0.60481284532E+03 -0.27075072491E+04  0.27752569758E+04  0.25500000920E-02 0.  1.
</event>
<event>
 5   0  0.5362952E-07  0.2789223E+04  0.7818609E-02  0.8306622E-01
        1   -1    0    0  501    0  0.00000000000E+00  0.00000000000E+00  0.10573741896E+04  0.10573741897E+04  0.50400001928E-02 0.  1.
       -1   -1    0    0    0  501  0.00000000000E+00  0.00000000000E+00 -0.18394062244E+04  0.18394062244E+04  0.50400001928E-02 0. -1.
    10030    2    1    2    0    0  0.00000000000E+00  0.00000000000E+00 -0.78203203475E+03  0.28967804141E+04  0.27892225913E+04 0.  0.
        1    1    3    3  502    0 -0.28809265225E+03 -0.31147876713E+03  0.98871821174E+03  0.10759089650E+04  0.50400001928E-02 0.  1.
       -1    1    3    3    0  502  0.28809265225E+03  0.31147876713E+03 -0.17707502465E+04  0.18208714491E+04  0.50400001928E-02 0. -1.
</event>
<event>
 5   0  0.5297741E-07  0.2789899E+04  0.7818609E-02  0.8306411E-01
       -1   -1    0    0    0  501  0.00000000000E+00  0.00000000000E+00  0.13245283048E+04  0.13245283049E+04  0.50400001928E-02 0. -1.
        1   -1    0    0  501    0  0.00000000000E+00  0.00000000000E+00 -0.14691145169E+04  0.14691145169E+04  0.50400001928E-02 0.  1.
    10030    2    1    2    0    0  0.00000000000E+00  0.00000000000E+00 -0.14458621201E+03  0.27936428217E+04  0.27898987513E+04 0.  0.
        5    1    3    3  502    0  0.24077011753E+03  0.13684216701E+04  0.51620910368E+02  0.13904081865E+04  0.46999998093E+01 0.  1.
       -5    1    3    3    0  502 -0.24077011753E+03 -0.13684216701E+04 -0.19620712238E+03  0.14032346352E+04  0.46999998093E+01 0. -1.
</event>
<event>
 5   0  0.1377807E-06  0.2795035E+04  0.7818609E-02  0.8304811E-01
       -2   -1    0    0    0  501  0.00000000000E+00  0.00000000000E+00  0.17022877820E+04  0.17022877820E+04  0.25500000920E-02 0.  1.
        2   -1    0    0  501    0  0.00000000000E+00  0.00000000000E+00 -0.11473121098E+04  0.11473121098E+04  0.25500000920E-02 0. -1.
    10030    2    1    2    0    0  0.00000000000E+00  0.00000000000E+00  0.55497567221E+03  0.28495998919E+04  0.27950351602E+04 0.  0.
        2    1    3    3  502    0  0.16505630822E+03  0.35624225808E+03  0.16449033852E+04  0.16911118467E+04  0.25500000920E-02 0.  1.
       -2    1    3    3    0  502 -0.16505630822E+03 -0.35624225808E+03 -0.10899277130E+04  0.11584880452E+04  0.25500000920E-02 0. -1.
</event>
<event>
 5   0  0.1461146E-06  0.2798375E+04  0.7818609E-02  0.8303773E-01
       -2   -1    0    0    0  501  0.00000000000E+00  0.00000000000E+00  0.12061630777E+04  0.12061630777E+04  0.25500000920E-02 0. -1.
        2   -1    0    0  501    0  0.00000000000E+00  0.00000000000E+00 -0.16231017475E+04  0.16231017475E+04  0.25500000920E-02 0.  1.
    10030    2    1    2    0    0  0.00000000000E+00  0.00000000000E+00 -0.41693866984E+03  0.28292648252E+04  0.27983748135E+04 0.  0.
        1    1    3    3  502    0  0.64189527461E+03  0.33189133369E+02  0.10480666660E+04  0.12294611822E+04  0.50400001928E-02 0. -1.
       -1    1    3    3    0  502 -0.64189527461E+03 -0.33189133369E+02 -0.14650053358E+04  0.15998036430E+04  0.50400001928E-02 0.  1.
</event>
<event>
 5   0  0.1439207E-06  0.2799930E+04  0.7818609E-02  0.8303290E-01
       -2   -1    0    0    0  501  0.00000000000E+00  0.00000000000E+00  0.13452438020E+04  0.13452438020E+04  0.25500000920E-02 0.  1.
        2   -1    0    0  501    0  0.00000000000E+00  0.00000000000E+00 -0.14569117253E+04  0.14569117253E+04  0.25500000920E-02 0. -1.
    10030    2    1    2    0    0  0.00000000000E+00  0.00000000000E+00 -0.11166792325E+03  0.28021555273E+04  0.27999296194E+04 0.  0.
        5    1    3    3  502    0  0.53107049293E+03 -0.19279500027E+03  0.12260721439E+04  0.13499928787E+04  0.46999998093E+01 0.  1.
       -5    1    3    3    0  502 -0.53107049293E+03  0.19279500027E+03 -0.13377400671E+04  0.14521626485E+04  0.46999998093E+01 0. -1.
</event>
<event>
 5   0  0.4710000E-07  0.2806123E+04  0.7818609E-02  0.8301370E-01
       -3   -1    0    0    0  501  0.00000000000E+00  0.00000000000E+00  0.21319274021E+04  0.21319274045E+04  0.10100000352E+00 0. -1.
        3   -1    0    0  501    0  0.00000000000E+00  0.00000000000E+00 -0.92338135656E+03  0.92338136209E+03  0.10100000352E+00 0.  1.
    10030    2    1    2    0    0  0.00000000000E+00  0.00000000000E+00  0.12085460455E+04  0.30553087665E+04  0.28061233250E+04 0.  0.
        5    1    3    3  502    0 -0.61570303649E+03 -0.75474780742E+03  0.17038136396E+04  0.19625843906E+04  0.46999998093E+01 0. -1.
       -5    1    3    3    0  502  0.61570303649E+03  0.75474780742E+03 -0.49526759408E+03  0.10927243759E+04  0.46999998093E+01 0.  1.
</event>
<event>
 5   0  0.5214658E-07  0.2867018E+04  0.7818609E-02  0.8282759E-01
       -1   -1    0    0    0  501  0.00000000000E+00  0.00000000000E+00  0.95846893854E+03  0.95846893856E+03  0.50400001928E-02 0. -1.
        1   -1    0    0  501    0  0.00000000000E+00  0.00000000000E+00 -0.21439901200E+04  0.21439901200E+04  0.50400001928E-02 0.  1.
    10030    2    1    2    0    0  0.00000000000E+00  0.00000000000E+00 -0.11855211815E+04  0.31024590586E+04  0.28670179174E+04 0.  0.
        2    1    3    3  502    0 -0.12442357183E+04  0.68576140102E+03 -0.79965998544E+03  0.16302905613E+04  0.25500000920E-02 0.  1.
       -2    1    3    3    0  502  0.12442357183E+04 -0.68576140102E+03 -0.38586119602E+03  0.14721684973E+04  0.25500000920E-02 0. -1.
</event>
<event>
 5   0  0.1394410E-06  0.2805489E+04  0.7818609E-02  0.8301566E-01
       -2   -1    0    0    0  501  0.00000000000E+00  0.00000000000E+00  0.94212670560E+03  0.94212670560E+03  0.25500000920E-02 0. -1.
        2   -1    0    0  501    0  0.00000000000E+00  0.00000000000E+00 -0.20885635050E+04  0.20885635050E+04  0.25500000920E-02 0.  1.
    10030    2    1    2    0    0  0.00000000000E+00  0.00000000000E+00 -0.11464367994E+04  0.30306902106E+04  0.28054885168E+04 0.  0.
        4    1    3    3  502    0  0.46914712901E+03 -0.67700564784E+03 -0.17998165980E+04  0.19793375344E+04  0.12699999809E+01 0.  1.
       -4    1    3    3    0  502 -0.46914712901E+03  0.67700564784E+03  0.65337979852E+03  0.10513526763E+04  0.12699999809E+01 0. -1.
</event>
<event>
 5   0  0.1461146E-06  0.2799681E+04  0.7818609E-02  0.8303367E-01
       -2   -1    0    0    0  501  0.00000000000E+00  0.00000000000E+00  0.12373830516E+04  0.12373830516E+04  0.25500000920E-02 0.  1.
        2   -1    0    0  501    0  0.00000000000E+00  0.00000000000E+00 -0.15836274727E+04  0.15836274727E+04  0.25500000920E-02 0. -1.
    10030    2    1    2    0    0  0.00000000000E+00  0.00000000000E+00 -0.34624442115E+03  0.28210105243E+04  0.27996812639E+04 0.  0.
        1    1    3    3  502    0  0.16161698221E+03  0.89053935279E+03 -0.12491405070E+04  0.15425733027E+04  0.50400001928E-02 0. -1.
       -1    1    3    3    0  502 -0.16161698221E+03 -0.89053935279E+03  0.90289608588E+03  0.12784372217E+04  0.50400001928E-02 0.  1.
</event>
<event>
 5   0  0.5362952E-07  0.2795311E+04  0.7818609E-02  0.8304726E-01
        1   -1    0    0  501    0  0.00000000000E+00  0.00000000000E+00  0.22191171354E+04  0.22191171354E+04  0.50400001928E-02 0. -1.
       -1   -1    0    0    0  501  0.00000000000E+00  0.00000000000E+00 -0.88027849953E+03  0.88027849954E+03  0.50400001928E-02 0.  1.
    10030    2    1    2    0    0  0.00000000000E+00  0.00000000000E+00  0.13388386359E+04  0.30993956350E+04  0.27953111471E+04 0.  0.
        1    1    3    3  502    0  0.10437604408E+04 -0.89698206926E+03  0.93971799680E+03  0.16664581015E+04  0.50400001928E-02 0. -1.
       -1    1    3    3    0  502 -0.10437604408E+04  0.89698206926E+03  0.39912063908E+03  0.14329375335E+04  0.50400001928E-02 0.  1.
</event>
<event>
 5   0  0.5297741E-07  0.2714478E+04  0.7818609E-02  0.8330323E-01
       -1   -1    0    0    0  501  0.00000000000E+00  0.00000000000E+00  0.11651868874E+04  0.11651868874E+04  0.50400001928E-02 0.  1.
        1   -1    0    0  501    0  0.00000000000E+00  0.00000000000E+00 -0.15809461318E+04  0.15809461318E+04  0.50400001928E-02 0. -1.
    10030    2    1    2    0    0  0.00000000000E+00  0.00000000000E+00 -0.41575924441E+03  0.27461330192E+04  0.27144779995E+04 0.  0.
        5    1    3    3  502    0 -0.63235929854E+03 -0.98877278790E+02 -0.14186743608E+04  0.15563784986E+04  0.46999998093E+01 0. -1.
       -5    1    3    3    0  502  0.63235929854E+03  0.98877278790E+02  0.10029151164E+04  0.11897545207E+04  0.46999998093E+01 0.  1.
</event>
<event>
 5   0  0.1439207E-06  0.2805004E+04  0.7818609E-02  0.8301717E-01
        2   -1    0    0  501    0  0.00000000000E+00  0.00000000000E+00  0.12570486406E+04  0.12570486406E+04  0.25500000920E-02 0.  1.
       -2   -1    0    0    0  501  0.00000000000E+00  0.00000000000E+00 -0.15647857926E+04  0.15647857926E+04  0.25500000920E-02 0. -1.
    10030    2    1    2    0    0  0.00000000000E+00  0.00000000000E+00 -0.30773715193E+03  0.28218344332E+04  0.28050039953E+04 0.  0.
        5    1    3    3  502    0  0.48709139804E+03 -0.76860164361E+02  0.11669541635E+04  0.12668739576E+04  0.46999998093E+01 0.  1.
       -5    1    3    3    0  502 -0.48709139804E+03  0.76860164361E+02 -0.14746913154E+04  0.15549604756E+04  0.46999998093E+01 0. -1.
</event>
<event>
 5   0  0.1439207E-06  0.2802989E+04  0.7818609E-02  0.8302341E-01
        2   -1    0    0  501    0  0.00000000000E+00  0.00000000000E+00  0.11377254341E+04  0.11377254341E+04  0.25500000920E-02 0.  1.
       -2   -1    0    0    0  501  0.00000000000E+00  0.00000000000E+00 -0.17264159816E+04  0.17264159816E+04  0.25500000920E-02 0. -1.
    10030    2    1    2    0    0  0.00000000000E+00  0.00000000000E+00 -0.58869054757E+03  0.28641414157E+04  0.28029893843E+04 0.  0.
        5    1    3    3  502    0  0.10845707901E+04  0.88534543478E+03 -0.35925231045E+03  0.14454115851E+04  0.46999998093E+01 0. -1.
       -5    1    3    3    0  502 -0.10845707901E+04 -0.88534543478E+03 -0.22943823712E+03  0.14187298306E+04  0.46999998093E+01 0.  1.
</event>
<event>
 5   0  0.1439207E-06  0.2823706E+04  0.7818609E-02  0.8295946E-01
       -2   -1    0    0    0  501  0.00000000000E+00  0.00000000000E+00  0.14274496416E+04  0.14274496416E+04  0.25500000920E-02 0. -1.
        2   -1    0    0  501    0  0.00000000000E+00  0.00000000000E+00 -0.13964264837E+04  0.13964264838E+04  0.25500000920E-02 0.  1.
    10030    2    1    2    0    0  0.00000000000E+00  0.00000000000E+00  0.31023157861E+02  0.28238761254E+04  0.28237057097E+04 0.  0.
        5    1    3    3  502    0 -0.78115857816E+03  0.11672708409E+04 -0.12794202760E+03  0.14103620786E+04  0.46999998093E+01 0.  1.
       -5    1    3    3    0  502  0.78115857816E+03 -0.11672708409E+04  0.15896518546E+03  0.14135140468E+04  0.46999998093E+01 0. -1.
</event>
<event>
 5   0  0.1394410E-06  0.2799495E+04  0.7818609E-02  0.8303425E-01
        2   -1    0    0  501    0  0.00000000000E+00  0.00000000000E+00  0.14786151101E+04  0.14786151101E+04  0.25500000920E-02 0.  1.
       -2   -1    0    0    0  501  0.00000000000E+00  0.00000000000E+00 -0.13250863086E+04  0.13250863086E+04  0.25500000920E-02 0. -1.
    10030    2    1    2    0    0  0.00000000000E+00  0.00000000000E+00  0.15352880155E+03  0.28037014187E+04  0.27994946959E+04 0.  0.
        4    1    3    3  502    0  0.54959249174E+03 -0.89696740477E+03 -0.84803457268E+03  0.13512093404E+04  0.12699999809E+01 0. -1.
       -4    1    3    3    0  502 -0.54959249174E+03  0.89696740477E+03  0.10015633742E+04  0.14524920784E+04  0.12699999809E+01 0.  1.
</event>
<event>
 5   0  0.1394410E-06  0.2803622E+04  0.7818609E-02  0.8302145E-01
        2   -1    0    0  501    0  0.00000000000E+00  0.00000000000E+00  0.20329146156E+04  0.20329146156E+04  0.25500000920E-02 0. -1.
       -2   -1    0    0    0  501  0.00000000000E+00  0.00000000000E+00 -0.96662882317E+03  0.96662882317E+03  0.25500000920E-02 0.  1.
    10030    2    1    2    0    0  0.00000000000E+00  0.00000000000E+00  0.10662857925E+04  0.29995434388E+04  0.28036218451E+04 0.  0.
        4    1    3    3  502    0 -0.11412217786E+04  0.53354007667E+03 -0.12465602979E+03  0.12659355829E+04  0.12699999809E+01 0.  1.
       -4    1    3    3    0  502  0.11412217786E+04 -0.53354007667E+03  0.11909418222E+04  0.17336078559E+04  0.12699999809E+01 0. -1.
</event>
<event>
 5   0  0.5297741E-07  0.2824872E+04  0.7818609E-02  0.8295588E-01
        1   -1    0    0  501    0  0.00000000000E+00  0.00000000000E+00  0.18478365626E+04  0.18478365626E+04  0.50400001928E-02 0.  1.
       -1   -1    0    0    0  501  0.00000000000E+00  0.00000000000E+00 -0.10796273874E+04  0.10796273874E+04  0.50400001928E-02 0. -1.
    10030    2    1    2    0    0  0.00000000000E+00  0.00000000000E+00  0.76820917516E+03  0.29274639500E+04  0.28248716505E+04 0.  0.
        5    1    3    3  502    0 -0.74335501515E+03  0.12000729899E+04  0.33548582302E+03  0.14509737031E+04  0.46999998093E+01 0. -1.
       -5    1    3    3    0  502  0.74335501515E+03 -0.12000729899E+04  0.43272335214E+03  0.14764902469E+04  0.46999998093E+01 0.  1.
</event>
<event>
 5   0  0.1499888E-06  0.2814140E+04  0.7818609E-02  0.8298892E-01
       -2   -1    0    0    0  501  0.00000000000E+00  0.00000000000E+00  0.20014179891E+04  0.20014179891E+04  0.25500000920E-02 0. -1.
        2   -1    0    0  501    0  0.00000000000E+00  0.00000000000E+00 -0.98922136563E+03  0.98922136563E+03  0.25500000920E-02 0.  1.
    10030    2    1    2    0    0  0.00000000000E+00  0.00000000000E+00  0.10121966235E+04  0.29906393547E+04  0.28141396102E+04 0.  0.
        3    1    3    3  502    0 -0.13942467433E+04  0.43070619596E+02  0.30995147308E+03  0.14289328135E+04  0.10100000352E+00 0. -1.
       -3    1    3    3    0  502  0.13942467433E+04 -0.43070619596E+02  0.70224515037E+03  0.15617065412E+04  0.10100000352E+00 0.  1.
</event>
<event>
 5   0  0.1377807E-06  0.2800002E+04  0.7818609E-02  0.8303268E-01
       -2   -1    0    0    0  501  0.00000000000E+00  0.00000000000E+00  0.15361084142E+04  0.15361084142E+04  0.25500000920E-02 0.  1.
        2   -1    0    0  501    0  0.00000000000E+00  0.00000000000E+00 -0.12759533022E+04  0.12759533022E+04  0.25500000920E-02 0. -1.
    10030    2    1    2    0    0  0.00000000000E+00  0.00000000000E+00  0.26015511208E+03  0.28120617164E+04  0.28000018597E+04 0.  0.
        2    1    3    3  502    0  0.10214347823E+04  0.32695782838E+03 -0.77367169626E+03  0.13224213888E+04  0.25500000920E-02 0. -1.
       -2    1    3    3    0  502 -0.10214347823E+04 -0.32695782838E+03  0.10338268083E+04  0.14896403276E+04  0.25500000920E-02 0.  1.
</event>
<event>
 5   0  0.5551565E-07  0.2800756E+04  0.7818609E-02  0.8303034E-01
       -1   -1    0    0    0  501  0.00000000000E+00  0.00000000000E+00  0.13616837124E+04  0.13616837124E+04  0.50400001928E-02 0. -1.
        1   -1    0    0  501    0  0.00000000000E+00  0.00000000000E+00 -0.14401723397E+04  0.14401723397E+04  0.50400001928E-02 0.  1.
    10030    2    1    2    0    0  0.00000000000E+00  0.00000000000E+00 -0.78488627247E+02  0.28018560521E+04  0.28007564821E+04 0.  0.
        3    1    3    3  502    0  0.85916358818E+03 -0.10387732953E+04  0.34017649199E+03  0.13902992794E+04  0.10100000352E+00 0.  1.
       -3    1    3    3    0  502 -0.85916358818E+03  0.10387732953E+04 -0.41866511923E+03  0.14115567727E+04  0.10100000352E+00 0. -1.
</event>
<event>
 5   0  0.1439207E-06  0.2804888E+04  0.7818609E-02  0.8301752E-01
        2   -1    0    0  501    0  0.00000000000E+00  0.00000000000E+00  0.14978347610E+04  0.14978347610E+04  0.25500000920E-02 0.  1.
       -2   -1    0    0    0  501  0.00000000000E+00  0.00000000000E+00 -0.13131282910E+04  0.13131282910E+04  0.25500000920E-02 0. -1.
    10030    2    1    2    0    0  0.00000000000E+00  0.00000000000E+00  0.18470646998E+03  0.28109630519E+04  0.28048880190E+04 0.  0.
        5    1    3    3  502    0 -0.46148470021E+02  0.36122151437E+03 -0.12649125505E+04  0.13162965145E+04  0.46999998093E+01 0. -1.
       -5    1    3    3    0  502  0.46148470021E+02 -0.36122151437E+03  0.14496190205E+04  0.14946665375E+04  0.46999998093E+01 0.  1.
</event>
<event>
 5   0  0.1377807E-06  0.2799838E+04  0.7818609E-02  0.8303319E-01
        2   -1    0    0  501    0  0.00000000000E+00  0.00000000000E+00  0.16195686538E+04  0.16195686538E+04  0.25500000920E-02 0.  1.
       -2   -1    0    0    0  501  0.00000000000E+00  0.00000000000E+00 -0.12100584660E+04  0.12100584661E+04  0.25500000920E-02 0. -1.
    10030    2    1    2    0    0  0.00000000000E+00  0.00000000000E+00  0.40951018773E+03  0.28296271198E+04  0.27998376816E+04 0.  0.
        2    1    3    3  502    0  0.96724919268E+03 -0.98714299203E+03 -0.20666213306E+02  0.13821900665E+04  0.25500000920E-02 0. -1.
       -2    1    3    3    0  502 -0.96724919268E+03  0.98714299203E+03  0.43017640103E+03  0.14474370534E+04  0.25500000920E-02 0.  1.
</event>
<event>
 5   0  0.5362952E-07  0.2800551E+04  0.7818609E-02  0.8303097E-01
        1   -1    0    0  501    0  0.00000000000E+00  0.00000000000E+00  0.18921674938E+04  0.18921674938E+04  0.50400001928E-02 0.  1.
       -1   -1    0    0    0  501  0.00000000000E+00  0.00000000000E+00 -0.10362568417E+04  0.10362568417E+04  0.50400001928E-02 0. -1.
    10030    2    1    2    0    0  0.00000000000E+00  0.00000000000E+00  0.85591065213E+03  0.29284243355E+04  0.28005510252E+04 0.  0.
        1    1    3    3  502    0  0.12620014056E+04  0.10606262153E+03  0.10526220732E+04  0.16467877995E+04  0.50400001928E-02 0.  1.
       -1    1    3    3    0  502 -0.12620014056E+04 -0.10606262153E+03 -0.19671142108E+03  0.12816365361E+04  0.50400001928E-02 0. -1.
</event>
<event>
 5   0  0.1439207E-06  0.2802775E+04  0.7818609E-02  0.8302407E-01
       -2   -1    0    0    0  501  0.00000000000E+00  0.00000000000E+00  0.13129489522E+04  0.13129489522E+04  0.25500000920E-02 0.  1.
        2   -1    0    0  501    0  0.00000000000E+00  0.00000000000E+00 -0.14957831961E+04  0.14957831961E+04  0.25500000920E-02 0. -1.
    10030    2    1    2    0    0  0.00000000000E+00  0.00000000000E+00 -0.18283424395E+03  0.28087321483E+04  0.28027750391E+04 0.  0.
        5    1    3    3  502    0  0.11780024569E+04 -0.30856553556E+03  0.60357143242E+03  0.13591258375E+04  0.46999998093E+01 0.  1.
       -5    1    3    3    0  502 -0.11780024569E+04  0.30856553556E+03 -0.78640567637E+03  0.14496063107E+04  0.46999998093E+01 0. -1.
</event>
<event>
 5   0  0.4710000E-07  0.2794470E+04  0.7818609E-02  0.8304987E-01
        4   -1    0    0  501    0  0.00000000000E+00  0.00000000000E+00  0.14900581384E+04  0.14900586797E+04  0.12699999809E+01 0. -1.
       -4   -1    0    0    0  501  0.00000000000E+00  0.00000000000E+00 -0.13101932050E+04  0.13101938206E+04  0.12699999809E+01 0.  1.
    10030    2    1    2    0    0  0.00000000000E+00  0.00000000000E+00  0.17986493339E+03  0.28002525002E+04  0.27944700161E+04 0.  0.
        5    1    3    3  502    0 -0.11326346834E+04  0.76533144142E+02  0.90618842008E+03  0.14525557445E+04  0.46999998093E+01 0. -1.
       -5    1    3    3    0  502  0.11326346834E+04 -0.76533144142E+02 -0.72632348669E+03  0.13476967557E+04  0.46999998093E+01 0.  1.
</event>
<event>
 5   0  0.1499888E-06  0.2801656E+04  0.7818609E-02  0.8302754E-01
        2   -1    0    0  501    0  0.00000000000E+00  0.00000000000E+00  0.23596177668E+04  0.23596177668E+04  0.25500000920E-02 0. -1.
       -2   -1    0    0    0  501  0.00000000000E+00  0.00000000000E+00 -0.83162586605E+03  0.83162586606E+03  0.25500000920E-02 0.  1.
    10030    2    1    2    0    0  0.00000000000E+00  0.00000000000E+00  0.15279919008E+04  0.31912436329E+04  0.28016560595E+04 0.  0.
        3    1    3    3  502    0 -0.34316113957E+03  0.54929267599E+03 -0.65083706616E+03  0.91818892854E+03  0.10100000352E+00 0.  1.
       -3    1    3    3    0  502  0.34316113957E+03 -0.54929267599E+03  0.21788289669E+04  0.22730547043E+04  0.10100000352E+00 0. -1.
</event>
<event>
 5   0  0.5214658E-07  0.2803300E+04  0.7818609E-02  0.8302244E-01
        1   -1    0    0  501    0  0.00000000000E+00  0.00000000000E+00  0.19939583686E+04  0.19939583686E+04  0.50400001928E-02 0.  1.
       -1   -1    0    0    0  501  0.00000000000E+00  0.00000000000E+00 -0.98528793803E+03  0.98528793805E+03  0.50400001928E-02 0. -1.
    10030    2    1    2    0    0  0.00000000000E+00  0.00000000000E+00  0.10086704305E+04  0.29792463066E+04  0.28033002904E+04 0.  0.
        2    1    3    3  502    0 -0.25061820139E+02 -0.12694229034E+04 -0.12670005096E+03  0.12759762950E+04  0.25500000920E-02 0. -1.
       -2    1    3    3    0  502  0.25061820139E+02  0.12694229034E+04  0.11353704815E+04  0.17032700117E+04  0.25500000920E-02 0.  1.
</event>
<event>
 5   0  0.5297741E-07  0.2809239E+04  0.7818609E-02  0.8300406E-01
        1   -1    0    0  501    0  0.00000000000E+00  0.00000000000E+00  0.16803789145E+04  0.16803789145E+04  0.50400001928E-02 0. -1.
       -1   -1    0    0    0  501  0.00000000000E+00  0.00000000000E+00 -0.11741136715E+04  0.11741136715E+04  0.50400001928E-02 0.  1.
    10030    2    1    2    0    0  0.00000000000E+00  0.00000000000E+00  0.50626524305E+03  0.28544925861E+04  0.28092389410E+04 0.  0.
        5    1    3    3  502    0 -0.90276021588E+03  0.89052056555E+03 -0.36069375692E+03  0.13183796727E+04  0.46999998093E+01 0.  1.
       -5    1    3    3    0  502  0.90276021588E+03 -0.89052056555E+03  0.86695899997E+03  0.15361129134E+04  0.46999998093E+01 0. -1.
</event>
<event>
 5   0  0.1377807E-06  0.2808808E+04  0.7818609E-02  0.8300539E-01
        2   -1    0    0  501    0  0.00000000000E+00  0.00000000000E+00  0.13189732117E+04  0.13189732117E+04  0.25500000920E-02 0.  1.
       -2   -1    0    0    0  501  0.00000000000E+00  0.00000000000E+00 -0.14953677095E+04  0.14953677095E+04  0.25500000920E-02 0. -1.
    10030    2    1    2    0    0  0.00000000000E+00  0.00000000000E+00 -0.17639449777E+03  0.28143409212E+04  0.28088075409E+04 0.  0.
        2    1    3    3  502    0  0.15955802258E+03 -0.68762099652E+03  0.11283068139E+04  0.13309236131E+04  0.25500000920E-02 0.  1.
       -2    1    3    3    0  502 -0.15955802258E+03  0.68762099652E+03 -0.13047013117E+04  0.14834173082E+04  0.25500000920E-02 0. -1.
</event>
<event>
 5   0  0.1461146E-06  0.2799002E+04  0.7818609E-02  0.8303578E-01
        2   -1    0    0  501    0  0.00000000000E+00  0.00000000000E+00  0.11661230360E+04  0.11661230360E+04  0.25500000920E-02 0.  1.
       -2   -1    0    0    0  501  0.00000000000E+00  0.00000000000E+00 -0.16795854103E+04  0.16795854103E+04  0.25500000920E-02 0. -1.
    10030    2    1    2    0    0  0.00000000000E+00  0.00000000000E+00 -0.51346237433E+03  0.28457084463E+04  0.27990021349E+04 0.  0.
        1    1    3    3  502    0  0.18933896539E+03 -0.13449157383E+04 -0.59993737237E+03  0.14847802658E+04  0.50400001928E-02 0. -1.
       -1    1    3    3    0  502 -0.18933896539E+03  0.13449157383E+04  0.86474998036E+02  0.13609281804E+04  0.50400001928E-02 0.  1.
</event>
<event>
 5   0  0.5282098E-07  0.2803634E+04  0.7818609E-02  0.8302141E-01
        1   -1    0    0  501    0  0.00000000000E+00  0.00000000000E+00  0.10197620391E+04  0.10197620391E+04  0.50400001928E-02 0. -1.
       -1   -1    0    0    0  501  0.00000000000E+00  0.00000000000E+00 -0.19270089464E+04  0.19270089464E+04  0.50400001928E-02 0.  1.
    10030    2    1    2    0    0  0.00000000000E+00  0.00000000000E+00 -0.90724690735E+03  0.29467709855E+04  0.28036337653E+04 0.  0.
        4    1    3    3  502    0  0.13992188280E+04 -0.69185472472E+02 -0.40118647356E+03  0.14572412833E+04  0.12699999809E+01 0.  1.
       -4    1    3    3    0  502 -0.13992188280E+04  0.69185472472E+02 -0.50606043378E+03  0.14895297022E+04  0.12699999809E+01 0. -1.
</event>
<event>
 5   0  0.5551565E-07  0.2806233E+04  0.7818609E-02  0.8301336E-01
        1   -1    0    0  501    0  0.00000000000E+00  0.00000000000E+00  0.15054819717E+04  0.15054819717E+04  0.50400001928E-02 0.  1.
       -1   -1    0    0    0  501  0.00000000000E+00  0.00000000000E+00 -0.13077114039E+04  0.13077114039E+04  0.50400001928E-02 0. -1.
    10030    2    1    2    0    0  0.00000000000E+00  0.00000000000E+00  0.19777056778E+03  0.28131933755E+04  0.28062330215E+04 0.  0.
        3    1    3    3  502    0  0.12375253787E+04  0.35524784433E+02 -0.56305912780E+03  0.13600612724E+04  0.10100000352E+00 0. -1.
       -3    1    3    3    0  502 -0.12375253787E+04 -0.35524784433E+02  0.76082969558E+03  0.14531321031E+04  0.10100000352E+00 0.  1.
</event>
<event>
 5   0  0.1377807E-06  0.2803047E+04  0.7818609E-02  0.8302323E-01
        2   -1    0    0  501    0  0.00000000000E+00  0.00000000000E+00  0.19011867098E+04  0.19011867098E+04  0.25500000920E-02 0. -1.
       -2   -1    0    0    0  501  0.00000000000E+00  0.00000000000E+00 -0.10331798015E+04  0.10331798015E+04  0.25500000920E-02 0.  1.
    10030    2    1    2    0    0  0.00000000000E+00  0.00000000000E+00  0.86800690824E+03  0.29343665113E+04  0.28030467049E+04 0.  0.
        2    1    3    3  502    0  0.32188170421E+03  0.82229708008E+03 -0.70532578737E+03  0.11301613981E+04  0.25500000920E-02 0.  1.
       -2    1    3    3    0  502 -0.32188170421E+03 -0.82229708008E+03  0.15733326956E+04  0.18042051132E+04  0.25500000920E-02 0. -1.
</event>
<event>
 5   0  0.5362952E-07  0.2799388E+04  0.7818609E-02  0.8303459E-01
       -1   -1    0    0    0  501  0.00000000000E+00  0.00000000000E+00  0.11509581985E+04  0.11509581985E+04  0.50400001928E-02 0.  1.
        1   -1    0    0  501    0  0.00000000000E+00  0.00000000000E+00 -0.17021840610E+04  0.17021840610E+04  0.50400001928E-02 0. -1.
    10030    2    1    2    0    0  0.00000000000E+00  0.00000000000E+00 -0.55122586250E+03  0.28531422595E+04  0.27993875761E+04 0.  0.
        1    1    3    3  502    0  0.38808643046E+03  0.31352435163E+03  0.10572582464E+04  0.11690609891E+04  0.50400001928E-02 0.  1.
       -1    1    3    3    0  502 -0.38808643046E+03 -0.31352435163E+03 -0.16084841089E+04  0.16840812704E+04  0.50400001928E-02 0. -1.
</event>
<event>
 5   0  0.5362952E-07  0.2805654E+04  0.7818609E-02  0.8301515E-01
       -1   -1    0    0    0  501  0.00000000000E+00  0.00000000000E+00  0.12754975036E+04  0.12754975036E+04  0.50400001928E-02 0. -1.
        1   -1    0    0  501    0  0.00000000000E+00  0.00000000000E+00 -0.15428679836E+04  0.15428679836E+04  0.50400001928E-02 0.  1.
    10030    2    1    2    0    0  0.00000000000E+00  0.00000000000E+00 -0.26737047995E+03  0.28183654872E+04  0.28056544773E+04 0.  0.
        1    1    3    3  502    0 -0.25128424629E+03 -0.13150353017E+04  0.28709512037E+03  0.13692644834E+04  0.50400001928E-02 0. -1.
       -1    1    3    3    0  502  0.25128424629E+03  0.13150353017E+04 -0.55446560033E+03  0.14491010038E+04  0.50400001928E-02 0.  1.
</event>
<event>
 5   0  0.5214658E-07  0.2802210E+04  0.7818609E-02  0.8302582E-01
       -1   -1    0    0    0  501  0.00000000000E+00  0.00000000000E+00  0.96721378765E+03  0.96721378767E+03  0.50400001928E-02 0.  1.
        1   -1    0    0  501    0  0.00000000000E+00  0.00000000000E+00 -0.20296398321E+04  0.20296398321E+04  0.50400001928E-02 0. -1.
    10030    2    1    2    0    0  0.00000000000E+00  0.00000000000E+00 -0.10624260444E+04  0.29968536197E+04  0.28022102916E+04 0.  0.
        2    1    3    3  502    0  0.58475836558E+03 -0.67464983996E+03  0.62360684102E+03  0.10890272012E+04  0.25500000920E-02 0.  1.
       -2    1    3    3    0  502 -0.58475836558E+03  0.67464983996E+03 -0.16860328854E+04  0.19078264186E+04  0.25500000920E-02 0. -1.
</event>
<event>
 5   0  0.1394410E-06  0.2798016E+04  0.7818609E-02  0.8303885E-01
        2   -1    0    0  501    0  0.00000000000E+00  0.00000000000E+00  0.17565879117E+04  0.17565879117E+04  0.25500000920E-02 0.  1.
       -2   -1    0    0    0  501  0.00000000000E+00  0.00000000000E+00 -0.11142188232E+04  0.11142188232E+04  0.25500000920E-02 0. -1.
    10030    2    1    2    0    0  0.00000000000E+00  0.00000000000E+00  0.64236908850E+03  0.28708067349E+04  0.27980159513E+04 0.  0.
        4    1    3    3  502    0  0.10955655748E+04 -0.64367357346E+03  0.92176906578E+03  0.15697896105E+04  0.12699999809E+01 0.  1.
       -4    1    3    3    0  502 -0.10955655748E+04  0.64367357346E+03 -0.27939997728E+03  0.13010171244E+04  0.12699999809E+01 0. -1.
</event>
<event>
 5   0  0.5214658E-07  0.2860640E+04  0.7818609E-02  0.8284685E-01
        1   -1    0    0  501    0  0.00000000000E+00  0.00000000000E+00  0.73580988232E+03  0.73580988234E+03  0.50400001928E-02 0.  1.
       -1   -1    0    0    0  501  0.00000000000E+00  0.00000000000E+00 -0.27803585192E+04  0.27803585192E+04  0.50400001928E-02 0. -1.
    10030    2    1    2    0    0  0.00000000000E+00  0.00000000000E+00 -0.20445486369E+04  0.35161684015E+04  0.28606399807E+04 0.  0.
        2    1    3    3  502    0 -0.13283583172E+04 -0.32159453706E+03 -0.50390269043E+03  0.14566663264E+04  0.25500000920E-02 0.  1.
       -2    1    3    3    0  502  0.13283583172E+04  0.32159453706E+03 -0.15406459464E+04  0.20595020751E+04  0.25500000920E-02 0. -1.
</event>
<event>
 5   0  0.1394410E-06  0.2780407E+04  0.7818609E-02  0.8309377E-01
        2   -1    0    0  501    0  0.00000000000E+00  0.00000000000E+00  0.12872561156E+04  0.12872561156E+04  0.25500000920E-02 0. -1.
       -2   -1    0    0    0  501  0.00000000000E+00  0.00000000000E+00 -0.15013840422E+04  0.15013840422E+04  0.25500000920E-02 0.  1.
    10030    2    1    2    0    0  0.00000000000E+00  0.00000000000E+00 -0.21412792660E+03  0.27886401579E+04  0.27804070136E+04 0.  0.
        4    1    3    3  502    0  0.23570804443E+03 -0.78813775206E+03 -0.12310718907E+04  0.14806279112E+04  0.12699999809E+01 0.  1.
       -4    1    3    3    0  502 -0.23570804443E+03  0.78813775206E+03  0.10169439641E+04  0.13080122467E+04  0.12699999809E+01 0. -1.
</event>
<event>
 5   0  0.1461146E-06  0.2803765E+04  0.7818609E-02  0.8302100E-01
        2   -1    0    0  501    0  0.00000000000E+00  0.00000000000E+00  0.17929424578E+04  0.17929424578E+04  0.25500000920E-02 0. -1.
       -2   -1    0    0    0  501  0.00000000000E+00  0.00000000000E+00 -0.10961169710E+04  0.10961169711E+04  0.25500000920E-02 0.  1.
    10030    2    1    2    0    0  0.00000000000E+00  0.00000000000E+00  0.69682548676E+03  0.28890594289E+04  0.28037650801E+04 0.  0.
        1    1    3    3  502    0 -0.43157994305E+03 -0.94303388654E+03 -0.62352124545E+03  0.12101045004E+04  0.50400001928E-02 0.  1.
       -1    1    3    3    0  502  0.43157994305E+03  0.94303388654E+03  0.13203467322E+04  0.16789549284E+04  0.50400001928E-02 0. -1.
</event>
<event>
 5   0  0.4710000E-07  0.2809907E+04  0.7818609E-02  0.8300199E-01
        4   -1    0    0  501    0  0.00000000000E+00  0.00000000000E+00  0.13453763636E+04  0.13453769630E+04  0.12699999809E+01 0. -1.
       -4   -1    0    0    0  501  0.00000000000E+00  0.00000000000E+00 -0.14671673242E+04  0.14671678739E+04  0.12699999809E+01 0.  1.
    10030    2    1    2    0    0  0.00000000000E+00  0.00000000000E+00 -0.12179096061E+03  0.28125448369E+04  0.28099066571E+04 0.  0.
        1    1    3    3  502    0 -0.11073974817E+04 -0.56615823161E+02 -0.92446812542E+03  0.14436674994E+04  0.50400001928E-02 0.  1.
       -1    1    3    3    0  502  0.11073974817E+04  0.56615823161E+02  0.80267716481E+03  0.13688773374E+04  0.50400001928E-02 0. -1.
</event>
<event>
 5   0  0.1499888E-06  0.2804599E+04  0.7818609E-02  0.8301842E-01
        2   -1    0    0  501    0  0.00000000000E+00  0.00000000000E+00  0.15822005487E+04  0.15822005487E+04  0.25500000920E-02 0.  1.
       -2   -1    0    0    0  501  0.00000000000E+00  0.00000000000E+00 -0.12428534585E+04  0.12428534586E+04  0.25500000920E-02 0. -1.
    10030    2    1    2    0    0  0.00000000000E+00  0.00000000000E+00  0.33934709014E+03  0.28250540072E+04  0.28045986694E+04 0.  0.
        3    1    3    3  502    0  0.13033886309E+04  0.49582686535E+03  0.31832088887E+03  0.14303826069E+04  0.10100000352E+00 0.  1.
       -3    1    3    3    0  502 -0.13033886309E+04 -0.49582686535E+03  0.21026201265E+02  0.13946714003E+04  0.10100000352E+00 0. -1.
</event>
<event>
 5   0  0.1394410E-06  0.2786310E+04  0.7818609E-02  0.8307531E-01
       -2   -1    0    0    0  501  0.00000000000E+00  0.00000000000E+00  0.11926290105E+04  0.11926290105E+04  0.25500000920E-02 0. -1.
        2   -1    0    0  501    0  0.00000000000E+00  0.00000000000E+00 -0.16273974371E+04  0.16273974371E+04  0.25500000920E-02 0.  1.
    10030    2    1    2    0    0  0.00000000000E+00  0.00000000000E+00 -0.43476842654E+03  0.28200264476E+04  0.27863103884E+04 0.  0.
        4    1    3    3  502    0  0.10855019084E+04 -0.83614292741E+03 -0.47228571387E+03  0.14493118355E+04  0.12699999809E+01 0.  1.
       -4    1    3    3    0  502 -0.10855019084E+04  0.83614292741E+03  0.37517287327E+02  0.13707146121E+04  0.12699999809E+01 0. -1.
</event>
<event>
 5   0  0.5551565E-07  0.2786650E+04  0.7818609E-02  0.8307425E-01
       -1   -1    0    0    0  501  0.00000000000E+00  0.00000000000E+00  0.18808021650E+04  0.18808021650E+04  0.50400001928E-02 0. -1.
        1   -1    0    0  501    0  0.00000000000E+00  0.00000000000E+00 -0.10321946777E+04  0.10321946777E+04  0.50400001928E-02 0.  1.
    10030    2    1    2    0    0  0.00000000000E+00  0.00000000000E+00  0.84860748734E+03  0.29129968428E+04  0.27866495902E+04 0.  0.
        3    1    3    3  502    0 -0.62244665862E+03 -0.66867628291E+02 -0.87690038893E+03  0.10774346499E+04  0.10100000352E+00 0.  1.
       -3    1    3    3    0  502  0.62244665862E+03  0.66867628291E+02  0.17255078763E+04  0.18355621928E+04  0.10100000352E+00 0. -1.
</event>
<event>
 5   0  0.5214658E-07  0.2834352E+04  0.7818609E-02  0.8292682E-01
       -1   -1    0    0    0  501  0.00000000000E+00  0.00000000000E+00  0.15062945997E+04  0.15062945998E+04  0.50400001928E-02 0.  1.
        1   -1    0    0  501    0  0.00000000000E+00  0.00000000000E+00 -0.13333300670E+04  0.13333300670E+04  0.50400001928E-02 0. -1.
    10030    2    1    2    0    0  0.00000000000E+00  0.00000000000E+00  0.17296453278E+03  0.28396246667E+04  0.28343520456E+04 0.  0.
        2    1    3    3  502    0  0.53626669135E+03  0.85441281100E+03 -0.91075106594E+03  0.13590697995E+04  0.25500000920E-02 0. -1.
       -2    1    3    3    0  502 -0.53626669135E+03 -0.85441281100E+03  0.10837155987E+04  0.14805548672E+04  0.25500000920E-02 0.  1.
</event>
<event>
 5   0  0.5297741E-07  0.2799600E+04  0.7818609E-02  0.8303393E-01
       -1   -1    0    0    0  501  0.00000000000E+00  0.00000000000E+00  0.12509563438E+04  0.12509563438E+04  0.50400001928E-02 0.  1.
        1   -1    0    0  501    0  0.00000000000E+00  0.00000000000E+00 -0.15663537881E+04  0.15663537881E+04  0.50400001928E-02 0. -1.
    10030    2    1    2    0    0  0.00000000000E+00  0.00000000000E+00 -0.31539744430E+03  0.28173101318E+04  0.27996001199E+04 0.  0.
        5    1    3    3  502    0 -0.73592950694E+03  0.65072811829E+02  0.10387679398E+04  0.12747108036E+04  0.46999998093E+01 0.  1.
       -5    1    3    3    0  502  0.73592950694E+03 -0.65072811829E+02 -0.13541653841E+04  0.15425993283E+04  0.46999998093E+01 0. -1.
</event>
<event>
 5   0  0.1394410E-06  0.2796356E+04  0.7818609E-02  0.8304400E-01
        2   -1    0    0  501    0  0.00000000000E+00  0.00000000000E+00  0.11982461380E+04  0.11982461380E+04  0.25500000920E-02 0.  1.
       -2   -1    0    0    0  501  0.00000000000E+00  0.00000000000E+00 -0.16314695613E+04  0.16314695613E+04  0.25500000920E-02 0. -1.
    10030    2    1    2    0    0  0.00000000000E+00  0.00000000000E+00 -0.43322342332E+03  0.28297156994E+04  0.27963562729E+04 0.  0.
        4    1    3    3  502    0  0.92731971005E+03  0.41467596590E+02  0.84145207109E+03  0.12528705468E+04  0.12699999809E+01 0.  1.
       -4    1    3    3    0  502 -0.92731971005E+03 -0.41467596590E+02 -0.12746754944E+04  0.15768451526E+04  0.12699999809E+01 0. -1.
</event>
<event>
 5   0  0.5362952E-07  0.2801844E+04  0.7818609E-02  0.8302696E-01
       -1   -1    0    0    0  501  0.00000000000E+00  0.00000000000E+00  0.13341591000E+04  0.13341591000E+04  0.50400001928E-02 0. -1.
        1   -1    0    0  501    0  0.00000000000E+00  0.00000000000E+00 -0.14710257495E+04  0.14710257496E+04  0.50400001928E-02 0.  1.
    10030    2    1    2    0    0  0.00000000000E+00  0.00000000000E+00 -0.13686664959E+03  0.28051848495E+04  0.28018439571E+04 0.  0.
        1    1    3    3  502    0  0.29368528754E+03  0.38609380086E+02 -0.14393142124E+04  0.14694785247E+04  0.50400001928E-02 0.  1.
       -1    1    3    3    0  502 -0.29368528754E+03 -0.38609380086E+02  0.13024475628E+04  0.13357063249E+04  0.50400001928E-02 0. -1.
</event>
<event>
 5   0  0.5297741E-07  0.2795011E+04  0.7818609E-02  0.8304819E-01
        1   -1    0    0  501    0  0.00000000000E+00  0.00000000000E+00  0.12413688609E+04  0.12413688609E+04  0.50400001928E-02 0. -1.
       -1   -1    0    0    0  501  0.00000000000E+00  0.00000000000E+00 -0.15732809270E+04  0.15732809270E+04  0.50400001928E-02 0.  1.
    10030    2    1    2    0    0  0.00000000000E+00  0.00000000000E+00 -0.33191206608E+03  0.28146497880E+04  0.27950112360E+04 0.  0.
        5    1    3    3  502    0 -0.58970328245E+03 -0.44179416280E+03  0.10298501867E+04  0.12663117865E+04  0.46999998093E+01 0. -1.
       -5    1    3    3    0  502  0.58970328245E+03  0.44179416280E+03 -0.13617622528E+04  0.15483380014E+04  0.46999998093E+01 0.  1.
</event>
<event>
 5   0  0.5362952E-07  0.2886566E+04  0.7818609E-02  0.8276886E-01
        1   -1    0    0  501    0  0.00000000000E+00  0.00000000000E+00  0.13794469939E+04  0.13794469939E+04  0.50400001928E-02 0.  1.
       -1   -1    0    0    0  501  0.00000000000E+00  0.00000000000E+00 -0.15100733478E+04  0.15100733478E+04  0.50400001928E-02 0. -1.
    10030    2    1    2    0    0  0.00000000000E+00  0.00000000000E+00 -0.13062635384E+03  0.28895203417E+04  0.28865662232E+04 0.  0.
        1    1    3    3  502    0 -0.10449591711E+04  0.62687460493E+03  0.70888294348E+03  0.14097611383E+04  0.50400001928E-02 0.  1.
       -1    1    3    3    0  502  0.10449591711E+04 -0.62687460493E+03 -0.83950929732E+03  0.14797592033E+04  0.50400001928E-02 0. -1.
</event>
<event>
 5   0  0.5214658E-07  0.2797597E+04  0.7818609E-02  0.8304015E-01
        1   -1    0    0  501    0  0.00000000000E+00  0.00000000000E+00  0.15079130324E+04  0.15079130324E+04  0.50400001928E-02 0. -1.
       -1   -1    0    0    0  501  0.00000000000E+00  0.00000000000E+00 -0.12975796621E+04  0.12975796621E+04  0.50400001928E-02 0.  1.
    10030    2    1    2    0    0  0.00000000000E+00  0.00000000000E+00  0.21033337033E+03  0.28054926945E+04  0.27975970282E+04 0.  0.
        2    1    3    3  502    0  0.13473723591E+04 -0.16932230589E+03 -0.23127229995E+03  0.13775228470E+04  0.25500000920E-02 0.  1.
       -2    1    3    3    0  502 -0.13473723591E+04  0.16932230589E+03  0.44160567028E+03  0.14279698475E+04  0.25500000920E-02 0. -1.
</event>
<event>
 5   0  0.1439207E-06  0.2796802E+04  0.7818609E-02  0.8304262E-01
        2   -1    0    0  501    0  0.00000000000E+00  0.00000000000E+00  0.14377576950E+04  0.14377576950E+04  0.25500000920E-02 0.  1.
       -2   -1    0    0    0  501  0.00000000000E+00  0.00000000000E+00 -0.13601213636E+04  0.13601213636E+04  0.25500000920E-02 0. -1.
    10030    2    1    2    0    0  0.00000000000E+00  0.00000000000E+00  0.77636331374E+02  0.27978790586E+04  0.27968017139E+04 0.  0.
        5    1    3    3  502    0  0.26871313194E+03 -0.75605636893E+03 -0.11069067625E+04  0.13671476333E+04  0.46999998093E+01 0. -1.
       -5    1    3    3    0  502 -0.26871313194E+03  0.75605636893E+03  0.11845430939E+04  0.14307314254E+04  0.46999998093E+01 0.  1.
</event>
<event>
 5   0  0.1394410E-06  0.2794665E+04  0.7818609E-02  0.8304927E-01
        2   -1    0    0  501    0  0.00000000000E+00  0.00000000000E+00  0.92556799362E+03  0.92556799362E+03  0.25500000920E-02 0. -1.
       -2   -1    0    0    0  501  0.00000000000E+00  0.00000000000E+00 -0.21095561520E+04  0.21095561520E+04  0.25500000920E-02 0.  1.
    10030    2    1    2    0    0  0.00000000000E+00  0.00000000000E+00 -0.11839881584E+04  0.30351241456E+04  0.27946646704E+04 0.  0.
        4    1    3    3  502    0 -0.96402447516E+03 -0.33599755176E+03 -0.16281823411E+04  0.19217744124E+04  0.12699999809E+01 0.  1.
       -4    1    3    3    0  502  0.96402447516E+03  0.33599755176E+03  0.44419418273E+03  0.11133497332E+04  0.12699999809E+01 0. -1.
</event>
<event>
 5   0  0.5551565E-07  0.2802375E+04  0.7818609E-02  0.8302531E-01
       -1   -1    0    0    0  501  0.00000000000E+00  0.00000000000E+00  0.28354444718E+04  0.28354444718E+04  0.50400001928E-02 0. -1.
        1   -1    0    0  501    0  0.00000000000E+00  0.00000000000E+00 -0.69242292050E+03  0.69242292052E+03  0.50400001928E-02 0.  1.
    10030    2    1    2    0    0  0.00000000000E+00  0.00000000000E+00  0.21430215513E+04  0.35278673923E+04  0.28023752369E+04 0.  0.
        3    1    3    3  502    0  0.82741318047E+03 -0.21515359877E+03 -0.32603447507E+03  0.91498750342E+03  0.10100000352E+00 0.  1.
       -3    1    3    3    0  502 -0.82741318047E+03  0.21515359877E+03  0.24690560263E+04  0.26128798889E+04  0.10100000352E+00 0. -1.
</event>
<event>
 5   0  0.5214658E-07  0.2799789E+04  0.7818609E-02  0.8303334E-01
       -1   -1    0    0    0  501  0.00000000000E+00  0.00000000000E+00  0.12719024233E+04  0.12719024233E+04  0.50400001928E-02 0. -1.
        1   -1    0    0  501    0  0.00000000000E+00  0.00000000000E+00 -0.15407666621E+04  0.15407666621E+04  0.50400001928E-02 0.  1.
    10030    2    1    2    0    0  0.00000000000E+00  0.00000000000E+00 -0.26886423881E+03  0.28126690854E+04  0.27997891715E+04 0.  0.
        2    1    3    3  502    0  0.22583533947E+03  0.52147190053E+03 -0.14196808372E+04  0.15291920164E+04  0.25500000920E-02 0.  1.
       -2    1    3    3    0  502 -0.22583533947E+03 -0.52147190053E+03  0.11508165983E+04  0.12834770690E+04  0.25500000920E-02 0. -1.
</event>
<event>
 5   0  0.1394410E-06  0.2800657E+04  0.7818609E-02  0.8303064E-01
        2   -1    0    0  501    0  0.00000000000E+00  0.00000000000E+00  0.12804625546E+04  0.12804625546E+04  0.25500000920E-02 0.  1.
       -2   -1    0    0    0  501  0.00000000000E+00  0.00000000000E+00 -0.15314156240E+04  0.15314156240E+04  0.25500000920E-02 0. -1.
    10030    2    1    2    0    0  0.00000000000E+00  0.00000000000E+00 -0.25095306946E+03  0.28118781786E+04  0.28006573243E+04 0.  0.
        4    1    3    3  502    0 -0.11842308259E+03 -0.30633066802E+03  0.12412474890E+04  0.12839624007E+04  0.12699999809E+01 0.  1.
       -4    1    3    3    0  502  0.11842308259E+03  0.30633066802E+03 -0.14922005585E+04  0.15279157779E+04  0.12699999809E+01 0. -1.
</event>
<event>
 5   0  0.5362952E-07  0.2802777E+04  0.7818609E-02  0.8302407E-01
       -1   -1    0    0    0  501  0.00000000000E+00  0.00000000000E+00  0.17703916616E+04  0.17703916616E+04  0.50400001928E-02 0. -1.
        1   -1    0    0  501    0  0.00000000000E+00  0.00000000000E+00 -0.11092968150E+04  0.11092968150E+04  0.50400001928E-02 0.  1.
    10030    2    1    2    0    0  0.00000000000E+00  0.00000000000E+00  0.66109484660E+03  0.28796884767E+04  0.28027770740E+04 0.  0.
        1    1    3    3  502    0 -0.38520498070E+03  0.80526665209E+03 -0.77939937407E+03  0.11850319162E+04  0.50400001928E-02 0.  1.
       -1    1    3    3    0  502  0.38520498070E+03 -0.80526665209E+03  0.14404942207E+04  0.16946565605E+04  0.50400001928E-02 0. -1.
</event>
<event>
 5   0  0.1394410E-06  0.2798486E+04  0.7818609E-02  0.8303738E-01
       -2   -1    0    0    0  501  0.00000000000E+00  0.00000000000E+00  0.14401044806E+04  0.14401044807E+04  0.25500000920E-02 0. -1.
        2   -1    0    0  501    0  0.00000000000E+00  0.00000000000E+00 -0.13595411115E+04  0.13595411115E+04  0.25500000920E-02 0.  1.
    10030    2    1    2    0    0  0.00000000000E+00  0.00000000000E+00  0.80563369132E+02  0.27996455922E+04  0.27984861953E+04 0.  0.
        4    1    3    3  502    0  0.17437859481E+03  0.12360433250E+04  0.67273711171E+03  0.14180225069E+04  0.12699999809E+01 0. -1.
       -4    1    3    3    0  502 -0.17437859481E+03 -0.12360433250E+04 -0.59217374258E+03  0.13816230853E+04  0.12699999809E+01 0.  1.
</event>
<event>
 5   0  0.5362952E-07  0.2794744E+04  0.7818609E-02  0.8304902E-01
       -1   -1    0    0    0  501  0.00000000000E+00  0.00000000000E+00  0.11500307490E+04  0.11500307491E+04  0.50400001928E-02 0.  1.
        1   -1    0    0  501    0  0.00000000000E+00  0.00000000000E+00 -0.16979103696E+04  0.16979103696E+04  0.50400001928E-02 0. -1.
    10030    2    1    2    0    0  0.00000000000E+00  0.00000000000E+00 -0.54787962053E+03  0.28479411186E+04  0.27947444492E+04 0.  0.
        1    1    3    3  502    0  0.27120356701E+03  0.85962593692E+03  0.81415862794E+03  0.12146449677E+04  0.50400001928E-02 0.  1.
       -1    1    3    3    0  502 -0.27120356701E+03 -0.85962593692E+03 -0.13620382485E+04  0.16332961509E+04  0.50400001928E-02 0. -1.
</event>
<event>
 5   0  0.5362952E-07  0.2801133E+04  0.7818609E-02  0.8302917E-01
       -1   -1    0    0    0  501  0.00000000000E+00  0.00000000000E+00  0.14976415439E+04  0.14976415439E+04  0.50400001928E-02 0. -1.
        1   -1    0    0  501    0  0.00000000000E+00  0.00000000000E+00 -0.13097833197E+04  0.13097833197E+04  0.50400001928E-02 0.  1.
    10030    2    1    2    0    0  0.00000000000E+00  0.00000000000E+00  0.18785822424E+03  0.28074248637E+04  0.28011325661E+04 0.  0.
        1    1    3    3  502    0 -0.55921779964E+03 -0.11818242755E+04 -0.40934701659E+03  0.13700358191E+04  0.50400001928E-02 0. -1.
       -1    1    3    3    0  502  0.55921779964E+03  0.11818242755E+04  0.59720524083E+03  0.14373890445E+04  0.50400001928E-02 0.  1.
</event>
<event>
 5   0  0.1439207E-06  0.2806430E+04  0.7818609E-02  0.8301275E-01
        2   -1    0    0  501    0  0.00000000000E+00  0.00000000000E+00  0.13168367667E+04  0.13168367667E+04  0.25500000920E-02 0.  1.
       -2   -1    0    0    0  501  0.00000000000E+00  0.00000000000E+00 -0.14952588736E+04  0.14952588736E+04  0.25500000920E-02 0. -1.
    10030    2    1    2    0    0  0.00000000000E+00  0.00000000000E+00 -0.17842210694E+03  0.28120956403E+04  0.28064296610E+04 0.  0.
        5    1    3    3  502    0 -0.11738040408E+03 -0.11688659501E+04 -0.85820036053E+03  0.14548387256E+04  0.46999998093E+01 0. -1.
       -5    1    3    3    0  502  0.11738040408E+03  0.11688659501E+04  0.67977825359E+03  0.13572569148E+04  0.46999998093E+01 0.  1.
</event>
<event>
 5   0  0.5297741E-07  0.2788727E+04  0.7818609E-02  0.8306777E-01
       -1   -1    0    0    0  501  0.00000000000E+00  0.00000000000E+00  0.11344776587E+04  0.11344776587E+04  0.50400001928E-02 0.  1.
        1   -1    0    0  501    0  0.00000000000E+00  0.00000000000E+00 -0.17137843830E+04  0.17137843830E+04  0.50400001928E-02 0. -1.
    10030    2    1    2    0    0  0.00000000000E+00  0.00000000000E+00 -0.57930672426E+03  0.28482620417E+04  0.27887273759E+04 0.  0.
        5    1    3    3  502    0 -0.70911199995E+03 -0.11574510094E+04 -0.61535834396E+03  0.14903760093E+04  0.46999998093E+01 0. -1.
       -5    1    3    3    0  502  0.70911199995E+03  0.11574510094E+04  0.36051619700E+02  0.13578860324E+04  0.46999998093E+01 0.  1.
</event>
<event>
 5   0  0.1499888E-06  0.2799151E+04  0.7818609E-02  0.8303532E-01
       -2   -1    0    0    0  501  0.00000000000E+00  0.00000000000E+00  0.12981521744E+04  0.12981521744E+04  0.25500000920E-02 0.  1.
        2   -1    0    0  501    0  0.00000000000E+00  0.00000000000E+00 -0.15089230436E+04  0.15089230436E+04  0.25500000920E-02 0. -1.
    10030    2    1    2    0    0  0.00000000000E+00  0.00000000000E+00 -0.21077086916E+03  0.28070752180E+04  0.27991511071E+04 0.  0.
        3    1    3    3  502    0 -0.13083865088E+04  0.27958256704E+03 -0.51736473725E+03  0.14344713137E+04  0.10100000352E+00 0. -1.
       -3    1    3    3    0  502  0.13083865088E+04 -0.27958256704E+03  0.30659386809E+03  0.13726039044E+04  0.10100000352E+00 0.  1.
</event>
<event>
 5   0  0.1394410E-06  0.2798727E+04  0.7818609E-02  0.8303664E-01
       -2   -1    0    0    0  501  0.00000000000E+00  0.00000000000E+00  0.13450548597E+04  0.13450548597E+04  0.25500000920E-02 0.  1.
        2   -1    0    0  501    0  0.00000000000E+00  0.00000000000E+00 -0.14558646470E+04  0.14558646470E+04  0.25500000920E-02 0. -1.
    10030    2    1    2    0    0  0.00000000000E+00  0.00000000000E+00 -0.11080978729E+03  0.28009195066E+04  0.27987267237E+04 0.  0.
        4    1    3    3  502    0 -0.24846205996E+03  0.34583988543E+03  0.12786352172E+04  0.13476825491E+04  0.12699999809E+01 0.  1.
       -4    1    3    3    0  502  0.24846205996E+03 -0.34583988543E+03 -0.13894450044E+04  0.14532369576E+04  0.12699999809E+01 0. -1.
</event>
<event>
 5   0  0.1499888E-06  0.2791863E+04  0.7818609E-02  0.8305799E-01
        2   -1    0    0  501    0  0.00000000000E+00  0.00000000000E+00  0.17511439551E+04  0.17511439551E+04  0.25500000920E-02 0.  1.
       -2   -1    0    0    0  501  0.00000000000E+00  0.00000000000E+00 -0.11127724133E+04  0.11127724134E+04  0.25500000920E-02 0. -1.
    10030    2    1    2    0    0  0.00000000000E+00  0.00000000000E+00  0.63837154171E+03  0.28639163684E+04  0.27918629515E+04 0.  0.
        3    1    3    3  502    0  0.21044411144E+02  0.81609666934E+03  0.14807379091E+04  0.16908700147E+04  0.10100000352E+00 0.  1.
       -3    1    3    3    0  502 -0.21044411144E+02 -0.81609666934E+03 -0.84236636737E+03  0.11730463537E+04  0.10100000352E+00 0. -1.
</event>
<event>
 5   0  0.1461146E-06  0.2757304E+04  0.7818609E-02  0.8316648E-01
        2   -1    0    0  501    0  0.00000000000E+00  0.00000000000E+00  0.16809322083E+04  0.16809322083E+04  0.25500000920E-02 0.  1.
       -2   -1    0    0    0  501  0.00000000000E+00  0.00000000000E+00 -0.11307308310E+04  0.11307308310E+04  0.25500000920E-02 0. -1.
    10030    2    1    2    0    0  0.00000000000E+00  0.00000000000E+00  0.55020137723E+03  0.28116630393E+04  0.27573043885E+04 0.  0.
        1    1    3    3  502    0  0.60147373762E+01 -0.83075300713E+03  0.13970160239E+04  0.16253739591E+04  0.50400001928E-02 0.  1.
       -1    1    3    3    0  502 -0.60147373762E+01  0.83075300713E+03 -0.84681464667E+03  0.11862890802E+04  0.50400001928E-02 0. -1.
</event>
<event>
 5   0  0.5214658E-07  0.2798831E+04  0.7818609E-02  0.8303631E-01
        1   -1    0    0  501    0  0.00000000000E+00  0.00000000000E+00  0.10339835757E+04  0.10339835757E+04  0.50400001928E-02 0.  1.
       -1   -1    0    0    0  501  0.00000000000E+00  0.00000000000E+00 -0.18939992803E+04  0.18939992803E+04  0.50400001928E-02 0. -1.
    10030    2    1    2    0    0  0.00000000000E+00  0.00000000000E+00 -0.86001570463E+03  0.29279828560E+04  0.27988312905E+04 0.  0.
        2    1    3    3  502    0  0.34237039383E+03 -0.73609440903E+03 -0.16224806493E+04  0.18142480323E+04  0.25500000920E-02 0. -1.
       -2    1    3    3    0  502 -0.34237039383E+03  0.73609440903E+03  0.76246494464E+03  0.11137348236E+04  0.25500000920E-02 0.  1.
</event>
<event>
 5   0  0.5282098E-07  0.2800069E+04  0.7818609E-02  0.8303247E-01
       -1   -1    0    0    0  501  0.00000000000E+00  0.00000000000E+00  0.14054427514E+04  0.14054427514E+04  0.50400001928E-02 0. -1.
        1   -1    0    0  501    0  0.00000000000E+00  0.00000000000E+00 -0.13946468525E+04  0.13946468525E+04  0.50400001928E-02 0.  1.
    10030    2    1    2    0    0  0.00000000000E+00  0.00000000000E+00  0.10795898906E+02  0.28000896039E+04  0.28000687917E+04 0.  0.
        4    1    3    3  502    0  0.76070124030E+03  0.39641464283E+03  0.11118797388E+04  0.14043109031E+04  0.12699999809E+01 0. -1.
       -4    1    3    3    0  502 -0.76070124030E+03 -0.39641464283E+03 -0.11010838399E+04  0.13957787008E+04  0.12699999809E+01 0.  1.
</event>
<event>
 5   0  0.1439207E-06  0.2854169E+04  0.7818609E-02  0.8286646E-01
       -2   -1    0    0    0  501  0.00000000000E+00  0.00000000000E+00  0.10456468243E+04  0.10456468243E+04  0.25500000920E-02 0.  1.
        2   -1    0    0  501    0  0.00000000000E+00  0.00000000000E+00 -0.19476651430E+04  0.19476651430E+04  0.25500000920E-02 0. -1.
    10030    2    1    2    0    0  0.00000000000E+00  0.00000000000E+00 -0.90201831873E+03  0.29933119673E+04  0.28541687908E+04 0.  0.
        5    1    3    3  502    0  0.32272676927E+03 -0.12675402338E+04 -0.10495666290E+04  0.16770280292E+04  0.46999998093E+01 0. -1.
       -5    1    3    3    0  502 -0.32272676927E+03  0.12675402338E+04  0.14754831024E+03  0.13162839381E+04  0.46999998093E+01 0.  1.
</event>
<event>
 5   0  0.5362952E-07  0.2798590E+04  0.7818609E-02  0.8303706E-01
        1   -1    0    0  501    0  0.00000000000E+00  0.00000000000E+00  0.14570487284E+04  0.14570487284E+04  0.50400001928E-02 0.  1.
       -1   -1    0    0    0  501  0.00000000000E+00  0.00000000000E+00 -0.13438307827E+04  0.13438307827E+04  0.50400001928E-02 0. -1.
    10030    2    1    2    0    0  0.00000000000E+00  0.00000000000E+00  0.11321794570E+03  0.28008795111E+04  0.27985903117E+04 0.  0.
        1    1    3    3  502    0  0.76720181358E+02 -0.10983512374E+04  0.92089252143E+03  0.14353760702E+04  0.50400001928E-02 0.  1.
       -1    1    3    3    0  502 -0.76720181358E+02  0.10983512374E+04 -0.80767457573E+03  0.13655034409E+04  0.50400001928E-02 0. -1.
</event>
<event>
 5   0  0.5282098E-07  0.2802357E+04  0.7818609E-02  0.8302537E-01
       -1   -1    0    0    0  501  0.00000000000E+00  0.00000000000E+00  0.11695972178E+04  0.11695972178E+04  0.50400001928E-02 0. -1.
        1   -1    0    0  501    0  0.00000000000E+00  0.00000000000E+00 -0.16786125059E+04  0.16786125059E+04  0.50400001928E-02 0.  1.
    10030    2    1    2    0    0  0.00000000000E+00  0.00000000000E+00 -0.50901528810E+03  0.28482097238E+04  0.28023565203E+04 0.  0.
        4    1    3    3  502    0  0.30047735242E+03 -0.19729703708E+03 -0.16309513163E+04  0.16700947785E+04  0.12699999809E+01 0.  1.
       -4    1    3    3    0  502 -0.30047735242E+03  0.19729703708E+03  0.11219360282E+04  0.11781149453E+04  0.12699999809E+01 0. -1.
</event>
<event>
 5   0  0.5297741E-07  0.2802549E+04  0.7818609E-02  0.8302478E-01
        1   -1    0    0  501    0  0.00000000000E+00  0.00000000000E+00  0.16091612619E+04  0.16091612619E+04  0.50400001928E-02 0.  1.
       -1   -1    0    0    0  501  0.00000000000E+00  0.00000000000E+00 -0.12202442260E+04  0.12202442260E+04  0.50400001928E-02 0. -1.
    10030    2    1    2    0    0  0.00000000000E+00  0.00000000000E+00  0.38891703591E+03  0.28294054879E+04  0.28025486533E+04 0.  0.
        5    1    3    3  502    0 -0.90913704369E+03  0.54891112610E+03  0.11173930276E+04  0.15415650673E+04  0.46999998093E+01 0.  1.
       -5    1    3    3    0  502  0.90913704369E+03 -0.54891112610E+03 -0.72847599168E+03  0.12878404206E+04  0.46999998093E+01 0. -1.
</event>
<event>
 5   0  0.1394410E-06  0.2820706E+04  0.7818609E-02  0.8296869E-01
       -2   -1    0    0    0  501  0.00000000000E+00  0.00000000000E+00  0.16451854831E+04  0.16451854831E+04  0.25500000920E-02 0. -1.
        2   -1    0    0  501    0  0.00000000000E+00  0.00000000000E+00 -0.12090401393E+04  0.12090401393E+04  0.25500000920E-02 0.  1.
    10030    2    1    2    0    0  0.00000000000E+00  0.00000000000E+00  0.43614534375E+03  0.28542256224E+04  0.28207057881E+04 0.  0.
        4    1    3    3  502    0 -0.11485648301E+04 -0.76348633683E+03 -0.80357687573E+02  0.13815105958E+04  0.12699999809E+01 0.  1.
       -4    1    3    3    0  502  0.11485648301E+04  0.76348633683E+03  0.51650303133E+03  0.14727150266E+04  0.12699999809E+01 0. -1.
</event>
<event>
 5   0  0.5362952E-07  0.2795990E+04  0.7818609E-02  0.8304514E-01
       -1   -1    0    0    0  501  0.00000000000E+00  0.00000000000E+00  0.21316379717E+04  0.21316379717E+04  0.50400001928E-02 0.  1.
        1   -1    0    0  501    0  0.00000000000E+00  0.00000000000E+00 -0.91684872337E+03  0.91684872338E+03  0.50400001928E-02 0. -1.
    10030    2    1    2    0    0  0.00000000000E+00  0.00000000000E+00  0.12147892483E+04  0.30484866951E+04  0.27959896660E+04 0.  0.
        1    1    3    3  502    0 -0.12713179931E+04 -0.57316518998E+03  0.50044570001E+03  0.14816253485E+04  0.50400001928E-02 0. -1.
       -1    1    3    3    0  502  0.12713179931E+04  0.57316518998E+03  0.71434354831E+03  0.15668613466E+04  0.50400001928E-02 0.  1.
</event>
<event>
 5   0  0.1377807E-06  0.2802984E+04  0.7818609E-02  0.8302343E-01
       -2   -1    0    0    0  501  0.00000000000E+00  0.00000000000E+00  0.10195666997E+04  0.10195666997E+04  0.25500000920E-02 0. -1.
        2   -1    0    0  501    0  0.00000000000E+00  0.00000000000E+00 -0.19264844989E+04  0.19264844989E+04  0.25500000920E-02 0.  1.
    10030    2    1    2    0    0  0.00000000000E+00  0.00000000000E+00 -0.90691779918E+03  0.29460511986E+04  0.28029837264E+04 0.  0.
        2    1    3    3  502    0 -0.55466416852E+02  0.13570389446E+04 -0.81686421445E+03  0.15848969573E+04  0.25500000920E-02 0.  1.
       -2    1    3    3    0  502  0.55466416852E+02 -0.13570389446E+04 -0.90053584737E+02  0.13611542413E+04  0.25500000920E-02 0. -1.
</event>
<event>
 5   0  0.1439207E-06  0.2797402E+04  0.7818609E-02  0.8304075E-01
       -2   -1    0    0    0  501  0.00000000000E+00  0.00000000000E+00  0.12437944469E+04  0.12437944470E+04  0.25500000920E-02 0. -1.
        2   -1    0    0  501    0  0.00000000000E+00  0.00000000000E+00 -0.15728998971E+04  0.15728998971E+04  0.25500000920E-02 0.  1.
    10030    2    1    2    0    0  0.00000000000E+00  0.00000000000E+00 -0.32910545015E+03  0.28166943441E+04  0.27974017642E+04 0.  0.
        5    1    3    3  502    0  0.12019423729E+04  0.39046214305E+03 -0.76803241971E+03  0.14788583572E+04  0.46999998093E+01 0.  1.
       -5    1    3    3    0  502 -0.12019423729E+04 -0.39046214305E+03  0.43892696955E+03  0.13378359868E+04  0.46999998093E+01 0. -1.
</event>
<event>
 5   0  0.5551565E-07  0.2802466E+04  0.7818609E-02  0.8302503E-01
        1   -1    0    0  501    0  0.00000000000E+00  0.00000000000E+00  0.14562350672E+04  0.14562350672E+04  0.50400001928E-02 0.  1.
       -1   -1    0    0    0  501  0.00000000000E+00  0.00000000000E+00 -0.13483083289E+04  0.13483083289E+04  0.50400001928E-02 0. -1.
    10030    2    1    2    0    0  0.00000000000E+00  0.00000000000E+00  0.10792673830E+03  0.28045433961E+04  0.28024659641E+04 0.  0.
        3    1    3    3  502    0 -0.97683071940E+03  0.24825559285E+03  0.10281451853E+04  0.14397609614E+04  0.10100000352E+00 0.  1.
       -3    1    3    3    0  502  0.97683071940E+03 -0.24825559285E+03 -0.92021844696E+03  0.13647824347E+04  0.10100000352E+00 0. -1.
</event>
<event>
 5   0  0.5297741E-07  0.2800627E+04  0.7818609E-02  0.8303074E-01
        1   -1    0    0  501    0  0.00000000000E+00  0.00000000000E+00  0.17699555805E+04  0.17699555805E+04  0.50400001928E-02 0. -1.
       -1   -1    0    0    0  501  0.00000000000E+00  0.00000000000E+00 -0.11078685755E+04  0.11078685755E+04  0.50400001928E-02 0.  1.
    10030    2    1    2    0    0  0.00000000000E+00  0.00000000000E+00  0.66208700495E+03  0.28778241560E+04  0.28006271924E+04 0.  0.
        5    1    3    3  502    0  0.32503832991E+02 -0.11491201103E+03 -0.11026183609E+04  0.11090764669E+04  0.46999998093E+01 0.  1.
       -5    1    3    3    0  502 -0.32503832991E+02  0.11491201103E+03  0.17647053659E+04  0.17687476891E+04  0.46999998093E+01 0. -1.
</event>
<event>
 5   0  0.1377807E-06  0.2794530E+04  0.7818609E-02  0.8304969E-01
        2   -1    0    0  501    0  0.00000000000E+00  0.00000000000E+00  0.18368074952E+04  0.18368074952E+04  0.25500000920E-02 0.  1.
       -2   -1    0    0    0  501  0.00000000000E+00  0.00000000000E+00 -0.10629036296E+04  0.10629036296E+04  0.25500000920E-02 0. -1.
    10030    2    1    2    0    0  0.00000000000E+00  0.00000000000E+00  0.77390386554E+03  0.28997111248E+04  0.27945299093E+04 0.  0.
        2    1    3    3  502    0  0.13286474604E+04  0.36096366833E+03  0.13976195669E+03  0.13838830328E+04  0.25500000920E-02 0.  1.
       -2    1    3    3    0  502 -0.13286474604E+04 -0.36096366833E+03  0.63414190885E+03  0.15158280920E+04  0.25500000920E-02 0. -1.
</event>
<event>
 5   0  0.5282098E-07  0.2808676E+04  0.7818609E-02  0.8300580E-01
       -1   -1    0    0    0  501  0.00000000000E+00  0.00000000000E+00  0.11225904804E+04  0.11225904804E+04  0.50400001928E-02 0.  1.
        1   -1    0    0  501    0  0.00000000000E+00  0.00000000000E+00 -0.17567988671E+04  0.17567988671E+04  0.50400001928E-02 0. -1.
    10030    2    1    2    0    0  0.00000000000E+00  0.00000000000E+00 -0.63420838671E+03  0.28793893476E+04  0.28086763318E+04 0.  0.
        4    1    3    3  502    0  0.30053884659E+03 -0.11780470892E+04 -0.10376841629E+04  0.15984081386E+04  0.12699999809E+01 0. -1.
       -4    1    3    3    0  502 -0.30053884659E+03  0.11780470892E+04  0.40347577619E+03  0.12809812089E+04  0.12699999809E+01 0.  1.
</event>
<event>
 5   0  0.1499888E-06  0.2758215E+04  0.7818609E-02  0.8316359E-01
       -2   -1    0    0    0  501  0.00000000000E+00  0.00000000000E+00  0.14121603617E+04  0.14121603617E+04  0.25500000920E-02 0.  1.
        2   -1    0    0  501    0  0.00000000000E+00  0.00000000000E+00 -0.13468285823E+04  0.13468285823E+04  0.25500000920E-02 0. -1.
    10030    2    1    2    0    0  0.00000000000E+00  0.00000000000E+00  0.65331779383E+02  0.27589889440E+04  0.27582153200E+04 0.  0.
        3    1    3    3  502    0 -0.99179001913E+03 -0.27514216730E+03  0.95084887651E+03  0.14012366861E+04  0.10100000352E+00 0.  1.
       -3    1    3    3    0  502  0.99179001913E+03  0.27514216730E+03 -0.88551709713E+03  0.13577522579E+04  0.10100000352E+00 0. -1.
</event>
<event>
 5   0  0.1439207E-06  0.2793931E+04  0.7818609E-02  0.8305155E-01
       -2   -1    0    0    0  501  0.00000000000E+00  0.00000000000E+00  0.12974101845E+04  0.12974101845E+04  0.25500000920E-02 0.  1.
        2   -1    0    0  501    0  0.00000000000E+00  0.00000000000E+00 -0.15041596268E+04  0.15041596268E+04  0.25500000920E-02 0. -1.
    10030    2    1    2    0    0  0.00000000000E+00  0.00000000000E+00 -0.20674944233E+03  0.28015698113E+04  0.27939305782E+04 0.  0.
        5    1    3    3  502    0 -0.38458194984E+03 -0.24457677855E+03  0.12207542753E+04  0.13030672152E+04  0.46999998093E+01 0.  1.
       -5    1    3    3    0  502  0.38458194984E+03  0.24457677855E+03 -0.14275037176E+04  0.14985025961E+04  0.46999998093E+01 0. -1.
</event>
<event>
 5   0  0.1394410E-06  0.2812580E+04  0.7818609E-02  0.8299373E-01
       -2   -1    0    0    0  501  0.00000000000E+00  0.00000000000E+00  0.70592034142E+03  0.70592034143E+03  0.25500000920E-02 0. -1.
        2   -1    0    0  501    0  0.00000000000E+00  0.00000000000E+00 -0.28015229653E+04  0.28015229653E+04  0.25500000920E-02 0.  1.
    10030    2    1    2    0    0  0.00000000000E+00  0.00000000000E+00 -0.20956026239E+04  0.35074433068E+04  0.28125803442E+04 0.  0.
        4    1    3    3  502    0 -0.39171589509E+03 -0.11533969798E+04 -0.17140927906E+03  0.12301010890E+04  0.12699999809E+01 0. -1.
       -4    1    3    3    0  502  0.39171589509E+03  0.11533969798E+04 -0.19241933449E+04  0.22773422177E+04  0.12699999809E+01 0.  1.
</event>
<event>
 5   0  0.5282098E-07  0.2837204E+04  0.7818609E-02  0.8291810E-01
       -1   -1    0    0    0  501  0.00000000000E+00  0.00000000000E+00  0.18381047062E+04  0.18381047062E+04  0.50400001928E-02 0.  1.
        1   -1    0    0  501    0  0.00000000000E+00  0.00000000000E+00 -0.10948403696E+04  0.10948403696E+04  0.50400001928E-02 0. -1.
    10030    2    1    2    0    0  0.00000000000E+00  0.00000000000E+00  0.74326433655E+03  0.29329450758E+04  0.28372037191E+04 0.  0.
        4    1    3    3  502    0 -0.87900649687E+03 -0.26857629294E+03 -0.74540759076E+03  0.11833933141E+04  0.12699999809E+01 0. -1.
       -4    1    3    3    0  502  0.87900649687E+03  0.26857629294E+03  0.14886719273E+04  0.17495517617E+04  0.12699999809E+01 0.  1.
</event>
<event>
 5   0  0.1461146E-06  0.2785353E+04  0.7818609E-02  0.8307830E-01
        2   -1    0    0  501    0  0.00000000000E+00  0.00000000000E+00  0.24866149136E+04  0.24866149136E+04  0.25500000920E-02 0. -1.
       -2   -1    0    0    0  501  0.00000000000E+00  0.00000000000E+00 -0.77999529498E+03  0.77999529498E+03  0.25500000920E-02 0.  1.
    10030    2    1    2    0    0  0.00000000000E+00  0.00000000000E+00  0.17066196187E+04  0.32666102086E+04  0.27853530714E+04 0.  0.
        1    1    3    3  502    0  0.95030003166E+03 -0.72871308529E+03  0.19516667122E+02  0.11976952080E+04  0.50400001928E-02 0.  1.
       -1    1    3    3    0  502 -0.95030003166E+03  0.72871308529E+03  0.16871029515E+04  0.20689150007E+04  0.50400001928E-02 0. -1.
</event>
<event>
 5   0  0.5362952E-07  0.2790873E+04  0.7818609E-02  0.8306108E-01
        1   -1    0    0  501    0  0.00000000000E+00  0.00000000000E+00  0.14197585561E+04  0.14197585561E+04  0.50400001928E-02 0.  1.
       -1   -1    0    0    0  501  0.00000000000E+00  0.00000000000E+00 -0.13715307096E+04  0.13715307096E+04  0.50400001928E-02 0. -1.
    10030    2    1    2    0    0  0.00000000000E+00  0.00000000000E+00  0.48227846493E+02  0.27912892658E+04  0.27908725947E+04 0.  0.
        1    1    3    3  502    0 -0.41897002505E+03  0.10367837113E+04  0.85897570034E+03  0.14100693599E+04  0.50400001928E-02 0.  1.
       -1    1    3    3    0  502  0.41897002505E+03 -0.10367837113E+04 -0.81074785385E+03  0.13812199059E+04  0.50400001928E-02 0. -1.
</event>
<event>
 5   0  0.1394410E-06  0.2793633E+04  0.7818609E-02  0.8305248E-01
       -2   -1    0    0    0  501  0.00000000000E+00  0.00000000000E+00  0.92718919226E+03  0.92718919227E+03  0.25500000920E-02 0. -1.
        2   -1    0    0  501    0  0.00000000000E+00  0.00000000000E+00 -0.21043135970E+04  0.21043135970E+04  0.25500000920E-02 0.  1.
    10030    2    1    2    0    0  0.00000000000E+00  0.00000000000E+00 -0.11771244047E+04  0.30315027892E+04  0.27936333505E+04 0.  0.
        4    1    3    3  502    0  0.13945243267E+04  0.35563620249E+02 -0.66630253183E+03  0.15459377561E+04  0.12699999809E+01 0.  1.
       -4    1    3    3    0  502 -0.13945243267E+04 -0.35563620249E+02 -0.51082187287E+03  0.14855650331E+04  0.12699999809E+01 0. -1.
</event>
<event>
 5   0  0.5362952E-07  0.2805143E+04  0.7818609E-02  0.8301673E-01
       -1   -1    0    0    0  501  0.00000000000E+00  0.00000000000E+00  0.89456399959E+03  0.89456399960E+03  0.50400001928E-02 0.  1.
        1   -1    0    0  501    0  0.00000000000E+00  0.00000000000E+00 -0.21990679948E+04  0.21990679948E+04  0.50400001928E-02 0. -1.
    10030    2    1    2    0    0  0.00000000000E+00  0.00000000000E+00 -0.13045039952E+04  0.30936319944E+04  0.28051431769E+04 0.  0.
        1    1    3    3  502    0 -0.51612015795E+03  0.55290543982E+03 -0.19548781930E+04  0.20960995187E+04  0.50400001928E-02 0. -1.
       -1    1    3    3    0  502  0.51612015795E+03 -0.55290543982E+03  0.65037419781E+03  0.99753247568E+03  0.50400001928E-02 0.  1.
</event>
<event>
 5   0  0.1439207E-06  0.2800433E+04  0.7818609E-02  0.8303134E-01
        2   -1    0    0  501    0  0.00000000000E+00  0.00000000000E+00  0.12413505463E+04  0.12413505463E+04  0.25500000920E-02 0. -1.
       -2   -1    0    0    0  501  0.00000000000E+00  0.00000000000E+00 -0.15794135623E+04  0.15794135623E+04  0.25500000920E-02 0.  1.
    10030    2    1    2    0    0  0.00000000000E+00  0.00000000000E+00 -0.33806301601E+03  0.28207641086E+04  0.28004327440E+04 0.  0.
        5    1    3    3  502    0 -0.10712256460E+04  0.23737954390E+03 -0.10452379941E+04  0.15153936738E+04  0.46999998093E+01 0.  1.
       -5    1    3    3    0  502  0.10712256460E+04 -0.23737954390E+03  0.70717497804E+03  0.13053704348E+04  0.46999998093E+01 0. -1.
</event>
<event>
 5   0  0.1439207E-06  0.2810451E+04  0.7818609E-02  0.8300031E-01
       -2   -1    0    0    0  501  0.00000000000E+00  0.00000000000E+00  0.14984387737E+04  0.14984387737E+04  0.25500000920E-02 0.  1.
        2   -1    0    0  501    0  0.00000000000E+00  0.00000000000E+00 -0.13178110092E+04  0.13178110092E+04  0.25500000920E-02 0. -1.
    10030    2    1    2    0    0  0.00000000000E+00  0.00000000000E+00  0.18062776449E+03  0.28162497829E+04  0.28104512894E+04 0.  0.
        5    1    3    3  502    0  0.13479057904E+04 -0.34088530179E+03 -0.11402892552E+03  0.13950188151E+04  0.46999998093E+01 0.  1.
       -5    1    3    3    0  502 -0.13479057904E+04  0.34088530179E+03  0.29465669002E+03  0.14212309678E+04  0.46999998093E+01 0. -1.
</event>
<event>
 5   0  0.1377807E-06  0.2801417E+04  0.7818609E-02  0.8302829E-01
       -2   -1    0    0    0  501  0.00000000000E+00  0.00000000000E+00  0.96049384491E+03  0.96049384491E+03  0.25500000920E-02 0. -1.
        2   -1    0    0  501    0  0.00000000000E+00  0.00000000000E+00 -0.20426829973E+04  0.20426829973E+04  0.25500000920E-02 0.  1.
    10030    2    1    2    0    0  0.00000000000E+00  0.00000000000E+00 -0.10821891524E+04  0.30031768422E+04  0.28014171028E+04 0.  0.
        2    1    3    3  502    0  0.27358905685E+03 -0.11104499264E+04 -0.14080633150E+04  0.18139989830E+04  0.25500000920E-02 0.  1.
       -2    1    3    3    0  502 -0.27358905685E+03  0.11104499264E+04  0.32587416263E+03  0.11891778593E+04  0.25500000920E-02 0. -1.
</event>
<event>
 5   0  0.1377807E-06  0.2803365E+04  0.7818609E-02  0.8302224E-01
        2   -1    0    0  501    0  0.00000000000E+00  0.00000000000E+00  0.93945723419E+03  0.93945723420E+03  0.25500000920E-02 0. -1.
       -2   -1    0    0    0  501  0.00000000000E+00  0.00000000000E+00 -0.20913292199E+04  0.20913292199E+04  0.25500000920E-02 0.  1.
    10030    2    1    2    0    0  0.00000000000E+00  0.00000000000E+00 -0.11518719857E+04  0.30307864541E+04  0.28033653809E+04 0.  0.
        2    1    3    3  502    0 -0.14819472559E+03 -0.95879551869E+03  0.51779843695E+03  0.10997116643E+04  0.25500000920E-02 0. -1.
       -2    1    3    3    0  502  0.14819472559E+03  0.95879551869E+03 -0.16696704227E+04  0.19310747898E+04  0.25500000920E-02 0.  1.
</event>
<event>
 5   0  0.1461146E-06  0.2801854E+04  0.7818609E-02  0.8302693E-01
        2   -1    0    0  501    0  0.00000000000E+00  0.00000000000E+00  0.20808987368E+04  0.20808987368E+04  0.25500000920E-02 0.  1.
       -2   -1    0    0    0  501  0.00000000000E+00  0.00000000000E+00 -0.94314872222E+03  0.94314872223E+03  0.25500000920E-02 0. -1.
    10030    2    1    2    0    0  0.00000000000E+00  0.00000000000E+00  0.11377500145E+04  0.30240474590E+04  0.28018543750E+04 0.  0.
        1    1    3    3  502    0 -0.11330741364E+04  0.78168354621E+03  0.84972348803E+03  0.16176885272E+04  0.50400001928E-02 0. -1.
       -1    1    3    3    0  502  0.11330741364E+04 -0.78168354621E+03  0.28802652651E+03  0.14063589318E+04  0.50400001928E-02 0.  1.
</event>
<event>
 5   0  0.5297741E-07  0.2797937E+04  0.7818609E-02  0.8303909E-01
        1   -1    0    0  501    0  0.00000000000E+00  0.00000000000E+00  0.24059980276E+04  0.24059980276E+04  0.50400001928E-02 0.  1.
       -1   -1    0    0    0  501  0.00000000000E+00  0.00000000000E+00 -0.81343090917E+03  0.81343090919E+03  0.50400001928E-02 0. -1.
    10030    2    1    2    0    0  0.00000000000E+00  0.00000000000E+00  0.15925671184E+04  0.32194289368E+04  0.27979372138E+04 0.  0.
        5    1    3    3  502    0  0.12463959870E+04 -0.61627259335E+03  0.97378208480E+03  0.16975183370E+04  0.46999998093E+01 0.  1.
       -5    1    3    3    0  502 -0.12463959870E+04  0.61627259335E+03  0.61878503359E+03  0.15219105997E+04  0.46999998093E+01 0. -1.
</event>
<event>
 5   0  0.5551565E-07  0.2796104E+04  0.7818609E-02  0.8304479E-01
        1   -1    0    0  501    0  0.00000000000E+00  0.00000000000E+00  0.15897321239E+04  0.15897321239E+04  0.50400001928E-02 0.  1.
       -1   -1    0    0    0  501  0.00000000000E+00  0.00000000000E+00 -0.12294835007E+04  0.12294835007E+04  0.50400001928E-02 0. -1.
    10030    2    1    2    0    0  0.00000000000E+00  0.00000000000E+00  0.36024862321E+03  0.28192156245E+04  0.27961040158E+04 0.  0.
        3    1    3    3  502    0  0.11614132696E+03  0.97206422116E+03  0.11864480588E+04  0.15381991627E+04  0.10100000352E+00 0.  1.
       -3    1    3    3    0  502 -0.11614132696E+03 -0.97206422116E+03 -0.82619943556E+03  0.12810164618E+04  0.10100000352E+00 0. -1.
</event>
<event>
 5   0  0.1499888E-06  0.2801188E+04  0.7818609E-02  0.8302900E-01
       -2   -1    0    0    0  501  0.00000000000E+00  0.00000000000E+00  0.12591849087E+04  0.12591849087E+04  0.25500000920E-02 0. -1.
        2   -1    0    0  501    0  0.00000000000E+00  0.00000000000E+00 -0.15578832032E+04  0.15578832032E+04  0.25500000920E-02 0.  1.
    10030    2    1    2    0    0  0.00000000000E+00  0.00000000000E+00 -0.29869829450E+03  0.28170681119E+04  0.28011876189E+04 0.  0.
        3    1    3    3  502    0  0.12268487951E+04  0.43197452680E+03  0.37311807131E+03  0.13531360106E+04  0.10100000352E+00 0. -1.
       -3    1    3    3    0  502 -0.12268487951E+04 -0.43197452680E+03 -0.67181636581E+03  0.14639321013E+04  0.10100000352E+00 0.  1.
</event>
<event>
 5   0  0.5362952E-07  0.2801629E+04  0.7818609E-02  0.8302763E-01
        1   -1    0    0  501    0  0.00000000000E+00  0.00000000000E+00  0.12661987300E+04  0.12661987300E+04  0.50400001928E-02 0. -1.
       -1   -1    0    0    0  501  0.00000000000E+00  0.00000000000E+00 -0.15497419689E+04  0.15497419689E+04  0.50400001928E-02 0.  1.
    10030    2    1    2    0    0  0.00000000000E+00  0.00000000000E+00 -0.28354323886E+03  0.28159406989E+04  0.28016290353E+04 0.  0.
        1    1    3    3  502    0  0.27618498037E+03 -0.44160481141E+03  0.11652512424E+04  0.12763633537E+04  0.50400001928E-02 0. -1.
       -1    1    3    3    0  502 -0.27618498037E+03  0.44160481141E+03 -0.14487944813E+04  0.15395773452E+04  0.50400001928E-02 0.  1.
</event>
<event>
 5   0  0.1377807E-06  0.2793718E+04  0.7818609E-02  0.8305221E-01
        2   -1    0    0  501    0  0.00000000000E+00  0.00000000000E+00  0.25080989643E+04  0.25080989643E+04  0.25500000920E-02 0. -1.
       -2   -1    0    0    0  501  0.00000000000E+00  0.00000000000E+00 -0.77796597824E+03  0.77796597824E+03  0.25500000920E-02 0.  1.
    10030    2    1    2    0    0  0.00000000000E+00  0.00000000000E+00  0.17301329860E+04  0.32860649425E+04  0.27937184284E+04 0.  0.
        2    1    3    3  502    0 -0.95935256173E+02 -0.57411834507E+03 -0.62851847307E+03  0.85665098992E+03  0.25500000920E-02 0.  1.
       -2    1    3    3    0  502  0.95935256173E+02  0.57411834507E+03  0.23586514591E+04  0.24294139526E+04  0.25500000920E-02 0. -1.
</event>
<event>
 5   0  0.5282098E-07  0.2799602E+04  0.7818609E-02  0.8303392E-01
       -1   -1    0    0    0  501  0.00000000000E+00  0.00000000000E+00  0.14802719708E+04  0.14802719708E+04  0.50400001928E-02 0.  1.
        1   -1    0    0  501    0  0.00000000000E+00  0.00000000000E+00 -0.13237041902E+04  0.13237041902E+04  0.50400001928E-02 0. -1.
    10030    2    1    2    0    0  0.00000000000E+00  0.00000000000E+00  0.15656778066E+03  0.28039761610E+04  0.27996015505E+04 0.  0.
        4    1    3    3  502    0 -0.18919461183E+02 -0.29091848778E+03  0.14495284444E+04  0.14785553208E+04  0.12699999809E+01 0.  1.
       -4    1    3    3    0  502  0.18919461183E+02  0.29091848778E+03 -0.12929606638E+04  0.13254208402E+04  0.12699999809E+01 0. -1.
</event>
<event>
 5   0  0.5362952E-07  0.2799779E+04  0.7818609E-02  0.8303337E-01
       -1   -1    0    0    0  501  0.00000000000E+00  0.00000000000E+00  0.14302929586E+04  0.14302929586E+04  0.50400001928E-02 0.  1.
        1   -1    0    0  501    0  0.00000000000E+00  0.00000000000E+00 -0.13701319857E+04  0.13701319857E+04  0.50400001928E-02 0. -1.
    10030    2    1    2    0    0  0.00000000000E+00  0.00000000000E+00  0.60160972922E+02  0.28004249443E+04  0.27997786566E+04 0.  0.
        1    1    3    3  502    0  0.43701045126E+03  0.12606802867E+04 -0.39357036456E+03  0.13911112651E+04  0.50400001928E-02 0. -1.
       -1    1    3    3    0  502 -0.43701045126E+03 -0.12606802867E+04  0.45373133748E+03  0.14093136793E+04  0.50400001928E-02 0.  1.
</event>
<event>
 5   0  0.5214658E-07  0.2802906E+04  0.7818609E-02  0.8302367E-01
        1   -1    0    0  501    0  0.00000000000E+00  0.00000000000E+00  0.14112579154E+04  0.14112579154E+04  0.50400001928E-02 0. -1.
       -1   -1    0    0    0  501  0.00000000000E+00  0.00000000000E+00 -0.13917160256E+04  0.13917160256E+04  0.50400001928E-02 0.  1.
    10030    2    1    2    0    0  0.00000000000E+00  0.00000000000E+00  0.19541889800E+02  0.28029739410E+04  0.28029058187E+04 0.  0.
        2    1    3    3  502    0  0.15350929956E+03  0.94206263619E+03  0.10359650434E+04  0.14086414330E+04  0.25500000920E-02 0. -1.
       -2    1    3    3    0  502 -0.15350929956E+03 -0.94206263619E+03 -0.10164231536E+04  0.13943325080E+04  0.25500000920E-02 0.  1.
</event>
<event>
 5   0  0.5297741E-07  0.2801042E+04  0.7818609E-02  0.8302945E-01
        1   -1    0    0  501    0  0.00000000000E+00  0.00000000000E+00  0.78660750150E+03  0.78660750152E+03  0.50400001928E-02 0. -1.
       -1   -1    0    0    0  501  0.00000000000E+00  0.00000000000E+00 -0.24935685469E+04  0.24935685469E+04  0.50400001928E-02 0.  1.
    10030    2    1    2    0    0  0.00000000000E+00  0.00000000000E+00 -0.17069610454E+04  0.32801760484E+04  0.28010424663E+04 0.  0.
        5    1    3    3  502    0 -0.12383894243E+04 -0.18398152601E+02 -0.87811927685E+02  0.12416440242E+04  0.46999998093E+01 0. -1.
       -5    1    3    3    0  502  0.12383894243E+04  0.18398152601E+02 -0.16191491177E+04  0.20385320242E+04  0.46999998093E+01 0.  1.
</event>
<event>
 5   0  0.1394410E-06  0.2802471E+04  0.7818609E-02  0.8302502E-01
        2   -1    0    0  501    0  0.00000000000E+00  0.00000000000E+00  0.14916128961E+04  0.14916128962E+04  0.25500000920E-02 0. -1.
       -2   -1    0    0    0  501  0.00000000000E+00  0.00000000000E+00 -0.13163337557E+04  0.13163337557E+04  0.25500000920E-02 0.  1.
    10030    2    1    2    0    0  0.00000000000E+00  0.00000000000E+00  0.17527914047E+03  0.28079466518E+04  0.28024706283E+04 0.  0.
        4    1    3    3  502    0 -0.13921357510E+04  0.98870878175E+01  0.24707022139E+03  0.14139253909E+04  0.12699999809E+01 0.  1.
       -4    1    3    3    0  502  0.13921357510E+04 -0.98870878175E+01 -0.71791080924E+02  0.13940212610E+04  0.12699999809E+01 0. -1.
</event>
<event>
 5   0  0.1394410E-06  0.2791601E+04  0.7818609E-02  0.8305881E-01
        2   -1    0    0  501    0  0.00000000000E+00  0.00000000000E+00  0.15936486129E+04  0.15936486129E+04  0.25500000920E-02 0.  1.
       -2   -1    0    0    0  501  0.00000000000E+00  0.00000000000E+00 -0.12225148432E+04  0.12225148432E+04  0.25500000920E-02 0. -1.
    10030    2    1    2    0    0  0.00000000000E+00  0.00000000000E+00  0.37113376967E+03  0.28161634562E+04  0.27916010347E+04 0.  0.
        4    1    3    3  502    0  0.12885524931E+03  0.24590767865E+03 -0.11943809325E+04  0.12262225273E+04  0.12699999809E+01 0. -1.
       -4    1    3    3    0  502 -0.12885524931E+03 -0.24590767865E+03  0.15655147022E+04  0.15899409289E+04  0.12699999809E+01 0.  1.
</event>
<event>
 5   0  0.5214658E-07  0.2798972E+04  0.7818609E-02  0.8303588E-01
        1   -1    0    0  501    0  0.00000000000E+00  0.00000000000E+00  0.13519600894E+04  0.13519600894E+04  0.50400001928E-02 0.  1.
       -1   -1    0    0    0  501  0.00000000000E+00  0.00000000000E+00 -0.14486825297E+04  0.14486825297E+04  0.50400001928E-02 0. -1.
    10030    2    1    2    0    0  0.00000000000E+00  0.00000000000E+00 -0.96722440289E+02  0.28006426191E+04  0.27989719273E+04 0.  0.
        2    1    3    3  502    0 -0.99186787707E+03 -0.18138537674E+03  0.92271196884E+03  0.13667845177E+04  0.25500000920E-02 0.  1.
       -2    1    3    3    0  502  0.99186787707E+03  0.18138537674E+03 -0.10194344091E+04  0.14338581014E+04  0.25500000920E-02 0. -1.
</event>
<event>
 5   0  0.1394410E-06  0.2796293E+04  0.7818609E-02  0.8304420E-01
        2   -1    0    0  501    0  0.00000000000E+00  0.00000000000E+00  0.12373398932E+04  0.12373398932E+04  0.25500000920E-02 0. -1.
       -2   -1    0    0    0  501  0.00000000000E+00  0.00000000000E+00 -0.15798520525E+04  0.15798520525E+04  0.25500000920E-02 0.  1.
    10030    2    1    2    0    0  0.00000000000E+00  0.00000000000E+00 -0.34251215926E+03  0.28171919457E+04  0.27962932392E+04 0.  0.
        4    1    3    3  502    0  0.34637467015E+03  0.64570181559E+03 -0.13709141016E+04  0.15544495275E+04  0.12699999809E+01 0.  1.
       -4    1    3    3    0  502 -0.34637467015E+03 -0.64570181559E+03  0.10284019423E+04  0.12627424182E+04  0.12699999809E+01 0. -1.
</event>
<event>
 5   0  0.1461146E-06  0.2800813E+04  0.7818609E-02  0.8303016E-01
       -2   -1    0    0    0  501  0.00000000000E+00  0.00000000000E+00  0.10836800349E+04  0.10836800349E+04  0.25500000920E-02 0. -1.
        2   -1    0    0  501    0  0.00000000000E+00  0.00000000000E+00 -0.18097021930E+04  0.18097021930E+04  0.25500000920E-02 0.  1.
    10030    2    1    2    0    0  0.00000000000E+00  0.00000000000E+00 -0.72602215808E+03  0.28933822279E+04  0.28008128361E+04 0.  0.
        1    1    3    3  502    0 -0.68988215595E+03 -0.11705974130E+03  0.89013449515E+03  0.11322454644E+04  0.50400001928E-02 0. -1.
       -1    1    3    3    0  502  0.68988215595E+03  0.11705974130E+03 -0.16161566532E+04  0.17611367636E+04  0.50400001928E-02 0.  1.
</event>
<event>
 5   0  0.1394410E-06  0.2787137E+04  0.7818609E-02  0.8307273E-01
       -2   -1    0    0    0  501  0.00000000000E+00  0.00000000000E+00  0.11332189105E+04  0.11332189105E+04  0.25500000920E-02 0.  1.
        2   -1    0    0  501    0  0.00000000000E+00  0.00000000000E+00 -0.17137310939E+04  0.17137310939E+04  0.25500000920E-02 0. -1.
    10030    2    1    2    0    0  0.00000000000E+00  0.00000000000E+00 -0.58051218346E+03  0.28469500044E+04  0.27871365113E+04 0.  0.
        4    1    3    3  502    0  0.51939414047E+02  0.11540100256E+04  0.50595522922E+03  0.12611221784E+04  0.12699999809E+01 0.  1.
       -4    1    3    3    0  502 -0.51939414047E+02 -0.11540100256E+04 -0.10864674127E+04  0.15858278260E+04  0.12699999809E+01 0. -1.
</event>
<event>
 5   0  0.5297741E-07  0.2803366E+04  0.7818609E-02  0.8302224E-01
       -1   -1    0    0    0  501  0.00000000000E+00  0.00000000000E+00  0.13915409272E+04  0.13915409272E+04  0.50400001928E-02 0. -1.
        1   -1    0    0  501    0  0.00000000000E+00  0.00000000000E+00 -0.14118994433E+04  0.14118994433E+04  0.50400001928E-02 0.  1.
    10030    2    1    2    0    0  0.00000000000E+00  0.00000000000E+00 -0.20358516127E+02  0.28034403704E+04  0.28033664479E+04 0.  0.
        5    1    3    3  502    0  0.13912726712E+04 -0.20449905421E+02  0.15904673423E+03  0.14004912702E+04  0.46999998093E+01 0. -1.
       -5    1    3    3    0  502 -0.13912726712E+04  0.20449905421E+02 -0.17940525036E+03  0.14029491003E+04  0.46999998093E+01 0.  1.
</event>
<event>
 5   0  0.1439207E-06  0.2800686E+04  0.7818609E-02  0.8303055E-01
       -2   -1    0    0    0  501  0.00000000000E+00  0.00000000000E+00  0.13428524659E+04  0.13428524659E+04  0.25500000920E-02 0.  1.
        2   -1    0    0  501    0  0.00000000000E+00  0.00000000000E+00 -0.14602950990E+04  0.14602950990E+04  0.25500000920E-02 0. -1.
    10030    2    1    2    0    0  0.00000000000E+00  0.00000000000E+00 -0.11744263313E+03  0.28031475649E+04  0.28006862549E+04 0.  0.
        5    1    3    3  502    0 -0.13527447661E+04  0.27302629122E+03  0.17913649170E+03  0.13916083252E+04  0.46999998093E+01 0.  1.
       -5    1    3    3    0  502  0.13527447661E+04 -0.27302629122E+03 -0.29657912483E+03  0.14115392397E+04  0.46999998093E+01 0. -1.
</event>
<event>
 5   0  0.5297741E-07  0.2809247E+04  0.7818609E-02  0.8300403E-01
        1   -1    0    0  501    0  0.00000000000E+00  0.00000000000E+00  0.15048178381E+04  0.15048178381E+04  0.50400001928E-02 0. -1.
       -1   -1    0    0    0  501  0.00000000000E+00  0.00000000000E+00 -0.13111002774E+04  0.13111002775E+04  0.50400001928E-02 0.  1.
    10030    2    1    2    0    0  0.00000000000E+00  0.00000000000E+00  0.19371756069E+03  0.28159181156E+04  0.28092469348E+04 0.  0.
        5    1    3    3  502    0 -0.70645508303E+03 -0.12050357406E+04  0.24470505852E+03  0.14181299574E+04  0.46999998093E+01 0.  1.
       -5    1    3    3    0  502  0.70645508303E+03  0.12050357406E+04 -0.50987497827E+02  0.13977881582E+04  0.46999998093E+01 0. -1.
</event>
<event>
 5   0  0.5551565E-07  0.2801815E+04  0.7818609E-02  0.8302705E-01
       -1   -1    0    0    0  501  0.00000000000E+00  0.00000000000E+00  0.10752337603E+04  0.10752337603E+04  0.50400001928E-02 0. -1.
        1   -1    0    0  501    0  0.00000000000E+00  0.00000000000E+00 -0.18252240062E+04  0.18252240062E+04  0.50400001928E-02 0.  1.
    10030    2    1    2    0    0  0.00000000000E+00  0.00000000000E+00 -0.74999024593E+03  0.29004577665E+04  0.28018154626E+04 0.  0.
        3    1    3    3  502    0 -0.16784064506E+03  0.10874153184E+04 -0.12726451188E+04  0.16823400862E+04  0.10100000352E+00 0.  1.
       -3    1    3    3    0  502  0.16784064506E+03 -0.10874153184E+04  0.52265487291E+03  0.12181176804E+04  0.10100000352E+00 0. -1.
</event>
<event>
 5   0  0.1439207E-06  0.2834294E+04  0.7818609E-02  0.8292700E-01
       -2   -1    0    0    0  501  0.00000000000E+00  0.00000000000E+00  0.64844648883E+03  0.64844648884E+03  0.25500000920E-02 0.  1.
        2   -1    0    0  501    0  0.00000000000E+00  0.00000000000E+00 -0.30971032507E+04  0.30971032507E+04  0.25500000920E-02 0. -1.
    10030    2    1    2    0    0  0.00000000000E+00  0.00000000000E+00 -0.24486567619E+04  0.37455497395E+04  0.28342940768E+04 0.  0.
        5    1    3    3  502    0 -0.88652316656E+03 -0.53921642450E+03  0.51190198360E+02  0.10389033659E+04  0.46999998093E+01 0.  1.
       -5    1    3    3    0  502  0.88652316656E+03  0.53921642450E+03 -0.24998469602E+04  0.27066463736E+04  0.46999998093E+01 0. -1.
</event>
<event>
 5   0  0.5362952E-07  0.2809226E+04  0.7818609E-02  0.8300410E-01
       -1   -1    0    0    0  501  0.00000000000E+00  0.00000000000E+00  0.14384269889E+04  0.14384269889E+04  0.50400001928E-02 0. -1.
        1   -1    0    0  501    0  0.00000000000E+00  0.00000000000E+00 -0.13715939941E+04  0.13715939941E+04  0.50400001928E-02 0.  1.
    10030    2    1    2    0    0  0.00000000000E+00  0.00000000000E+00  0.66832994826E+02  0.28100209830E+04  0.28092260991E+04 0.  0.
        1    1    3    3  502    0 -0.50840467485E+03 -0.21440289272E+03  0.13254839319E+04  0.14357407731E+04  0.50400001928E-02 0. -1.
       -1    1    3    3    0  502  0.50840467485E+03  0.21440289272E+03 -0.12586509371E+04  0.13742802099E+04  0.50400001928E-02 0.  1.
</event>
<event>
 5   0  0.5282098E-07  0.2798243E+04  0.7818609E-02  0.8303814E-01
        1   -1    0    0  501    0  0.00000000000E+00  0.00000000000E+00  0.18338579242E+04  0.18338579242E+04  0.50400001928E-02 0.  1.
       -1   -1    0    0    0  501  0.00000000000E+00  0.00000000000E+00 -0.10674440162E+04  0.10674440162E+04  0.50400001928E-02 0. -1.
    10030    2    1    2    0    0  0.00000000000E+00  0.00000000000E+00  0.76641390803E+03  0.29013019404E+04  0.27982427827E+04 0.  0.
        4    1    3    3  502    0  0.76947679011E+03  0.47606273414E+03 -0.72324597531E+03  0.11583680810E+04  0.12699999809E+01 0. -1.
       -4    1    3    3    0  502 -0.76947679011E+03 -0.47606273414E+03  0.14896598833E+04  0.17429338594E+04  0.12699999809E+01 0.  1.
</event>
<event>
 5   0  0.5297741E-07  0.2739790E+04  0.7818609E-02  0.8322209E-01
        1   -1    0    0  501    0  0.00000000000E+00  0.00000000000E+00  0.20683121092E+04  0.20683121092E+04  0.50400001928E-02 0. -1.
       -1   -1    0    0    0  501  0.00000000000E+00  0.00000000000E+00 -0.90731588199E+03  0.90731588201E+03  0.50400001928E-02 0.  1.
    10030    2    1    2    0    0  0.00000000000E+00  0.00000000000E+00  0.11609962272E+04  0.29756279912E+04  0.27397900836E+04 0.  0.
        5    1    3    3  502    0 -0.83598303634E+03 -0.55164434579E+03 -0.43451283725E+03  0.10917887236E+04  0.46999998093E+01 0.  1.
       -5    1    3    3    0  502  0.83598303634E+03  0.55164434579E+03  0.15955090644E+04  0.18838392676E+04  0.46999998093E+01 0. -1.
</event>
<event>
 5   0  0.5362952E-07  0.2802630E+04  0.7818609E-02  0.8302452E-01
       -1   -1    0    0    0  501  0.00000000000E+00  0.00000000000E+00  0.13946378298E+04  0.13946378298E+04  0.50400001928E-02 0.  1.
        1   -1    0    0  501    0  0.00000000000E+00  0.00000000000E+00 -0.14080238288E+04  0.14080238288E+04  0.50400001928E-02 0. -1.
    10030    2    1    2    0    0  0.00000000000E+00  0.00000000000E+00 -0.13385999002E+02  0.28026616587E+04  0.28026296916E+04 0.  0.
        1    1    3    3  502    0  0.18914931338E+03 -0.11823253655E+04 -0.73472092155E+03  0.14048080172E+04  0.50400001928E-02 0. -1.
       -1    1    3    3    0  502 -0.18914931338E+03  0.11823253655E+04  0.72133492255E+03  0.13978536415E+04  0.50400001928E-02 0.  1.
</event>
<event>
 5   0  0.5362952E-07  0.2808979E+04  0.7818609E-02  0.8300486E-01
        1   -1    0    0  501    0  0.00000000000E+00  0.00000000000E+00  0.21407289381E+04  0.21407289381E+04  0.50400001928E-02 0. -1.
       -1   -1    0    0    0  501  0.00000000000E+00  0.00000000000E+00 -0.92145782983E+03  0.92145782985E+03  0.50400001928E-02 0.  1.
    10030    2    1    2    0    0  0.00000000000E+00  0.00000000000E+00  0.12192711082E+04  0.30621867679E+04  0.28089794884E+04 0.  0.
        1    1    3    3  502    0 -0.12078009924E+04  0.44599822423E+03 -0.21020170498E+01  0.12875177947E+04  0.50400001928E-02 0.  1.
       -1    1    3    3    0  502  0.12078009924E+04 -0.44599822423E+03  0.12213731253E+04  0.17746689732E+04  0.50400001928E-02 0. -1.
</event>
<event>
 5   0  0.1394410E-06  0.2770142E+04  0.7818609E-02  0.8312599E-01
        2   -1    0    0  501    0  0.00000000000E+00  0.00000000000E+00  0.17635488705E+04  0.17635488705E+04  0.25500000920E-02 0. -1.
       -2   -1    0    0    0  501  0.00000000000E+00  0.00000000000E+00 -0.10878186250E+04  0.10878186250E+04  0.25500000920E-02 0.  1.
    10030    2    1    2    0    0  0.00000000000E+00  0.00000000000E+00  0.67573024551E+03  0.28513674955E+04  0.27701417346E+04 0.  0.
        4    1    3    3  502    0 -0.98303025309E+03  0.97569618996E+03  0.32820040529E+03  0.14233933583E+04  0.12699999809E+01 0.  1.
       -4    1    3    3    0  502  0.98303025309E+03 -0.97569618996E+03  0.34752984022E+03  0.14279741371E+04  0.12699999809E+01 0. -1.
</event>
<event>
 5   0  0.5282098E-07  0.2795960E+04  0.7818609E-02  0.8304524E-01
       -1   -1    0    0    0  501  0.00000000000E+00  0.00000000000E+00  0.72259582749E+03  0.72259582751E+03  0.50400001928E-02 0.  1.
        1   -1    0    0  501    0  0.00000000000E+00  0.00000000000E+00 -0.27046206070E+04  0.27046206070E+04  0.50400001928E-02 0. -1.
    10030    2    1    2    0    0  0.00000000000E+00  0.00000000000E+00 -0.19820247795E+04  0.34272164345E+04  0.27959596318E+04 0.  0.
        4    1    3    3  502    0  0.12702300086E+04 -0.58118714855E+03 -0.10590751912E+04  0.17529702364E+04  0.12699999809E+01 0.  1.
       -4    1    3    3    0  502 -0.12702300086E+04  0.58118714855E+03 -0.92294958833E+03  0.16742461981E+04  0.12699999809E+01 0. -1.
</event>
<event>
 5   0  0.5362952E-07  0.2799968E+04  0.7818609E-02  0.8303278E-01
        1   -1    0    0  501    0  0.00000000000E+00  0.00000000000E+00  0.10338301560E+04  0.10338301561E+04  0.50400001928E-02 0.  1.
       -1   -1    0    0    0  501  0.00000000000E+00  0.00000000000E+00 -0.18958192194E+04  0.18958192194E+04  0.50400001928E-02 0. -1.
    10030    2    1    2    0    0  0.00000000000E+00  0.00000000000E+00 -0.86198906332E+03  0.29296493754E+04  0.27999679137E+04 0.  0.
        1    1    3    3  502    0 -0.11434789962E+04  0.26392702247E+02 -0.12756725917E+04  0.17133538311E+04  0.50400001928E-02 0. -1.
       -1    1    3    3    0  502  0.11434789962E+04 -0.26392702247E+02  0.41368352837E+03  0.12162955443E+04  0.50400001928E-02 0.  1.
</event>
<event>
 5   0  0.5551565E-07  0.2798344E+04  0.7818609E-02  0.8303783E-01
       -1   -1    0    0    0  501  0.00000000000E+00  0.00000000000E+00  0.21095424593E+04  0.21095424593E+04  0.50400001928E-02 0. -1.
        1   -1    0    0  501    0  0.00000000000E+00  0.00000000000E+00 -0.92801305849E+03  0.92801305850E+03  0.50400001928E-02 0.  1.
    10030    2    1    2    0    0  0.00000000000E+00  0.00000000000E+00  0.11815294008E+04  0.30375555178E+04  0.27983444747E+04 0.  0.
        3    1    3    3  502    0  0.50667464727E+03 -0.54428095327E+03 -0.69576032731E+03  0.10183532774E+04  0.10100000352E+00 0.  1.
       -3    1    3    3    0  502 -0.50667464727E+03  0.54428095327E+03  0.18772897281E+04  0.20192022405E+04  0.10100000352E+00 0. -1.
</event>
<event>
 5   0  0.5551565E-07  0.2794710E+04  0.7818609E-02  0.8304913E-01
       -1   -1    0    0    0  501  0.00000000000E+00  0.00000000000E+00  0.84627207571E+03  0.84627207573E+03  0.50400001928E-02 0.  1.
        1   -1    0    0  501    0  0.00000000000E+00  0.00000000000E+00 -0.23072970385E+04  0.23072970385E+04  0.50400001928E-02 0. -1.
    10030    2    1    2    0    0  0.00000000000E+00  0.00000000000E+00 -0.14610249628E+04  0.31535691142E+04  0.27947100415E+04 0.  0.
        3    1    3    3  502    0 -0.93186220355E+02 -0.45961360304E+03  0.75482064011E+03  0.88864084123E+03  0.10100000352E+00 0.  1.
       -3    1    3    3    0  502  0.93186220355E+02  0.45961360304E+03 -0.22158456029E+04  0.22649282730E+04  0.10100000352E+00 0. -1.
</event>
<event>
 5   0  0.1394410E-06  0.2797705E+04  0.7818609E-02  0.8303981E-01
       -2   -1    0    0    0  501  0.00000000000E+00  0.00000000000E+00  0.10765866507E+04  0.10765866507E+04  0.25500000920E-02 0. -1.
        2   -1    0    0  501    0  0.00000000000E+00  0.00000000000E+00 -0.18175857810E+04  0.18175857810E+04  0.25500000920E-02 0.  1.
    10030    2    1    2    0    0  0.00000000000E+00  0.00000000000E+00 -0.74099913029E+03  0.28941724317E+04  0.27977051942E+04 0.  0.
        4    1    3    3  502    0 -0.17313915778E+03  0.11472277779E+03  0.10605462465E+04  0.10806934985E+04  0.12699999809E+01 0. -1.
       -4    1    3    3    0  502  0.17313915778E+03 -0.11472277779E+03 -0.18015453768E+04  0.18134789332E+04  0.12699999809E+01 0.  1.
</event>
<event>
 5   0  0.5214658E-07  0.2801402E+04  0.7818609E-02  0.8302833E-01
       -1   -1    0    0    0  501  0.00000000000E+00  0.00000000000E+00  0.68963137577E+03  0.68963137579E+03  0.50400001928E-02 0. -1.
        1   -1    0    0  501    0  0.00000000000E+00  0.00000000000E+00 -0.28449458794E+04  0.28449458794E+04  0.50400001928E-02 0.  1.
    10030    2    1    2    0    0  0.00000000000E+00  0.00000000000E+00 -0.21553145036E+04  0.35345772552E+04  0.28014024636E+04 0.  0.
        2    1    3    3  502    0 -0.11752966714E+04 -0.23670072264E+03 -0.16379214877E+03  0.12100319689E+04  0.25500000920E-02 0. -1.
       -2    1    3    3    0  502  0.11752966714E+04  0.23670072264E+03 -0.19915223548E+04  0.23245452862E+04  0.25500000920E-02 0.  1.
</event>
<event>
 5   0  0.5282098E-07  0.2809762E+04  0.7818609E-02  0.8300244E-01
       -1   -1    0    0    0  501  0.00000000000E+00  0.00000000000E+00  0.11061552190E+04  0.11061552190E+04  0.50400001928E-02 0. -1.
        1   -1    0    0  501    0  0.00000000000E+00  0.00000000000E+00 -0.17842806032E+04  0.17842806032E+04  0.50400001928E-02 0.  1.
    10030    2    1    2    0    0  0.00000000000E+00  0.00000000000E+00 -0.67812538413E+03  0.28904358222E+04  0.28097624821E+04 0.  0.
        4    1    3    3  502    0  0.47000817719E+03 -0.11520505144E+03  0.10177102109E+04  0.11269053096E+04  0.12699999809E+01 0. -1.
       -4    1    3    3    0  502 -0.47000817719E+03  0.11520505144E+03 -0.16958355951E+04  0.17635305126E+04  0.12699999809E+01 0.  1.
</event>
<event>
 5   0  0.1394410E-06  0.2818362E+04  0.7818609E-02  0.8297590E-01
        2   -1    0    0  501    0  0.00000000000E+00  0.00000000000E+00  0.18814801864E+04  0.18814801864E+04  0.25500000920E-02 0. -1.
       -2   -1    0    0    0  501  0.00000000000E+00  0.00000000000E+00 -0.10554405699E+04  0.10554405699E+04  0.25500000920E-02 0.  1.
    10030    2    1    2    0    0  0.00000000000E+00  0.00000000000E+00  0.82603961647E+03  0.29369207564E+04  0.28183615952E+04 0.  0.
        4    1    3    3  502    0 -0.83430325972E+03  0.32931569373E+02  0.15959571460E+04  0.18011738512E+04  0.12699999809E+01 0. -1.
       -4    1    3    3    0  502  0.83430325972E+03 -0.32931569373E+02 -0.76991752952E+03  0.11357469052E+04  0.12699999809E+01 0.  1.
</event>
<event>
 5   0  0.1439207E-06  0.2799425E+04  0.7818609E-02  0.8303447E-01
       -2   -1    0    0    0  501  0.00000000000E+00  0.00000000000E+00  0.12457525908E+04  0.12457525908E+04  0.25500000920E-02 0.  1.
        2   -1    0    0  501    0  0.00000000000E+00  0.00000000000E+00 -0.15727005417E+04  0.15727005417E+04  0.25500000920E-02 0. -1.
    10030    2    1    2    0    0  0.00000000000E+00  0.00000000000E+00 -0.32694795093E+03  0.28184531325E+04  0.27994254942E+04 0.  0.
        5    1    3    3  502    0  0.43984131144E+03  0.11809886882E+04 -0.77669435691E+03  0.14803617378E+04  0.46999998093E+01 0. -1.
       -5    1    3    3    0  502 -0.43984131144E+03 -0.11809886882E+04  0.44974640599E+03  0.13380913947E+04  0.46999998093E+01 0.  1.
</event>
<event>
 5   0  0.5282098E-07  0.2816876E+04  0.7818609E-02  0.8298048E-01
       -1   -1    0    0    0  501  0.00000000000E+00  0.00000000000E+00  0.12552183931E+04  0.12552183932E+04  0.50400001928E-02 0.  1.
        1   -1    0    0  501    0  0.00000000000E+00  0.00000000000E+00 -0.15803604715E+04  0.15803604715E+04  0.50400001928E-02 0. -1.
    10030    2    1    2    0    0  0.00000000000E+00  0.00000000000E+00 -0.32514207831E+03  0.28355788646E+04  0.28168759515E+04 0.  0.
        4    1    3    3  502    0 -0.10029888003E+04 -0.15645966263E+03  0.82024628819E+03  0.13050945352E+04  0.12699999809E+01 0.  1.
       -4    1    3    3    0  502  0.10029888003E+04  0.15645966263E+03 -0.11453883665E+04  0.15304843294E+04  0.12699999809E+01 0. -1.
</event>
<event>
 5   0  0.1394410E-06  0.2796598E+04  0.7818609E-02  0.8304325E-01
       -2   -1    0    0    0  501  0.00000000000E+00  0.00000000000E+00  0.14030361582E+04  0.14030361582E+04  0.25500000920E-02 0.  1.
        2   -1    0    0  501    0  0.00000000000E+00  0.00000000000E+00 -0.13935782942E+04  0.13935782942E+04  0.25500000920E-02 0. -1.
    10030    2    1    2    0    0  0.00000000000E+00  0.00000000000E+00  0.94578640063E+01  0.27966144524E+04  0.27965984596E+04 0.  0.
        4    1    3    3  502    0 -0.10935308964E+04  0.34215391402E+03 -0.79674929467E+03  0.13955967088E+04  0.12699999809E+01 0. -1.
       -4    1    3    3    0  502  0.10935308964E+04 -0.34215391402E+03  0.80620715868E+03  0.14010177436E+04  0.12699999809E+01 0.  1.
</event>
<event>
 5   0  0.1499888E-06  0.2798415E+04  0.7818609E-02  0.8303761E-01
       -2   -1    0    0    0  501  0.00000000000E+00  0.00000000000E+00  0.14556857791E+04  0.14556857791E+04  0.25500000920E-02 0. -1.
        2   -1    0    0  501    0  0.00000000000E+00  0.00000000000E+00 -0.13449201714E+04  0.13449201714E+04  0.25500000920E-02 0.  1.
    10030    2    1    2    0    0  0.00000000000E+00  0.00000000000E+00  0.11076560767E+03  0.28006059505E+04  0.27984146709E+04 0.  0.
        3    1    3    3  502    0 -0.13902143678E+04 -0.75220593758E+02  0.19487282979E+03  0.14058198876E+04  0.10100000352E+00 0. -1.
       -3    1    3    3    0  502  0.13902143678E+04  0.75220593758E+02 -0.84107222122E+02  0.13947860629E+04  0.10100000352E+00 0.  1.
</event>
<event>
 5   0  0.5297741E-07  0.2798508E+04  0.7818609E-02  0.8303732E-01
        1   -1    0    0  501    0  0.00000000000E+00  0.00000000000E+00  0.12984734821E+04  0.12984734821E+04  0.50400001928E-02 0.  1.
       -1   -1    0    0    0  501  0.00000000000E+00  0.00000000000E+00 -0.15078564010E+04  0.15078564010E+04  0.50400001928E-02 0. -1.
    10030    2    1    2    0    0  0.00000000000E+00  0.00000000000E+00 -0.20938291893E+03  0.28063298831E+04  0.27985078535E+04 0.  0.
        5    1    3    3  502    0  0.44574735090E+03  0.54280138996E+03 -0.13182663371E+04  0.14937109076E+04  0.46999998093E+01 0. -1.
       -5    1    3    3    0  502 -0.44574735090E+03 -0.54280138996E+03  0.11088834182E+04  0.13126189755E+04  0.46999998093E+01 0.  1.
</event>
<event>
 5   0  0.1377807E-06  0.2809529E+04  0.7818609E-02  0.8300316E-01
       -2   -1    0    0    0  501  0.00000000000E+00  0.00000000000E+00  0.12717107142E+04  0.12717107142E+04  0.25500000920E-02 0. -1.
        2   -1    0    0  501    0  0.00000000000E+00  0.00000000000E+00 -0.15517396381E+04  0.15517396381E+04  0.25500000920E-02 0.  1.
    10030    2    1    2    0    0  0.00000000000E+00  0.00000000000E+00 -0.28002892384E+03  0.28234503523E+04  0.28095294435E+04 0.  0.
        2    1    3    3  502    0  0.12603240128E+04  0.13718497555E+03 -0.74809736848E+03  0.14720346488E+04  0.25500000920E-02 0.  1.
       -2    1    3    3    0  502 -0.12603240128E+04 -0.13718497555E+03  0.46806844463E+03  0.13514157034E+04  0.25500000920E-02 0. -1.
</event>
<event>
 5   0  0.4710000E-07  0.2803414E+04  0.7818609E-02  0.8302209E-01
        3   -1    0    0  501    0  0.00000000000E+00  0.00000000000E+00  0.13518113107E+04  0.13518113145E+04  0.10100000352E+00 0.  1.
       -3   -1    0    0    0  501  0.00000000000E+00  0.00000000000E+00 -0.14534447591E+04  0.14534447626E+04  0.10100000352E+00 0. -1.
    10030    2    1    2    0    0  0.00000000000E+00  0.00000000000E+00 -0.10163344839E+03  0.28052560771E+04  0.28034144004E+04 0.  0.
        4    1    3    3  502    0  0.11513788365E+04  0.71767145484E+03  0.30163038995E+03  0.13898590026E+04  0.12699999809E+01 0.  1.
       -4    1    3    3    0  502 -0.11513788365E+04 -0.71767145484E+03 -0.40326383833E+03  0.14153970744E+04  0.12699999809E+01 0. -1.
</event>
<event>
 5   0  0.1377807E-06  0.2792630E+04  0.7818609E-02  0.8305560E-01
        2   -1    0    0  501    0  0.00000000000E+00  0.00000000000E+00  0.15615665263E+04  0.15615665263E+04  0.25500000920E-02 0.  1.
       -2   -1    0    0    0  501  0.00000000000E+00  0.00000000000E+00 -0.12485513876E+04  0.12485513876E+04  0.25500000920E-02 0. -1.
    10030    2    1    2    0    0  0.00000000000E+00  0.00000000000E+00  0.31301513871E+03  0.28101179139E+04  0.27926303395E+04 0.  0.
        2    1    3    3  502    0 -0.10044682381E+04  0.34104676812E+03  0.10701728446E+04  0.15068308653E+04  0.25500000920E-02 0.  1.
       -2    1    3    3    0  502  0.10044682381E+04 -0.34104676812E+03 -0.75715770590E+03  0.13032870486E+04  0.25500000920E-02 0. -1.
</event>
<event>
 5   0  0.5551565E-07  0.2801115E+04  0.7818609E-02  0.8302922E-01
        1   -1    0    0  501    0  0.00000000000E+00  0.00000000000E+00  0.13656686109E+04  0.13656686109E+04  0.50400001928E-02 0.  1.
       -1   -1    0    0    0  501  0.00000000000E+00  0.00000000000E+00 -0.14363372540E+04  0.14363372540E+04  0.50400001928E-02 0. -1.
    10030    2    1    2    0    0  0.00000000000E+00  0.00000000000E+00 -0.70668643143E+02  0.28020058649E+04  0.28011145657E+04 0.  0.
        3    1    3    3  502    0 -0.11398541229E+04 -0.81363008422E+03 -0.18026884900E+02  0.14005664262E+04  0.10100000352E+00 0.  1.
       -3    1    3    3    0  502  0.11398541229E+04  0.81363008422E+03 -0.52641758243E+02  0.14014394387E+04  0.10100000352E+00 0. -1.
</event>
<event>
 5   0  0.1499888E-06  0.2799713E+04  0.7818609E-02  0.8303358E-01
        2   -1    0    0  501    0  0.00000000000E+00  0.00000000000E+00  0.12588135906E+04  0.12588135906E+04  0.25500000920E-02 0. -1.
       -2   -1    0    0    0  501  0.00000000000E+00  0.00000000000E+00 -0.15567019873E+04  0.15567019873E+04  0.25500000920E-02 0.  1.
    10030    2    1    2    0    0  0.00000000000E+00  0.00000000000E+00 -0.29788839669E+03  0.28155155778E+04  0.27997125696E+04 0.  0.
        3    1    3    3  502    0 -0.13237118590E+04  0.26396953498E+03 -0.52212450929E+03  0.14472411736E+04  0.10100000352E+00 0.  1.
       -3    1    3    3    0  502  0.13237118590E+04 -0.26396953498E+03  0.22423611260E+03  0.13682744043E+04  0.10100000352E+00 0. -1.
</event>
<event>
 5   0  0.5282098E-07  0.2773269E+04  0.7818609E-02  0.8311616E-01
        1   -1    0    0  501    0  0.00000000000E+00  0.00000000000E+00  0.22003275935E+04  0.22003275935E+04  0.50400001928E-02 0. -1.
       -1   -1    0    0    0  501  0.00000000000E+00  0.00000000000E+00 -0.87384958704E+03  0.87384958706E+03  0.50400001928E-02 0.  1.
    10030    2    1    2    0    0  0.00000000000E+00  0.00000000000E+00  0.13264780065E+04  0.30741771806E+04  0.27732690883E+04 0.  0.
        4    1    3    3  502    0  0.80106464930E+03  0.41269106631E+03 -0.50502813955E+03  0.10329925088E+04  0.12699999809E+01 0.  1.
       -4    1    3    3    0  502 -0.80106464930E+03 -0.41269106631E+03  0.18315061460E+04  0.20411846718E+04  0.12699999809E+01 0. -1.
</event>
<event>
 5   0  0.5362952E-07  0.2795797E+04  0.7818609E-02  0.8304574E-01
        1   -1    0    0  501    0  0.00000000000E+00  0.00000000000E+00  0.77316162857E+03  0.77316162859E+03  0.50400001928E-02 0.  1.
       -1   -1    0    0    0  501  0.00000000000E+00  0.00000000000E+00 -0.25274415083E+04  0.25274415083E+04  0.50400001928E-02 0. -1.
    10030    2    1    2    0    0  0.00000000000E+00  0.00000000000E+00 -0.17542798798E+04  0.33006031369E+04  0.27957974124E+04 0.  0.
        1    1    3    3  502    0 -0.10462699368E+04  0.43417669339E+03 -0.18441398037E+04  0.21642647244E+04  0.50400001928E-02 0.  1.
       -1    1    3    3    0  502  0.10462699368E+04 -0.43417669339E+03  0.89859923972E+02  0.11363384125E+04  0.50400001928E-02 0. -1.
</event>
<event>
 5   0  0.1377807E-06  0.2801360E+04  0.7818609E-02  0.8302846E-01
        2   -1    0    0  501    0  0.00000000000E+00  0.00000000000E+00  0.25385539383E+04  0.25385539383E+04  0.25500000920E-02 0.  1.
       -2   -1    0    0    0  501  0.00000000000E+00  0.00000000000E+00 -0.77284321245E+03  0.77284321246E+03  0.25500000920E-02 0. -1.
    10030    2    1    2    0    0  0.00000000000E+00  0.00000000000E+00  0.17657107259E+04  0.33113971508E+04  0.28013597989E+04 0.  0.
        2    1    3    3  502    0  0.12168364811E+04 -0.81279090790E+02  0.68508574134E+02  0.12214707271E+04  0.25500000920E-02 0. -1.
       -2    1    3    3    0  502 -0.12168364811E+04  0.81279090790E+02  0.16972021517E+04  0.20899264236E+04  0.25500000920E-02 0.  1.
</event>
<event>
 5   0  0.5551565E-07  0.2796021E+04  0.7818609E-02  0.8304505E-01
       -1   -1    0    0    0  501  0.00000000000E+00  0.00000000000E+00  0.12935045817E+04  0.12935045817E+04  0.50400001928E-02 0. -1.
        1   -1    0    0  501    0  0.00000000000E+00  0.00000000000E+00 -0.15109595637E+04  0.15109595637E+04  0.50400001928E-02 0.  1.
    10030    2    1    2    0    0  0.00000000000E+00  0.00000000000E+00 -0.21745498200E+03  0.28044641454E+04  0.27960208285E+04 0.  0.
        3    1    3    3  502    0  0.82752193980E+03  0.11188108712E+04 -0.24293281663E+03  0.14126382020E+04  0.10100000352E+00 0.  1.
       -3    1    3    3    0  502 -0.82752193980E+03 -0.11188108712E+04  0.25477834628E+02  0.13918259433E+04  0.10100000352E+00 0. -1.
</event>
<event>
 5   0  0.1394410E-06  0.2799154E+04  0.7818609E-02  0.8303531E-01
       -2   -1    0    0    0  501  0.00000000000E+00  0.00000000000E+00  0.15250778658E+04  0.15250778658E+04  0.25500000920E-02 0.  1.
        2   -1    0    0  501    0  0.00000000000E+00  0.00000000000E+00 -0.12844038931E+04  0.12844038931E+04  0.25500000920E-02 0. -1.
    10030    2    1    2    0    0  0.00000000000E+00  0.00000000000E+00  0.24067397271E+03  0.28094817589E+04  0.27991541209E+04 0.  0.
        4    1    3    3  502    0  0.10582698407E+04  0.50683306819E+03  0.88604063897E+03  0.14703348059E+04  0.12699999809E+01 0.  1.
       -4    1    3    3    0  502 -0.10582698407E+04 -0.50683306819E+03 -0.64536666626E+03  0.13391469529E+04  0.12699999809E+01 0. -1.
</event>
<event>
 5   0  0.1499888E-06  0.2798712E+04  0.7818609E-02  0.8303668E-01
        2   -1    0    0  501    0  0.00000000000E+00  0.00000000000E+00  0.92552959567E+03  0.92552959568E+03  0.25500000920E-02 0. -1.
       -2   -1    0    0    0  501  0.00000000000E+00  0.00000000000E+00 -0.21157590098E+04  0.21157590098E+04  0.25500000920E-02 0.  1.
    10030    2    1    2    0    0  0.00000000000E+00  0.00000000000E+00 -0.11902294141E+04  0.30412886055E+04  0.27987122617E+04 0.  0.
        3    1    3    3  502    0  0.34601381885E+03 -0.98050401023E+03  0.42258570950E+03  0.11223601779E+04  0.10100000352E+00 0. -1.
       -3    1    3    3    0  502 -0.34601381885E+03  0.98050401023E+03 -0.16128151237E+04  0.19189284276E+04  0.10100000352E+00 0.  1.
</event>
<event>
 5   0  0.4710000E-07  0.2802272E+04  0.7818609E-02  0.8302563E-01
        4   -1    0    0  501    0  0.00000000000E+00  0.00000000000E+00  0.13163211407E+04  0.13163217534E+04  0.12699999809E+01 0. -1.
       -4   -1    0    0    0  501  0.00000000000E+00  0.00000000000E+00 -0.14914140891E+04  0.14914146299E+04  0.12699999809E+01 0.  1.
    10030    2    1    2    0    0  0.00000000000E+00  0.00000000000E+00 -0.17509294842E+03  0.28077363832E+04  0.28022715888E+04 0.  0.
        2    1    3    3  502    0  0.92221904453E+03 -0.92406720114E+03  0.42216295443E+03  0.13720822564E+04  0.25500000920E-02 0. -1.
       -2    1    3    3    0  502 -0.92221904453E+03  0.92406720114E+03 -0.59725590285E+03  0.14356541268E+04  0.25500000920E-02 0.  1.
</event>
<event>
 5   0  0.5282098E-07  0.2799111E+04  0.7818609E-02  0.8303544E-01
        1   -1    0    0  501    0  0.00000000000E+00  0.00000000000E+00  0.13251049519E+04  0.13251049519E+04  0.50400001928E-02 0.  1.
       -1   -1    0    0    0  501  0.00000000000E+00  0.00000000000E+00 -0.14781889094E+04  0.14781889094E+04  0.50400001928E-02 0. -1.
    10030    2    1    2    0    0  0.00000000000E+00  0.00000000000E+00 -0.15308395756E+03  0.28032938613E+04  0.27991108900E+04 0.  0.
        4    1    3    3  502    0 -0.36828963246E+03 -0.91244259634E+03 -0.10733006681E+04  0.14560785288E+04  0.12699999809E+01 0. -1.
       -4    1    3    3    0  502  0.36828963246E+03  0.91244259634E+03  0.92021671051E+03  0.13472153325E+04  0.12699999809E+01 0.  1.
</event>
<event>
 5   0  0.5551565E-07  0.2796859E+04  0.7818609E-02  0.8304244E-01
       -1   -1    0    0    0  501  0.00000000000E+00  0.00000000000E+00  0.11508934391E+04  0.11508934391E+04  0.50400001928E-02 0. -1.
        1   -1    0    0  501    0  0.00000000000E+00  0.00000000000E+00 -0.16992064045E+04  0.16992064045E+04  0.50400001928E-02 0.  1.
    10030    2    1    2    0    0  0.00000000000E+00  0.00000000000E+00 -0.54831296544E+03  0.28500998437E+04  0.27968593119E+04 0.  0.
        3    1    3    3  502    0 -0.77278399455E+03  0.36781040556E+03 -0.14011593835E+04  0.16418669937E+04  0.10100000352E+00 0.  1.
       -3    1    3    3    0  502  0.77278399455E+03 -0.36781040556E+03  0.85284641810E+03  0.12082328500E+04  0.10100000352E+00 0. -1.
</event>
<event>
 5   0  0.5297741E-07  0.2806235E+04  0.7818609E-02  0.8301335E-01
        1   -1    0    0  501    0  0.00000000000E+00  0.00000000000E+00  0.21192398005E+04  0.21192398005E+04  0.50400001928E-02 0. -1.
       -1   -1    0    0    0  501  0.00000000000E+00  0.00000000000E+00 -0.92898322487E+03  0.92898322489E+03  0.50400001928E-02 0.  1.
    10030    2    1    2    0    0  0.00000000000E+00  0.00000000000E+00  0.11902565756E+04  0.30482230254E+04  0.28062346475E+04 0.  0.
        5    1    3    3  502    0 -0.11396241880E+04  0.42318649184E+03  0.13561781236E+04  0.18212828692E+04  0.46999998093E+01 0. -1.
       -5    1    3    3    0  502  0.11396241880E+04 -0.42318649184E+03 -0.16592154799E+03  0.12269401562E+04  0.46999998093E+01 0.  1.
</event>
<event>
 5   0  0.1394410E-06  0.2793951E+04  0.7818609E-02  0.8305149E-01
        2   -1    0    0  501    0  0.00000000000E+00  0.00000000000E+00  0.20123747187E+04  0.20123747187E+04  0.25500000920E-02 0.  1.
       -2   -1    0    0    0  501  0.00000000000E+00  0.00000000000E+00 -0.96976995052E+03  0.96976995053E+03  0.25500000920E-02 0. -1.
    10030    2    1    2    0    0  0.00000000000E+00  0.00000000000E+00  0.10426047682E+04  0.29821446692E+04  0.27939509884E+04 0.  0.
        4    1    3    3  502    0  0.37106310898E+03  0.11176097095E+04  0.13234552221E+04  0.17715176069E+04  0.12699999809E+01 0.  1.
       -4    1    3    3    0  502 -0.37106310898E+03 -0.11176097095E+04 -0.28085045391E+03  0.12106270623E+04  0.12699999809E+01 0. -1.
</event>
<event>
 5   0  0.1394410E-06  0.2806736E+04  0.7818609E-02  0.8301180E-01
       -2   -1    0    0    0  501  0.00000000000E+00  0.00000000000E+00  0.80577895717E+03  0.80577895717E+03  0.25500000920E-02 0. -1.
        2   -1    0    0  501    0  0.00000000000E+00  0.00000000000E+00 -0.24441456188E+04  0.24441456188E+04  0.25500000920E-02 0.  1.
    10030    2    1    2    0    0  0.00000000000E+00  0.00000000000E+00 -0.16383666616E+04  0.32499245759E+04  0.28067355471E+04 0.  0.
        4    1    3    3  502    0  0.67732976776E+03  0.89681019076E+03  0.15400234218E+03  0.11343555293E+04  0.12699999809E+01 0. -1.
       -4    1    3    3    0  502 -0.67732976776E+03 -0.89681019076E+03 -0.17923690038E+04  0.21155690466E+04  0.12699999809E+01 0.  1.
</event>
<event>
 5   0  0.1439207E-06  0.2795794E+04  0.7818609E-02  0.8304575E-01
       -2   -1    0    0    0  501  0.00000000000E+00  0.00000000000E+00  0.11153128871E+04  0.11153128871E+04  0.25500000920E-02 0.  1.
        2   -1    0    0  501    0  0.00000000000E+00  0.00000000000E+00 -0.17520789461E+04  0.17520789461E+04  0.25500000920E-02 0. -1.
    10030    2    1    2    0    0  0.00000000000E+00  0.00000000000E+00 -0.63676605904E+03  0.28673918332E+04  0.27957941468E+04 0.  0.
        5    1    3    3  502    0 -0.52772792619E+03 -0.10525174093E+04  0.45444214182E+03  0.12620734571E+04  0.46999998093E+01 0.  1.
       -5    1    3    3    0  502  0.52772792619E+03  0.10525174093E+04 -0.10912082009E+04  0.16053183761E+04  0.46999998093E+01 0. -1.
</event>
<event>
 5   0  0.1394410E-06  0.2796514E+04  0.7818609E-02  0.8304351E-01
       -2   -1    0    0    0  501  0.00000000000E+00  0.00000000000E+00  0.62726069745E+03  0.62726069745E+03  0.25500000920E-02 0. -1.
        2   -1    0    0  501    0  0.00000000000E+00  0.00000000000E+00 -0.31169216582E+04  0.31169216582E+04  0.25500000920E-02 0.  1.
    10030    2    1    2    0    0  0.00000000000E+00  0.00000000000E+00 -0.24896609607E+04  0.37441823556E+04  0.27965138678E+04 0.  0.
        4    1    3    3  502    0 -0.77089588154E+03  0.10484532246E+04 -0.19296047649E+04  0.23274257852E+04  0.12699999809E+01 0.  1.
       -4    1    3    3    0  502  0.77089588154E+03 -0.10484532246E+04 -0.56005619584E+03  0.14167565704E+04  0.12699999809E+01 0. -1.
</event>
<event>
 5   0  0.1377807E-06  0.2817296E+04  0.7818609E-02  0.8297919E-01
       -2   -1    0    0    0  501  0.00000000000E+00  0.00000000000E+00  0.22017742562E+04  0.22017742562E+04  0.25500000920E-02 0. -1.
        2   -1    0    0  501    0  0.00000000000E+00  0.00000000000E+00 -0.90122302717E+03  0.90122302717E+03  0.25500000920E-02 0.  1.
    10030    2    1    2    0    0  0.00000000000E+00  0.00000000000E+00  0.13005512290E+04  0.31029972833E+04  0.28172963353E+04 0.  0.
        2    1    3    3  502    0 -0.36372276721E+03  0.97112449378E+03 -0.39977427441E+03  0.11113939465E+04  0.25500000920E-02 0. -1.
       -2    1    3    3    0  502  0.36372276721E+03 -0.97112449378E+03  0.17003255034E+04  0.19916033368E+04  0.25500000920E-02 0.  1.
</event>
<event>
 5   0  0.1439207E-06  0.2791818E+04  0.7818609E-02  0.8305813E-01
       -2   -1    0    0    0  501  0.00000000000E+00  0.00000000000E+00  0.94979068159E+03  0.94979068159E+03  0.25500000920E-02 0.  1.
        2   -1    0    0  501    0  0.00000000000E+00  0.00000000000E+00 -0.20515699796E+04  0.20515699796E+04  0.25500000920E-02 0. -1.
    10030    2    1    2    0    0  0.00000000000E+00  0.00000000000E+00 -0.11017792981E+04  0.30013606612E+04  0.27918180810E+04 0.  0.
        5    1    3    3  502    0  0.13951819280E+04 -0.43984579346E+02 -0.56005627404E+03  0.15040453370E+04  0.46999998093E+01 0. -1.
       -5    1    3    3    0  502 -0.13951819280E+04  0.43984579346E+02 -0.54172302402E+03  0.14973153243E+04  0.46999998093E+01 0.  1.
</event>
<event>
 5   0  0.1439207E-06  0.2804083E+04  0.7818609E-02  0.8302002E-01
        2   -1    0    0  501    0  0.00000000000E+00  0.00000000000E+00  0.11739857051E+04  0.11739857051E+04  0.25500000920E-02 0.  1.
       -2   -1    0    0    0  501  0.00000000000E+00  0.00000000000E+00 -0.16743986587E+04  0.16743986587E+04  0.25500000920E-02 0. -1.
    10030    2    1    2    0    0  0.00000000000E+00  0.00000000000E+00 -0.50041295355E+03  0.28483843638E+04  0.28040828019E+04 0.  0.
        5    1    3    3  502    0 -0.37432778588E+03 -0.10083710972E+04 -0.11637279974E+04  0.15846824613E+04  0.46999998093E+01 0.  1.
       -5    1    3    3    0  502  0.37432778588E+03  0.10083710972E+04  0.66331504388E+03  0.12637019025E+04  0.46999998093E+01 0. -1.
</event>
<event>
 5   0  0.5214658E-07  0.2799334E+04  0.7818609E-02  0.8303475E-01
        1   -1    0    0  501    0  0.00000000000E+00  0.00000000000E+00  0.15275900924E+04  0.15275900924E+04  0.50400001928E-02 0. -1.
       -1   -1    0    0    0  501  0.00000000000E+00  0.00000000000E+00 -0.12824561947E+04  0.12824561947E+04  0.50400001928E-02 0.  1.
    10030    2    1    2    0    0  0.00000000000E+00  0.00000000000E+00  0.24513389770E+03  0.28100462871E+04  0.27993337615E+04 0.  0.
        2    1    3    3  502    0  0.66360788206E+03  0.11041406442E+04  0.67198713585E+03  0.14529517177E+04  0.25500000920E-02 0. -1.
       -2    1    3    3    0  502 -0.66360788206E+03 -0.11041406442E+04 -0.42685323815E+03  0.13570945694E+04  0.25500000920E-02 0.  1.
</event>
<event>
 5   0  0.5214658E-07  0.2798113E+04  0.7818609E-02  0.8303855E-01
        1   -1    0    0  501    0  0.00000000000E+00  0.00000000000E+00  0.14798738107E+04  0.14798738107E+04  0.50400001928E-02 0. -1.
       -1   -1    0    0    0  501  0.00000000000E+00  0.00000000000E+00 -0.13226523901E+04  0.13226523901E+04  0.50400001928E-02 0.  1.
    10030    2    1    2    0    0  0.00000000000E+00  0.00000000000E+00  0.15722142059E+03  0.28025262009E+04  0.27981126731E+04 0.  0.
        2    1    3    3  502    0  0.11499442948E+04  0.45454464848E+03 -0.57692598168E+03  0.13644875620E+04  0.25500000920E-02 0. -1.
       -2    1    3    3    0  502 -0.11499442948E+04 -0.45454464848E+03  0.73414740227E+03  0.14380386388E+04  0.25500000920E-02 0.  1.
</event>
<event>
 5   0  0.5214658E-07  0.2797473E+04  0.7818609E-02  0.8304053E-01
       -1   -1    0    0    0  501  0.00000000000E+00  0.00000000000E+00  0.17330472615E+04  0.17330472615E+04  0.50400001928E-02 0.  1.
        1   -1    0    0  501    0  0.00000000000E+00  0.00000000000E+00 -0.11289156468E+04  0.11289156468E+04  0.50400001928E-02 0. -1.
    10030    2    1    2    0    0  0.00000000000E+00  0.00000000000E+00  0.60413161467E+03  0.28619629083E+04  0.27974732672E+04 0.  0.
        2    1    3    3  502    0 -0.38195218753E+02 -0.30017261566E+03  0.16991610950E+04  0.17258942322E+04  0.25500000920E-02 0.  1.
       -2    1    3    3    0  502  0.38195218753E+02  0.30017261566E+03 -0.10950294804E+04  0.11360686761E+04  0.25500000920E-02 0. -1.
</event>
<event>
 5   0  0.5297741E-07  0.2797776E+04  0.7818609E-02  0.8303959E-01
        1   -1    0    0  501    0  0.00000000000E+00  0.00000000000E+00  0.10840881907E+04  0.10840881907E+04  0.50400001928E-02 0.  1.
       -1   -1    0    0    0  501  0.00000000000E+00  0.00000000000E+00 -0.18051003094E+04  0.18051003094E+04  0.50400001928E-02 0. -1.
    10030    2    1    2    0    0  0.00000000000E+00  0.00000000000E+00 -0.72101211873E+03  0.28891885001E+04  0.27977762086E+04 0.  0.
        5    1    3    3  502    0 -0.12790453281E+03  0.25305387777E+03 -0.17751062687E+04  0.17976151395E+04  0.46999998093E+01 0. -1.
       -5    1    3    3    0  502  0.12790453281E+03 -0.25305387777E+03  0.10540941499E+04  0.10915733606E+04  0.46999998093E+01 0.  1.
</event>
<event>
 5   0  0.1499888E-06  0.2800692E+04  0.7818609E-02  0.8303054E-01
        2   -1    0    0  501    0  0.00000000000E+00  0.00000000000E+00  0.18866307542E+04  0.18866307543E+04  0.25500000920E-02 0.  1.
       -2   -1    0    0    0  501  0.00000000000E+00  0.00000000000E+00 -0.10394026486E+04  0.10394026487E+04  0.25500000920E-02 0. -1.
    10030    2    1    2    0    0  0.00000000000E+00  0.00000000000E+00  0.84722810560E+03  0.29260334029E+04  0.28006920595E+04 0.  0.
        3    1    3    3  502    0 -0.72666928149E+03  0.59290819671E+03 -0.66281960159E+03  0.11484416436E+04  0.10100000352E+00 0. -1.
       -3    1    3    3    0  502  0.72666928149E+03 -0.59290819671E+03  0.15100477072E+04  0.17775917593E+04  0.10100000352E+00 0.  1.
</event>
<event>
 5   0  0.5362952E-07  0.2798652E+04  0.7818609E-02  0.8303687E-01
       -1   -1    0    0    0  501  0.00000000000E+00  0.00000000000E+00  0.13440427934E+04  0.13440427934E+04  0.50400001928E-02 0. -1.
        1   -1    0    0  501    0  0.00000000000E+00  0.00000000000E+00 -0.14568827478E+04  0.14568827478E+04  0.50400001928E-02 0.  1.
    10030    2    1    2    0    0  0.00000000000E+00  0.00000000000E+00 -0.11283995432E+03  0.28009255412E+04  0.27986516454E+04 0.  0.
        1    1    3    3  502    0 -0.88081876853E+03  0.10443885292E+04 -0.35919454828E+03  0.14126605489E+04  0.50400001928E-02 0.  1.
       -1    1    3    3    0  502  0.88081876853E+03 -0.10443885292E+04  0.24635459396E+03  0.13882649923E+04  0.50400001928E-02 0. -1.
</event>
<event>
 5   0  0.5214658E-07  0.2879262E+04  0.7818609E-02  0.8279075E-01
       -1   -1    0    0    0  501  0.00000000000E+00  0.00000000000E+00  0.17433507663E+04  0.17433507663E+04  0.50400001928E-02 0. -1.
        1   -1    0    0  501    0  0.00000000000E+00  0.00000000000E+00 -0.11888237594E+04  0.11888237594E+04  0.50400001928E-02 0.  1.
    10030    2    1    2    0    0  0.00000000000E+00  0.00000000000E+00  0.55452700689E+03  0.29321745257E+04  0.28792615803E+04 0.  0.
        2    1    3    3  502    0  0.68654406417E+03  0.14230865310E+03  0.15577255341E+04  0.17082456921E+04  0.25500000920E-02 0. -1.
       -2    1    3    3    0  502 -0.68654406417E+03 -0.14230865310E+03 -0.10031985272E+04  0.12239288337E+04  0.25500000920E-02 0.  1.
</event>
<event>
 5   0  0.5297741E-07  0.2813597E+04  0.7818609E-02  0.8299059E-01
        1   -1    0    0  501    0  0.00000000000E+00  0.00000000000E+00  0.80992584758E+03  0.80992584760E+03  0.50400001928E-02 0.  1.
       -1   -1    0    0    0  501  0.00000000000E+00  0.00000000000E+00 -0.24435349422E+04  0.24435349422E+04  0.50400001928E-02 0. -1.
    10030    2    1    2    0    0  0.00000000000E+00  0.00000000000E+00 -0.16336090946E+04  0.32534607898E+04  0.28135970637E+04 0.  0.
        5    1    3    3  502    0  0.20299905068E+03  0.13798612238E+04 -0.60410676375E+03  0.15199318022E+04  0.46999998093E+01 0.  1.
       -5    1    3    3    0  502 -0.20299905068E+03 -0.13798612238E+04 -0.10295023308E+04  0.17335289875E+04  0.46999998093E+01 0. -1.
</event>
<event>
 5   0  0.1377807E-06  0.2799490E+04  0.7818609E-02  0.8303427E-01
        2   -1    0    0  501    0  0.00000000000E+00  0.00000000000E+00  0.16282862248E+04  0.16282862248E+04  0.25500000920E-02 0.  1.
       -2   -1    0    0    0  501  0.00000000000E+00  0.00000000000E+00 -0.12032813795E+04  0.12032813795E+04  0.25500000920E-02 0. -1.
    10030    2    1    2    0    0  0.00000000000E+00  0.00000000000E+00  0.42500484532E+03  0.28315676043E+04  0.27994903071E+04 0.  0.
        2    1    3    3  502    0 -0.12520159881E+04  0.62493053933E+03  0.17740203106E+03  0.14105154001E+04  0.25500000920E-02 0. -1.
       -2    1    3    3    0  502  0.12520159881E+04 -0.62493053933E+03  0.24760281426E+03  0.14210522042E+04  0.25500000920E-02 0.  1.
</event>
<event>
 5   0  0.1394410E-06  0.2797061E+04  0.7818609E-02  0.8304181E-01
       -2   -1    0    0    0  501  0.00000000000E+00  0.00000000000E+00  0.13299286072E+04  0.13299286072E+04  0.25500000920E-02 0. -1.
        2   -1    0    0  501    0  0.00000000000E+00  0.00000000000E+00 -0.14706710987E+04  0.14706710987E+04  0.25500000920E-02 0.  1.
    10030    2    1    2    0    0  0.00000000000E+00  0.00000000000E+00 -0.14074249145E+03  0.28005997059E+04  0.27970610047E+04 0.  0.
        4    1    3    3  502    0  0.29156158054E+03 -0.11332007412E+04  0.69658340062E+03  0.13617569982E+04  0.12699999809E+01 0. -1.
       -4    1    3    3    0  502 -0.29156158054E+03  0.11332007412E+04 -0.83732589208E+03  0.14388427077E+04  0.12699999809E+01 0.  1.
</event>
<event>
 5   0  0.5551565E-07  0.2801527E+04  0.7818609E-02  0.8302794E-01
       -1   -1    0    0    0  501  0.00000000000E+00  0.00000000000E+00  0.79370985441E+03  0.79370985443E+03  0.50400001928E-02 0. -1.
        1   -1    0    0  501    0  0.00000000000E+00  0.00000000000E+00 -0.24721105481E+04  0.24721105481E+04  0.50400001928E-02 0.  1.
    10030    2    1    2    0    0  0.00000000000E+00  0.00000000000E+00 -0.16784006936E+04  0.32658204025E+04  0.28015270859E+04 0.  0.
        3    1    3    3  502    0  0.11459421330E+04  0.52672774211E+03 -0.12866696978E+03  0.12677463018E+04  0.10100000352E+00 0. -1.
       -3    1    3    3    0  502 -0.11459421330E+04 -0.52672774211E+03 -0.15497337239E+04  0.19980741006E+04  0.10100000352E+00 0.  1.
</event>
<event>
 5   0  0.1377807E-06  0.2806329E+04  0.7818609E-02  0.8301306E-01
       -2   -1    0    0    0  501  0.00000000000E+00  0.00000000000E+00  0.17336992008E+04  0.17336992008E+04  0.25500000920E-02 0. -1.
        2   -1    0    0  501    0  0.00000000000E+00  0.00000000000E+00 -0.11356475785E+04  0.11356475785E+04  0.25500000920E-02 0.  1.
    10030    2    1    2    0    0  0.00000000000E+00  0.00000000000E+00  0.59805162223E+03  0.28693467793E+04  0.28063294883E+04 0.  0.
        2    1    3    3  502    0  0.13904325653E+04 -0.10713852670E+03  0.14033125510E+03  0.14015970333E+04  0.25500000920E-02 0.  1.
       -2    1    3    3    0  502 -0.13904325653E+04  0.10713852670E+03  0.45772036713E+03  0.14677497460E+04  0.25500000920E-02 0. -1.
</event>
<event>
 5   0  0.5297741E-07  0.2799044E+04  0.7818609E-02  0.8303565E-01
       -1   -1    0    0    0  501  0.00000000000E+00  0.00000000000E+00  0.13053433810E+04  0.13053433811E+04  0.50400001928E-02 0. -1.
        1   -1    0    0  501    0  0.00000000000E+00  0.00000000000E+00 -0.15004955279E+04  0.15004955279E+04  0.50400001928E-02 0.  1.
    10030    2    1    2    0    0  0.00000000000E+00  0.00000000000E+00 -0.19515214682E+03  0.28058389089E+04  0.27990440551E+04 0.  0.
        5    1    3    3  502    0 -0.62049340651E+03  0.43073908120E+03 -0.12786091507E+04  0.14850628519E+04  0.46999998093E+01 0.  1.
       -5    1    3    3    0  502  0.62049340651E+03 -0.43073908120E+03  0.10834570039E+04  0.13207760571E+04  0.46999998093E+01 0. -1.
</event>
<event>
 5   0  0.5282098E-07  0.2794392E+04  0.7818609E-02  0.8305012E-01
        1   -1    0    0  501    0  0.00000000000E+00  0.00000000000E+00  0.11480112282E+04  0.11480112282E+04  0.50400001928E-02 0. -1.
       -1   -1    0    0    0  501  0.00000000000E+00  0.00000000000E+00 -0.17004681728E+04  0.17004681728E+04  0.50400001928E-02 0.  1.
    10030    2    1    2    0    0  0.00000000000E+00  0.00000000000E+00 -0.55245694460E+03  0.28484794011E+04  0.27943919236E+04 0.  0.
        4    1    3    3  502    0 -0.93758862777E+03 -0.33615048054E+03  0.72257648673E+03  0.12305234547E+04  0.12699999809E+01 0. -1.
       -4    1    3    3    0  502  0.93758862777E+03  0.33615048054E+03 -0.12750334313E+04  0.16179559464E+04  0.12699999809E+01 0.  1.
</event>
<event>
 5   0  0.5214658E-07  0.2767861E+04  0.7818609E-02  0.8313316E-01
        1   -1    0    0  501    0  0.00000000000E+00  0.00000000000E+00  0.23017640328E+04  0.23017640328E+04  0.50400001928E-02 0.  1.
       -1   -1    0    0    0  501  0.00000000000E+00  0.00000000000E+00 -0.83208503431E+03  0.83208503433E+03  0.50400001928E-02 0. -1.
    10030    2    1    2    0    0  0.00000000000E+00  0.00000000000E+00  0.14696789985E+04  0.31338490672E+04  0.27678608377E+04 0.  0.
        2    1    3    3  502    0 -0.10830814615E+04 -0.65424725246E+03  0.10022758413E+03  0.12693110289E+04  0.25500000920E-02 0. -1.
       -2    1    3    3    0  502  0.10830814615E+04  0.65424725246E+03  0.13694514144E+04  0.18645380382E+04  0.25500000920E-02 0.  1.
</event>
<event>
 5   0  0.5297741E-07  0.2803501E+04  0.7818609E-02  0.8302182E-01
       -1   -1    0    0    0  501  0.00000000000E+00  0.00000000000E+00  0.85184440778E+03  0.85184440780E+03  0.50400001928E-02 0.  1.
        1   -1    0    0  501    0  0.00000000000E+00  0.00000000000E+00 -0.23066479525E+04  0.23066479525E+04  0.50400001928E-02 0. -1.
    10030    2    1    2    0    0  0.00000000000E+00  0.00000000000E+00 -0.14548035447E+04  0.31584923603E+04  0.28035014957E+04 0.  0.
        5    1    3    3  502    0 -0.62419670006E+03  0.12516327304E+04 -0.62245592445E+03  0.15309080574E+04  0.46999998093E+01 0.  1.
       -5    1    3    3    0  502  0.62419670006E+03 -0.12516327304E+04 -0.83234762022E+03  0.16275843029E+04  0.46999998093E+01 0. -1.
</event>
<event>
 5   0  0.5362952E-07  0.2781510E+04  0.7818609E-02  0.8309032E-01
       -1   -1    0    0    0  501  0.00000000000E+00  0.00000000000E+00  0.11940055651E+04  0.11940055651E+04  0.50400001928E-02 0.  1.
        1   -1    0    0  501    0  0.00000000000E+00  0.00000000000E+00 -0.16199247493E+04  0.16199247493E+04  0.50400001928E-02 0. -1.
    10030    2    1    2    0    0  0.00000000000E+00  0.00000000000E+00 -0.42591918420E+03  0.28139303144E+04  0.27815097812E+04 0.  0.
        1    1    3    3  502    0  0.32717852335E+03  0.12548283508E+04  0.29545070065E+03  0.13300116889E+04  0.50400001928E-02 0.  1.
       -1    1    3    3    0  502 -0.32717852335E+03 -0.12548283508E+04 -0.72136988485E+03  0.14839186254E+04  0.50400001928E-02 0. -1.
</event>
<event>
 5   0  0.1499888E-06  0.2799940E+04  0.7818609E-02  0.8303287E-01
       -2   -1    0    0    0  501  0.00000000000E+00  0.00000000000E+00  0.80605361251E+03  0.80605361252E+03  0.25500000920E-02 0. -1.
        2   -1    0    0  501    0  0.00000000000E+00  0.00000000000E+00 -0.24314958846E+04  0.24314958846E+04  0.25500000920E-02 0.  1.
    10030    2    1    2    0    0  0.00000000000E+00  0.00000000000E+00 -0.16254422721E+04  0.32375494972E+04  0.27999400291E+04 0.  0.
        3    1    3    3  502    0  0.50776608475E+03 -0.50012126917E+03  0.58058407805E+03  0.91925271965E+03  0.10100000352E+00 0. -1.
       -3    1    3    3    0  502 -0.50776608475E+03  0.50012126917E+03 -0.22060263502E+04  0.23182967775E+04  0.10100000352E+00 0.  1.
</event>
<event>
 5   0  0.1499888E-06  0.2798521E+04  0.7818609E-02  0.8303728E-01
        2   -1    0    0  501    0  0.00000000000E+00  0.00000000000E+00  0.15039450154E+04  0.15039450154E+04  0.25500000920E-02 0. -1.
       -2   -1    0    0    0  501  0.00000000000E+00  0.00000000000E+00 -0.13018625993E+04  0.13018625993E+04  0.25500000920E-02 0.  1.
    10030    2    1    2    0    0  0.00000000000E+00  0.00000000000E+00  0.20208241610E+03  0.28058076146E+04  0.27985208713E+04 0.  0.
        3    1    3    3  502    0 -0.14765404008E+03 -0.10024068985E+04 -0.86651479377E+03  0.13332176130E+04  0.10100000352E+00 0.  1.
       -3    1    3    3    0  502  0.14765404008E+03  0.10024068985E+04  0.10685972099E+04  0.14725900016E+04  0.10100000352E+00 0. -1.
</event>
<event>
 5   0  0.5297741E-07  0.2804949E+04  0.7818609E-02  0.8301734E-01
        1   -1    0    0  501    0  0.00000000000E+00  0.00000000000E+00  0.14186281860E+04  0.14186281860E+04  0.50400001928E-02 0. -1.
       -1   -1    0    0    0  501  0.00000000000E+00  0.00000000000E+00 -0.13865044250E+04  0.13865044250E+04  0.50400001928E-02 0.  1.
    10030    2    1    2    0    0  0.00000000000E+00  0.00000000000E+00  0.32123760970E+02  0.28051326110E+04  0.28049486679E+04 0.  0.
        5    1    3    3  502    0 -0.40707502176E+03  0.56292836936E+03  0.12344659302E+04  0.14165192004E+04  0.46999998093E+01 0. -1.
       -5    1    3    3    0  502  0.40707502176E+03 -0.56292836936E+03 -0.12023421692E+04  0.13886134106E+04  0.46999998093E+01 0.  1.
</event>
<event>
 5   0  0.5551565E-07  0.2794440E+04  0.7818609E-02  0.8304996E-01
        1   -1    0    0  501    0  0.00000000000E+00  0.00000000000E+00  0.17400610293E+04  0.17400610293E+04  0.50400001928E-02 0.  1.
       -1   -1    0    0    0  501  0.00000000000E+00  0.00000000000E+00 -0.11219285791E+04  0.11219285791E+04  0.50400001928E-02 0. -1.
    10030    2    1    2    0    0  0.00000000000E+00  0.00000000000E+00  0.61813245021E+03  0.28619896084E+04  0.27944403362E+04 0.  0.
        3    1    3    3  502    0  0.23267089469E+03 -0.53950948185E+03 -0.98925924355E+03  0.11505824992E+04  0.10100000352E+00 0. -1.
       -3    1    3    3    0  502 -0.23267089469E+03  0.53950948185E+03  0.16073916938E+04  0.17114071093E+04  0.10100000352E+00 0.  1.
</event>
<event>
 5   0  0.5551565E-07  0.2792438E+04  0.7818609E-02  0.8305620E-01
       -1   -1    0    0    0  501  0.00000000000E+00  0.00000000000E+00  0.31470027963E+04  0.31470027963E+04  0.50400001928E-02 0.  1.
        1   -1    0    0  501    0  0.00000000000E+00  0.00000000000E+00 -0.61945520921E+03  0.61945520923E+03  0.50400001928E-02 0. -1.
    10030    2    1    2    0    0  0.00000000000E+00  0.00000000000E+00  0.25275475871E+04  0.37664580055E+04  0.27924378422E+04 0.  0.
        3    1    3    3  502    0  0.54921578227E+03 -0.84202472114E+03  0.25706437542E+04  0.27602269703E+04  0.10100000352E+00 0.  1.
       -3    1    3    3    0  502 -0.54921578227E+03  0.84202472114E+03 -0.43096167053E+02  0.10062310353E+04  0.10100000352E+00 0. -1.
</event>
<event>
 5   0  0.1377807E-06  0.2799543E+04  0.7818609E-02  0.8303410E-01
        2   -1    0    0  501    0  0.00000000000E+00  0.00000000000E+00  0.17383541774E+04  0.17383541774E+04  0.25500000920E-02 0. -1.
       -2   -1    0    0    0  501  0.00000000000E+00  0.00000000000E+00 -0.11271349893E+04  0.11271349893E+04  0.25500000920E-02 0.  1.
    10030    2    1    2    0    0  0.00000000000E+00  0.00000000000E+00  0.61121918814E+03  0.28654891667E+04  0.27995426892E+04 0.  0.
        2    1    3    3  502    0  0.82561947273E+03 -0.91940495387E+03  0.97867605691E+03  0.15763120907E+04  0.25500000920E-02 0.  1.
       -2    1    3    3    0  502 -0.82561947273E+03  0.91940495387E+03 -0.36745686878E+03  0.12891770760E+04  0.25500000920E-02 0. -1.
</event>
<event>
 5   0  0.1377807E-06  0.2792948E+04  0.7818609E-02  0.8305461E-01
        2   -1    0    0  501    0  0.00000000000E+00  0.00000000000E+00  0.18340817719E+04  0.18340817719E+04  0.25500000920E-02 0.  1.
       -2   -1    0    0    0  501  0.00000000000E+00  0.00000000000E+00 -0.10632787879E+04  0.10632787879E+04  0.25500000920E-02 0. -1.
    10030    2    1    2    0    0  0.00000000000E+00  0.00000000000E+00  0.77080298403E+03  0.28973605599E+04  0.27929484373E+04 0.  0.
        2    1    3    3  502    0 -0.91876240924E+02  0.10829117015E+04 -0.52430888345E+03  0.12066643287E+04  0.25500000920E-02 0. -1.
       -2    1    3    3    0  502  0.91876240924E+02 -0.10829117015E+04  0.12951118675E+04  0.16906962312E+04  0.25500000920E-02 0.  1.
</event>
<event>
 5   0  0.5282098E-07  0.2798313E+04  0.7818609E-02  0.8303792E-01
       -1   -1    0    0    0  501  0.00000000000E+00  0.00000000000E+00  0.98657748481E+03  0.98657748482E+03  0.50400001928E-02 0. -1.
        1   -1    0    0  501    0  0.00000000000E+00  0.00000000000E+00 -0.19842725437E+04  0.19842725437E+04  0.50400001928E-02 0.  1.
    10030    2    1    2    0    0  0.00000000000E+00  0.00000000000E+00 -0.99769505890E+03  0.29708500285E+04  0.27983127884E+04 0.  0.
        4    1    3    3  502    0  0.73708599826E+02 -0.73773105002E+03 -0.17585824208E+04  0.19084794480E+04  0.12699999809E+01 0.  1.
       -4    1    3    3    0  502 -0.73708599826E+02  0.73773105002E+03  0.76088736193E+03  0.10623705805E+04  0.12699999809E+01 0. -1.
</event>
<event>
 5   0  0.1461146E-06  0.2792280E+04  0.7818609E-02  0.8305669E-01
        2   -1    0    0  501    0  0.00000000000E+00  0.00000000000E+00  0.15586610530E+04  0.15586610530E+04  0.25500000920E-02 0.  1.
       -2   -1    0    0    0  501  0.00000000000E+00  0.00000000000E+00 -0.12505648880E+04  0.12505648880E+04  0.25500000920E-02 0. -1.
    10030    2    1    2    0    0  0.00000000000E+00  0.00000000000E+00  0.30809616505E+03  0.28092259410E+04  0.27922799180E+04 0.  0.
        1    1    3    3  502    0 -0.55303066085E+03 -0.12813668047E+04  0.19252920078E+03  0.14088333092E+04  0.50400001928E-02 0.  1.
       -1    1    3    3    0  502  0.55303066085E+03  0.12813668047E+04  0.11556696426E+03  0.14003926318E+04  0.50400001928E-02 0. -1.
</event>
<event>
 5   0  0.1439207E-06  0.2804783E+04  0.7818609E-02  0.8301785E-01
       -2   -1    0    0    0  501  0.00000000000E+00  0.00000000000E+00  0.11079161711E+04  0.11079161711E+04  0.25500000920E-02 0. -1.
        2   -1    0    0  501    0  0.00000000000E+00  0.00000000000E+00 -0.17751355922E+04  0.17751355922E+04  0.25500000920E-02 0.  1.
    10030    2    1    2    0    0  0.00000000000E+00  0.00000000000E+00 -0.66721942104E+03  0.28830517633E+04  0.28047826500E+04 0.  0.
        5    1    3    3  502    0  0.61399842355E+03  0.93057736254E+03  0.54084199375E+03  0.12391531156E+04  0.46999998093E+01 0. -1.
       -5    1    3    3    0  502 -0.61399842355E+03 -0.93057736254E+03 -0.12080614148E+04  0.16438986476E+04  0.46999998093E+01 0.  1.
</event>
<event>
 5   0  0.1439207E-06  0.2803188E+04  0.7818609E-02  0.8302279E-01
       -2   -1    0    0    0  501  0.00000000000E+00  0.00000000000E+00  0.11694353135E+04  0.11694353135E+04  0.25500000920E-02 0. -1.
        2   -1    0    0  501    0  0.00000000000E+00  0.00000000000E+00 -0.16798409113E+04  0.16798409113E+04  0.25500000920E-02 0.  1.
    10030    2    1    2    0    0  0.00000000000E+00  0.00000000000E+00 -0.51040559785E+03  0.28492762248E+04  0.28031876732E+04 0.  0.
        5    1    3    3  502    0  0.31916104378E+03 -0.64421249692E+03 -0.14781342620E+04  0.16437081552E+04  0.46999998093E+01 0.  1.
       -5    1    3    3    0  502 -0.31916104378E+03  0.64421249692E+03  0.96772866414E+03  0.12055680696E+04  0.46999998093E+01 0. -1.
</event>
<event>
 5   0  0.1377807E-06  0.2800838E+04  0.7818609E-02  0.8303008E-01
        2   -1    0    0  501    0  0.00000000000E+00  0.00000000000E+00  0.15604427803E+04  0.15604427804E+04  0.25500000920E-02 0. -1.
       -2   -1    0    0    0  501  0.00000000000E+00  0.00000000000E+00 -0.12568061136E+04  0.12568061136E+04  0.25500000920E-02 0.  1.
    10030    2    1    2    0    0  0.00000000000E+00  0.00000000000E+00  0.30363666676E+03  0.28172488939E+04  0.28008384646E+04 0.  0.
        2    1    3    3  502    0  0.40900068202E+03 -0.12683708307E+04 -0.28096756062E+03  0.13619797694E+04  0.25500000920E-02 0.  1.
       -2    1    3    3    0  502 -0.40900068202E+03  0.12683708307E+04  0.58460422737E+03  0.14552691245E+04  0.25500000920E-02 0. -1.
</event>
<event>
 5   0  0.5297741E-07  0.2802802E+04  0.7818609E-02  0.8302399E-01
       -1   -1    0    0    0  501  0.00000000000E+00  0.00000000000E+00  0.14669947460E+04  0.14669947460E+04  0.50400001928E-02 0.  1.
        1   -1    0    0  501    0  0.00000000000E+00  0.00000000000E+00 -0.13387397830E+04  0.13387397830E+04  0.50400001928E-02 0. -1.
    10030    2    1    2    0    0  0.00000000000E+00  0.00000000000E+00  0.12825496295E+03  0.28057345290E+04  0.28028016184E+04 0.  0.
        5    1    3    3  502    0 -0.10014977948E+04 -0.48142404808E+03 -0.79066018470E+03  0.13637934465E+04  0.46999998093E+01 0. -1.
       -5    1    3    3    0  502  0.10014977948E+04  0.48142404808E+03  0.91891514766E+03  0.14419410826E+04  0.46999998093E+01 0.  1.
</event>
<event>
 5   0  0.1499888E-06  0.2799810E+04  0.7818609E-02  0.8303327E-01
        2   -1    0    0  501    0  0.00000000000E+00  0.00000000000E+00  0.11474834802E+04  0.11474834802E+04  0.25500000920E-02 0. -1.
       -2   -1    0    0    0  501  0.00000000000E+00  0.00000000000E+00 -0.17078538191E+04  0.17078538191E+04  0.25500000920E-02 0.  1.
    10030    2    1    2    0    0  0.00000000000E+00  0.00000000000E+00 -0.56037033891E+03  0.28553372992E+04  0.27998100249E+04 0.  0.
        3    1    3    3  502    0  0.45495872034E+03  0.18155626548E+03  0.10572286184E+04  0.11651963253E+04  0.10100000352E+00 0. -1.
       -3    1    3    3    0  502 -0.45495872034E+03 -0.18155626548E+03 -0.16175989573E+04  0.16901409739E+04  0.10100000352E+00 0.  1.
</event>
<event>
 5   0  0.5551565E-07  0.2800476E+04  0.7818609E-02  0.8303121E-01
       -1   -1    0    0    0  501  0.00000000000E+00  0.00000000000E+00  0.91906459198E+03  0.91906459199E+03  0.50400001928E-02 0. -1.
        1   -1    0    0  501    0  0.00000000000E+00  0.00000000000E+00 -0.21333275801E+04  0.21333275801E+04  0.50400001928E-02 0.  1.
    10030    2    1    2    0    0  0.00000000000E+00  0.00000000000E+00 -0.12142629881E+04  0.30523921721E+04  0.28004755610E+04 0.  0.
        3    1    3    3  502    0  0.56761527302E+03 -0.70526689443E+03  0.55717168917E+03  0.10630281238E+04  0.10100000352E+00 0. -1.
       -3    1    3    3    0  502 -0.56761527302E+03  0.70526689443E+03 -0.17714346773E+04  0.19893640483E+04  0.10100000352E+00 0.  1.
</event>
<event>
 5   0  0.1394410E-06  0.2803321E+04  0.7818609E-02  0.8302238E-01
        2   -1    0    0  501    0  0.00000000000E+00  0.00000000000E+00  0.19440587707E+04  0.19440587707E+04  0.25500000920E-02 0. -1.
       -2   -1    0    0    0  501  0.00000000000E+00  0.00000000000E+00 -0.10105933120E+04  0.10105933120E+04  0.25500000920E-02 0.  1.
    10030    2    1    2    0    0  0.00000000000E+00  0.00000000000E+00  0.93346545878E+03  0.29546520827E+04  0.28033214527E+04 0.  0.
        4    1    3    3  502    0  0.87396647676E+03  0.91406506719E+02 -0.68422334785E+03  0.11137036206E+04  0.12699999809E+01 0.  1.
       -4    1    3    3    0  502 -0.87396647676E+03 -0.91406506719E+02  0.16176888066E+04  0.18409484621E+04  0.12699999809E+01 0. -1.
</event>
<event>
 5   0  0.5214658E-07  0.2800246E+04  0.7818609E-02  0.8303192E-01
        1   -1    0    0  501    0  0.00000000000E+00  0.00000000000E+00  0.15007949952E+04  0.15007949952E+04  0.50400001928E-02 0.  1.
       -1   -1    0    0    0  501  0.00000000000E+00  0.00000000000E+00 -0.13062041831E+04  0.13062041831E+04  0.50400001928E-02 0. -1.
    10030    2    1    2    0    0  0.00000000000E+00  0.00000000000E+00  0.19459081211E+03  0.28069991783E+04  0.28002462039E+04 0.  0.
        2    1    3    3  502    0 -0.82122534082E+03  0.39325971717E+01 -0.10394225900E+04  0.13246983983E+04  0.25500000920E-02 0. -1.
       -2    1    3    3    0  502  0.82122534082E+03 -0.39325971717E+01  0.12340134021E+04  0.14823007800E+04  0.25500000920E-02 0.  1.
</event>
<event>
 5   0  0.5362952E-07  0.2802232E+04  0.7818609E-02  0.8302576E-01
       -1   -1    0    0    0  501  0.00000000000E+00  0.00000000000E+00  0.14457538785E+04  0.14457538786E+04  0.50400001928E-02 0.  1.
        1   -1    0    0  501    0  0.00000000000E+00  0.00000000000E+00 -0.13578564782E+04  0.13578564782E+04  0.50400001928E-02 0. -1.
    10030    2    1    2    0    0  0.00000000000E+00  0.00000000000E+00  0.87897400318E+02  0.28036103568E+04  0.28022321602E+04 0.  0.
        1    1    3    3  502    0  0.12724302265E+04  0.17584126419E+03  0.60380182331E+03  0.14193574156E+04  0.50400001928E-02 0.  1.
       -1    1    3    3    0  502 -0.12724302265E+04 -0.17584126419E+03 -0.51590442299E+03  0.13842529412E+04  0.50400001928E-02 0. -1.
</event>
<event>
 5   0  0.1439207E-06  0.2801837E+04  0.7818609E-02  0.8302698E-01
       -2   -1    0    0    0  501  0.00000000000E+00  0.00000000000E+00  0.67438503295E+03  0.67438503296E+03  0.25500000920E-02 0. -1.
        2   -1    0    0  501    0  0.00000000000E+00  0.00000000000E+00 -0.29101661717E+04  0.29101661717E+04  0.25500000920E-02 0.  1.
    10030    2    1    2    0    0  0.00000000000E+00  0.00000000000E+00 -0.22357811387E+04  0.35845512046E+04  0.28018369043E+04 0.  0.
        5    1    3    3  502    0 -0.27706252218E+03 -0.13056359958E+04 -0.57344700223E+03  0.14526914845E+04  0.46999998093E+01 0. -1.
       -5    1    3    3    0  502  0.27706252218E+03  0.13056359958E+04 -0.16623341365E+04  0.21318597201E+04  0.46999998093E+01 0.  1.
</event>
<event>
 5   0  0.5297741E-07  0.2794584E+04  0.7818609E-02  0.8304952E-01
        1   -1    0    0  501    0  0.00000000000E+00  0.00000000000E+00  0.96052051350E+03  0.96052051351E+03  0.50400001928E-02 0. -1.
       -1   -1    0    0    0  501  0.00000000000E+00  0.00000000000E+00 -0.20326736615E+04  0.20326736615E+04  0.50400001928E-02 0.  1.
    10030    2    1    2    0    0  0.00000000000E+00  0.00000000000E+00 -0.10721531480E+04  0.29931941750E+04  0.27945838682E+04 0.  0.
        5    1    3    3  502    0  0.55190797296E+03 -0.12828167045E+04 -0.48605003551E+03  0.14786777319E+04  0.46999998093E+01 0. -1.
       -5    1    3    3    0  502 -0.55190797296E+03  0.12828167045E+04 -0.58610311245E+03  0.15145164431E+04  0.46999998093E+01 0.  1.
</event>
<event>
 5   0  0.1499888E-06  0.2799385E+04  0.7818609E-02  0.8303459E-01
       -2   -1    0    0    0  501  0.00000000000E+00  0.00000000000E+00  0.14957799545E+04  0.14957799545E+04  0.25500000920E-02 0.  1.
        2   -1    0    0  501    0  0.00000000000E+00  0.00000000000E+00 -0.13097778808E+04  0.13097778808E+04  0.25500000920E-02 0. -1.
    10030    2    1    2    0    0  0.00000000000E+00  0.00000000000E+00  0.18600207362E+03  0.28055578353E+04  0.27993852889E+04 0.  0.
        3    1    3    3  502    0 -0.77503619086E+03  0.63770028479E+03 -0.88475083497E+03  0.13379562028E+04  0.10100000352E+00 0. -1.
       -3    1    3    3    0  502  0.77503619086E+03 -0.63770028479E+03  0.10707529086E+04  0.14676016325E+04  0.10100000352E+00 0.  1.
</event>
<event>
 5   0  0.1461146E-06  0.2803835E+04  0.7818609E-02  0.8302079E-01
        2   -1    0    0  501    0  0.00000000000E+00  0.00000000000E+00  0.20506808099E+04  0.20506808099E+04  0.25500000920E-02 0. -1.
       -2   -1    0    0    0  501  0.00000000000E+00  0.00000000000E+00 -0.95839997005E+03  0.95839997005E+03  0.25500000920E-02 0.  1.
    10030    2    1    2    0    0  0.00000000000E+00  0.00000000000E+00  0.10922808398E+04  0.30090807799E+04  0.28038348217E+04 0.  0.
        1    1    3    3  502    0 -0.10243950321E+04  0.94816786122E+03  0.40635633134E+03  0.14537994851E+04  0.50400001928E-02 0.  1.
       -1    1    3    3    0  502  0.10243950321E+04 -0.94816786122E+03  0.68592450850E+03  0.15552812949E+04  0.50400001928E-02 0. -1.
</event>
<event>
 5   0  0.5214658E-07  0.2790240E+04  0.7818609E-02  0.8306305E-01
        1   -1    0    0  501    0  0.00000000000E+00  0.00000000000E+00  0.15085080699E+04  0.15085080699E+04  0.50400001928E-02 0. -1.
       -1   -1    0    0    0  501  0.00000000000E+00  0.00000000000E+00 -0.12902546011E+04  0.12902546011E+04  0.50400001928E-02 0.  1.
    10030    2    1    2    0    0  0.00000000000E+00  0.00000000000E+00  0.21825346874E+03  0.27987626710E+04  0.27902397589E+04 0.  0.
        2    1    3    3  502    0  0.20666239919E+03  0.50870895780E+03 -0.11773138214E+04  0.12990619635E+04  0.25500000920E-02 0.  1.
       -2    1    3    3    0  502 -0.20666239919E+03 -0.50870895780E+03  0.13955672901E+04  0.14997007076E+04  0.25500000920E-02 0. -1.
</event>
<event>
 5   0  0.5214658E-07  0.2797302E+04  0.7818609E-02  0.8304107E-01
        1   -1    0    0  501    0  0.00000000000E+00  0.00000000000E+00  0.12134874712E+04  0.12134874712E+04  0.50400001928E-02 0.  1.
       -1   -1    0    0    0  501  0.00000000000E+00  0.00000000000E+00 -0.16120676832E+04  0.16120676832E+04  0.50400001928E-02 0. -1.
    10030    2    1    2    0    0  0.00000000000E+00  0.00000000000E+00 -0.39858021195E+03  0.28255551544E+04  0.27973015113E+04 0.  0.
        2    1    3    3  502    0 -0.32846640338E+03  0.31410799232E+03 -0.15354012085E+04  0.16012529094E+04  0.25500000920E-02 0. -1.
       -2    1    3    3    0  502  0.32846640338E+03 -0.31410799232E+03  0.11368209965E+04  0.12243022450E+04  0.25500000920E-02 0.  1.
</event>
<event>
 5   0  0.1499888E-06  0.2803116E+04  0.7818609E-02  0.8302301E-01
       -2   -1    0    0    0  501  0.00000000000E+00  0.00000000000E+00  0.12363450016E+04  0.12363450016E+04  0.25500000920E-02 0. -1.
        2   -1    0    0  501    0  0.00000000000E+00  0.00000000000E+00 -0.15888488931E+04  0.15888488931E+04  0.25500000920E-02 0.  1.
    10030    2    1    2    0    0  0.00000000000E+00  0.00000000000E+00 -0.35250389144E+03  0.28251938947E+04  0.28031163995E+04 0.  0.
        3    1    3    3  502    0 -0.41138519968E+02  0.10791397748E+04 -0.10766696768E+04  0.15249434857E+04  0.10100000352E+00 0.  1.
       -3    1    3    3    0  502  0.41138519968E+02 -0.10791397748E+04  0.72416578531E+03  0.13002504091E+04  0.10100000352E+00 0. -1.
</event>
<event>
 5   0  0.1439207E-06  0.2801291E+04  0.7818609E-02  0.8302868E-01
        2   -1    0    0  501    0  0.00000000000E+00  0.00000000000E+00  0.14840990481E+04  0.14840990481E+04  0.25500000920E-02 0. -1.
       -2   -1    0    0    0  501  0.00000000000E+00  0.00000000000E+00 -0.13218846839E+04  0.13218846839E+04  0.25500000920E-02 0.  1.
    10030    2    1    2    0    0  0.00000000000E+00  0.00000000000E+00  0.16221436425E+03  0.28059837320E+04  0.28012909889E+04 0.  0.
        5    1    3    3  502    0  0.26995437316E+03 -0.13722008015E+04  0.36775726588E+01  0.13985156480E+04  0.46999998093E+01 0. -1.
       -5    1    3    3    0  502 -0.26995437316E+03  0.13722008015E+04  0.15853679160E+03  0.14074680840E+04  0.46999998093E+01 0.  1.
</event>
<event>
 5   0  0.5282098E-07  0.2797928E+04  0.7818609E-02  0.8303912E-01
        1   -1    0    0  501    0  0.00000000000E+00  0.00000000000E+00  0.97711367240E+03  0.97711367241E+03  0.50400001928E-02 0. -1.
       -1   -1    0    0    0  501  0.00000000000E+00  0.00000000000E+00 -0.20029402790E+04  0.20029402790E+04  0.50400001928E-02 0.  1.
    10030    2    1    2    0    0  0.00000000000E+00  0.00000000000E+00 -0.10258266066E+04  0.29800539514E+04  0.27979280417E+04 0.  0.
        4    1    3    3  502    0 -0.68573033758E+03  0.12173325767E+04 -0.58803084614E+03  0.15158847539E+04  0.12699999809E+01 0.  1.
       -4    1    3    3    0  502  0.68573033758E+03 -0.12173325767E+04 -0.43779576045E+03  0.14641691975E+04  0.12699999809E+01 0. -1.
</event>
<event>
 5   0  0.5282098E-07  0.2800108E+04  0.7818609E-02  0.8303235E-01
        1   -1    0    0  501    0  0.00000000000E+00  0.00000000000E+00  0.13927259764E+04  0.13927259764E+04  0.50400001928E-02 0. -1.
       -1   -1    0    0    0  501  0.00000000000E+00  0.00000000000E+00 -0.14074201739E+04  0.14074201739E+04  0.50400001928E-02 0.  1.
    10030    2    1    2    0    0  0.00000000000E+00  0.00000000000E+00 -0.14694197443E+02  0.28001461503E+04  0.28001075950E+04 0.  0.
        4    1    3    3  502    0  0.72627286395E+03 -0.61712996153E+03  0.10182533725E+04  0.13946910790E+04  0.12699999809E+01 0. -1.
       -4    1    3    3    0  502 -0.72627286395E+03  0.61712996153E+03 -0.10329475699E+04  0.14054550713E+04  0.12699999809E+01 0.  1.
</event>
<event>
 5   0  0.5362952E-07  0.2792721E+04  0.7818609E-02  0.8305532E-01
       -1   -1    0    0    0  501  0.00000000000E+00  0.00000000000E+00  0.68195548646E+03  0.68195548647E+03  0.50400001928E-02 0. -1.
        1   -1    0    0  501    0  0.00000000000E+00  0.00000000000E+00 -0.28591649324E+04  0.28591649324E+04  0.50400001928E-02 0.  1.
    10030    2    1    2    0    0  0.00000000000E+00  0.00000000000E+00 -0.21772094459E+04  0.35411204189E+04  0.27927214056E+04 0.  0.
        1    1    3    3  502    0 -0.83297302529E+03 -0.65822844364E+03  0.61500694036E+02  0.10634336276E+04  0.50400001928E-02 0. -1.
       -1    1    3    3    0  502  0.83297302529E+03  0.65822844364E+03 -0.22387101400E+04  0.24776867913E+04  0.50400001928E-02 0.  1.
</event>
<event>
 5   0  0.5362952E-07  0.2799475E+04  0.7818609E-02  0.8303431E-01
       -1   -1    0    0    0  501  0.00000000000E+00  0.00000000000E+00  0.89837701977E+03  0.89837701978E+03  0.50400001928E-02 0. -1.
        1   -1    0    0  501    0  0.00000000000E+00  0.00000000000E+00 -0.21808942097E+04  0.21808942097E+04  0.50400001928E-02 0.  1.
    10030    2    1    2    0    0  0.00000000000E+00  0.00000000000E+00 -0.12825171899E+04  0.30792712295E+04  0.27994751226E+04 0.  0.
        1    1    3    3  502    0  0.39885669091E+03  0.78053061167E+03 -0.18416370599E+04  0.20395935272E+04  0.50400001928E-02 0.  1.
       -1    1    3    3    0  502 -0.39885669091E+03 -0.78053061167E+03  0.55911986998E+03  0.10396777023E+04  0.50400001928E-02 0. -1.
</event>
<event>
 5   0  0.5214658E-07  0.2801559E+04  0.7818609E-02  0.8302785E-01
       -1   -1    0    0    0  501  0.00000000000E+00  0.00000000000E+00  0.79572144092E+03  0.79572144094E+03  0.50400001928E-02 0.  1.
        1   -1    0    0  501    0  0.00000000000E+00  0.00000000000E+00 -0.24659169447E+04  0.24659169447E+04  0.50400001928E-02 0. -1.
    10030    2    1    2    0    0  0.00000000000E+00  0.00000000000E+00 -0.16701955038E+04  0.32616383857E+04  0.28015588407E+04 0.  0.
        2    1    3    3  502    0 -0.66127596404E+03 -0.43719433453E+03 -0.21796404923E+04  0.23193226301E+04  0.25500000920E-02 0. -1.
       -2    1    3    3    0  502  0.66127596404E+03  0.43719433453E+03  0.50944498855E+03  0.94231575553E+03  0.25500000920E-02 0.  1.
</event>
<event>
 5   0  0.5297741E-07  0.2792795E+04  0.7818609E-02  0.8305509E-01
       -1   -1    0    0    0  501  0.00000000000E+00  0.00000000000E+00  0.17371940896E+04  0.17371940896E+04  0.50400001928E-02 0. -1.
        1   -1    0    0  501    0  0.00000000000E+00  0.00000000000E+00 -0.11224568410E+04  0.11224568410E+04  0.50400001928E-02 0.  1.
    10030    2    1    2    0    0  0.00000000000E+00  0.00000000000E+00  0.61473724863E+03  0.28596509306E+04  0.27927945790E+04 0.  0.
        5    1    3    3  502    0  0.11910329459E+04 -0.25270466006E+03  0.10074644501E+04  0.15803245969E+04  0.46999998093E+01 0. -1.
       -5    1    3    3    0  502 -0.11910329459E+04  0.25270466006E+03 -0.39272720143E+03  0.12793263337E+04  0.46999998093E+01 0.  1.
</event>
<event>
 5   0  0.5214658E-07  0.2797688E+04  0.7818609E-02  0.8303987E-01
        1   -1    0    0  501    0  0.00000000000E+00  0.00000000000E+00  0.16389184154E+04  0.16389184154E+04  0.50400001928E-02 0. -1.
       -1   -1    0    0    0  501  0.00000000000E+00  0.00000000000E+00 -0.11939364917E+04  0.11939364917E+04  0.50400001928E-02 0.  1.
    10030    2    1    2    0    0  0.00000000000E+00  0.00000000000E+00  0.44498192368E+03  0.28328549071E+04  0.27976879762E+04 0.  0.
        2    1    3    3  502    0  0.73873222767E+03  0.80947239315E+03 -0.65780087107E+03  0.12781521214E+04  0.25500000920E-02 0. -1.
       -2    1    3    3    0  502 -0.73873222767E+03 -0.80947239315E+03  0.11027827948E+04  0.15547027857E+04  0.25500000920E-02 0.  1.
</event>
<event>
 5   0  0.1461146E-06  0.2796958E+04  0.7818609E-02  0.8304213E-01
       -2   -1    0    0    0  501  0.00000000000E+00  0.00000000000E+00  0.10587244067E+04  0.10587244067E+04  0.25500000920E-02 0. -1.
        2   -1    0    0  501    0  0.00000000000E+00  0.00000000000E+00 -0.18472643470E+04  0.18472643470E+04  0.25500000920E-02 0.  1.
    10030    2    1    2    0    0  0.00000000000E+00  0.00000000000E+00 -0.78853994028E+03  0.29059887537E+04  0.27969582405E+04 0.  0.
        1    1    3    3  502    0 -0.19817961688E+03 -0.53649144648E+03  0.93166200670E+03  0.10932027842E+04  0.50400001928E-02 0. -1.
       -1    1    3    3    0  502  0.19817961688E+03  0.53649144648E+03 -0.17202019470E+04  0.18127859695E+04  0.50400001928E-02 0.  1.
</event>
<event>
 5   0  0.1461146E-06  0.2812841E+04  0.7818609E-02  0.8299293E-01
        2   -1    0    0  501    0  0.00000000000E+00  0.00000000000E+00  0.10530355052E+04  0.10530355052E+04  0.25500000920E-02 0. -1.
       -2   -1    0    0    0  501  0.00000000000E+00  0.00000000000E+00 -0.18783974017E+04  0.18783974017E+04  0.25500000920E-02 0.  1.
    10030    2    1    2    0    0  0.00000000000E+00  0.00000000000E+00 -0.82536189652E+03  0.29314329069E+04  0.28128413797E+04 0.  0.
        1    1    3    3  502    0  0.12061220192E+04  0.72337308574E+03 -0.40799579222E+03  0.14643973207E+04  0.50400001928E-02 0.  1.
       -1    1    3    3    0  502 -0.12061220192E+04 -0.72337308574E+03 -0.41736610430E+03  0.14670355863E+04  0.50400001928E-02 0. -1.
</event>
<event>
 5   0  0.1377807E-06  0.2799884E+04  0.7818609E-02  0.8303304E-01
        2   -1    0    0  501    0  0.00000000000E+00  0.00000000000E+00  0.12340720873E+04  0.12340720873E+04  0.25500000920E-02 0. -1.
       -2   -1    0    0    0  501  0.00000000000E+00  0.00000000000E+00 -0.15881066743E+04  0.15881066743E+04  0.25500000920E-02 0.  1.
    10030    2    1    2    0    0  0.00000000000E+00  0.00000000000E+00 -0.35403458702E+03  0.28221787616E+04  0.27998843679E+04 0.  0.
        2    1    3    3  502    0 -0.45662283183E+03  0.12288652109E+04  0.31803910941E+03  0.13489859125E+04  0.25500000920E-02 0.  1.
       -2    1    3    3    0  502  0.45662283183E+03 -0.12288652109E+04 -0.67207369643E+03  0.14731928491E+04  0.25500000920E-02 0. -1.
</event>
<event>
 5   0  0.5282098E-07  0.2797786E+04  0.7818609E-02  0.8303956E-01
        1   -1    0    0  501    0  0.00000000000E+00  0.00000000000E+00  0.21534177922E+04  0.21534177922E+04  0.50400001928E-02 0.  1.
       -1   -1    0    0    0  501  0.00000000000E+00  0.00000000000E+00 -0.90874224205E+03  0.90874224207E+03  0.50400001928E-02 0. -1.
    10030    2    1    2    0    0  0.00000000000E+00  0.00000000000E+00  0.12446755501E+04  0.30621600343E+04  0.27977860623E+04 0.  0.
        4    1    3    3  502    0 -0.95423358404E+03  0.16614501289E+03  0.17270364296E+04  0.19801066487E+04  0.12699999809E+01 0.  1.
       -4    1    3    3    0  502  0.95423358404E+03 -0.16614501289E+03 -0.48236087947E+03  0.10820533855E+04  0.12699999809E+01 0. -1.
</event>
<event>
 5   0  0.5282098E-07  0.2799385E+04  0.7818609E-02  0.8303459E-01
        1   -1    0    0  501    0  0.00000000000E+00  0.00000000000E+00  0.20449338488E+04  0.20449338488E+04  0.50400001928E-02 0. -1.
       -1   -1    0    0    0  501  0.00000000000E+00  0.00000000000E+00 -0.95804524853E+03  0.95804524854E+03  0.50400001928E-02 0.  1.
    10030    2    1    2    0    0  0.00000000000E+00  0.00000000000E+00  0.10868886003E+04  0.30029790974E+04  0.27993850449E+04 0.  0.
        4    1    3    3  502    0 -0.94012126759E+03  0.88025020006E+03 -0.44572321161E+02  0.12886647032E+04  0.12699999809E+01 0.  1.
       -4    1    3    3    0  502  0.94012126759E+03 -0.88025020006E+03  0.11314609215E+04  0.17143143942E+04  0.12699999809E+01 0. -1.
</event>
<event>
 5   0  0.5362952E-07  0.2800964E+04  0.7818609E-02  0.8302969E-01
       -1   -1    0    0    0  501  0.00000000000E+00  0.00000000000E+00  0.91480946555E+03  0.91480946556E+03  0.50400001928E-02 0.  1.
        1   -1    0    0  501    0  0.00000000000E+00  0.00000000000E+00 -0.21439986876E+04  0.21439986876E+04  0.50400001928E-02 0. -1.
    10030    2    1    2    0    0  0.00000000000E+00  0.00000000000E+00 -0.12291892221E+04  0.30588081532E+04  0.28009643294E+04 0.  0.
        1    1    3    3  502    0  0.14604287025E+03  0.12213069201E+04  0.11670031866E+03  0.12355314959E+04  0.50400001928E-02 0.  1.
       -1    1    3    3    0  502 -0.14604287025E+03 -0.12213069201E+04 -0.13458895407E+04  0.18232766573E+04  0.50400001928E-02 0. -1.
</event>
<event>
 5   0  0.5214658E-07  0.2800079E+04  0.7818609E-02  0.8303244E-01
        1   -1    0    0  501    0  0.00000000000E+00  0.00000000000E+00  0.12393425925E+04  0.12393425925E+04  0.50400001928E-02 0.  1.
       -1   -1    0    0    0  501  0.00000000000E+00  0.00000000000E+00 -0.15815725983E+04  0.15815725983E+04  0.50400001928E-02 0. -1.
    10030    2    1    2    0    0  0.00000000000E+00  0.00000000000E+00 -0.34223000578E+03  0.28209151908E+04  0.28000787734E+04 0.  0.
        2    1    3    3  502    0  0.69171361815E+03  0.67981917478E+03  0.84609573017E+03  0.12870508244E+04  0.25500000920E-02 0.  1.
       -2    1    3    3    0  502 -0.69171361815E+03 -0.67981917478E+03 -0.11883257360E+04  0.15338643665E+04  0.25500000920E-02 0. -1.
</event>
<event>
 5   0  0.5214658E-07  0.2765303E+04  0.7818609E-02  0.8314122E-01
        1   -1    0    0  501    0  0.00000000000E+00  0.00000000000E+00  0.15806674532E+04  0.15806674532E+04  0.50400001928E-02 0. -1.
       -1   -1    0    0    0  501  0.00000000000E+00  0.00000000000E+00 -0.12094415343E+04  0.12094415343E+04  0.50400001928E-02 0.  1.
    10030    2    1    2    0    0  0.00000000000E+00  0.00000000000E+00  0.37122591892E+03  0.27901089875E+04  0.27653027826E+04 0.  0.
        2    1    3    3  502    0 -0.71375930653E+03 -0.73066223753E+03  0.11258550512E+04  0.15201543505E+04  0.25500000920E-02 0. -1.
       -2    1    3    3    0  502  0.71375930653E+03  0.73066223753E+03 -0.75462913223E+03  0.12699546371E+04  0.25500000920E-02 0.  1.
</event>
<event>
 5   0  0.1499888E-06  0.2798771E+04  0.7818609E-02  0.8303650E-01
        2   -1    0    0  501    0  0.00000000000E+00  0.00000000000E+00  0.80077260242E+03  0.80077260243E+03  0.25500000920E-02 0.  1.
       -2   -1    0    0    0  501  0.00000000000E+00  0.00000000000E+00 -0.24454885420E+04  0.24454885420E+04  0.25500000920E-02 0. -1.
    10030    2    1    2    0    0  0.00000000000E+00  0.00000000000E+00 -0.16447159396E+04  0.32462611445E+04  0.27987713190E+04 0.  0.
        3    1    3    3  502    0 -0.43207312456E+03 -0.12940245890E+04 -0.11837768826E+04  0.18062432118E+04  0.10100000352E+00 0.  1.
       -3    1    3    3    0  502  0.43207312456E+03  0.12940245890E+04 -0.46093905700E+03  0.14400179327E+04  0.10100000352E+00 0. -1.
</event>
<event>
 5   0  0.1461146E-06  0.2799483E+04  0.7818609E-02  0.8303429E-01
        2   -1    0    0  501    0  0.00000000000E+00  0.00000000000E+00  0.10768493261E+04  0.10768493261E+04  0.25500000920E-02 0.  1.
       -2   -1    0    0    0  501  0.00000000000E+00  0.00000000000E+00 -0.18194531613E+04  0.18194531613E+04  0.25500000920E-02 0. -1.
    10030    2    1    2    0    0  0.00000000000E+00  0.00000000000E+00 -0.74260383526E+03  0.28963024874E+04  0.27994834600E+04 0.  0.
        1    1    3    3  502    0  0.17034806029E+03  0.80713781150E+03 -0.15412460349E+04  0.17481216343E+04  0.50400001928E-02 0. -1.
       -1    1    3    3    0  502 -0.17034806029E+03 -0.80713781150E+03  0.79864219961E+03  0.11481808531E+04  0.50400001928E-02 0.  1.
</event>
<event>
 5   0  0.1499888E-06  0.2808722E+04  0.7818609E-02  0.8300566E-01
        2   -1    0    0  501    0  0.00000000000E+00  0.00000000000E+00  0.11432572701E+04  0.11432572701E+04  0.25500000920E-02 0. -1.
       -2   -1    0    0    0  501  0.00000000000E+00  0.00000000000E+00 -0.17250975951E+04  0.17250975951E+04  0.25500000920E-02 0.  1.
    10030    2    1    2    0    0  0.00000000000E+00  0.00000000000E+00 -0.58184032498E+03  0.28683548652E+04  0.28087223909E+04 0.  0.
        3    1    3    3  502    0  0.23202717005E+03 -0.46053046818E+02 -0.17046054517E+04  0.17209408028E+04  0.10100000352E+00 0.  1.
       -3    1    3    3    0  502 -0.23202717005E+03  0.46053046818E+02  0.11227651267E+04  0.11474140624E+04  0.10100000352E+00 0. -1.
</event>
<event>
 5   0  0.5362952E-07  0.2800267E+04  0.7818609E-02  0.8303186E-01
       -1   -1    0    0    0  501  0.00000000000E+00  0.00000000000E+00  0.17839290570E+04  0.17839290570E+04  0.50400001928E-02 0. -1.
        1   -1    0    0  501    0  0.00000000000E+00  0.00000000000E+00 -0.10989076718E+04  0.10989076718E+04  0.50400001928E-02 0.  1.
    10030    2    1    2    0    0  0.00000000000E+00  0.00000000000E+00  0.68502138514E+03  0.28828367288E+04  0.28002666492E+04 0.  0.
        1    1    3    3  502    0 -0.82798294135E+03  0.85317172428E+03 -0.41883309428E+03  0.12605073991E+04  0.50400001928E-02 0.  1.
       -1    1    3    3    0  502  0.82798294135E+03 -0.85317172428E+03  0.11038544794E+04  0.16223293297E+04  0.50400001928E-02 0. -1.
</event>
<event>
 5   0  0.1377807E-06  0.2795385E+04  0.7818609E-02  0.8304703E-01
        2   -1    0    0  501    0  0.00000000000E+00  0.00000000000E+00  0.18167410395E+04  0.18167410395E+04  0.25500000920E-02 0.  1.
       -2   -1    0    0    0  501  0.00000000000E+00  0.00000000000E+00 -0.10753013547E+04  0.10753013547E+04  0.25500000920E-02 0. -1.
    10030    2    1    2    0    0  0.00000000000E+00  0.00000000000E+00  0.74143968476E+03  0.28920423942E+04  0.27953848400E+04 0.  0.
        2    1    3    3  502    0  0.11431203405E+04 -0.24763287709E+03 -0.42091652516E+03  0.12430675267E+04  0.25500000920E-02 0. -1.
       -2    1    3    3    0  502 -0.11431203405E+04  0.24763287709E+03  0.11623562099E+04  0.16489748675E+04  0.25500000920E-02 0.  1.
</event>
<event>
 5   0  0.1377807E-06  0.2788273E+04  0.7818609E-02  0.8306918E-01
        2   -1    0    0  501    0  0.00000000000E+00  0.00000000000E+00  0.10850296322E+04  0.10850296322E+04  0.25500000920E-02 0. -1.
       -2   -1    0    0    0  501  0.00000000000E+00  0.00000000000E+00 -0.17913028986E+04  0.17913028986E+04  0.25500000920E-02 0.  1.
    10030    2    1    2    0    0  0.00000000000E+00  0.00000000000E+00 -0.70627326635E+03  0.28763325308E+04  0.27882731037E+04 0.  0.
        2    1    3    3  502    0  0.77109503167E+02  0.13810678662E+04 -0.17350386586E+03  0.13940580756E+04  0.25500000920E-02 0. -1.
       -2    1    3    3    0  502 -0.77109503167E+02 -0.13810678662E+04 -0.53276940049E+03  0.14822744552E+04  0.25500000920E-02 0.  1.
</event>
<event>
 5   0  0.5362952E-07  0.2796820E+04  0.7818609E-02  0.8304256E-01
        1   -1    0    0  501    0  0.00000000000E+00  0.00000000000E+00  0.11565224910E+04  0.11565224910E+04  0.50400001928E-02 0.  1.
       -1   -1    0    0    0  501  0.00000000000E+00  0.00000000000E+00 -0.16908883516E+04  0.16908883516E+04  0.50400001928E-02 0. -1.
    10030    2    1    2    0    0  0.00000000000E+00  0.00000000000E+00 -0.53436586051E+03  0.28474108426E+04  0.27968199144E+04 0.  0.
        1    1    3    3  502    0  0.33355782003E+03 -0.83764684725E+03 -0.13554609027E+04  0.16279395931E+04  0.50400001928E-02 0. -1.
       -1    1    3    3    0  502 -0.33355782003E+03  0.83764684725E+03  0.82109504220E+03  0.12194712495E+04  0.50400001928E-02 0.  1.
</event>
<event>
 5   0  0.5282098E-07  0.2801046E+04  0.7818609E-02  0.8302944E-01
       -1   -1    0    0    0  501  0.00000000000E+00  0.00000000000E+00  0.14737683998E+04  0.14737683998E+04  0.50400001928E-02 0. -1.
        1   -1    0    0  501    0  0.00000000000E+00  0.00000000000E+00 -0.13309174572E+04  0.13309174572E+04  0.50400001928E-02 0.  1.
    10030    2    1    2    0    0  0.00000000000E+00  0.00000000000E+00  0.14285094263E+03  0.28046858570E+04  0.28010455841E+04 0.  0.
        4    1    3    3  502    0 -0.10483519691E+04  0.18539043921E+03 -0.83973022398E+03  0.13559350751E+04  0.12699999809E+01 0.  1.
       -4    1    3    3    0  502  0.10483519691E+04 -0.18539043921E+03  0.98258116661E+03  0.14487507818E+04  0.12699999809E+01 0. -1.
</event>
<event>
 5   0  0.5297741E-07  0.2797188E+04  0.7818609E-02  0.8304142E-01
       -1   -1    0    0    0  501  0.00000000000E+00  0.00000000000E+00  0.19905441988E+04  0.19905441988E+04  0.50400001928E-02 0. -1.
        1   -1    0    0  501    0  0.00000000000E+00  0.00000000000E+00 -0.98267874001E+03  0.98267874003E+03  0.50400001928E-02 0.  1.
    10030    2    1    2    0    0  0.00000000000E+00  0.00000000000E+00  0.10078654587E+04  0.29732229388E+04  0.27971882062E+04 0.  0.
        5    1    3    3  502    0  0.13293808065E+04  0.24783483612E+03  0.88327902680E+03  0.16152025767E+04  0.46999998093E+01 0.  1.
       -5    1    3    3    0  502 -0.13293808065E+04 -0.24783483612E+03  0.12458643194E+03  0.13580203620E+04  0.46999998093E+01 0. -1.
</event>
<event>
 5   0  0.1394410E-06  0.2793267E+04  0.7818609E-02  0.8305362E-01
       -2   -1    0    0    0  501  0.00000000000E+00  0.00000000000E+00  0.11704834609E+04  0.11704834609E+04  0.25500000920E-02 0.  1.
        2   -1    0    0  501    0  0.00000000000E+00  0.00000000000E+00 -0.16664783846E+04  0.16664783846E+04  0.25500000920E-02 0. -1.
    10030    2    1    2    0    0  0.00000000000E+00  0.00000000000E+00 -0.49599492370E+03  0.28369618455E+04  0.27932671817E+04 0.  0.
        4    1    3    3  502    0 -0.22136385839E+03  0.10797476298E+04 -0.11191602688E+04  0.15707890444E+04  0.12699999809E+01 0. -1.
       -4    1    3    3    0  502  0.22136385839E+03 -0.10797476298E+04  0.62316534511E+03  0.12661728011E+04  0.12699999809E+01 0.  1.
</event>
<event>
 5   0  0.5297741E-07  0.2797057E+04  0.7818609E-02  0.8304183E-01
        1   -1    0    0  501    0  0.00000000000E+00  0.00000000000E+00  0.17449943685E+04  0.17449943685E+04  0.50400001928E-02 0. -1.
       -1   -1    0    0    0  501  0.00000000000E+00  0.00000000000E+00 -0.11208529654E+04  0.11208529654E+04  0.50400001928E-02 0.  1.
    10030    2    1    2    0    0  0.00000000000E+00  0.00000000000E+00  0.62414140304E+03  0.28658473339E+04  0.27970571053E+04 0.  0.
        5    1    3    3  502    0 -0.12242384861E+04 -0.27423163713E+03 -0.32110601034E+03  0.12950266490E+04  0.46999998093E+01 0.  1.
       -5    1    3    3    0  502  0.12242384861E+04  0.27423163713E+03  0.94524741338E+03  0.15708206849E+04  0.46999998093E+01 0. -1.
</event>
<event>
 5   0  0.1461146E-06  0.2797187E+04  0.7818609E-02  0.8304142E-01
       -2   -1    0    0    0  501  0.00000000000E+00  0.00000000000E+00  0.14020645420E+04  0.14020645420E+04  0.25500000920E-02 0. -1.
        2   -1    0    0  501    0  0.00000000000E+00  0.00000000000E+00 -0.13951308279E+04  0.13951308279E+04  0.25500000920E-02 0.  1.
    10030    2    1    2    0    0  0.00000000000E+00  0.00000000000E+00  0.69337140842E+01  0.27971953700E+04  0.27971867763E+04 0.  0.
        1    1    3    3  502    0  0.11430784680E+04  0.64365124638E+03  0.48838911809E+03  0.13997997148E+04  0.50400001928E-02 0.  1.
       -1    1    3    3    0  502 -0.11430784680E+04 -0.64365124638E+03 -0.48145540400E+03  0.13973956551E+04  0.50400001928E-02 0. -1.
</event>
<event>
 5   0  0.5297741E-07  0.2803388E+04  0.7818609E-02  0.8302217E-01
        1   -1    0    0  501    0  0.00000000000E+00  0.00000000000E+00  0.10271573115E+04  0.10271573115E+04  0.50400001928E-02 0. -1.
       -1   -1    0    0    0  501  0.00000000000E+00  0.00000000000E+00 -0.19127991337E+04  0.19127991338E+04  0.50400001928E-02 0.  1.
    10030    2    1    2    0    0  0.00000000000E+00  0.00000000000E+00 -0.88564182227E+03  0.29399564452E+04  0.28033876761E+04 0.  0.
        5    1    3    3  502    0  0.47699356526E+03 -0.52292457822E+03  0.82597354472E+03  0.10877625487E+04  0.46999998093E+01 0. -1.
       -5    1    3    3    0  502 -0.47699356526E+03  0.52292457822E+03 -0.17116153670E+04  0.18521938965E+04  0.46999998093E+01 0.  1.
</event>
<event>
 5   0  0.5551565E-07  0.2745172E+04  0.7818609E-02  0.8320495E-01
       -1   -1    0    0    0  501  0.00000000000E+00  0.00000000000E+00  0.10212530474E+04  0.10212530474E+04  0.50400001928E-02 0.  1.
        1   -1    0    0  501    0  0.00000000000E+00  0.00000000000E+00 -0.18447851843E+04  0.18447851843E+04  0.50400001928E-02 0. -1.
    10030    2    1    2    0    0  0.00000000000E+00  0.00000000000E+00 -0.82353213687E+03  0.28660382317E+04  0.27451721194E+04 0.  0.
        3    1    3    3  502    0  0.73205709072E+03 -0.10382037338E+04 -0.95447811353E+03  0.15889628870E+04  0.10100000352E+00 0. -1.
       -3    1    3    3    0  502 -0.73205709072E+03  0.10382037338E+04  0.13094597666E+03  0.12770753447E+04  0.10100000352E+00 0.  1.
</event>
<event>
 5   0  0.5551565E-07  0.2803375E+04  0.7818609E-02  0.8302221E-01
       -1   -1    0    0    0  501  0.00000000000E+00  0.00000000000E+00  0.12165597141E+04  0.12165597141E+04  0.50400001928E-02 0.  1.
        1   -1    0    0  501    0  0.00000000000E+00  0.00000000000E+00 -0.16149869961E+04  0.16149869962E+04  0.50400001928E-02 0. -1.
    10030    2    1    2    0    0  0.00000000000E+00  0.00000000000E+00 -0.39842728204E+03  0.28315467103E+04  0.28033751931E+04 0.  0.
        3    1    3    3  502    0 -0.16146820669E+03 -0.81818294968E+03 -0.13371373483E+04  0.15758907384E+04  0.10100000352E+00 0. -1.
       -3    1    3    3    0  502  0.16146820669E+03  0.81818294968E+03  0.93871006628E+03  0.12556559719E+04  0.10100000352E+00 0.  1.
</event>
<event>
 5   0  0.5297741E-07  0.2801927E+04  0.7818609E-02  0.8302670E-01
        1   -1    0    0  501    0  0.00000000000E+00  0.00000000000E+00  0.13508497420E+04  0.13508497421E+04  0.50400001928E-02 0. -1.
       -1   -1    0    0    0  501  0.00000000000E+00  0.00000000000E+00 -0.14529368371E+04  0.14529368371E+04  0.50400001928E-02 0.  1.
    10030    2    1    2    0    0  0.00000000000E+00  0.00000000000E+00 -0.10208709502E+03  0.28037865791E+04  0.28019274449E+04 0.  0.
        5    1    3    3  502    0  0.89735993470E+03 -0.10465604065E+04 -0.30047531349E+03  0.14109752092E+04  0.46999998093E+01 0. -1.
       -5    1    3    3    0  502 -0.89735993470E+03  0.10465604065E+04  0.19838821847E+03  0.13928113699E+04  0.46999998093E+01 0.  1.
</event>
<event>
 5   0  0.1394410E-06  0.2799568E+04  0.7818609E-02  0.8303402E-01
        2   -1    0    0  501    0  0.00000000000E+00  0.00000000000E+00  0.23272022383E+04  0.23272022383E+04  0.25500000920E-02 0. -1.
       -2   -1    0    0    0  501  0.00000000000E+00  0.00000000000E+00 -0.84195325076E+03  0.84195325077E+03  0.25500000920E-02 0.  1.
    10030    2    1    2    0    0  0.00000000000E+00  0.00000000000E+00  0.14852489875E+04  0.31691554891E+04  0.27995681736E+04 0.  0.
        4    1    3    3  502    0  0.53855335285E+03  0.11313357099E+04  0.36194303463E+02  0.12535038264E+04  0.12699999809E+01 0.  1.
       -4    1    3    3    0  502 -0.53855335285E+03 -0.11313357099E+04  0.14490546841E+04  0.19156516626E+04  0.12699999809E+01 0. -1.
</event>
<event>
 5   0  0.1499888E-06  0.2801157E+04  0.7818609E-02  0.8302909E-01
       -2   -1    0    0    0  501  0.00000000000E+00  0.00000000000E+00  0.12801581659E+04  0.12801581659E+04  0.25500000920E-02 0.  1.
        2   -1    0    0  501    0  0.00000000000E+00  0.00000000000E+00 -0.15323259658E+04  0.15323259658E+04  0.25500000920E-02 0. -1.
    10030    2    1    2    0    0  0.00000000000E+00  0.00000000000E+00 -0.25216779994E+03  0.28124841317E+04  0.28011566168E+04 0.  0.
        3    1    3    3  502    0 -0.92063515387E+03 -0.89557474486E+02  0.92984854620E+03  0.13115669853E+04  0.10100000352E+00 0.  1.
       -3    1    3    3    0  502  0.92063515387E+03  0.89557474486E+02 -0.11820163461E+04  0.15009171465E+04  0.10100000352E+00 0. -1.
</event>
<event>
 5   0  0.1377807E-06  0.2801551E+04  0.7818609E-02  0.8302787E-01
       -2   -1    0    0    0  501  0.00000000000E+00  0.00000000000E+00  0.12486300843E+04  0.12486300843E+04  0.25500000920E-02 0.  1.
        2   -1    0    0  501    0  0.00000000000E+00  0.00000000000E+00 -0.15714596601E+04  0.15714596601E+04  0.25500000920E-02 0. -1.
    10030    2    1    2    0    0  0.00000000000E+00  0.00000000000E+00 -0.32282957583E+03  0.28200897444E+04  0.28015508618E+04 0.  0.
        2    1    3    3  502    0  0.15746687135E+03  0.13712816453E+04 -0.40166262047E+03  0.14375472260E+04  0.25500000920E-02 0. -1.
       -2    1    3    3    0  502 -0.15746687135E+03 -0.13712816453E+04  0.78833044639E+02  0.13825425184E+04  0.25500000920E-02 0.  1.
</event>
<event>
 5   0  0.1461146E-06  0.2801736E+04  0.7818609E-02  0.8302730E-01
       -2   -1    0    0    0  501  0.00000000000E+00  0.00000000000E+00  0.10259639696E+04  0.10259639696E+04  0.25500000920E-02 0. -1.
        2   -1    0    0  501    0  0.00000000000E+00  0.00000000000E+00 -0.19127680134E+04  0.19127680134E+04  0.25500000920E-02 0.  1.
    10030    2    1    2    0    0  0.00000000000E+00  0.00000000000E+00 -0.88680404377E+03  0.29387319830E+04  0.28017359362E+04 0.  0.
        1    1    3    3  502    0  0.61108220379E+03  0.67116660909E+03 -0.15626024734E+04  0.18071005967E+04  0.50400001928E-02 0.  1.
       -1    1    3    3    0  502 -0.61108220379E+03 -0.67116660909E+03  0.67579842959E+03  0.11316313863E+04  0.50400001928E-02 0. -1.
</event>
<event>
 5   0  0.1439207E-06  0.2793669E+04  0.7818609E-02  0.8305237E-01
        2   -1    0    0  501    0  0.00000000000E+00  0.00000000000E+00  0.15792040911E+04  0.15792040912E+04  0.25500000920E-02 0.  1.
       -2   -1    0    0    0  501  0.00000000000E+00  0.00000000000E+00 -0.12355253843E+04  0.12355253843E+04  0.25500000920E-02 0. -1.
    10030    2    1    2    0    0  0.00000000000E+00  0.00000000000E+00  0.34367870682E+03  0.28147294755E+04  0.27936690868E+04 0.  0.
        5    1    3    3  502    0 -0.13438956627E+04  0.25024246621E+03 -0.11746252568E+03  0.13720409539E+04  0.46999998093E+01 0. -1.
       -5    1    3    3    0  502  0.13438956627E+04 -0.25024246621E+03  0.46114123250E+03  0.14426885216E+04  0.46999998093E+01 0.  1.
</event>
<event>
 5   0  0.1499888E-06  0.2800771E+04  0.7818609E-02  0.8303029E-01
        2   -1    0    0  501    0  0.00000000000E+00  0.00000000000E+00  0.15923914710E+04  0.15923914710E+04  0.25500000920E-02 0. -1.
       -2   -1    0    0    0  501  0.00000000000E+00  0.00000000000E+00 -0.12315314905E+04  0.12315314905E+04  0.25500000920E-02 0.  1.
    10030    2    1    2    0    0  0.00000000000E+00  0.00000000000E+00  0.36085998051E+03  0.28239229614E+04  0.28007714949E+04 0.  0.
        3    1    3    3  502    0  0.66217465297E+03  0.10789625989E+03  0.14198032826E+04  0.15703369847E+04  0.10100000352E+00 0. -1.
       -3    1    3    3    0  502 -0.66217465297E+03 -0.10789625989E+03 -0.10589433021E+04  0.12535859768E+04  0.10100000352E+00 0.  1.
</event>
<event>
 5   0  0.5362952E-07  0.2795796E+04  0.7818609E-02  0.8304575E-01
       -1   -1    0    0    0  501  0.00000000000E+00  0.00000000000E+00  0.94261306211E+03  0.94261306213E+03  0.50400001928E-02 0. -1.
        1   -1    0    0  501    0  0.00000000000E+00  0.00000000000E+00 -0.20730874869E+04  0.20730874869E+04  0.50400001928E-02 0.  1.
    10030    2    1    2    0    0  0.00000000000E+00  0.00000000000E+00 -0.11304744248E+04  0.30157005490E+04  0.27957963760E+04 0.  0.
        1    1    3    3  502    0  0.58011550062E+03 -0.12671740858E+04 -0.68268284368E+03  0.15518762911E+04  0.50400001928E-02 0.  1.
       -1    1    3    3    0  502 -0.58011550062E+03  0.12671740858E+04 -0.44779158108E+03  0.14638242579E+04  0.50400001928E-02 0. -1.
</event>
<event>
 5   0  0.5551565E-07  0.2794685E+04  0.7818609E-02  0.8304920E-01
       -1   -1    0    0    0  501  0.00000000000E+00  0.00000000000E+00  0.18209682284E+04  0.18209682284E+04  0.50400001928E-02 0.  1.
        1   -1    0    0  501    0  0.00000000000E+00  0.00000000000E+00 -0.10722679005E+04  0.10722679005E+04  0.50400001928E-02 0. -1.
    10030    2    1    2    0    0  0.00000000000E+00  0.00000000000E+00  0.74870032785E+03  0.28932361289E+04  0.27946847974E+04 0.  0.
        3    1    3    3  502    0 -0.12291292402E+04 -0.42244696472E+03  0.90561872330E+03  0.15840976641E+04  0.10100000352E+00 0.  1.
       -3    1    3    3    0  502  0.12291292402E+04  0.42244696472E+03 -0.15691839545E+03  0.13091384648E+04  0.10100000352E+00 0. -1.
</event>
<event>
 5   0  0.5297741E-07  0.2795203E+04  0.7818609E-02  0.8304759E-01
       -1   -1    0    0    0  501  0.00000000000E+00  0.00000000000E+00  0.14260369040E+04  0.14260369040E+04  0.50400001928E-02 0.  1.
        1   -1    0    0  501    0  0.00000000000E+00  0.00000000000E+00 -0.13697329069E+04  0.13697329069E+04  0.50400001928E-02 0. -1.
    10030    2    1    2    0    0  0.00000000000E+00  0.00000000000E+00  0.56303997073E+02  0.27957698109E+04  0.27952028004E+04 0.  0.
        5    1    3    3  502    0  0.97367689279E+03 -0.14745602735E+03  0.10200575647E+04  0.14178608877E+04  0.46999998093E+01 0.  1.
       -5    1    3    3    0  502 -0.97367689279E+03  0.14745602735E+03 -0.96375356760E+03  0.13779089232E+04  0.46999998093E+01 0. -1.
</event>
<event>
 5   0  0.5551565E-07  0.2802805E+04  0.7818609E-02  0.8302398E-01
        1   -1    0    0  501    0  0.00000000000E+00  0.00000000000E+00  0.19035794543E+04  0.19035794543E+04  0.50400001928E-02 0. -1.
       -1   -1    0    0    0  501  0.00000000000E+00  0.00000000000E+00 -0.10317031115E+04  0.10317031116E+04  0.50400001928E-02 0.  1.
    10030    2    1    2    0    0  0.00000000000E+00  0.00000000000E+00  0.87187634275E+03  0.29352825659E+04  0.28028049137E+04 0.  0.
        3    1    3    3  502    0 -0.12013916626E+04 -0.71968456971E+03  0.38211817788E+03  0.14516549586E+04  0.10100000352E+00 0.  1.
       -3    1    3    3    0  502  0.12013916626E+04  0.71968456971E+03  0.48975816487E+03  0.14836276073E+04  0.10100000352E+00 0. -1.
</event>
<event>
 5   0  0.1377807E-06  0.2753861E+04  0.7818609E-02  0.8317737E-01
       -2   -1    0    0    0  501  0.00000000000E+00  0.00000000000E+00  0.98571972516E+03  0.98571972516E+03  0.25500000920E-02 0. -1.
        2   -1    0    0  501    0  0.00000000000E+00  0.00000000000E+00 -0.19234049039E+04  0.19234049039E+04  0.25500000920E-02 0.  1.
    10030    2    1    2    0    0  0.00000000000E+00  0.00000000000E+00 -0.93768517872E+03  0.29091246290E+04  0.27538614005E+04 0.  0.
        2    1    3    3  502    0  0.11997804284E+04  0.57940320070E+03 -0.10174932143E+03  0.13362387772E+04  0.25500000920E-02 0.  1.
       -2    1    3    3    0  502 -0.11997804284E+04 -0.57940320070E+03 -0.83593585729E+03  0.15728858518E+04  0.25500000920E-02 0. -1.
</event>
<event>
 5   0  0.1499888E-06  0.2805318E+04  0.7818609E-02  0.8301619E-01
        2   -1    0    0  501    0  0.00000000000E+00  0.00000000000E+00  0.18855442167E+04  0.18855442167E+04  0.25500000920E-02 0. -1.
       -2   -1    0    0    0  501  0.00000000000E+00  0.00000000000E+00 -0.10434398784E+04  0.10434398784E+04  0.25500000920E-02 0.  1.
    10030    2    1    2    0    0  0.00000000000E+00  0.00000000000E+00  0.84210433827E+03  0.29289840951E+04  0.28053178274E+04 0.  0.
        3    1    3    3  502    0 -0.36542297380E+03  0.95664971713E+03 -0.57971052916E+03  0.11767654562E+04  0.10100000352E+00 0.  1.
       -3    1    3    3    0  502  0.36542297380E+03 -0.95664971713E+03  0.14218148674E+04  0.17522186389E+04  0.10100000352E+00 0. -1.
</event>
<event>
 5   0  0.5551565E-07  0.2795172E+04  0.7818609E-02  0.8304769E-01
        1   -1    0    0  501    0  0.00000000000E+00  0.00000000000E+00  0.15137398579E+04  0.15137398579E+04  0.50400001928E-02 0. -1.
       -1   -1    0    0    0  501  0.00000000000E+00  0.00000000000E+00 -0.12903449481E+04  0.12903449481E+04  0.50400001928E-02 0.  1.
    10030    2    1    2    0    0  0.00000000000E+00  0.00000000000E+00  0.22339490974E+03  0.28040848060E+04  0.27951719649E+04 0.  0.
        3    1    3    3  502    0  0.23607365087E+03 -0.64650616485E+03 -0.11085468422E+04  0.13048283801E+04  0.10100000352E+00 0.  1.
       -3    1    3    3    0  502 -0.23607365087E+03  0.64650616485E+03  0.13319417520E+04  0.14992564259E+04  0.10100000352E+00 0. -1.
</event>
<event>
 5   0  0.5214658E-07  0.2804641E+04  0.7818609E-02  0.8301829E-01
        1   -1    0    0  501    0  0.00000000000E+00  0.00000000000E+00  0.17207339358E+04  0.17207339358E+04  0.50400001928E-02 0.  1.
       -1   -1    0    0    0  501  0.00000000000E+00  0.00000000000E+00 -0.11428280283E+04  0.11428280283E+04  0.50400001928E-02 0. -1.
    10030    2    1    2    0    0  0.00000000000E+00  0.00000000000E+00  0.57790590749E+03  0.28635619642E+04  0.28046411330E+04 0.  0.
        2    1    3    3  502    0 -0.73545084961E+02 -0.13915292099E+04  0.12835723713E+03  0.13993705735E+04  0.25500000920E-02 0. -1.
       -2    1    3    3    0  502  0.73545084961E+02  0.13915292099E+04  0.44954867036E+03  0.14641913907E+04  0.25500000920E-02 0.  1.
</event>
<event>
 5   0  0.1377807E-06  0.2799451E+04  0.7818609E-02  0.8303439E-01
        2   -1    0    0  501    0  0.00000000000E+00  0.00000000000E+00  0.16604824832E+04  0.16604824832E+04  0.25500000920E-02 0.  1.
       -2   -1    0    0    0  501  0.00000000000E+00  0.00000000000E+00 -0.11799168639E+04  0.11799168639E+04  0.25500000920E-02 0. -1.
    10030    2    1    2    0    0  0.00000000000E+00  0.00000000000E+00  0.48056561931E+03  0.28403993471E+04  0.27994508634E+04 0.  0.
        2    1    3    3  502    0 -0.46338869674E+03 -0.30324601215E+03  0.15445995800E+04  0.16408763179E+04  0.25500000920E-02 0.  1.
       -2    1    3    3    0  502  0.46338869674E+03  0.30324601215E+03 -0.10640339607E+04  0.11995230292E+04  0.25500000920E-02 0. -1.
</event>
<event>
 5   0  0.5282098E-07  0.2797094E+04  0.7818609E-02  0.8304171E-01
       -1   -1    0    0    0  501  0.00000000000E+00  0.00000000000E+00  0.12444508556E+04  0.12444508556E+04  0.50400001928E-02 0. -1.
        1   -1    0    0  501    0  0.00000000000E+00  0.00000000000E+00 -0.15717238827E+04  0.15717238827E+04  0.50400001928E-02 0.  1.
    10030    2    1    2    0    0  0.00000000000E+00  0.00000000000E+00 -0.32727302717E+03  0.28161747383E+04  0.27970935848E+04 0.  0.
        4    1    3    3  502    0 -0.43863333752E+02 -0.51636821518E+03  0.11442135027E+04  0.12560996292E+04  0.12699999809E+01 0. -1.
       -4    1    3    3    0  502  0.43863333752E+02  0.51636821518E+03 -0.14714865299E+04  0.15600751091E+04  0.12699999809E+01 0.  1.
</event>
<event>
 5   0  0.1461146E-06  0.2788166E+04  0.7818609E-02  0.8306952E-01
        2   -1    0    0  501    0  0.00000000000E+00  0.00000000000E+00  0.16505270854E+04  0.16505270854E+04  0.25500000920E-02 0.  1.
       -2   -1    0    0    0  501  0.00000000000E+00  0.00000000000E+00 -0.11774829818E+04  0.11774829819E+04  0.25500000920E-02 0. -1.
    10030    2    1    2    0    0  0.00000000000E+00  0.00000000000E+00  0.47304410351E+03  0.28280100672E+04  0.27881661027E+04 0.  0.
        1    1    3    3  502    0 -0.12380506947E+04  0.33075888018E+03  0.79327101865E+03  0.15071329963E+04  0.50400001928E-02 0.  1.
       -1    1    3    3    0  502  0.12380506947E+04 -0.33075888018E+03 -0.32022691514E+03  0.13208770710E+04  0.50400001928E-02 0. -1.
</event>
<event>
 5   0  0.5282098E-07  0.2797787E+04  0.7818609E-02  0.8303956E-01
        1   -1    0    0  501    0  0.00000000000E+00  0.00000000000E+00  0.13540327554E+04  0.13540327554E+04  0.50400001928E-02 0.  1.
       -1   -1    0    0    0  501  0.00000000000E+00  0.00000000000E+00 -0.14452404595E+04  0.14452404595E+04  0.50400001928E-02 0. -1.
    10030    2    1    2    0    0  0.00000000000E+00  0.00000000000E+00 -0.91207704138E+02  0.27992732149E+04  0.27977869265E+04 0.  0.
        4    1    3    3  502    0  0.97601568421E+03  0.49811712754E+03 -0.91564847675E+03  0.14279849560E+04  0.12699999809E+01 0. -1.
       -4    1    3    3    0  502 -0.97601568421E+03 -0.49811712754E+03  0.82444077261E+03  0.13712882589E+04  0.12699999809E+01 0.  1.
</event>
<event>
 5   0  0.5551565E-07  0.2804801E+04  0.7818609E-02  0.8301779E-01
       -1   -1    0    0    0  501  0.00000000000E+00  0.00000000000E+00  0.23600630477E+04  0.23600630477E+04  0.50400001928E-02 0. -1.
        1   -1    0    0  501    0  0.00000000000E+00  0.00000000000E+00 -0.83333687124E+03  0.83333687126E+03  0.50400001928E-02 0.  1.
    10030    2    1    2    0    0  0.00000000000E+00  0.00000000000E+00  0.15267261764E+04  0.31933999189E+04  0.28048012808E+04 0.  0.
        3    1    3    3  502    0 -0.58592813467E+03 -0.56000662527E+03 -0.53966893689E+03  0.97373598629E+03  0.10100000352E+00 0.  1.
       -3    1    3    3    0  502  0.58592813467E+03  0.56000662527E+03  0.20663951133E+04  0.22196639327E+04  0.10100000352E+00 0. -1.
</event>
<event>
 5   0  0.5214658E-07  0.2797126E+04  0.7818609E-02  0.8304161E-01
        1   -1    0    0  501    0  0.00000000000E+00  0.00000000000E+00  0.19572536905E+04  0.19572536905E+04  0.50400001928E-02 0.  1.
       -1   -1    0    0    0  501  0.00000000000E+00  0.00000000000E+00 -0.99934851144E+03  0.99934851145E+03  0.50400001928E-02 0. -1.
    10030    2    1    2    0    0  0.00000000000E+00  0.00000000000E+00  0.95790517904E+03  0.29566022019E+04  0.27971260695E+04 0.  0.
        2    1    3    3  502    0  0.32456408523E+03  0.35846963380E+03  0.18660744237E+04  0.19277126546E+04  0.25500000920E-02 0.  1.
       -2    1    3    3    0  502 -0.32456408523E+03 -0.35846963380E+03 -0.90816924465E+03  0.10288895474E+04  0.25500000920E-02 0. -1.
</event>
<event>
 5   0  0.1461146E-06  0.2801406E+04  0.7818609E-02  0.8302832E-01
        2   -1    0    0  501    0  0.00000000000E+00  0.00000000000E+00  0.19838620663E+04  0.19838620663E+04  0.25500000920E-02 0. -1.
       -2   -1    0    0    0  501  0.00000000000E+00  0.00000000000E+00 -0.98896421153E+03  0.98896421153E+03  0.25500000920E-02 0.  1.
    10030    2    1    2    0    0  0.00000000000E+00  0.00000000000E+00  0.99489785476E+03  0.29728262778E+04  0.28014057787E+04 0.  0.
        1    1    3    3  502    0  0.57383611102E+03  0.12274685405E+04  0.12076101366E+03  0.13603492649E+04  0.50400001928E-02 0. -1.
       -1    1    3    3    0  502 -0.57383611102E+03 -0.12274685405E+04  0.87413684110E+03  0.16124770129E+04  0.50400001928E-02 0.  1.
</event>
<event>
 5   0  0.1439207E-06  0.2796453E+04  0.7818609E-02  0.8304371E-01
       -2   -1    0    0    0  501  0.00000000000E+00  0.00000000000E+00  0.14434936076E+04  0.14434936076E+04  0.25500000920E-02 0. -1.
        2   -1    0    0  501    0  0.00000000000E+00  0.00000000000E+00 -0.13543786135E+04  0.13543786135E+04  0.25500000920E-02 0.  1.
    10030    2    1    2    0    0  0.00000000000E+00  0.00000000000E+00  0.89114994108E+02  0.27978722211E+04  0.27964526607E+04 0.  0.
        5    1    3    3  502    0  0.12444877786E+04  0.62996969977E+03 -0.52461450081E+02  0.13958459612E+04  0.46999998093E+01 0.  1.
       -5    1    3    3    0  502 -0.12444877786E+04 -0.62996969977E+03  0.14157644419E+03  0.14020262599E+04  0.46999998093E+01 0. -1.
</event>
<event>
 5   0  0.5297741E-07  0.2796965E+04  0.7818609E-02  0.8304211E-01
       -1   -1    0    0    0  501  0.00000000000E+00  0.00000000000E+00  0.13199062177E+04  0.13199062177E+04  0.50400001928E-02 0. -1.
        1   -1    0    0  501    0  0.00000000000E+00  0.00000000000E+00 -0.14817366650E+04  0.14817366650E+04  0.50400001928E-02 0.  1.
    10030    2    1    2    0    0  0.00000000000E+00  0.00000000000E+00 -0.16183044731E+03  0.28016428828E+04  0.27969650961E+04 0.  0.
        5    1    3    3  502    0  0.10815073265E+04  0.40809889394E+03 -0.86933296678E+03  0.14463625761E+04  0.46999998093E+01 0.  1.
       -5    1    3    3    0  502 -0.10815073265E+04 -0.40809889394E+03  0.70750251947E+03  0.13552803066E+04  0.46999998093E+01 0. -1.
</event>
<event>
 5   0  0.1394410E-06  0.2803781E+04  0.7818609E-02  0.8302096E-01
       -2   -1    0    0    0  501  0.00000000000E+00  0.00000000000E+00  0.11833293577E+04  0.11833293577E+04  0.25500000920E-02 0.  1.
        2   -1    0    0  501    0  0.00000000000E+00  0.00000000000E+00 -0.16608194582E+04  0.16608194582E+04  0.25500000920E-02 0. -1.
    10030    2    1    2    0    0  0.00000000000E+00  0.00000000000E+00 -0.47749010055E+03  0.28441488159E+04  0.28037806068E+04 0.  0.
        4    1    3    3  502    0 -0.44125979434E+03  0.38946414972E+03 -0.15294251273E+04  0.16387603128E+04  0.12699999809E+01 0. -1.
       -4    1    3    3    0  502  0.44125979434E+03 -0.38946414972E+03  0.10519350267E+04  0.12053885031E+04  0.12699999809E+01 0.  1.
</event>
<event>
 5   0  0.5362952E-07  0.2798735E+04  0.7818609E-02  0.8303661E-01
       -1   -1    0    0    0  501  0.00000000000E+00  0.00000000000E+00  0.91616697237E+03  0.91616697239E+03  0.50400001928E-02 0. -1.
        1   -1    0    0  501    0  0.00000000000E+00  0.00000000000E+00 -0.21374154390E+04  0.21374154390E+04  0.50400001928E-02 0.  1.
    10030    2    1    2    0    0  0.00000000000E+00  0.00000000000E+00 -0.12212484666E+04  0.30535824114E+04  0.27987350225E+04 0.  0.
        1    1    3    3  502    0  0.13350560083E+04 -0.35108355297E+03 -0.86084365812E+03  0.16268638573E+04  0.50400001928E-02 0.  1.
       -1    1    3    3    0  502 -0.13350560083E+04  0.35108355297E+03 -0.36040480852E+03  0.14267185541E+04  0.50400001928E-02 0. -1.
</event>
<event>
 5   0  0.5297741E-07  0.2798065E+04  0.7818609E-02  0.8303869E-01
        1   -1    0    0  501    0  0.00000000000E+00  0.00000000000E+00  0.20945454703E+04  0.20945454704E+04  0.50400001928E-02 0.  1.
       -1   -1    0    0    0  501  0.00000000000E+00  0.00000000000E+00 -0.93447108598E+03  0.93447108599E+03  0.50400001928E-02 0. -1.
    10030    2    1    2    0    0  0.00000000000E+00  0.00000000000E+00  0.11600743844E+04  0.30290165563E+04  0.27980651746E+04 0.  0.
        5    1    3    3  502    0  0.88796987866E+03  0.14093053965E+03  0.17403854900E+04  0.19589067528E+04  0.46999998093E+01 0.  1.
       -5    1    3    3    0  502 -0.88796987866E+03 -0.14093053965E+03 -0.58031110560E+03  0.10701098036E+04  0.46999998093E+01 0. -1.
</event>
<event>
 5   0  0.5214658E-07  0.2740576E+04  0.7818609E-02  0.8321958E-01
        1   -1    0    0  501    0  0.00000000000E+00  0.00000000000E+00  0.22082165045E+04  0.22082165045E+04  0.50400001928E-02 0. -1.
       -1   -1    0    0    0  501  0.00000000000E+00  0.00000000000E+00 -0.85031924855E+03  0.85031924856E+03  0.50400001928E-02 0.  1.
    10030    2    1    2    0    0  0.00000000000E+00  0.00000000000E+00  0.13578972560E+04  0.30585357531E+04  0.27405758510E+04 0.  0.
        2    1    3    3  502    0  0.97249514470E+02  0.86724289732E+02  0.22012867775E+04  0.22051399156E+04  0.25500000920E-02 0. -1.
       -2    1    3    3    0  502 -0.97249514470E+02 -0.86724289732E+02 -0.84338952151E+03  0.85339583752E+03  0.25500000920E-02 0.  1.
</event>
<event>
 5   0  0.5214658E-07  0.2799293E+04  0.7818609E-02  0.8303488E-01
       -1   -1    0    0    0  501  0.00000000000E+00  0.00000000000E+00  0.10499117775E+04  0.10499117775E+04  0.50400001928E-02 0.  1.
        1   -1    0    0  501    0  0.00000000000E+00  0.00000000000E+00 -0.18658805766E+04  0.18658805766E+04  0.50400001928E-02 0. -1.
    10030    2    1    2    0    0  0.00000000000E+00  0.00000000000E+00 -0.81596879908E+03  0.29157923541E+04  0.27992927627E+04 0.  0.
        2    1    3    3  502    0  0.31678827433E+03  0.12159078765E+04 -0.10502691163E+04  0.16376360986E+04  0.25500000920E-02 0. -1.
       -2    1    3    3    0  502 -0.31678827433E+03 -0.12159078765E+04  0.23430031718E+03  0.12781562555E+04  0.25500000920E-02 0.  1.
</event>
<event>
 5   0  0.5297741E-07  0.2793904E+04  0.7818609E-02  0.8305164E-01
       -1   -1    0    0    0  501  0.00000000000E+00  0.00000000000E+00  0.18449568810E+04  0.18449568810E+04  0.50400001928E-02 0.  1.
        1   -1    0    0  501    0  0.00000000000E+00  0.00000000000E+00 -0.10577343780E+04  0.10577343780E+04  0.50400001928E-02 0. -1.
    10030    2    1    2    0    0  0.00000000000E+00  0.00000000000E+00  0.78722250299E+03  0.29026912590E+04  0.27939035911E+04 0.  0.
        5    1    3    3  502    0  0.13829127785E+04  0.19377184700E+03  0.35395502552E+03  0.14405906884E+04  0.46999998093E+01 0. -1.
       -5    1    3    3    0  502 -0.13829127785E+04 -0.19377184700E+03  0.43326747747E+03  0.14621005706E+04  0.46999998093E+01 0.  1.
</event>
<event>
 5   0  0.5297741E-07  0.2799110E+04  0.7818609E-02  0.8303545E-01
       -1   -1    0    0    0  501  0.00000000000E+00  0.00000000000E+00  0.16514902274E+04  0.16514902274E+04  0.50400001928E-02 0. -1.
        1   -1    0    0  501    0  0.00000000000E+00  0.00000000000E+00 -0.11860527761E+04  0.11860527761E+04  0.50400001928E-02 0.  1.
    10030    2    1    2    0    0  0.00000000000E+00  0.00000000000E+00  0.46543745137E+03  0.28375430035E+04  0.27991102650E+04 0.  0.
        5    1    3    3  502    0  0.99770968043E+03  0.44252469749E+03  0.11208065420E+04  0.15644430667E+04  0.46999998093E+01 0. -1.
       -5    1    3    3    0  502 -0.99770968043E+03 -0.44252469749E+03 -0.65536909058E+03  0.12730999368E+04  0.46999998093E+01 0.  1.
</event>
<event>
 5   0  0.5214658E-07  0.2809815E+04  0.7818609E-02  0.8300228E-01
        1   -1    0    0  501    0  0.00000000000E+00  0.00000000000E+00  0.20903261797E+04  0.20903261797E+04  0.50400001928E-02 0. -1.
       -1   -1    0    0    0  501  0.00000000000E+00  0.00000000000E+00 -0.94423785111E+03  0.94423785112E+03  0.50400001928E-02 0.  1.
    10030    2    1    2    0    0  0.00000000000E+00  0.00000000000E+00  0.11460883286E+04  0.30345640308E+04  0.28098150118E+04 0.  0.
        2    1    3    3  502    0 -0.70354979648E+03 -0.12101408511E+04  0.44370740076E+03  0.14684343544E+04  0.25500000920E-02 0. -1.
       -2    1    3    3    0  502  0.70354979648E+03  0.12101408511E+04  0.70238092784E+03  0.15661296765E+04  0.25500000920E-02 0.  1.
</event>
<event>
 5   0  0.5214658E-07  0.2780890E+04  0.7818609E-02  0.8309226E-01
       -1   -1    0    0    0  501  0.00000000000E+00  0.00000000000E+00  0.96489567199E+03  0.96489567200E+03  0.50400001928E-02 0.  1.
        1   -1    0    0  501    0  0.00000000000E+00  0.00000000000E+00 -0.20036752892E+04  0.20036752892E+04  0.50400001928E-02 0. -1.
    10030    2    1    2    0    0  0.00000000000E+00  0.00000000000E+00 -0.10387796172E+04  0.29685709612E+04  0.27808902277E+04 0.  0.
        2    1    3    3  502    0  0.50159987388E+03  0.19517313836E+03 -0.18879606631E+04  0.19631837542E+04  0.25500000920E-02 0. -1.
       -2    1    3    3    0  502 -0.50159987388E+03 -0.19517313836E+03  0.84918104585E+03  0.10053872070E+04  0.25500000920E-02 0.  1.
</event>
<event>
 5   0  0.5214658E-07  0.2801208E+04  0.7818609E-02  0.8302893E-01
       -1   -1    0    0    0  501  0.00000000000E+00  0.00000000000E+00  0.10693859046E+04  0.10693859046E+04  0.50400001928E-02 0. -1.
        1   -1    0    0  501    0  0.00000000000E+00  0.00000000000E+00 -0.18344096798E+04  0.18344096798E+04  0.50400001928E-02 0.  1.
    10030    2    1    2    0    0  0.00000000000E+00  0.00000000000E+00 -0.76502377518E+03  0.29037955844E+04  0.28012082071E+04 0.  0.
        2    1    3    3  502    0 -0.89973031433E+03 -0.10346777480E+04 -0.86358469971E+02  0.13738742541E+04  0.25500000920E-02 0.  1.
       -2    1    3    3    0  502  0.89973031433E+03  0.10346777480E+04 -0.67866530520E+03  0.15299213304E+04  0.25500000920E-02 0. -1.
</event>
<event>
 5   0  0.1461146E-06  0.2799270E+04  0.7818609E-02  0.8303495E-01
        2   -1    0    0  501    0  0.00000000000E+00  0.00000000000E+00  0.17223028501E+04  0.17223028501E+04  0.25500000920E-02 0.  1.
       -2   -1    0    0    0  501  0.00000000000E+00  0.00000000000E+00 -0.11374176879E+04  0.11374176879E+04  0.25500000920E-02 0. -1.
    10030    2    1    2    0    0  0.00000000000E+00  0.00000000000E+00  0.58488516218E+03  0.28597205380E+04  0.27992697088E+04 0.  0.
        1    1    3    3  502    0 -0.95615388319E+03 -0.31081249135E+03 -0.70231163368E+03  0.12264078783E+04  0.50400001928E-02 0. -1.
       -1    1    3    3    0  502  0.95615388319E+03  0.31081249135E+03  0.12871967959E+04  0.16333126597E+04  0.50400001928E-02 0.  1.
</event>
<event>
 5   0  0.5297741E-07  0.2798728E+04  0.7818609E-02  0.8303663E-01
       -1   -1    0    0    0  501  0.00000000000E+00  0.00000000000E+00  0.11306495697E+04  0.11306495697E+04  0.50400001928E-02 0. -1.
        1   -1    0    0  501    0  0.00000000000E+00  0.00000000000E+00 -0.17319425578E+04  0.17319425578E+04  0.50400001928E-02 0.  1.
    10030    2    1    2    0    0  0.00000000000E+00  0.00000000000E+00 -0.60129298808E+03  0.28625921275E+04  0.27987283596E+04 0.  0.
        5    1    3    3  502    0 -0.75775759973E+03 -0.11649673201E+04 -0.46825333506E+03  0.14665022034E+04  0.46999998093E+01 0. -1.
       -5    1    3    3    0  502  0.75775759973E+03  0.11649673201E+04 -0.13303965301E+03  0.13960899241E+04  0.46999998093E+01 0.  1.
</event>
<event>
 5   0  0.5214658E-07  0.2807902E+04  0.7818609E-02  0.8300819E-01
       -1   -1    0    0    0  501  0.00000000000E+00  0.00000000000E+00  0.15026875790E+04  0.15026875790E+04  0.50400001928E-02 0.  1.
        1   -1    0    0  501    0  0.00000000000E+00  0.00000000000E+00 -0.13117021312E+04  0.13117021312E+04  0.50400001928E-02 0. -1.
    10030    2    1    2    0    0  0.00000000000E+00  0.00000000000E+00  0.19098544779E+03  0.28143897103E+04  0.28079020638E+04 0.  0.
        2    1    3    3  502    0  0.56195512691E+03  0.11647048427E+04 -0.45234819243E+03  0.13700181833E+04  0.25500000920E-02 0. -1.
       -2    1    3    3    0  502 -0.56195512691E+03 -0.11647048427E+04  0.64333364022E+03  0.14443715270E+04  0.25500000920E-02 0.  1.
</event>
<event>
 5   0  0.5362952E-07  0.2800694E+04  0.7818609E-02  0.8303053E-01
       -1   -1    0    0    0  501  0.00000000000E+00  0.00000000000E+00  0.12857250269E+04  0.12857250269E+04  0.50400001928E-02 0. -1.
        1   -1    0    0  501    0  0.00000000000E+00  0.00000000000E+00 -0.15251870301E+04  0.15251870301E+04  0.50400001928E-02 0.  1.
    10030    2    1    2    0    0  0.00000000000E+00  0.00000000000E+00 -0.23946200320E+03  0.28109120570E+04  0.28006935821E+04 0.  0.
        1    1    3    3  502    0  0.10465686739E+04  0.70881913469E+03 -0.72462439686E+03  0.14569869840E+04  0.50400001928E-02 0.  1.
       -1    1    3    3    0  502 -0.10465686739E+04 -0.70881913469E+03  0.48516239367E+03  0.13539250730E+04  0.50400001928E-02 0. -1.
</event>
<event>
 5   0  0.1439207E-06  0.2785368E+04  0.7818609E-02  0.8307825E-01
        2   -1    0    0  501    0  0.00000000000E+00  0.00000000000E+00  0.14511298810E+04  0.14511298810E+04  0.25500000920E-02 0. -1.
       -2   -1    0    0    0  501  0.00000000000E+00  0.00000000000E+00 -0.13365920921E+04  0.13365920921E+04  0.25500000920E-02 0.  1.
    10030    2    1    2    0    0  0.00000000000E+00  0.00000000000E+00  0.11453778889E+03  0.27877219731E+04  0.27853679998E+04 0.  0.
        5    1    3    3  502    0 -0.13159140750E+04  0.10831193743E+03 -0.38603353695E+03  0.13756472332E+04  0.46999998093E+01 0.  1.
       -5    1    3    3    0  502  0.13159140750E+04 -0.10831193743E+03  0.50057132585E+03  0.14120747398E+04  0.46999998093E+01 0. -1.
</event>
<event>
 5   0  0.1439207E-06  0.2793560E+04  0.7818609E-02  0.8305271E-01
       -2   -1    0    0    0  501  0.00000000000E+00  0.00000000000E+00  0.67844465761E+03  0.67844465761E+03  0.25500000920E-02 0. -1.
        2   -1    0    0  501    0  0.00000000000E+00  0.00000000000E+00 -0.28756864432E+04  0.28756864432E+04  0.25500000920E-02 0.  1.
    10030    2    1    2    0    0  0.00000000000E+00  0.00000000000E+00 -0.21972417856E+04  0.35541311009E+04  0.27935598110E+04 0.  0.
        5    1    3    3  502    0 -0.10193906045E+04  0.35163783478E+03  0.30873863751E+02  0.10787871231E+04  0.46999998093E+01 0. -1.
       -5    1    3    3    0  502  0.10193906045E+04 -0.35163783478E+03 -0.22281156494E+04  0.24753439778E+04  0.46999998093E+01 0.  1.
</event>
<event>
 5   0  0.1394410E-06  0.2798133E+04  0.7818609E-02  0.8303848E-01
        2   -1    0    0  501    0  0.00000000000E+00  0.00000000000E+00  0.16769358304E+04  0.16769358304E+04  0.25500000920E-02 0.  1.
       -2   -1    0    0    0  501  0.00000000000E+00  0.00000000000E+00 -0.11672398969E+04  0.11672398969E+04  0.25500000920E-02 0. -1.
    10030    2    1    2    0    0  0.00000000000E+00  0.00000000000E+00  0.50969593350E+03  0.28441757273E+04  0.27981325242E+04 0.  0.
        4    1    3    3  502    0  0.15717822038E+03  0.72949546690E+01 -0.11582169720E+04  0.11688568674E+04  0.12699999809E+01 0. -1.
       -4    1    3    3    0  502 -0.15717822038E+03 -0.72949546690E+01  0.16679129055E+04  0.16753188599E+04  0.12699999809E+01 0.  1.
</event>
<event>
 5   0  0.5297741E-07  0.2813767E+04  0.7818609E-02  0.8299007E-01
        1   -1    0    0  501    0  0.00000000000E+00  0.00000000000E+00  0.19444973041E+04  0.19444973041E+04  0.50400001928E-02 0. -1.
       -1   -1    0    0    0  501  0.00000000000E+00  0.00000000000E+00 -0.10179086856E+04  0.10179086856E+04  0.50400001928E-02 0.  1.
    10030    2    1    2    0    0  0.00000000000E+00  0.00000000000E+00  0.92658861850E+03  0.29624059897E+04  0.28137666534E+04 0.  0.
        5    1    3    3  502    0 -0.97064336708E+03  0.70963154063E+03  0.12323423613E+04  0.17217477327E+04  0.46999998093E+01 0. -1.
       -5    1    3    3    0  502  0.97064336708E+03 -0.70963154063E+03 -0.30575374279E+03  0.12406582570E+04  0.46999998093E+01 0.  1.
</event>
<event>
 5   0  0.1377807E-06  0.2805918E+04  0.7818609E-02  0.8301434E-01
       -2   -1    0    0    0  501  0.00000000000E+00  0.00000000000E+00  0.19747189244E+04  0.19747189244E+04  0.25500000920E-02 0. -1.
        2   -1    0    0  501    0  0.00000000000E+00  0.00000000000E+00 -0.99674606479E+03  0.99674606480E+03  0.25500000920E-02 0.  1.
    10030    2    1    2    0    0  0.00000000000E+00  0.00000000000E+00  0.97797285963E+03  0.29714649892E+04  0.28059175448E+04 0.  0.
        2    1    3    3  502    0 -0.49850024081E+03 -0.53377103514E+02  0.18766158172E+04  0.19424310877E+04  0.25500000920E-02 0. -1.
       -2    1    3    3    0  502  0.49850024081E+03  0.53377103514E+02 -0.89864295755E+03  0.10290339015E+04  0.25500000920E-02 0.  1.
</event>
<event>
 5   0  0.5214658E-07  0.2802397E+04  0.7818609E-02  0.8302525E-01
       -1   -1    0    0    0  501  0.00000000000E+00  0.00000000000E+00  0.13291797942E+04  0.13291797942E+04  0.50400001928E-02 0. -1.
        1   -1    0    0  501    0  0.00000000000E+00  0.00000000000E+00 -0.14771195679E+04  0.14771195679E+04  0.50400001928E-02 0.  1.
    10030    2    1    2    0    0  0.00000000000E+00  0.00000000000E+00 -0.14793977367E+03  0.28062993621E+04  0.28023971762E+04 0.  0.
        2    1    3    3  502    0  0.93788765266E+03 -0.80785552619E+03 -0.73146138337E+03  0.14378106814E+04  0.25500000920E-02 0.  1.
       -2    1    3    3    0  502 -0.93788765266E+03  0.80785552619E+03  0.58352160970E+03  0.13684886807E+04  0.25500000920E-02 0. -1.
</event>
<event>
 5   0  0.1377807E-06  0.2802482E+04  0.7818609E-02  0.8302498E-01
        2   -1    0    0  501    0  0.00000000000E+00  0.00000000000E+00  0.14410258337E+04  0.14410258337E+04  0.25500000920E-02 0. -1.
       -2   -1    0    0    0  501  0.00000000000E+00  0.00000000000E+00 -0.13625547545E+04  0.13625547545E+04  0.25500000920E-02 0.  1.
    10030    2    1    2    0    0  0.00000000000E+00  0.00000000000E+00  0.78471079236E+02  0.28035805882E+04  0.28024821862E+04 0.  0.
        2    1    3    3  502    0  0.11705241580E+04  0.38285186881E+02 -0.73040599827E+03  0.13802483408E+04  0.25500000920E-02 0.  1.
       -2    1    3    3    0  502 -0.11705241580E+04 -0.38285186881E+02  0.80887707751E+03  0.14233322474E+04  0.25500000920E-02 0. -1.
</event>
<event>
 5   0  0.5297741E-07  0.2799281E+04  0.7818609E-02  0.8303492E-01
        1   -1    0    0  501    0  0.00000000000E+00  0.00000000000E+00  0.26062689438E+04  0.26062689438E+04  0.50400001928E-02 0. -1.
       -1   -1    0    0    0  501  0.00000000000E+00  0.00000000000E+00 -0.75164669185E+03  0.75164669187E+03  0.50400001928E-02 0.  1.
    10030    2    1    2    0    0  0.00000000000E+00  0.00000000000E+00  0.18546222519E+04  0.33579156357E+04  0.27992809289E+04 0.  0.
        5    1    3    3  502    0  0.37707020842E+03  0.41535426608E+03 -0.61087855108E+03  0.82939484119E+03  0.46999998093E+01 0.  1.
       -5    1    3    3    0  502 -0.37707020842E+03 -0.41535426608E+03  0.24655008030E+04  0.25285207945E+04  0.46999998093E+01 0. -1.
</event>
<event>
 5   0  0.1394410E-06  0.2798426E+04  0.7818609E-02  0.8303757E-01
        2   -1    0    0  501    0  0.00000000000E+00  0.00000000000E+00  0.18710221640E+04  0.18710221640E+04  0.25500000920E-02 0.  1.
       -2   -1    0    0    0  501  0.00000000000E+00  0.00000000000E+00 -0.10463785641E+04  0.10463785641E+04  0.25500000920E-02 0. -1.
    10030    2    1    2    0    0  0.00000000000E+00  0.00000000000E+00  0.82464359991E+03  0.29174007281E+04  0.27984263330E+04 0.  0.
        4    1    3    3  502    0  0.60812649705E+03  0.11836825952E+04 -0.38345581768E+02  0.13313130057E+04  0.12699999809E+01 0. -1.
       -4    1    3    3    0  502 -0.60812649705E+03 -0.11836825952E+04  0.86298918167E+03  0.15860877224E+04  0.12699999809E+01 0.  1.
</event>
<event>
 5   0  0.5362952E-07  0.2800043E+04  0.7818609E-02  0.8303255E-01
        1   -1    0    0  501    0  0.00000000000E+00  0.00000000000E+00  0.19328410817E+04  0.19328410817E+04  0.50400001928E-02 0.  1.
       -1   -1    0    0    0  501  0.00000000000E+00  0.00000000000E+00 -0.10140825643E+04  0.10140825643E+04  0.50400001928E-02 0. -1.
    10030    2    1    2    0    0  0.00000000000E+00  0.00000000000E+00  0.91875851739E+03  0.29469236459E+04  0.28000431714E+04 0.  0.
        1    1    3    3  502    0 -0.45371335086E+03  0.13219916828E+04  0.37424973300E+03  0.14469211025E+04  0.50400001928E-02 0. -1.
       -1    1    3    3    0  502  0.45371335086E+03 -0.13219916828E+04  0.54450878439E+03  0.15000025435E+04  0.50400001928E-02 0.  1.
</event>
<event>
 5   0  0.5297741E-07  0.2799496E+04  0.7818609E-02  0.8303425E-01
        1   -1    0    0  501    0  0.00000000000E+00  0.00000000000E+00  0.14424499926E+04  0.14424499926E+04  0.50400001928E-02 0.  1.
       -1   -1    0    0    0  501  0.00000000000E+00  0.00000000000E+00 -0.13583096898E+04  0.13583096898E+04  0.50400001928E-02 0. -1.
    10030    2    1    2    0    0  0.00000000000E+00  0.00000000000E+00  0.84140302786E+02  0.28007596824E+04  0.27994955274E+04 0.  0.
        5    1    3    3  502    0  0.89035992887E+03  0.35990779425E+03 -0.97672032956E+03  0.13697733811E+04  0.46999998093E+01 0. -1.
       -5    1    3    3    0  502 -0.89035992887E+03 -0.35990779425E+03  0.10608606323E+04  0.14309863013E+04  0.46999998093E+01 0.  1.
</event>
<event>
 5   0  0.5362952E-07  0.2801888E+04  0.7818609E-02  0.8302682E-01
       -1   -1    0    0    0  501  0.00000000000E+00  0.00000000000E+00  0.79713083512E+03  0.79713083514E+03  0.50400001928E-02 0. -1.
        1   -1    0    0  501    0  0.00000000000E+00  0.00000000000E+00 -0.24621353619E+04  0.24621353619E+04  0.50400001928E-02 0.  1.
    10030    2    1    2    0    0  0.00000000000E+00  0.00000000000E+00 -0.16650045268E+04  0.32592661971E+04  0.28018879473E+04 0.  0.
        1    1    3    3  502    0 -0.56579480389E+03  0.89037671003E+03 -0.19047979191E+04  0.21774180945E+04  0.50400001928E-02 0.  1.
       -1    1    3    3    0  502  0.56579480389E+03 -0.89037671003E+03  0.23979339230E+03  0.10818481025E+04  0.50400001928E-02 0. -1.
</event>
<event>
 5   0  0.1377807E-06  0.2792052E+04  0.7818609E-02  0.8305740E-01
        2   -1    0    0  501    0  0.00000000000E+00  0.00000000000E+00  0.14247526201E+04  0.14247526201E+04  0.25500000920E-02 0.  1.
       -2   -1    0    0    0  501  0.00000000000E+00  0.00000000000E+00 -0.13678786617E+04  0.13678786617E+04  0.25500000920E-02 0. -1.
    10030    2    1    2    0    0  0.00000000000E+00  0.00000000000E+00  0.56873958457E+02  0.27926312818E+04  0.27920520821E+04 0.  0.
        2    1    3    3  502    0  0.92301442698E+03  0.74954523787E+03  0.76010428687E+03  0.14112165755E+04  0.25500000920E-02 0.  1.
       -2    1    3    3    0  502 -0.92301442698E+03 -0.74954523787E+03 -0.70323032841E+03  0.13814147063E+04  0.25500000920E-02 0. -1.
</event>
<event>
 5   0  0.1499888E-06  0.2803275E+04  0.7818609E-02  0.8302252E-01
        2   -1    0    0  501    0  0.00000000000E+00  0.00000000000E+00  0.12196601252E+04  0.12196601252E+04  0.25500000920E-02 0.  1.
       -2   -1    0    0    0  501  0.00000000000E+00  0.00000000000E+00 -0.16107665200E+04  0.16107665200E+04  0.25500000920E-02 0. -1.
    10030    2    1    2    0    0  0.00000000000E+00  0.00000000000E+00 -0.39110639481E+03  0.28304266451E+04  0.28032750100E+04 0.  0.
        3    1    3    3  502    0  0.69155510576E+03 -0.12021103955E+04 -0.40067058393E+03  0.14435563011E+04  0.10100000352E+00 0.  1.
       -3    1    3    3    0  502 -0.69155510576E+03  0.12021103955E+04  0.95641891227E+01  0.13868703441E+04  0.10100000352E+00 0. -1.
</event>
<event>
 5   0  0.5297741E-07  0.2778200E+04  0.7818609E-02  0.8310068E-01
        1   -1    0    0  501    0  0.00000000000E+00  0.00000000000E+00  0.24309953253E+04  0.24309953253E+04  0.50400001928E-02 0.  1.
       -1   -1    0    0    0  501  0.00000000000E+00  0.00000000000E+00 -0.79374869947E+03  0.79374869949E+03  0.50400001928E-02 0. -1.
    10030    2    1    2    0    0  0.00000000000E+00  0.00000000000E+00  0.16372466258E+04  0.32247440248E+04  0.27782004088E+04 0.  0.
        5    1    3    3  502    0  0.13247322506E+04  0.41777793585E+03  0.83151466290E+03  0.16189171270E+04  0.46999998093E+01 0.  1.
       -5    1    3    3    0  502 -0.13247322506E+04 -0.41777793585E+03  0.80573196291E+03  0.16058268978E+04  0.46999998093E+01 0. -1.
</event>
<event>
 5   0  0.1439207E-06  0.2808941E+04  0.7818609E-02  0.8300498E-01
        2   -1    0    0  501    0  0.00000000000E+00  0.00000000000E+00  0.17075043642E+04  0.17075043642E+04  0.25500000920E-02 0. -1.
       -2   -1    0    0    0  501  0.00000000000E+00  0.00000000000E+00 -0.11552168065E+04  0.11552168065E+04  0.25500000920E-02 0.  1.
    10030    2    1    2    0    0  0.00000000000E+00  0.00000000000E+00  0.55228755770E+03  0.28627211707E+04  0.28089412516E+04 0.  0.
        5    1    3    3  502    0 -0.13824797089E+04 -0.15530052593E+03  0.79717438064E+02  0.13934652342E+04  0.46999998093E+01 0. -1.
       -5    1    3    3    0  502  0.13824797089E+04  0.15530052593E+03  0.47257011963E+03  0.14692559365E+04  0.46999998093E+01 0.  1.
</event>
<event>
 5   0  0.1439207E-06  0.2851321E+04  0.7818609E-02  0.8287510E-01
       -2   -1    0    0    0  501  0.00000000000E+00  0.00000000000E+00  0.11560356655E+04  0.11560356655E+04  0.25500000920E-02 0.  1.
        2   -1    0    0  501    0  0.00000000000E+00  0.00000000000E+00 -0.17581702441E+04  0.17581702441E+04  0.25500000920E-02 0. -1.
    10030    2    1    2    0    0  0.00000000000E+00  0.00000000000E+00 -0.60213457855E+03  0.29142059096E+04  0.28513207524E+04 0.  0.
        5    1    3    3  502    0  0.12301158758E+04  0.91033811495E+02  0.42955045734E+03  0.13061423767E+04  0.46999998093E+01 0. -1.
       -5    1    3    3    0  502 -0.12301158758E+04 -0.91033811495E+02 -0.10316850359E+04  0.16080635330E+04  0.46999998093E+01 0.  1.
</event>
<event>
 5   0  0.1439207E-06  0.2801364E+04  0.7818609E-02  0.8302845E-01
        2   -1    0    0  501    0  0.00000000000E+00  0.00000000000E+00  0.10864449442E+04  0.10864449442E+04  0.25500000920E-02 0. -1.
       -2   -1    0    0    0  501  0.00000000000E+00  0.00000000000E+00 -0.18058074614E+04  0.18058074614E+04  0.25500000920E-02 0.  1.
    10030    2    1    2    0    0  0.00000000000E+00  0.00000000000E+00 -0.71936251714E+03  0.28922524056E+04  0.28013642295E+04 0.  0.
        5    1    3    3  502    0  0.62298740068E+03  0.10378925343E+04  0.36784703978E+03  0.12651749874E+04  0.46999998093E+01 0. -1.
       -5    1    3    3    0  502 -0.62298740068E+03 -0.10378925343E+04 -0.10872095569E+04  0.16270774182E+04  0.46999998093E+01 0.  1.
</event>
<event>
 5   0  0.5362952E-07  0.2789549E+04  0.7818609E-02  0.8306520E-01
        1   -1    0    0  501    0  0.00000000000E+00  0.00000000000E+00  0.30004083386E+04  0.30004083386E+04  0.50400001928E-02 0.  1.
       -1   -1    0    0    0  501  0.00000000000E+00  0.00000000000E+00 -0.64837688209E+03  0.64837688210E+03  0.50400001928E-02 0. -1.
    10030    2    1    2    0    0  0.00000000000E+00  0.00000000000E+00  0.23520314565E+04  0.36487852207E+04  0.27895486399E+04 0.  0.
        1    1    3    3  502    0  0.21531797318E+03  0.12721485955E+04  0.18689843008E+04  0.22710848058E+04  0.50400001928E-02 0.  1.
       -1    1    3    3    0  502 -0.21531797318E+03 -0.12721485955E+04  0.48304715575E+03  0.13777004149E+04  0.50400001928E-02 0. -1.
</event>
<event>
 5   0  0.1394410E-06  0.2798527E+04  0.7818609E-02  0.8303726E-01
       -2   -1    0    0    0  501  0.00000000000E+00  0.00000000000E+00  0.14661977279E+04  0.14661977279E+04  0.25500000920E-02 0.  1.
        2   -1    0    0  501    0  0.00000000000E+00  0.00000000000E+00 -0.13353850692E+04  0.13353850692E+04  0.25500000920E-02 0. -1.
    10030    2    1    2    0    0  0.00000000000E+00  0.00000000000E+00  0.13081265862E+03  0.28015827971E+04  0.27985271514E+04 0.  0.
        4    1    3    3  502    0  0.38817369768E+03  0.55329331816E+03  0.12919480125E+04  0.14580615883E+04  0.12699999809E+01 0.  1.
       -4    1    3    3    0  502 -0.38817369768E+03 -0.55329331816E+03 -0.11611353539E+04  0.13435212088E+04  0.12699999809E+01 0. -1.
</event>
<event>
 5   0  0.5362952E-07  0.2799895E+04  0.7818609E-02  0.8303301E-01
        1   -1    0    0  501    0  0.00000000000E+00  0.00000000000E+00  0.10617199820E+04  0.10617199820E+04  0.50400001928E-02 0. -1.
       -1   -1    0    0    0  501  0.00000000000E+00  0.00000000000E+00 -0.18459229625E+04  0.18459229625E+04  0.50400001928E-02 0.  1.
    10030    2    1    2    0    0  0.00000000000E+00  0.00000000000E+00 -0.78420298051E+03  0.29076429445E+04  0.27998952084E+04 0.  0.
        1    1    3    3  502    0 -0.48435878471E+03 -0.99466312071E+03 -0.12829569873E+04  0.16940887779E+04  0.50400001928E-02 0.  1.
       -1    1    3    3    0  502  0.48435878471E+03  0.99466312071E+03  0.49875400679E+03  0.12135541666E+04  0.50400001928E-02 0. -1.
</event>
<event>
 5   0  0.5551565E-07  0.2801885E+04  0.7818609E-02  0.8302683E-01
       -1   -1    0    0    0  501  0.00000000000E+00  0.00000000000E+00  0.15196948494E+04  0.15196948494E+04  0.50400001928E-02 0. -1.
        1   -1    0    0  501    0  0.00000000000E+00  0.00000000000E+00 -0.12914697755E+04  0.12914697755E+04  0.50400001928E-02 0.  1.
    10030    2    1    2    0    0  0.00000000000E+00  0.00000000000E+00  0.22822507394E+03  0.28111646249E+04  0.28018850554E+04 0.  0.
        3    1    3    3  502    0 -0.18746472321E+03 -0.20429214774E+03 -0.12636658388E+04  0.12937270447E+04  0.10100000352E+00 0.  1.
       -3    1    3    3    0  502  0.18746472321E+03  0.20429214774E+03  0.14918909127E+04  0.15174375802E+04  0.10100000352E+00 0. -1.
</event>
<event>
 5   0  0.5214658E-07  0.2801464E+04  0.7818609E-02  0.8302814E-01
        1   -1    0    0  501    0  0.00000000000E+00  0.00000000000E+00  0.12088565086E+04  0.12088565086E+04  0.50400001928E-02 0.  1.
       -1   -1    0    0    0  501  0.00000000000E+00  0.00000000000E+00 -0.16230629756E+04  0.16230629756E+04  0.50400001928E-02 0. -1.
    10030    2    1    2    0    0  0.00000000000E+00  0.00000000000E+00 -0.41420646704E+03  0.28319194842E+04  0.28014640758E+04 0.  0.
        2    1    3    3  502    0  0.47572388278E+03  0.54792692858E+02  0.11235408016E+04  0.12213350829E+04  0.25500000920E-02 0.  1.
       -2    1    3    3    0  502 -0.47572388278E+03 -0.54792692858E+02 -0.15377472686E+04  0.16105844014E+04  0.25500000920E-02 0. -1.
</event>
<event>
 5   0  0.1394410E-06  0.2794422E+04  0.7818609E-02  0.8305002E-01
        2   -1    0    0  501    0  0.00000000000E+00  0.00000000000E+00  0.11324286280E+04  0.11324286280E+04  0.25500000920E-02 0.  1.
       -2   -1    0    0    0  501  0.00000000000E+00  0.00000000000E+00 -0.17239043043E+04  0.17239043043E+04  0.25500000920E-02 0. -1.
    10030    2    1    2    0    0  0.00000000000E+00  0.00000000000E+00 -0.59147567627E+03  0.28563329323E+04  0.27944220054E+04 0.  0.
        4    1    3    3  502    0  0.67165753910E+03  0.96218210057E+03  0.47953754187E+03  0.12676261718E+04  0.12699999809E+01 0.  1.
       -4    1    3    3    0  502 -0.67165753910E+03 -0.96218210057E+03 -0.10710132181E+04  0.15887067605E+04  0.12699999809E+01 0. -1.
</event>
<event>
 5   0  0.5282098E-07  0.2799202E+04  0.7818609E-02  0.8303516E-01
       -1   -1    0    0    0  501  0.00000000000E+00  0.00000000000E+00  0.24499327080E+04  0.24499327080E+04  0.50400001928E-02 0.  1.
        1   -1    0    0  501    0  0.00000000000E+00  0.00000000000E+00 -0.79956629342E+03  0.79956629343E+03  0.50400001928E-02 0. -1.
    10030    2    1    2    0    0  0.00000000000E+00  0.00000000000E+00  0.16503664146E+04  0.32494990014E+04  0.27992024682E+04 0.  0.
        4    1    3    3  502    0  0.89711734048E+03 -0.69640711584E+03  0.17747401037E+04  0.21070136313E+04  0.12699999809E+01 0.  1.
       -4    1    3    3    0  502 -0.89711734048E+03  0.69640711584E+03 -0.12437368917E+03  0.11424853702E+04  0.12699999809E+01 0. -1.
</event>
<event>
 5   0  0.5551565E-07  0.2798828E+04  0.7818609E-02  0.8303632E-01
        1   -1    0    0  501    0  0.00000000000E+00  0.00000000000E+00  0.15228989810E+04  0.15228989810E+04  0.50400001928E-02 0.  1.
       -1   -1    0    0    0  501  0.00000000000E+00  0.00000000000E+00 -0.12859414107E+04  0.12859414107E+04  0.50400001928E-02 0. -1.
    10030    2    1    2    0    0  0.00000000000E+00  0.00000000000E+00  0.23695757029E+03  0.28088403916E+04  0.27988275144E+04 0.  0.
        3    1    3    3  502    0  0.34150863977E+03  0.11361739548E+04 -0.62636199084E+03  0.13415844216E+04  0.10100000352E+00 0. -1.
       -3    1    3    3    0  502 -0.34150863977E+03 -0.11361739548E+04  0.86331956113E+03  0.14672559700E+04  0.10100000352E+00 0.  1.
</event>
<event>
 5   0  0.1461146E-06  0.2799452E+04  0.7818609E-02  0.8303438E-01
       -2   -1    0    0    0  501  0.00000000000E+00  0.00000000000E+00  0.11204830821E+04  0.11204830821E+04  0.25500000920E-02 0. -1.
        2   -1    0    0  501    0  0.00000000000E+00  0.00000000000E+00 -0.17485613545E+04  0.17485613545E+04  0.25500000920E-02 0.  1.
    10030    2    1    2    0    0  0.00000000000E+00  0.00000000000E+00 -0.62807827244E+03  0.28690444366E+04  0.27994523862E+04 0.  0.
        1    1    3    3  502    0  0.59499625370E+03 -0.12667996747E+04 -0.33532706354E+03  0.14391824753E+04  0.50400001928E-02 0.  1.
       -1    1    3    3    0  502 -0.59499625370E+03  0.12667996747E+04 -0.29275120890E+03  0.14298619612E+04  0.50400001928E-02 0. -1.
</event>
<event>
 5   0  0.1439207E-06  0.2800776E+04  0.7818609E-02  0.8303027E-01
        2   -1    0    0  501    0  0.00000000000E+00  0.00000000000E+00  0.14219863417E+04  0.14219863417E+04  0.25500000920E-02 0. -1.
       -2   -1    0    0    0  501  0.00000000000E+00  0.00000000000E+00 -0.13791180064E+04  0.13791180064E+04  0.25500000920E-02 0.  1.
    10030    2    1    2    0    0  0.00000000000E+00  0.00000000000E+00  0.42868335277E+02  0.28011043481E+04  0.28007762986E+04 0.  0.
        5    1    3    3  502    0  0.85316587321E+03  0.42693526201E+03  0.10466879643E+04  0.14162427439E+04  0.46999998093E+01 0. -1.
       -5    1    3    3    0  502 -0.85316587321E+03 -0.42693526201E+03 -0.10038196290E+04  0.13848616042E+04  0.46999998093E+01 0.  1.
</event>
<event>
 5   0  0.5282098E-07  0.2800352E+04  0.7818609E-02  0.8303159E-01
       -1   -1    0    0    0  501  0.00000000000E+00  0.00000000000E+00  0.95359255538E+03  0.95359255539E+03  0.50400001928E-02 0.  1.
        1   -1    0    0  501    0  0.00000000000E+00  0.00000000000E+00 -0.20559020761E+04  0.20559020761E+04  0.50400001928E-02 0. -1.
    10030    2    1    2    0    0  0.00000000000E+00  0.00000000000E+00 -0.11023095207E+04  0.30094946315E+04  0.28003520596E+04 0.  0.
        4    1    3    3  502    0  0.71174557113E+03  0.54599048243E+03  0.60422039228E+03  0.10815596425E+04  0.12699999809E+01 0.  1.
       -4    1    3    3    0  502 -0.71174557113E+03 -0.54599048243E+03 -0.17065299130E+04  0.19279349890E+04  0.12699999809E+01 0. -1.
</event>
<event>
 5   0  0.1394410E-06  0.2794433E+04  0.7818609E-02  0.8304999E-01
        2   -1    0    0  501    0  0.00000000000E+00  0.00000000000E+00  0.12844319610E+04  0.12844319610E+04  0.25500000920E-02 0.  1.
       -2   -1    0    0    0  501  0.00000000000E+00  0.00000000000E+00 -0.15199045506E+04  0.15199045506E+04  0.25500000920E-02 0. -1.
    10030    2    1    2    0    0  0.00000000000E+00  0.00000000000E+00 -0.23547258960E+03  0.28043365117E+04  0.27944330248E+04 0.  0.
        4    1    3    3  502    0  0.32450475083E+03  0.34399345875E+03 -0.14371495830E+04  0.15129558387E+04  0.12699999809E+01 0. -1.
       -4    1    3    3    0  502 -0.32450475083E+03 -0.34399345875E+03  0.12016769934E+04  0.12913806729E+04  0.12699999809E+01 0.  1.
</event>
<event>
 5   0  0.1377807E-06  0.2806543E+04  0.7818609E-02  0.8301240E-01
        2   -1    0    0  501    0  0.00000000000E+00  0.00000000000E+00  0.14781893412E+04  0.14781893412E+04  0.25500000920E-02 0.  1.
       -2   -1    0    0    0  501  0.00000000000E+00  0.00000000000E+00 -0.13321503421E+04  0.13321503421E+04  0.25500000920E-02 0. -1.
    10030    2    1    2    0    0  0.00000000000E+00  0.00000000000E+00  0.14603899916E+03  0.28103396833E+04  0.28065426678E+04 0.  0.
        2    1    3    3  502    0  0.73236497488E+01  0.23274229325E+03 -0.13126690861E+04  0.13331626835E+04  0.25500000920E-02 0. -1.
       -2    1    3    3    0  502 -0.73236497488E+01 -0.23274229325E+03  0.14587080853E+04  0.14771769999E+04  0.25500000920E-02 0.  1.
</event>
<event>
 5   0  0.5362952E-07  0.2798317E+04  0.7818609E-02  0.8303791E-01
        1   -1    0    0  501    0  0.00000000000E+00  0.00000000000E+00  0.12970725686E+04  0.12970725686E+04  0.50400001928E-02 0. -1.
       -1   -1    0    0    0  501  0.00000000000E+00  0.00000000000E+00 -0.15092785578E+04  0.15092785578E+04  0.50400001928E-02 0.  1.
    10030    2    1    2    0    0  0.00000000000E+00  0.00000000000E+00 -0.21220598915E+03  0.28063511264E+04  0.27983165051E+04 0.  0.
        1    1    3    3  502    0 -0.48698463126E+03  0.79256488927E+03 -0.11542501025E+04  0.14824326069E+04  0.50400001928E-02 0.  1.
       -1    1    3    3    0  502  0.48698463126E+03 -0.79256488927E+03  0.94204411337E+03  0.13239185195E+04  0.50400001928E-02 0. -1.
</event>
<event>
 5   0  0.1377807E-06  0.2791780E+04  0.7818609E-02  0.8305825E-01
        2   -1    0    0  501    0  0.00000000000E+00  0.00000000000E+00  0.12083044999E+04  0.12083044999E+04  0.25500000920E-02 0. -1.
       -2   -1    0    0    0  501  0.00000000000E+00  0.00000000000E+00 -0.16125978365E+04  0.16125978365E+04  0.25500000920E-02 0.  1.
    10030    2    1    2    0    0  0.00000000000E+00  0.00000000000E+00 -0.40429333659E+03  0.28209023363E+04  0.27917802365E+04 0.  0.
        2    1    3    3  502    0 -0.87765461602E+03  0.57677232336E+03 -0.11312850359E+04  0.15436158105E+04  0.25500000920E-02 0.  1.
       -2    1    3    3    0  502  0.87765461602E+03 -0.57677232336E+03  0.72699169935E+03  0.12772865258E+04  0.25500000920E-02 0. -1.
</event>
<event>
 5   0  0.5214658E-07  0.2795025E+04  0.7818609E-02  0.8304814E-01
       -1   -1    0    0    0  501  0.00000000000E+00  0.00000000000E+00  0.80613715197E+03  0.80613715199E+03  0.50400001928E-02 0. -1.
        1   -1    0    0  501    0  0.00000000000E+00  0.00000000000E+00 -0.24227164935E+04  0.24227164935E+04  0.50400001928E-02 0.  1.
    10030    2    1    2    0    0  0.00000000000E+00  0.00000000000E+00 -0.16165793415E+04  0.32288536455E+04  0.27950254196E+04 0.  0.
        2    1    3    3  502    0 -0.69802212666E+03  0.56085907499E+03 -0.20477889678E+04  0.22350027848E+04  0.25500000920E-02 0.  1.
       -2    1    3    3    0  502  0.69802212666E+03 -0.56085907499E+03  0.43120962636E+03  0.99385086063E+03  0.25500000920E-02 0. -1.
</event>
<event>
 5   0  0.5282098E-07  0.2788516E+04  0.7818609E-02  0.8306843E-01
       -1   -1    0    0    0  501  0.00000000000E+00  0.00000000000E+00  0.10044793145E+04  0.10044793145E+04  0.50400001928E-02 0. -1.
        1   -1    0    0  501    0  0.00000000000E+00  0.00000000000E+00 -0.19352863617E+04  0.19352863618E+04  0.50400001928E-02 0.  1.
    10030    2    1    2    0    0  0.00000000000E+00  0.00000000000E+00 -0.93080704728E+03  0.29397656762E+04  0.27885158188E+04 0.  0.
        4    1    3    3  502    0  0.34468755635E+03 -0.54507758839E+03  0.83778177020E+03  0.10572601365E+04  0.12699999809E+01 0. -1.
       -4    1    3    3    0  502 -0.34468755635E+03  0.54507758839E+03 -0.17685888175E+04  0.18825055397E+04  0.12699999809E+01 0.  1.
</event>
<event>
 5   0  0.1461146E-06  0.2834891E+04  0.7818609E-02  0.8292517E-01
        2   -1    0    0  501    0  0.00000000000E+00  0.00000000000E+00  0.11694796741E+04  0.11694796741E+04  0.25500000920E-02 0. -1.
       -2   -1    0    0    0  501  0.00000000000E+00  0.00000000000E+00 -0.17179877306E+04  0.17179877306E+04  0.25500000920E-02 0.  1.
    10030    2    1    2    0    0  0.00000000000E+00  0.00000000000E+00 -0.54850805654E+03  0.28874674048E+04  0.28348909900E+04 0.  0.
        1    1    3    3  502    0  0.44635649606E+03 -0.10581208922E+04 -0.11205045849E+04  0.16044888497E+04  0.50400001928E-02 0.  1.
       -1    1    3    3    0  502 -0.44635649606E+03  0.10581208922E+04  0.57199652833E+03  0.12829785550E+04  0.50400001928E-02 0. -1.
</event>
<event>
 5   0  0.1377807E-06  0.2799458E+04  0.7818609E-02  0.8303437E-01
       -2   -1    0    0    0  501  0.00000000000E+00  0.00000000000E+00  0.14049508681E+04  0.14049508681E+04  0.25500000920E-02 0. -1.
        2   -1    0    0  501    0  0.00000000000E+00  0.00000000000E+00 -0.13945262578E+04  0.13945262578E+04  0.25500000920E-02 0.  1.
    10030    2    1    2    0    0  0.00000000000E+00  0.00000000000E+00  0.10424610271E+02  0.27994771259E+04  0.27994577164E+04 0.  0.
        2    1    3    3  502    0 -0.11286341318E+01  0.44514008745E+03  0.13322821321E+04  0.14046802664E+04  0.25500000920E-02 0. -1.
       -2    1    3    3    0  502  0.11286341318E+01 -0.44514008745E+03 -0.13218575218E+04  0.13947968595E+04  0.25500000920E-02 0.  1.
</event>
<event>
 5   0  0.5362952E-07  0.2796397E+04  0.7818609E-02  0.8304388E-01
       -1   -1    0    0    0  501  0.00000000000E+00  0.00000000000E+00  0.99137644862E+03  0.99137644863E+03  0.50400001928E-02 0.  1.
        1   -1    0    0  501    0  0.00000000000E+00  0.00000000000E+00 -0.19719637341E+04  0.19719637341E+04  0.50400001928E-02 0. -1.
    10030    2    1    2    0    0  0.00000000000E+00  0.00000000000E+00 -0.98058728547E+03  0.29633401827E+04  0.27963965409E+04 0.  0.
        1    1    3    3  502    0  0.11055318449E+04 -0.61478384016E+03 -0.11215033747E+04  0.16905412298E+04  0.50400001928E-02 0. -1.
       -1    1    3    3    0  502 -0.11055318449E+04  0.61478384016E+03  0.14091608925E+03  0.12727989529E+04  0.50400001928E-02 0.  1.
</event>
<event>
 5   0  0.5214658E-07  0.2795131E+04  0.7818609E-02  0.8304782E-01
       -1   -1    0    0    0  501  0.00000000000E+00  0.00000000000E+00  0.10793299244E+04  0.10793299244E+04  0.50400001928E-02 0. -1.
        1   -1    0    0  501    0  0.00000000000E+00  0.00000000000E+00 -0.18096308498E+04  0.18096308498E+04  0.50400001928E-02 0.  1.
    10030    2    1    2    0    0  0.00000000000E+00  0.00000000000E+00 -0.73030092539E+03  0.28889607742E+04  0.27951305718E+04 0.  0.
        2    1    3    3  502    0  0.12070877172E+04 -0.36317111586E+03 -0.98892868856E+03  0.16021653995E+04  0.25500000920E-02 0.  1.
       -2    1    3    3    0  502 -0.12070877172E+04  0.36317111586E+03  0.25862776318E+03  0.12867953747E+04  0.25500000920E-02 0. -1.
</event>
<event>
 5   0  0.1461146E-06  0.2798318E+04  0.7818609E-02  0.8303791E-01
        2   -1    0    0  501    0  0.00000000000E+00  0.00000000000E+00  0.24362212819E+04  0.24362212819E+04  0.25500000920E-02 0. -1.
       -2   -1    0    0    0  501  0.00000000000E+00  0.00000000000E+00 -0.80355844179E+03  0.80355844179E+03  0.25500000920E-02 0.  1.
    10030    2    1    2    0    0  0.00000000000E+00  0.00000000000E+00  0.16326628401E+04  0.32397797237E+04  0.27983181929E+04 0.  0.
        1    1    3    3  502    0  0.13515164702E+04 -0.34084015381E+03  0.95754675842E+03  0.16910542789E+04  0.50400001928E-02 0.  1.
       -1    1    3    3    0  502 -0.13515164702E+04  0.34084015381E+03  0.67511608170E+03  0.15487254448E+04  0.50400001928E-02 0. -1.
</event>
<event>
 5   0  0.5214658E-07  0.2765327E+04  0.7818609E-02  0.8314114E-01
        1   -1    0    0  501    0  0.00000000000E+00  0.00000000000E+00  0.99441145021E+03  0.99441145022E+03  0.50400001928E-02 0.  1.
       -1   -1    0    0    0  501  0.00000000000E+00  0.00000000000E+00 -0.19225030299E+04  0.19225030299E+04  0.50400001928E-02 0. -1.
    10030    2    1    2    0    0  0.00000000000E+00  0.00000000000E+00 -0.92809157964E+03  0.29169144801E+04  0.27653274858E+04 0.  0.
        2    1    3    3  502    0 -0.98721658076E+03  0.37848881577E+03 -0.14039041244E+04  0.17574974116E+04  0.25500000920E-02 0. -1.
       -2    1    3    3    0  502  0.98721658076E+03 -0.37848881577E+03  0.47581254479E+03  0.11594170685E+04  0.25500000920E-02 0.  1.
</event>
<event>
 5   0  0.5551565E-07  0.2731053E+04  0.7818609E-02  0.8324999E-01
        1   -1    0    0  501    0  0.00000000000E+00  0.00000000000E+00  0.16082817598E+04  0.16082817599E+04  0.50400001928E-02 0. -1.
       -1   -1    0    0    0  501  0.00000000000E+00  0.00000000000E+00 -0.11594130574E+04  0.11594130574E+04  0.50400001928E-02 0.  1.
    10030    2    1    2    0    0  0.00000000000E+00  0.00000000000E+00  0.44886870249E+03  0.27676948172E+04  0.27310531832E+04 0.  0.
        3    1    3    3  502    0 -0.12232550418E+04  0.32494599955E+03  0.74387348084E+03  0.14680907893E+04  0.10100000352E+00 0. -1.
       -3    1    3    3    0  502  0.12232550418E+04 -0.32494599955E+03 -0.29500477835E+03  0.12996040279E+04  0.10100000352E+00 0.  1.
</event>
<event>
 5   0  0.1394410E-06  0.2772744E+04  0.7818609E-02  0.8311780E-01
       -2   -1    0    0    0  501  0.00000000000E+00  0.00000000000E+00  0.13472286801E+04  0.13472286801E+04  0.25500000920E-02 0. -1.
        2   -1    0    0  501    0  0.00000000000E+00  0.00000000000E+00 -0.14266529379E+04  0.14266529379E+04  0.25500000920E-02 0.  1.
    10030    2    1    2    0    0  0.00000000000E+00  0.00000000000E+00 -0.79424257770E+02  0.27738816180E+04  0.27727443117E+04 0.  0.
        4    1    3    3  502    0  0.91228570007E+03  0.10083677417E+03 -0.10791729076E+04  0.14167035791E+04  0.12699999809E+01 0.  1.
       -4    1    3    3    0  502 -0.91228570007E+03 -0.10083677417E+03  0.99974864982E+03  0.13571780389E+04  0.12699999809E+01 0. -1.
</event>
<event>
 5   0  0.1394410E-06  0.2796965E+04  0.7818609E-02  0.8304211E-01
        2   -1    0    0  501    0  0.00000000000E+00  0.00000000000E+00  0.15047773015E+04  0.15047773015E+04  0.25500000920E-02 0. -1.
       -2   -1    0    0    0  501  0.00000000000E+00  0.00000000000E+00 -0.12996961945E+04  0.12996961945E+04  0.25500000920E-02 0.  1.
    10030    2    1    2    0    0  0.00000000000E+00  0.00000000000E+00  0.20508110693E+03  0.28044734960E+04  0.27969650211E+04 0.  0.
        4    1    3    3  502    0 -0.19002354756E+03 -0.12999818746E+04  0.58308686810E+03  0.14373773797E+04  0.12699999809E+01 0. -1.
       -4    1    3    3    0  502  0.19002354756E+03  0.12999818746E+04 -0.37800576116E+03  0.13670961163E+04  0.12699999809E+01 0.  1.
</event>
<event>
 5   0  0.1394410E-06  0.2794391E+04  0.7818609E-02  0.8305012E-01
       -2   -1    0    0    0  501  0.00000000000E+00  0.00000000000E+00  0.14354755899E+04  0.14354755899E+04  0.25500000920E-02 0.  1.
        2   -1    0    0  501    0  0.00000000000E+00  0.00000000000E+00 -0.13599366102E+04  0.13599366102E+04  0.25500000920E-02 0. -1.
    10030    2    1    2    0    0  0.00000000000E+00  0.00000000000E+00  0.75538979716E+02  0.27954122001E+04  0.27943913883E+04 0.  0.
        4    1    3    3  502    0 -0.16467835648E+03  0.88856177519E+03  0.11037539950E+04  0.14265116486E+04  0.12699999809E+01 0.  1.
       -4    1    3    3    0  502  0.16467835648E+03 -0.88856177519E+03 -0.10282150152E+04  0.13689005515E+04  0.12699999809E+01 0. -1.
</event>
<event>
 5   0  0.1499888E-06  0.2799559E+04  0.7818609E-02  0.8303405E-01
       -2   -1    0    0    0  501  0.00000000000E+00  0.00000000000E+00  0.13867368914E+04  0.13867368914E+04  0.25500000920E-02 0.  1.
        2   -1    0    0  501    0  0.00000000000E+00  0.00000000000E+00 -0.14129444890E+04  0.14129444890E+04  0.25500000920E-02 0. -1.
    10030    2    1    2    0    0  0.00000000000E+00  0.00000000000E+00 -0.26207597522E+02  0.27996813804E+04  0.27995587141E+04 0.  0.
        3    1    3    3  502    0  0.44647633375E+03  0.21018691373E+03  0.12968629763E+04  0.13875781941E+04  0.10100000352E+00 0.  1.
       -3    1    3    3    0  502 -0.44647633375E+03 -0.21018691373E+03 -0.13230705738E+04  0.14121031863E+04  0.10100000352E+00 0. -1.
</event>
<event>
 5   0  0.5362952E-07  0.2802774E+04  0.7818609E-02  0.8302408E-01
       -1   -1    0    0    0  501  0.00000000000E+00  0.00000000000E+00  0.92221028446E+03  0.92221028447E+03  0.50400001928E-02 0.  1.
        1   -1    0    0  501    0  0.00000000000E+00  0.00000000000E+00 -0.21295421517E+04  0.21295421517E+04  0.50400001928E-02 0. -1.
    10030    2    1    2    0    0  0.00000000000E+00  0.00000000000E+00 -0.12073318672E+04  0.30517524362E+04  0.28027741069E+04 0.  0.
        1    1    3    3  502    0 -0.71783468170E+03  0.99914715202E+03 -0.13343238791E+04  0.18149385323E+04  0.50400001928E-02 0. -1.
       -1    1    3    3    0  502  0.71783468170E+03 -0.99914715202E+03  0.12699201190E+03  0.12368139039E+04  0.50400001928E-02 0.  1.
</event>
<event>
 5   0  0.1377807E-06  0.2792351E+04  0.7818609E-02  0.8305647E-01
        2   -1    0    0  501    0  0.00000000000E+00  0.00000000000E+00  0.25657978451E+04  0.25657978451E+04  0.25500000920E-02 0.  1.
       -2   -1    0    0    0  501  0.00000000000E+00  0.00000000000E+00 -0.75972679900E+03  0.75972679901E+03  0.25500000920E-02 0. -1.
    10030    2    1    2    0    0  0.00000000000E+00  0.00000000000E+00  0.18060710461E+04  0.33255246441E+04  0.27923505394E+04 0.  0.
        2    1    3    3  502    0 -0.24221876808E+01 -0.11992647098E+04  0.51647101792E+02  0.12003787462E+04  0.25500000920E-02 0. -1.
       -2    1    3    3    0  502  0.24221876808E+01  0.11992647098E+04  0.17544239443E+04  0.21251458979E+04  0.25500000920E-02 0.  1.
</event>
<event>
 5   0  0.1461146E-06  0.2807973E+04  0.7818609E-02  0.8300797E-01
       -2   -1    0    0    0  501  0.00000000000E+00  0.00000000000E+00  0.12458611785E+04  0.12458611785E+04  0.25500000920E-02 0.  1.
        2   -1    0    0  501    0  0.00000000000E+00  0.00000000000E+00 -0.15821816788E+04  0.15821816788E+04  0.25500000920E-02 0. -1.
    10030    2    1    2    0    0  0.00000000000E+00  0.00000000000E+00 -0.33632050033E+03  0.28280428573E+04  0.28079734549E+04 0.  0.
        1    1    3    3  502    0  0.12538317662E+04  0.63145776162E+03 -0.14943358489E+03  0.14117943897E+04  0.50400001928E-02 0.  1.
       -1    1    3    3    0  502 -0.12538317662E+04 -0.63145776162E+03 -0.18688691544E+03  0.14162484675E+04  0.50400001928E-02 0. -1.
</event>
<event>
 5   0  0.5214658E-07  0.2799288E+04  0.7818609E-02  0.8303489E-01
       -1   -1    0    0    0  501  0.00000000000E+00  0.00000000000E+00  0.94238333209E+03  0.94238333210E+03  0.50400001928E-02 0.  1.
        1   -1    0    0  501    0  0.00000000000E+00  0.00000000000E+00 -0.20787753063E+04  0.20787753063E+04  0.50400001928E-02 0. -1.
    10030    2    1    2    0    0  0.00000000000E+00  0.00000000000E+00 -0.11363919742E+04  0.30211586384E+04  0.27992879093E+04 0.  0.
        2    1    3    3  502    0  0.77531360705E+03 -0.10425878832E+04 -0.11299322769E+04  0.17218732921E+04  0.25500000920E-02 0. -1.
       -2    1    3    3    0  502 -0.77531360705E+03  0.10425878832E+04 -0.64596972594E+01  0.12992853463E+04  0.25500000920E-02 0.  1.
</event>
<event>
 5   0  0.5214658E-07  0.2802194E+04  0.7818609E-02  0.8302587E-01
        1   -1    0    0  501    0  0.00000000000E+00  0.00000000000E+00  0.18012635519E+04  0.18012635519E+04  0.50400001928E-02 0. -1.
       -1   -1    0    0    0  501  0.00000000000E+00  0.00000000000E+00 -0.10898311437E+04  0.10898311437E+04  0.50400001928E-02 0.  1.
    10030    2    1    2    0    0  0.00000000000E+00  0.00000000000E+00  0.71143240820E+03  0.28910946957E+04  0.28021942238E+04 0.  0.
        2    1    3    3  502    0 -0.10889903086E+04 -0.22372175784E+03 -0.52405079292E+03  0.12290567727E+04  0.25500000920E-02 0.  1.
       -2    1    3    3    0  502  0.10889903086E+04  0.22372175784E+03  0.12354832011E+04  0.16620379229E+04  0.25500000920E-02 0. -1.
</event>
<event>
 5   0  0.1394410E-06  0.2792149E+04  0.7818609E-02  0.8305710E-01
        2   -1    0    0  501    0  0.00000000000E+00  0.00000000000E+00  0.21786433252E+04  0.21786433252E+04  0.25500000920E-02 0.  1.
       -2   -1    0    0    0  501  0.00000000000E+00  0.00000000000E+00 -0.89460422748E+03  0.89460422748E+03  0.25500000920E-02 0. -1.
    10030    2    1    2    0    0  0.00000000000E+00  0.00000000000E+00  0.12840390977E+04  0.30732475527E+04  0.27921486557E+04 0.  0.
        4    1    3    3  502    0 -0.11331584357E+04  0.56033630019E+03 -0.10075309428E+02  0.12641708486E+04  0.12699999809E+01 0.  1.
       -4    1    3    3    0  502  0.11331584357E+04 -0.56033630019E+03  0.12941144072E+04  0.18090767041E+04  0.12699999809E+01 0. -1.
</event>
<event>
 5   0  0.1394410E-06  0.2800182E+04  0.7818609E-02  0.8303212E-01
       -2   -1    0    0    0  501  0.00000000000E+00  0.00000000000E+00  0.96509520365E+03  0.96509520366E+03  0.25500000920E-02 0. -1.
        2   -1    0    0  501    0  0.00000000000E+00  0.00000000000E+00 -0.20311517384E+04  0.20311517384E+04  0.25500000920E-02 0.  1.
    10030    2    1    2    0    0  0.00000000000E+00  0.00000000000E+00 -0.10660565348E+04  0.29962469421E+04  0.28001819946E+04 0.  0.
        4    1    3    3  502    0 -0.45977942807E+03  0.13220637856E+04 -0.49913362758E+03  0.14860638501E+04  0.12699999809E+01 0. -1.
       -4    1    3    3    0  502  0.45977942807E+03 -0.13220637856E+04 -0.56692290721E+03  0.15101830920E+04  0.12699999809E+01 0.  1.
</event>
<event>
 5   0  0.1394410E-06  0.2798546E+04  0.7818609E-02  0.8303720E-01
       -2   -1    0    0    0  501  0.00000000000E+00  0.00000000000E+00  0.92309429112E+03  0.92309429112E+03  0.25500000920E-02 0.  1.
        2   -1    0    0  501    0  0.00000000000E+00  0.00000000000E+00 -0.21210883787E+04  0.21210883787E+04  0.25500000920E-02 0. -1.
    10030    2    1    2    0    0  0.00000000000E+00  0.00000000000E+00 -0.11979940876E+04  0.30441826699E+04  0.27985457462E+04 0.  0.
        4    1    3    3  502    0 -0.17659048245E+03 -0.71194430402E+03  0.69719493655E+03  0.10119937169E+04  0.12699999809E+01 0.  1.
       -4    1    3    3    0  502  0.17659048245E+03  0.71194430402E+03 -0.18951890242E+04  0.20321889530E+04  0.12699999809E+01 0. -1.
</event>
<event>
 5   0  0.5551565E-07  0.2795357E+04  0.7818609E-02  0.8304711E-01
        1   -1    0    0  501    0  0.00000000000E+00  0.00000000000E+00  0.14244635404E+04  0.14244635405E+04  0.50400001928E-02 0. -1.
       -1   -1    0    0    0  501  0.00000000000E+00  0.00000000000E+00 -0.13713971661E+04  0.13713971662E+04  0.50400001928E-02 0.  1.
    10030    2    1    2    0    0  0.00000000000E+00  0.00000000000E+00  0.53066374302E+02  0.27958607066E+04  0.27953570525E+04 0.  0.
        3    1    3    3  502    0 -0.63734375939E+03  0.92752255385E+03 -0.80247084184E+03  0.13821955787E+04  0.10100000352E+00 0.  1.
       -3    1    3    3    0  502  0.63734375939E+03 -0.92752255385E+03  0.85553721614E+03  0.14136651279E+04  0.10100000352E+00 0. -1.
</event>
<event>
 5   0  0.5297741E-07  0.2799015E+04  0.7818609E-02  0.8303574E-01
        1   -1    0    0  501    0  0.00000000000E+00  0.00000000000E+00  0.15342429371E+04  0.15342429371E+04  0.50400001928E-02 0. -1.
       -1   -1    0    0    0  501  0.00000000000E+00  0.00000000000E+00 -0.12766044948E+04  0.12766044948E+04  0.50400001928E-02 0.  1.
    10030    2    1    2    0    0  0.00000000000E+00  0.00000000000E+00  0.25763844224E+03  0.28108474319E+04  0.27990151337E+04 0.  0.
        5    1    3    3  502    0 -0.95248742216E+03  0.63244339209E+03  0.93931365917E+03  0.14797125308E+04  0.46999998093E+01 0.  1.
       -5    1    3    3    0  502  0.95248742216E+03 -0.63244339209E+03 -0.68167521692E+03  0.13311349011E+04  0.46999998093E+01 0. -1.
</event>
<event>
 5   0  0.1377807E-06  0.2800493E+04  0.7818609E-02  0.8303115E-01
        2   -1    0    0  501    0  0.00000000000E+00  0.00000000000E+00  0.13821569943E+04  0.13821569943E+04  0.25500000920E-02 0. -1.
       -2   -1    0    0    0  501  0.00000000000E+00  0.00000000000E+00 -0.14185727765E+04  0.14185727765E+04  0.25500000920E-02 0.  1.
    10030    2    1    2    0    0  0.00000000000E+00  0.00000000000E+00 -0.36415782183E+02  0.28007297709E+04  0.28004930174E+04 0.  0.
        2    1    3    3  502    0 -0.19051395432E+03  0.12906539182E+04 -0.52678522929E+03  0.14069775340E+04  0.25500000920E-02 0.  1.
       -2    1    3    3    0  502  0.19051395432E+03 -0.12906539182E+04  0.49036944710E+03  0.13937522369E+04  0.25500000920E-02 0. -1.
</event>
<event>
 5   0  0.5214658E-07  0.2807689E+04  0.7818609E-02  0.8300885E-01
        1   -1    0    0  501    0  0.00000000000E+00  0.00000000000E+00  0.18508566580E+04  0.18508566580E+04  0.50400001928E-02 0. -1.
       -1   -1    0    0    0  501  0.00000000000E+00  0.00000000000E+00 -0.10647930957E+04  0.10647930958E+04  0.50400001928E-02 0.  1.
    10030    2    1    2    0    0  0.00000000000E+00  0.00000000000E+00  0.78606356226E+03  0.29156497538E+04  0.28076890075E+04 0.  0.
        2    1    3    3  502    0  0.66260343488E+03  0.81475671705E+03  0.13604696636E+04  0.17186475862E+04  0.25500000920E-02 0. -1.
       -2    1    3    3    0  502 -0.66260343488E+03 -0.81475671705E+03 -0.57440610136E+03  0.11970021676E+04  0.25500000920E-02 0.  1.
</event>
<event>
 5   0  0.5214658E-07  0.2796996E+04  0.7818609E-02  0.8304202E-01
       -1   -1    0    0    0  501  0.00000000000E+00  0.00000000000E+00  0.12655173804E+04  0.12655173804E+04  0.50400001928E-02 0. -1.
        1   -1    0    0  501    0  0.00000000000E+00  0.00000000000E+00 -0.15454521915E+04  0.15454521915E+04  0.50400001928E-02 0.  1.
    10030    2    1    2    0    0  0.00000000000E+00  0.00000000000E+00 -0.27993481112E+03  0.28109695718E+04  0.27969959663E+04 0.  0.
        2    1    3    3  502    0  0.49004205110E+03 -0.10618962841E+04  0.63069587368E+03  0.13287370752E+04  0.25500000920E-02 0. -1.
       -2    1    3    3    0  502 -0.49004205110E+03  0.10618962841E+04 -0.91063068480E+03  0.14822324966E+04  0.25500000920E-02 0.  1.
</event>
<event>
 5   0  0.5362952E-07  0.2801405E+04  0.7818609E-02  0.8302832E-01
       -1   -1    0    0    0  501  0.00000000000E+00  0.00000000000E+00  0.26401105386E+04  0.26401105386E+04  0.50400001928E-02 0.  1.
        1   -1    0    0  501    0  0.00000000000E+00  0.00000000000E+00 -0.74313836918E+03  0.74313836919E+03  0.50400001928E-02 0. -1.
    10030    2    1    2    0    0  0.00000000000E+00  0.00000000000E+00  0.18969721695E+04  0.33832489078E+04  0.28014049619E+04 0.  0.
        1    1    3    3  502    0  0.13079571203E+03 -0.55814638437E+03  0.24919460295E+04  0.25570353768E+04  0.50400001928E-02 0.  1.
       -1    1    3    3    0  502 -0.13079571203E+03  0.55814638437E+03 -0.59497386001E+03  0.82621353099E+03  0.50400001928E-02 0. -1.
</event>
<event>
 5   0  0.1377807E-06  0.2798835E+04  0.7818609E-02  0.8303630E-01
       -2   -1    0    0    0  501  0.00000000000E+00  0.00000000000E+00  0.84999431909E+03  0.84999431910E+03  0.25500000920E-02 0.  1.
        2   -1    0    0  501    0  0.00000000000E+00  0.00000000000E+00 -0.23039787051E+04  0.23039787051E+04  0.25500000920E-02 0. -1.
    10030    2    1    2    0    0  0.00000000000E+00  0.00000000000E+00 -0.14539843860E+04  0.31539730242E+04  0.27988346223E+04 0.  0.
        2    1    3    3  502    0 -0.11946173346E+04 -0.53562961790E+03 -0.12840432942E+04  0.18337875681E+04  0.25500000920E-02 0. -1.
       -2    1    3    3    0  502  0.11946173346E+04  0.53562961790E+03 -0.16994109185E+03  0.13201854561E+04  0.25500000920E-02 0.  1.
</event>
<event>
 5   0  0.1394410E-06  0.2815453E+04  0.7818609E-02  0.8298487E-01
       -2   -1    0    0    0  501  0.00000000000E+00  0.00000000000E+00  0.82015296969E+03  0.82015296970E+03  0.25500000920E-02 0. -1.
        2   -1    0    0  501    0  0.00000000000E+00  0.00000000000E+00 -0.24162498867E+04  0.24162498867E+04  0.25500000920E-02 0.  1.
    10030    2    1    2    0    0  0.00000000000E+00  0.00000000000E+00 -0.15960969170E+04  0.32364028564E+04  0.28154534413E+04 0.  0.
        4    1    3    3  502    0  0.26505693349E+03  0.59004583454E+03 -0.22353011073E+04  0.23270113704E+04  0.12699999809E+01 0.  1.
       -4    1    3    3    0  502 -0.26505693349E+03 -0.59004583454E+03  0.63920419034E+03  0.90939148594E+03  0.12699999809E+01 0. -1.
</event>
<event>
 5   0  0.5362952E-07  0.2793884E+04  0.7818609E-02  0.8305170E-01
       -1   -1    0    0    0  501  0.00000000000E+00  0.00000000000E+00  0.15072117814E+04  0.15072117814E+04  0.50400001928E-02 0.  1.
        1   -1    0    0  501    0  0.00000000000E+00  0.00000000000E+00 -0.12947392664E+04  0.12947392664E+04  0.50400001928E-02 0. -1.
    10030    2    1    2    0    0  0.00000000000E+00  0.00000000000E+00  0.21247251506E+03  0.28019510478E+04  0.27938835167E+04 0.  0.
        1    1    3    3  502    0 -0.11094926737E+04  0.54228874846E+03 -0.54863872506E+03  0.13513162214E+04  0.50400001928E-02 0. -1.
       -1    1    3    3    0  502  0.11094926737E+04 -0.54228874846E+03  0.76111124012E+03  0.14506348264E+04  0.50400001928E-02 0.  1.
</event>
<event>
 5   0  0.1461146E-06  0.2799772E+04  0.7818609E-02  0.8303339E-01
        2   -1    0    0  501    0  0.00000000000E+00  0.00000000000E+00  0.16991506068E+04  0.16991506068E+04  0.25500000920E-02 0. -1.
       -2   -1    0    0    0  501  0.00000000000E+00  0.00000000000E+00 -0.11533297321E+04  0.11533297321E+04  0.25500000920E-02 0.  1.
    10030    2    1    2    0    0  0.00000000000E+00  0.00000000000E+00  0.54582087468E+03  0.28524803388E+04  0.27997720722E+04 0.  0.
        1    1    3    3  502    0 -0.98965561910E+03 -0.96726239916E+03  0.48823278216E+03  0.14674420066E+04  0.50400001928E-02 0. -1.
       -1    1    3    3    0  502  0.98965561910E+03  0.96726239916E+03  0.57588092515E+02  0.13850383322E+04  0.50400001928E-02 0.  1.
</event>
<event>
 5   0  0.5214658E-07  0.2713538E+04  0.7818609E-02  0.8330626E-01
       -1   -1    0    0    0  501  0.00000000000E+00  0.00000000000E+00  0.96285113285E+03  0.96285113286E+03  0.50400001928E-02 0. -1.
        1   -1    0    0  501    0  0.00000000000E+00  0.00000000000E+00 -0.19118455214E+04  0.19118455214E+04  0.50400001928E-02 0.  1.
    10030    2    1    2    0    0  0.00000000000E+00  0.00000000000E+00 -0.94899438857E+03  0.28746966543E+04  0.27135383735E+04 0.  0.
        2    1    3    3  502    0  0.49170264865E+03 -0.34609921736E+03 -0.17629818817E+04  0.18627026811E+04  0.25500000920E-02 0.  1.
       -2    1    3    3    0  502 -0.49170264865E+03  0.34609921736E+03  0.81398749309E+03  0.10119939732E+04  0.25500000920E-02 0. -1.
</event>
<event>
 5   0  0.5362952E-07  0.2799618E+04  0.7818609E-02  0.8303387E-01
       -1   -1    0    0    0  501  0.00000000000E+00  0.00000000000E+00  0.75063622688E+03  0.75063622690E+03  0.50400001928E-02 0. -1.
        1   -1    0    0  501    0  0.00000000000E+00  0.00000000000E+00 -0.26104058466E+04  0.26104058466E+04  0.50400001928E-02 0.  1.
    10030    2    1    2    0    0  0.00000000000E+00  0.00000000000E+00 -0.18597696197E+04  0.33610420735E+04  0.27996179706E+04 0.  0.
        1    1    3    3  502    0  0.40752711450E+03 -0.10961198327E+04 -0.18535239737E+04  0.21915994520E+04  0.50400001928E-02 0.  1.
       -1    1    3    3    0  502 -0.40752711450E+03  0.10961198327E+04 -0.62456459652E+01  0.11694426215E+04  0.50400001928E-02 0. -1.
</event>
<event>
 5   0  0.5551565E-07  0.2800009E+04  0.7818609E-02  0.8303265E-01
       -1   -1    0    0    0  501  0.00000000000E+00  0.00000000000E+00  0.14102671798E+04  0.14102671798E+04  0.50400001928E-02 0.  1.
        1   -1    0    0  501    0  0.00000000000E+00  0.00000000000E+00 -0.13898168409E+04  0.13898168410E+04  0.50400001928E-02 0. -1.
    10030    2    1    2    0    0  0.00000000000E+00  0.00000000000E+00  0.20450338807E+02  0.28000840207E+04  0.28000093405E+04 0.  0.
        3    1    3    3  502    0  0.11396664432E+04  0.21649739696E+03  0.79402049407E+03  0.14057664386E+04  0.10100000352E+00 0.  1.
       -3    1    3    3    0  502 -0.11396664432E+04 -0.21649739696E+03 -0.77357015526E+03  0.13943175822E+04  0.10100000352E+00 0. -1.
</event>
<event>
 5   0  0.5362952E-07  0.2800393E+04  0.7818609E-02  0.8303146E-01
        1   -1    0    0  501    0  0.00000000000E+00  0.00000000000E+00  0.19590414381E+04  0.19590414381E+04  0.50400001928E-02 0. -1.
       -1   -1    0    0    0  501  0.00000000000E+00  0.00000000000E+00 -0.10007705288E+04  0.10007705288E+04  0.50400001928E-02 0.  1.
    10030    2    1    2    0    0  0.00000000000E+00  0.00000000000E+00  0.95827090935E+03  0.29598119669E+04  0.28003934980E+04 0.  0.
        1    1    3    3  502    0 -0.37672602670E+03  0.11133644956E+03  0.18996049222E+04  0.19397982278E+04  0.50400001928E-02 0. -1.
       -1    1    3    3    0  502  0.37672602670E+03 -0.11133644956E+03 -0.94133401282E+03  0.10200137391E+04  0.50400001928E-02 0.  1.
</event>
<event>
 5   0  0.5362952E-07  0.2799270E+04  0.7818609E-02  0.8303495E-01
        1   -1    0    0  501    0  0.00000000000E+00  0.00000000000E+00  0.17266032951E+04  0.17266032951E+04  0.50400001928E-02 0. -1.
       -1   -1    0    0    0  501  0.00000000000E+00  0.00000000000E+00 -0.11345851947E+04  0.11345851947E+04  0.50400001928E-02 0.  1.
    10030    2    1    2    0    0  0.00000000000E+00  0.00000000000E+00  0.59201810044E+03  0.28611884898E+04  0.27992702876E+04 0.  0.
        1    1    3    3  502    0 -0.11493328676E+04  0.79744000466E+03  0.34287001070E+03  0.14402904033E+04  0.50400001928E-02 0. -1.
       -1    1    3    3    0  502  0.11493328676E+04 -0.79744000466E+03  0.24914808975E+03  0.14208980865E+04  0.50400001928E-02 0.  1.
</event>
<event>
 5   0  0.5214658E-07  0.2799618E+04  0.7818609E-02  0.8303387E-01
       -1   -1    0    0    0  501  0.00000000000E+00  0.00000000000E+00  0.18682424134E+04  0.18682424134E+04  0.50400001928E-02 0. -1.
        1   -1    0    0  501    0  0.00000000000E+00  0.00000000000E+00 -0.10488278894E+04  0.10488278895E+04  0.50400001928E-02 0.  1.
    10030    2    1    2    0    0  0.00000000000E+00  0.00000000000E+00  0.81941452398E+03  0.29170703029E+04  0.27996176507E+04 0.  0.
        2    1    3    3  502    0  0.42070505302E+03 -0.13010627360E+04  0.97629238788E+02  0.13708714210E+04  0.25500000920E-02 0.  1.
       -2    1    3    3    0  502 -0.42070505302E+03  0.13010627360E+04  0.72178528520E+03  0.15461988819E+04  0.25500000920E-02 0. -1.
</event>
<event>
 5   0  0.5362952E-07  0.2801447E+04  0.7818609E-02  0.8302819E-01
       -1   -1    0    0    0  501  0.00000000000E+00  0.00000000000E+00  0.85300268302E+03  0.85300268304E+03  0.50400001928E-02 0. -1.
        1   -1    0    0  501    0  0.00000000000E+00  0.00000000000E+00 -0.23001407470E+04  0.23001407470E+04  0.50400001928E-02 0.  1.
    10030    2    1    2    0    0  0.00000000000E+00  0.00000000000E+00 -0.14471380640E+04  0.31531434301E+04  0.28014469323E+04 0.  0.
        1    1    3    3  502    0  0.66922387147E+03  0.12064537681E+04 -0.45102317598E+03  0.14514865449E+04  0.50400001928E-02 0.  1.
       -1    1    3    3    0  502 -0.66922387147E+03 -0.12064537681E+04 -0.99611488801E+03  0.17016568852E+04  0.50400001928E-02 0. -1.
</event>
<event>
 5   0  0.1377807E-06  0.2796444E+04  0.7818609E-02  0.8304373E-01
       -2   -1    0    0    0  501  0.00000000000E+00  0.00000000000E+00  0.84709128154E+03  0.84709128154E+03  0.25500000920E-02 0. -1.
        2   -1    0    0  501    0  0.00000000000E+00  0.00000000000E+00 -0.23079275828E+04  0.23079275828E+04  0.25500000920E-02 0.  1.
    10030    2    1    2    0    0  0.00000000000E+00  0.00000000000E+00 -0.14608363013E+04  0.31550188644E+04  0.27964444095E+04 0.  0.
        2    1    3    3  502    0  0.66248761867E+03  0.64221721628E+03 -0.19156950567E+04  0.21263161449E+04  0.25500000920E-02 0.  1.
       -2    1    3    3    0  502 -0.66248761867E+03 -0.64221721628E+03  0.45485875537E+03  0.10287027195E+04  0.25500000920E-02 0. -1.
</event>
<event>
 5   0  0.5214658E-07  0.2791663E+04  0.7818609E-02  0.8305861E-01
       -1   -1    0    0    0  501  0.00000000000E+00  0.00000000000E+00  0.18214770288E+04  0.18214770288E+04  0.50400001928E-02 0. -1.
        1   -1    0    0  501    0  0.00000000000E+00  0.00000000000E+00 -0.10696514397E+04  0.10696514397E+04  0.50400001928E-02 0.  1.
    10030    2    1    2    0    0  0.00000000000E+00  0.00000000000E+00  0.75182558913E+03  0.28911284685E+04  0.27916629641E+04 0.  0.
        2    1    3    3  502    0 -0.43681450487E+03 -0.44104013095E+03 -0.91884036899E+03  0.11088692134E+04  0.25500000920E-02 0.  1.
       -2    1    3    3    0  502  0.43681450487E+03  0.44104013095E+03  0.16706659581E+04  0.17822592551E+04  0.25500000920E-02 0. -1.
</event>
<event>
 5   0  0.5297741E-07  0.2803139E+04  0.7818609E-02  0.8302294E-01
        1   -1    0    0  501    0  0.00000000000E+00  0.00000000000E+00  0.22763166425E+04  0.22763166425E+04  0.50400001928E-02 0. -1.
       -1   -1    0    0    0  501  0.00000000000E+00  0.00000000000E+00 -0.86297186376E+03  0.86297186378E+03  0.50400001928E-02 0.  1.
    10030    2    1    2    0    0  0.00000000000E+00  0.00000000000E+00  0.14133447787E+04  0.31392885063E+04  0.28031391086E+04 0.  0.
        5    1    3    3  502    0 -0.70920290309E+03 -0.78092096495E+03 -0.32679423009E+03  0.11043653698E+04  0.46999998093E+01 0.  1.
       -5    1    3    3    0  502  0.70920290309E+03  0.78092096495E+03  0.17401390088E+04  0.20349231364E+04  0.46999998093E+01 0. -1.
</event>
<event>
 5   0  0.1461146E-06  0.2792008E+04  0.7818609E-02  0.8305754E-01
       -2   -1    0    0    0  501  0.00000000000E+00  0.00000000000E+00  0.74333861076E+03  0.74333861076E+03  0.25500000920E-02 0.  1.
        2   -1    0    0  501    0  0.00000000000E+00  0.00000000000E+00 -0.26217226600E+04  0.26217226600E+04  0.25500000920E-02 0. -1.
    10030    2    1    2    0    0  0.00000000000E+00  0.00000000000E+00 -0.18783840492E+04  0.33650612707E+04  0.27920083666E+04 0.  0.
        1    1    3    3  502    0  0.31452323303E+03  0.69364944459E+03 -0.23492560891E+04  0.24696312656E+04  0.50400001928E-02 0. -1.
       -1    1    3    3    0  502 -0.31452323303E+03 -0.69364944459E+03  0.47087203986E+03  0.89543000510E+03  0.50400001928E-02 0.  1.
</event>
<event>
 5   0  0.1461146E-06  0.2801204E+04  0.7818609E-02  0.8302895E-01
        2   -1    0    0  501    0  0.00000000000E+00  0.00000000000E+00  0.14231430664E+04  0.14231430665E+04  0.25500000920E-02 0.  1.
       -2   -1    0    0    0  501  0.00000000000E+00  0.00000000000E+00 -0.13784182973E+04  0.13784182973E+04  0.25500000920E-02 0. -1.
    10030    2    1    2    0    0  0.00000000000E+00  0.00000000000E+00  0.44724769107E+02  0.28015613638E+04  0.28012043428E+04 0.  0.
        1    1    3    3  502    0 -0.74680955442E+03 -0.11791045772E+03 -0.11567955404E+04  0.13819563339E+04  0.50400001928E-02 0. -1.
       -1    1    3    3    0  502  0.74680955442E+03  0.11791045772E+03  0.12015203095E+04  0.14196050299E+04  0.50400001928E-02 0.  1.
</event>
<event>
 5   0  0.1377807E-06  0.2798374E+04  0.7818609E-02  0.8303773E-01
       -2   -1    0    0    0  501  0.00000000000E+00  0.00000000000E+00  0.12279138293E+04  0.12279138293E+04  0.25500000920E-02 0.  1.
        2   -1    0    0  501    0  0.00000000000E+00  0.00000000000E+00 -0.15943494959E+04  0.15943494959E+04  0.25500000920E-02 0. -1.
    10030    2    1    2    0    0  0.00000000000E+00  0.00000000000E+00 -0.36643566664E+03  0.28222633252E+04  0.27983736667E+04 0.  0.
        2    1    3    3  502    0  0.58284687505E+03 -0.28816263433E+03  0.10663003100E+04  0.12488973275E+04  0.25500000920E-02 0.  1.
       -2    1    3    3    0  502 -0.58284687505E+03  0.28816263433E+03 -0.14327359767E+04  0.15733659976E+04  0.25500000920E-02 0. -1.
</event>
<event>
 5   0  0.1439207E-06  0.2793417E+04  0.7818609E-02  0.8305315E-01
       -2   -1    0    0    0  501  0.00000000000E+00  0.00000000000E+00  0.16747874909E+04  0.16747874909E+04  0.25500000920E-02 0. -1.
        2   -1    0    0  501    0  0.00000000000E+00  0.00000000000E+00 -0.11648016695E+04  0.11648016695E+04  0.25500000920E-02 0.  1.
    10030    2    1    2    0    0  0.00000000000E+00  0.00000000000E+00  0.50998582147E+03  0.28395891604E+04  0.27934174521E+04 0.  0.
        5    1    3    3  502    0  0.46452792976E+03 -0.11701285918E+04 -0.35980621436E+03  0.13093776082E+04  0.46999998093E+01 0.  1.
       -5    1    3    3    0  502 -0.46452792976E+03  0.11701285918E+04  0.86979203583E+03  0.15302115522E+04  0.46999998093E+01 0. -1.
</event>
<event>
 5   0  0.5282098E-07  0.2801510E+04  0.7818609E-02  0.8302800E-01
       -1   -1    0    0    0  501  0.00000000000E+00  0.00000000000E+00  0.13172576573E+04  0.13172576573E+04  0.50400001928E-02 0.  1.
        1   -1    0    0  501    0  0.00000000000E+00  0.00000000000E+00 -0.14895450030E+04  0.14895450031E+04  0.50400001928E-02 0. -1.
    10030    2    1    2    0    0  0.00000000000E+00  0.00000000000E+00 -0.17228734579E+03  0.28068026603E+04  0.28015099936E+04 0.  0.
        4    1    3    3  502    0  0.77777174246E+03 -0.92895108001E+03  0.61820223106E+03  0.13601671235E+04  0.12699999809E+01 0.  1.
       -4    1    3    3    0  502 -0.77777174246E+03  0.92895108001E+03 -0.79048957685E+03  0.14466355368E+04  0.12699999809E+01 0. -1.
</event>
<event>
 5   0  0.1461146E-06  0.2794937E+04  0.7818609E-02  0.8304842E-01
       -2   -1    0    0    0  501  0.00000000000E+00  0.00000000000E+00  0.86375487771E+03  0.86375487771E+03  0.25500000920E-02 0. -1.
        2   -1    0    0  501    0  0.00000000000E+00  0.00000000000E+00 -0.22609636357E+04  0.22609636357E+04  0.25500000920E-02 0.  1.
    10030    2    1    2    0    0  0.00000000000E+00  0.00000000000E+00 -0.13972087580E+04  0.31247185134E+04  0.27949371146E+04 0.  0.
        1    1    3    3  502    0  0.13029570960E+04 -0.36607503898E+03 -0.30937239864E+03  0.13883153134E+04  0.50400001928E-02 0.  1.
       -1    1    3    3    0  502 -0.13029570960E+04  0.36607503898E+03 -0.10878363593E+04  0.17364032000E+04  0.50400001928E-02 0. -1.
</event>
<event>
 5   0  0.5362952E-07  0.2802547E+04  0.7818609E-02  0.8302478E-01
        1   -1    0    0  501    0  0.00000000000E+00  0.00000000000E+00  0.11629370234E+04  0.11629370234E+04  0.50400001928E-02 0. -1.
       -1   -1    0    0    0  501  0.00000000000E+00  0.00000000000E+00 -0.16884550125E+04  0.16884550125E+04  0.50400001928E-02 0.  1.
    10030    2    1    2    0    0  0.00000000000E+00  0.00000000000E+00 -0.52551798914E+03  0.28513920359E+04  0.28025465893E+04 0.  0.
        1    1    3    3  502    0 -0.26068389352E+03 -0.38156144256E+03 -0.16086992986E+04  0.16737558544E+04  0.50400001928E-02 0.  1.
       -1    1    3    3    0  502  0.26068389352E+03  0.38156144256E+03  0.10831813095E+04  0.11776361815E+04  0.50400001928E-02 0. -1.
</event>
<event>
 5   0  0.5214658E-07  0.2790894E+04  0.7818609E-02  0.8306101E-01
       -1   -1    0    0    0  501  0.00000000000E+00  0.00000000000E+00  0.18045603935E+04  0.18045603935E+04  0.50400001928E-02 0. -1.
        1   -1    0    0  501    0  0.00000000000E+00  0.00000000000E+00 -0.10790837326E+04  0.10790837327E+04  0.50400001928E-02 0.  1.
    10030    2    1    2    0    0  0.00000000000E+00  0.00000000000E+00  0.72547666089E+03  0.28836441262E+04  0.27908935954E+04 0.  0.
        2    1    3    3  502    0  0.71136857522E+03  0.29904122369E+03  0.15640473645E+04  0.17440513357E+04  0.25500000920E-02 0. -1.
       -2    1    3    3    0  502 -0.71136857522E+03 -0.29904122369E+03 -0.83857070357E+03  0.11395927905E+04  0.25500000920E-02 0.  1.
</event>
<event>
 5   0  0.5362952E-07  0.2803011E+04  0.7818609E-02  0.8302334E-01
       -1   -1    0    0    0  501  0.00000000000E+00  0.00000000000E+00  0.10456457220E+04  0.10456457220E+04  0.50400001928E-02 0.  1.
        1   -1    0    0  501    0  0.00000000000E+00  0.00000000000E+00 -0.18784730548E+04  0.18784730548E+04  0.50400001928E-02 0. -1.
    10030    2    1    2    0    0  0.00000000000E+00  0.00000000000E+00 -0.83282733274E+03  0.29241187768E+04  0.28030107482E+04 0.  0.
        1    1    3    3  502    0 -0.98010209389E+03 -0.99329910287E+03 -0.28049987892E+03  0.14233493613E+04  0.50400001928E-02 0.  1.
       -1    1    3    3    0  502  0.98010209389E+03  0.99329910287E+03 -0.55232745382E+03  0.15007694155E+04  0.50400001928E-02 0. -1.
</event>
<event>
 5   0  0.5297741E-07  0.2800356E+04  0.7818609E-02  0.8303158E-01
        1   -1    0    0  501    0  0.00000000000E+00  0.00000000000E+00  0.16024532647E+04  0.16024532647E+04  0.50400001928E-02 0. -1.
       -1   -1    0    0    0  501  0.00000000000E+00  0.00000000000E+00 -0.12234354773E+04  0.12234354773E+04  0.50400001928E-02 0.  1.
    10030    2    1    2    0    0  0.00000000000E+00  0.00000000000E+00  0.37901778732E+03  0.28258887420E+04  0.28003558165E+04 0.  0.
        5    1    3    3  502    0 -0.12631230861E+04  0.43189687241E+03  0.61580739165E+03  0.14701209721E+04  0.46999998093E+01 0. -1.
       -5    1    3    3    0  502  0.12631230861E+04 -0.43189687241E+03 -0.23678960433E+03  0.13557677699E+04  0.46999998093E+01 0.  1.
</event>
<event>
 5   0  0.5214658E-07  0.2803006E+04  0.7818609E-02  0.8302336E-01
        1   -1    0    0  501    0  0.00000000000E+00  0.00000000000E+00  0.16315138135E+04  0.16315138135E+04  0.50400001928E-02 0.  1.
       -1   -1    0    0    0  501  0.00000000000E+00  0.00000000000E+00 -0.12039193065E+04  0.12039193065E+04  0.50400001928E-02 0. -1.
    10030    2    1    2    0    0  0.00000000000E+00  0.00000000000E+00  0.42759450695E+03  0.28354331200E+04  0.28030062283E+04 0.  0.
        2    1    3    3  502    0 -0.63163830843E+03 -0.12091187667E+04 -0.11128607760E+03  0.13686927105E+04  0.25500000920E-02 0.  1.
       -2    1    3    3    0  502  0.63163830843E+03  0.12091187667E+04  0.53888058456E+03  0.14667404096E+04  0.25500000920E-02 0. -1.
</event>
<event>
 5   0  0.1461146E-06  0.2798186E+04  0.7818609E-02  0.8303832E-01
        2   -1    0    0  501    0  0.00000000000E+00  0.00000000000E+00  0.22010941734E+04  0.22010941734E+04  0.25500000920E-02 0.  1.
       -2   -1    0    0    0  501  0.00000000000E+00  0.00000000000E+00 -0.88931294437E+03  0.88931294437E+03  0.25500000920E-02 0. -1.
    10030    2    1    2    0    0  0.00000000000E+00  0.00000000000E+00  0.13117812291E+04  0.30904071178E+04  0.27981862270E+04 0.  0.
        1    1    3    3  502    0 -0.33791798774E+02 -0.13532568080E+04  0.26539037875E+03  0.13794484141E+04  0.50400001928E-02 0. -1.
       -1    1    3    3    0  502  0.33791798774E+02  0.13532568080E+04  0.10463908503E+04  0.17109587037E+04  0.50400001928E-02 0.  1.
</event>
<event>
 5   0  0.1499888E-06  0.2806266E+04  0.7818609E-02  0.8301326E-01
        2   -1    0    0  501    0  0.00000000000E+00  0.00000000000E+00  0.19089532618E+04  0.19089532618E+04  0.25500000920E-02 0.  1.
       -2   -1    0    0    0  501  0.00000000000E+00  0.00000000000E+00 -0.10313414441E+04  0.10313414441E+04  0.25500000920E-02 0. -1.
    10030    2    1    2    0    0  0.00000000000E+00  0.00000000000E+00  0.87761181773E+03  0.29402947059E+04  0.28062662836E+04 0.  0.
        3    1    3    3  502    0 -0.51608012995E+03 -0.15389858415E+03 -0.91874516368E+03  0.10649489005E+04  0.10100000352E+00 0. -1.
       -3    1    3    3    0  502  0.51608012995E+03  0.15389858415E+03  0.17963569814E+04  0.18753458053E+04  0.10100000352E+00 0.  1.
</event>
<event>
 5   0  0.5362952E-07  0.2797857E+04  0.7818609E-02  0.8303934E-01
       -1   -1    0    0    0  501  0.00000000000E+00  0.00000000000E+00  0.17628398355E+04  0.17628398355E+04  0.50400001928E-02 0.  1.
        1   -1    0    0  501    0  0.00000000000E+00  0.00000000000E+00 -0.11101411390E+04  0.11101411390E+04  0.50400001928E-02 0. -1.
    10030    2    1    2    0    0  0.00000000000E+00  0.00000000000E+00  0.65269869649E+03  0.28729809746E+04  0.27978570535E+04 0.  0.
        1    1    3    3  502    0  0.80357948560E+02  0.10525554210E+04 -0.61626962502E+03  0.12223414273E+04  0.50400001928E-02 0. -1.
       -1    1    3    3    0  502 -0.80357948560E+02 -0.10525554210E+04  0.12689683215E+04  0.16506395473E+04  0.50400001928E-02 0.  1.
</event>
<event>
 5   0  0.5214658E-07  0.2805978E+04  0.7818609E-02  0.8301415E-01
        1   -1    0    0  501    0  0.00000000000E+00  0.00000000000E+00  0.19580651800E+04  0.19580651800E+04  0.50400001928E-02 0. -1.
       -1   -1    0    0    0  501  0.00000000000E+00  0.00000000000E+00 -0.10052665524E+04  0.10052665524E+04  0.50400001928E-02 0.  1.
    10030    2    1    2    0    0  0.00000000000E+00  0.00000000000E+00  0.95279862759E+03  0.29633317325E+04  0.28059775003E+04 0.  0.
        2    1    3    3  502    0 -0.10535976961E+04  0.85832175069E+03  0.10814270219E+03  0.13632604949E+04  0.25500000920E-02 0. -1.
       -2    1    3    3    0  502  0.10535976961E+04 -0.85832175069E+03  0.84465592540E+03  0.16000712376E+04  0.25500000920E-02 0.  1.
</event>
<event>
 5   0  0.5362952E-07  0.2798143E+04  0.7818609E-02  0.8303845E-01
       -1   -1    0    0    0  501  0.00000000000E+00  0.00000000000E+00  0.22523677558E+04  0.22523677558E+04  0.50400001928E-02 0.  1.
        1   -1    0    0  501    0  0.00000000000E+00  0.00000000000E+00 -0.86904163385E+03  0.86904163386E+03  0.50400001928E-02 0. -1.
    10030    2    1    2    0    0  0.00000000000E+00  0.00000000000E+00  0.13833261219E+04  0.31214093897E+04  0.27981432090E+04 0.  0.
        1    1    3    3  502    0  0.68748685797E+02  0.12169691868E+04  0.14577812351E+04  0.19002280160E+04  0.50400001928E-02 0.  1.
       -1    1    3    3    0  502 -0.68748685797E+02 -0.12169691868E+04 -0.74455113137E+02  0.12211813736E+04  0.50400001928E-02 0. -1.
</event>
<event>
 5   0  0.5282098E-07  0.2798052E+04  0.7818609E-02  0.8303874E-01
       -1   -1    0    0    0  501  0.00000000000E+00  0.00000000000E+00  0.10391264388E+04  0.10391264389E+04  0.50400001928E-02 0. -1.
        1   -1    0    0  501    0  0.00000000000E+00  0.00000000000E+00 -0.18835755269E+04  0.18835755269E+04  0.50400001928E-02 0.  1.
    10030    2    1    2    0    0  0.00000000000E+00  0.00000000000E+00 -0.84444908804E+03  0.29227019657E+04  0.27980515575E+04 0.  0.
        4    1    3    3  502    0  0.55990989046E+03 -0.12416989784E+04 -0.88694177946E+02  0.13649848748E+04  0.12699999809E+01 0. -1.
       -4    1    3    3    0  502 -0.55990989046E+03  0.12416989784E+04 -0.75575491009E+03  0.15577170909E+04  0.12699999809E+01 0.  1.
</event>
<event>
 5   0  0.5551565E-07  0.2798725E+04  0.7818609E-02  0.8303664E-01
        1   -1    0    0  501    0  0.00000000000E+00  0.00000000000E+00  0.16021740719E+04  0.16021740719E+04  0.50400001928E-02 0. -1.
       -1   -1    0    0    0  501  0.00000000000E+00  0.00000000000E+00 -0.12222238943E+04  0.12222238944E+04  0.50400001928E-02 0.  1.
    10030    2    1    2    0    0  0.00000000000E+00  0.00000000000E+00  0.37995017755E+03  0.28243979663E+04  0.27987250194E+04 0.  0.
        3    1    3    3  502    0  0.10981012023E+04  0.80511971217E+03 -0.13574155891E+03  0.13683821770E+04  0.10100000352E+00 0.  1.
       -3    1    3    3    0  502 -0.10981012023E+04 -0.80511971217E+03  0.51569173647E+03  0.14560157893E+04  0.10100000352E+00 0. -1.
</event>
<event>
 5   0  0.1461146E-06  0.2803392E+04  0.7818609E-02  0.8302216E-01
       -2   -1    0    0    0  501  0.00000000000E+00  0.00000000000E+00  0.99673102063E+03  0.99673102064E+03  0.25500000920E-02 0. -1.
        2   -1    0    0  501    0  0.00000000000E+00  0.00000000000E+00 -0.19711953010E+04  0.19711953010E+04  0.25500000920E-02 0.  1.
    10030    2    1    2    0    0  0.00000000000E+00  0.00000000000E+00 -0.97446428038E+03  0.29679263217E+04  0.28033918772E+04 0.  0.
        1    1    3    3  502    0 -0.13003264226E+04 -0.21819739278E+03  0.16389609937E+02  0.13186081779E+04  0.50400001928E-02 0. -1.
       -1    1    3    3    0  502  0.13003264226E+04  0.21819739278E+03 -0.99085389032E+03  0.16493181438E+04  0.50400001928E-02 0.  1.
</event>
<event>
 5   0  0.5297741E-07  0.2801037E+04  0.7818609E-02  0.8302947E-01
        1   -1    0    0  501    0  0.00000000000E+00  0.00000000000E+00  0.20636418686E+04  0.20636418687E+04  0.50400001928E-02 0.  1.
       -1   -1    0    0    0  501  0.00000000000E+00  0.00000000000E+00 -0.95048070147E+03  0.95048070148E+03  0.50400001928E-02 0. -1.
    10030    2    1    2    0    0  0.00000000000E+00  0.00000000000E+00  0.11131611672E+04  0.30141225701E+04  0.28010367873E+04 0.  0.
        5    1    3    3  502    0  0.12336381200E+04 -0.57440945339E+02 -0.15417189267E+03  0.12445696187E+04  0.46999998093E+01 0. -1.
       -5    1    3    3    0  502 -0.12336381200E+04  0.57440945339E+02  0.12673330598E+04  0.17695529514E+04  0.46999998093E+01 0.  1.
</event>
<event>
 5   0  0.1377807E-06  0.2805642E+04  0.7818609E-02  0.8301519E-01
       -2   -1    0    0    0  501  0.00000000000E+00  0.00000000000E+00  0.14396974885E+04  0.14396974885E+04  0.25500000920E-02 0. -1.
        2   -1    0    0  501    0  0.00000000000E+00  0.00000000000E+00 -0.13668886494E+04  0.13668886494E+04  0.25500000920E-02 0.  1.
    10030    2    1    2    0    0  0.00000000000E+00  0.00000000000E+00  0.72808839074E+02  0.28065861378E+04  0.28056415705E+04 0.  0.
        2    1    3    3  502    0  0.11759950429E+04  0.29065799013E+03  0.74407438556E+03  0.14216515394E+04  0.25500000920E-02 0. -1.
       -2    1    3    3    0  502 -0.11759950429E+04 -0.29065799013E+03 -0.67126554648E+03  0.13849345985E+04  0.25500000920E-02 0.  1.
</event>
<event>
 5   0  0.5282098E-07  0.2799842E+04  0.7818609E-02  0.8303317E-01
        1   -1    0    0  501    0  0.00000000000E+00  0.00000000000E+00  0.25081437552E+04  0.25081437552E+04  0.50400001928E-02 0.  1.
       -1   -1    0    0    0  501  0.00000000000E+00  0.00000000000E+00 -0.78136612113E+03  0.78136612114E+03  0.50400001928E-02 0. -1.
    10030    2    1    2    0    0  0.00000000000E+00  0.00000000000E+00  0.17267776341E+04  0.32895098764E+04  0.27998418222E+04 0.  0.
        4    1    3    3  502    0 -0.90102768045E+03  0.33437503088E+03 -0.33253248399E+03  0.10169744382E+04  0.12699999809E+01 0. -1.
       -4    1    3    3    0  502  0.90102768045E+03 -0.33437503088E+03  0.20593101181E+04  0.22725354382E+04  0.12699999809E+01 0.  1.
</event>
<event>
 5   0  0.1499888E-06  0.2797984E+04  0.7818609E-02  0.8303894E-01
        2   -1    0    0  501    0  0.00000000000E+00  0.00000000000E+00  0.99767393791E+03  0.99767393791E+03  0.25500000920E-02 0.  1.
       -2   -1    0    0    0  501  0.00000000000E+00  0.00000000000E+00 -0.19617422727E+04  0.19617422727E+04  0.25500000920E-02 0. -1.
    10030    2    1    2    0    0  0.00000000000E+00  0.00000000000E+00 -0.96406833481E+03  0.29594162106E+04  0.27979843734E+04 0.  0.
        3    1    3    3  502    0  0.97917510680E+03 -0.74778042538E+03  0.21893942350E+03  0.12513568379E+04  0.10100000352E+00 0. -1.
       -3    1    3    3    0  502 -0.97917510680E+03  0.74778042538E+03 -0.11830077583E+04  0.17080593727E+04  0.10100000352E+00 0.  1.
</event>
<event>
 5   0  0.5362952E-07  0.2796694E+04  0.7818609E-02  0.8304296E-01
       -1   -1    0    0    0  501  0.00000000000E+00  0.00000000000E+00  0.22145967533E+04  0.22145967533E+04  0.50400001928E-02 0.  1.
        1   -1    0    0  501    0  0.00000000000E+00  0.00000000000E+00 -0.88294800280E+03  0.88294800282E+03  0.50400001928E-02 0. -1.
    10030    2    1    2    0    0  0.00000000000E+00  0.00000000000E+00  0.13316487505E+04  0.30975447561E+04  0.27966936052E+04 0.  0.
        1    1    3    3  502    0 -0.13035858848E+04 -0.48515007485E+03  0.82504953529E+03  0.16172240074E+04  0.50400001928E-02 0. -1.
       -1    1    3    3    0  502  0.13035858848E+04  0.48515007485E+03  0.50659921521E+03  0.14803207487E+04  0.50400001928E-02 0.  1.
</event>
<event>
 5   0  0.1499888E-06  0.2802271E+04  0.7818609E-02  0.8302564E-01
        2   -1    0    0  501    0  0.00000000000E+00  0.00000000000E+00  0.15856540008E+04  0.15856540008E+04  0.25500000920E-02 0. -1.
       -2   -1    0    0    0  501  0.00000000000E+00  0.00000000000E+00 -0.12380889366E+04  0.12380889366E+04  0.25500000920E-02 0.  1.
    10030    2    1    2    0    0  0.00000000000E+00  0.00000000000E+00  0.34756506420E+03  0.28237429375E+04  0.28022709903E+04 0.  0.
        3    1    3    3  502    0 -0.55515678284E+03  0.67211266270E+03 -0.93154827022E+03  0.12758200010E+04  0.10100000352E+00 0.  1.
       -3    1    3    3    0  502  0.55515678284E+03 -0.67211266270E+03  0.12791133344E+04  0.15479229365E+04  0.10100000352E+00 0. -1.
</event>
<event>
 5   0  0.5551565E-07  0.2842110E+04  0.7818609E-02  0.8290313E-01
        1   -1    0    0  501    0  0.00000000000E+00  0.00000000000E+00  0.15709388524E+04  0.15709388524E+04  0.50400001928E-02 0.  1.
       -1   -1    0    0    0  501  0.00000000000E+00  0.00000000000E+00 -0.12854716464E+04  0.12854716464E+04  0.50400001928E-02 0. -1.
    10030    2    1    2    0    0  0.00000000000E+00  0.00000000000E+00  0.28546720601E+03  0.28564104988E+04  0.28421100281E+04 0.  0.
        3    1    3    3  502    0  0.66625886734E+03 -0.11270844098E+04  0.69794167823E+03  0.14836922664E+04  0.10100000352E+00 0.  1.
       -3    1    3    3    0  502 -0.66625886734E+03  0.11270844098E+04 -0.41247447222E+03  0.13727182324E+04  0.10100000352E+00 0. -1.
</event>
<event>
 5   0  0.5297741E-07  0.2787303E+04  0.7818609E-02  0.8307221E-01
       -1   -1    0    0    0  501  0.00000000000E+00  0.00000000000E+00  0.13105263047E+04  0.13105263047E+04  0.50400001928E-02 0. -1.
        1   -1    0    0  501    0  0.00000000000E+00  0.00000000000E+00 -0.14820492438E+04  0.14820492438E+04  0.50400001928E-02 0.  1.
    10030    2    1    2    0    0  0.00000000000E+00  0.00000000000E+00 -0.17152293915E+03  0.27925755485E+04  0.27873030110E+04 0.  0.
        5    1    3    3  502    0 -0.65665429360E+03  0.72994283138E+03 -0.10766880194E+04  0.14571515294E+04  0.46999998093E+01 0.  1.
       -5    1    3    3    0  502  0.65665429360E+03 -0.72994283138E+03  0.90516508025E+03  0.13354240191E+04  0.46999998093E+01 0. -1.
</event>
<event>
 5   0  0.5551565E-07  0.2807235E+04  0.7818609E-02  0.8301026E-01
        1   -1    0    0  501    0  0.00000000000E+00  0.00000000000E+00  0.19310530973E+04  0.19310530973E+04  0.50400001928E-02 0. -1.
       -1   -1    0    0    0  501  0.00000000000E+00  0.00000000000E+00 -0.10202423113E+04  0.10202423113E+04  0.50400001928E-02 0.  1.
    10030    2    1    2    0    0  0.00000000000E+00  0.00000000000E+00  0.91081078598E+03  0.29512954086E+04  0.28072349921E+04 0.  0.
        3    1    3    3  502    0 -0.50511981783E+03 -0.50473196976E+03  0.17258223524E+04  0.18677160367E+04  0.10100000352E+00 0. -1.
       -3    1    3    3    0  502  0.50511981783E+03  0.50473196976E+03 -0.81501156638E+03  0.10835793719E+04  0.10100000352E+00 0.  1.
</event>
<event>
 5   0  0.1439207E-06  0.2800346E+04  0.7818609E-02  0.8303161E-01
        2   -1    0    0  501    0  0.00000000000E+00  0.00000000000E+00  0.18691240962E+04  0.18691240962E+04  0.25500000920E-02 0.  1.
       -2   -1    0    0    0  501  0.00000000000E+00  0.00000000000E+00 -0.10488787336E+04  0.10488787336E+04  0.25500000920E-02 0. -1.
    10030    2    1    2    0    0  0.00000000000E+00  0.00000000000E+00  0.82024536263E+03  0.29180028299E+04  0.28003460608E+04 0.  0.
        5    1    3    3  502    0 -0.88225307209E+03  0.26819219133E+03 -0.68778986778E+03  0.11503801663E+04  0.46999998093E+01 0. -1.
       -5    1    3    3    0  502  0.88225307209E+03 -0.26819219133E+03  0.15080352304E+04  0.17676226636E+04  0.46999998093E+01 0.  1.
</event>
<event>
 5   0  0.1461146E-06  0.2799010E+04  0.7818609E-02  0.8303576E-01
        2   -1    0    0  501    0  0.00000000000E+00  0.00000000000E+00  0.11496424526E+04  0.11496424526E+04  0.25500000920E-02 0.  1.
       -2   -1    0    0    0  501  0.00000000000E+00  0.00000000000E+00 -0.17036727848E+04  0.17036727848E+04  0.25500000920E-02 0. -1.
    10030    2    1    2    0    0  0.00000000000E+00  0.00000000000E+00 -0.55403033224E+03  0.28533152374E+04  0.27990102242E+04 0.  0.
        1    1    3    3  502    0 -0.44898404910E+03  0.12973725397E+04  0.15282740381E-01  0.13728664114E+04  0.50400001928E-02 0. -1.
       -1    1    3    3    0  502  0.44898404910E+03 -0.12973725397E+04 -0.55404561498E+03  0.14804488261E+04  0.50400001928E-02 0.  1.
</event>
<event>
 5   0  0.1461146E-06  0.2791280E+04  0.7818609E-02  0.8305981E-01
        2   -1    0    0  501    0  0.00000000000E+00  0.00000000000E+00  0.17691010753E+04  0.17691010753E+04  0.25500000920E-02 0.  1.
       -2   -1    0    0    0  501  0.00000000000E+00  0.00000000000E+00 -0.11010175191E+04  0.11010175191E+04  0.25500000920E-02 0. -1.
    10030    2    1    2    0    0  0.00000000000E+00  0.00000000000E+00  0.66808355623E+03  0.28701185944E+04  0.27912801915E+04 0.  0.
        1    1    3    3  502    0  0.74658330781E+03 -0.42013238922E+03  0.14669383548E+04  0.16987660218E+04  0.50400001928E-02 0.  1.
       -1    1    3    3    0  502 -0.74658330781E+03  0.42013238922E+03 -0.79885479861E+03  0.11713525726E+04  0.50400001928E-02 0. -1.
</event>
<event>
 5   0  0.5214658E-07  0.2796465E+04  0.7818609E-02  0.8304367E-01
        1   -1    0    0  501    0  0.00000000000E+00  0.00000000000E+00  0.20117575770E+04  0.20117575770E+04  0.50400001928E-02 0. -1.
       -1   -1    0    0    0  501  0.00000000000E+00  0.00000000000E+00 -0.97181376358E+03  0.97181376359E+03  0.50400001928E-02 0.  1.
    10030    2    1    2    0    0  0.00000000000E+00  0.00000000000E+00  0.10399438134E+04  0.29835713406E+04  0.27964646984E+04 0.  0.
        2    1    3    3  502    0 -0.70336743361E+03 -0.72397234456E+03  0.15522805136E+04  0.18516037630E+04  0.25500000920E-02 0. -1.
       -2    1    3    3    0  502  0.70336743361E+03  0.72397234456E+03 -0.51233670017E+03  0.11319675776E+04  0.25500000920E-02 0.  1.
</event>
<event>
 5   0  0.5214658E-07  0.2800741E+04  0.7818609E-02  0.8303038E-01
       -1   -1    0    0    0  501  0.00000000000E+00  0.00000000000E+00  0.14187825907E+04  0.14187825907E+04  0.50400001928E-02 0. -1.
        1   -1    0    0  501    0  0.00000000000E+00  0.00000000000E+00 -0.13821974380E+04  0.13821974380E+04  0.50400001928E-02 0.  1.
    10030    2    1    2    0    0  0.00000000000E+00  0.00000000000E+00  0.36585152655E+02  0.28009800287E+04  0.28007410890E+04 0.  0.
        2    1    3    3  502    0  0.39741257275E+03 -0.11692617099E+04  0.67859731401E+03  0.14091146205E+04  0.25500000920E-02 0.  1.
       -2    1    3    3    0  502 -0.39741257275E+03  0.11692617099E+04 -0.64201216136E+03  0.13918654082E+04  0.25500000920E-02 0. -1.
</event>
<event>
 5   0  0.1377807E-06  0.2800566E+04  0.7818609E-02  0.8303093E-01
       -2   -1    0    0    0  501  0.00000000000E+00  0.00000000000E+00  0.93535294546E+03  0.93535294546E+03  0.25500000920E-02 0.  1.
        2   -1    0    0  501    0  0.00000000000E+00  0.00000000000E+00 -0.20963133044E+04  0.20963133044E+04  0.25500000920E-02 0. -1.
    10030    2    1    2    0    0  0.00000000000E+00  0.00000000000E+00 -0.11609603589E+04  0.30316662499E+04  0.28005662455E+04 0.  0.
        2    1    3    3  502    0 -0.18459210672E+03 -0.10173384397E+04  0.44176465604E+03  0.11243699382E+04  0.25500000920E-02 0.  1.
       -2    1    3    3    0  502  0.18459210672E+03  0.10173384397E+04 -0.16027250150E+04  0.19072963116E+04  0.25500000920E-02 0. -1.
</event>
<event>
 5   0  0.5297741E-07  0.2808661E+04  0.7818609E-02  0.8300584E-01
       -1   -1    0    0    0  501  0.00000000000E+00  0.00000000000E+00  0.24276249708E+04  0.24276249708E+04  0.50400001928E-02 0. -1.
        1   -1    0    0  501    0  0.00000000000E+00  0.00000000000E+00 -0.81237605004E+03  0.81237605006E+03  0.50400001928E-02 0.  1.
    10030    2    1    2    0    0  0.00000000000E+00  0.00000000000E+00  0.16152489207E+04  0.32400010208E+04  0.28086611649E+04 0.  0.
        5    1    3    3  502    0 -0.47823838906E+03 -0.11885797990E+04  0.14425529973E+03  0.12892887872E+04  0.46999998093E+01 0.  1.
       -5    1    3    3    0  502  0.47823838906E+03  0.11885797990E+04  0.14709936210E+04  0.19507122336E+04  0.46999998093E+01 0. -1.
</event>
<event>
 5   0  0.5282098E-07  0.2790063E+04  0.7818609E-02  0.8306360E-01
       -1   -1    0    0    0  501  0.00000000000E+00  0.00000000000E+00  0.12535152765E+04  0.12535152765E+04  0.50400001928E-02 0. -1.
        1   -1    0    0  501    0  0.00000000000E+00  0.00000000000E+00 -0.15525241321E+04  0.15525241321E+04  0.50400001928E-02 0.  1.
    10030    2    1    2    0    0  0.00000000000E+00  0.00000000000E+00 -0.29900885555E+03  0.28060394086E+04  0.27900628787E+04 0.  0.
        4    1    3    3  502    0 -0.75868892031E+03 -0.93793130539E+03 -0.85407798711E+03  0.14780983839E+04  0.12699999809E+01 0.  1.
       -4    1    3    3    0  502  0.75868892031E+03  0.93793130539E+03  0.55506913156E+03  0.13279410247E+04  0.12699999809E+01 0. -1.
</event>
<event>
 5   0  0.5551565E-07  0.2792235E+04  0.7818609E-02  0.8305683E-01
        1   -1    0    0  501    0  0.00000000000E+00  0.00000000000E+00  0.19078114778E+04  0.19078114778E+04  0.50400001928E-02 0. -1.
       -1   -1    0    0    0  501  0.00000000000E+00  0.00000000000E+00 -0.10216647024E+04  0.10216647025E+04  0.50400001928E-02 0.  1.
    10030    2    1    2    0    0  0.00000000000E+00  0.00000000000E+00  0.88614677535E+03  0.29294761803E+04  0.27922346934E+04 0.  0.
        3    1    3    3  502    0 -0.13411532237E+04  0.38713214123E+03  0.41779839252E+03  0.14570925747E+04  0.10100000352E+00 0.  1.
       -3    1    3    3    0  502  0.13411532237E+04 -0.38713214123E+03  0.46834838283E+03  0.14723836056E+04  0.10100000352E+00 0. -1.
</event>
<event>
 5   0  0.5297741E-07  0.2803753E+04  0.7818609E-02  0.8302104E-01
       -1   -1    0    0    0  501  0.00000000000E+00  0.00000000000E+00  0.12133028014E+04  0.12133028014E+04  0.50400001928E-02 0. -1.
        1   -1    0    0  501    0  0.00000000000E+00  0.00000000000E+00 -0.16197581050E+04  0.16197581050E+04  0.50400001928E-02 0.  1.
    10030    2    1    2    0    0  0.00000000000E+00  0.00000000000E+00 -0.40645530365E+03  0.28330609064E+04  0.28037525186E+04 0.  0.
        5    1    3    3  502    0 -0.13120073084E+04 -0.99098341154E+02 -0.69207330918E+03  0.14866644590E+04  0.46999998093E+01 0.  1.
       -5    1    3    3    0  502  0.13120073084E+04  0.99098341154E+02  0.28561800553E+03  0.13463964474E+04  0.46999998093E+01 0. -1.
</event>
<event>
 5   0  0.1377807E-06  0.2801507E+04  0.7818609E-02  0.8302801E-01
        2   -1    0    0  501    0  0.00000000000E+00  0.00000000000E+00  0.24875831518E+04  0.24875831518E+04  0.25500000920E-02 0.  1.
       -2   -1    0    0    0  501  0.00000000000E+00  0.00000000000E+00 -0.78876172743E+03  0.78876172743E+03  0.25500000920E-02 0. -1.
    10030    2    1    2    0    0  0.00000000000E+00  0.00000000000E+00  0.16988214244E+04  0.32763448792E+04  0.28015070115E+04 0.  0.
        2    1    3    3  502    0  0.10387472353E+04 -0.26102631847E+03 -0.20636417184E+03  0.10907413668E+04  0.25500000920E-02 0. -1.
       -2    1    3    3    0  502 -0.10387472353E+04  0.26102631847E+03  0.19051855962E+04  0.21856035125E+04  0.25500000920E-02 0.  1.
</event>
<event>
 5   0  0.1377807E-06  0.2813676E+04  0.7818609E-02  0.8299035E-01
       -2   -1    0    0    0  501  0.00000000000E+00  0.00000000000E+00  0.10514607180E+04  0.10514607180E+04  0.25500000920E-02 0. -1.
        2   -1    0    0  501    0  0.00000000000E+00  0.00000000000E+00 -0.18823272123E+04  0.18823272123E+04  0.25500000920E-02 0.  1.
    10030    2    1    2    0    0  0.00000000000E+00  0.00000000000E+00 -0.83086649433E+03  0.29337879303E+04  0.28136759743E+04 0.  0.
        2    1    3    3  502    0  0.98494154367E+03 -0.42885433304E+03 -0.13625982087E+04  0.17351368136E+04  0.25500000920E-02 0.  1.
       -2    1    3    3    0  502 -0.98494154367E+03  0.42885433304E+03  0.53173171441E+03  0.11986511167E+04  0.25500000920E-02 0. -1.
</event>
<event>
 5   0  0.5282098E-07  0.2798056E+04  0.7818609E-02  0.8303872E-01
        1   -1    0    0  501    0  0.00000000000E+00  0.00000000000E+00  0.16501213962E+04  0.16501213962E+04  0.50400001928E-02 0.  1.
       -1   -1    0    0    0  501  0.00000000000E+00  0.00000000000E+00 -0.11861427258E+04  0.11861427259E+04  0.50400001928E-02 0. -1.
    10030    2    1    2    0    0  0.00000000000E+00  0.00000000000E+00  0.46397867032E+03  0.28362641220E+04  0.27980561044E+04 0.  0.
        4    1    3    3  502    0  0.12769341635E+04  0.54486425433E+03  0.56888021581E+02  0.13894875938E+04  0.12699999809E+01 0. -1.
       -4    1    3    3    0  502 -0.12769341635E+04 -0.54486425433E+03  0.40709064874E+03  0.14467765282E+04  0.12699999809E+01 0.  1.
</event>
<event>
 5   0  0.5362952E-07  0.2800417E+04  0.7818609E-02  0.8303139E-01
       -1   -1    0    0    0  501  0.00000000000E+00  0.00000000000E+00  0.16530668987E+04  0.16530668987E+04  0.50400001928E-02 0. -1.
        1   -1    0    0  501    0  0.00000000000E+00  0.00000000000E+00 -0.11860283100E+04  0.11860283100E+04  0.50400001928E-02 0.  1.
    10030    2    1    2    0    0  0.00000000000E+00  0.00000000000E+00  0.46703858874E+03  0.28390952087E+04  0.28004172119E+04 0.  0.
        1    1    3    3  502    0 -0.90177732090E+03 -0.68997435099E+03  0.10641751011E+04  0.15561926575E+04  0.50400001928E-02 0. -1.
       -1    1    3    3    0  502  0.90177732090E+03  0.68997435099E+03 -0.59713651236E+03  0.12829025512E+04  0.50400001928E-02 0.  1.
</event>
<event>
 5   0  0.5362952E-07  0.2802713E+04  0.7818609E-02  0.8302427E-01
        1   -1    0    0  501    0  0.00000000000E+00  0.00000000000E+00  0.10482558599E+04  0.10482558599E+04  0.50400001928E-02 0.  1.
       -1   -1    0    0    0  501  0.00000000000E+00  0.00000000000E+00 -0.18733970915E+04  0.18733970915E+04  0.50400001928E-02 0. -1.
    10030    2    1    2    0    0  0.00000000000E+00  0.00000000000E+00 -0.82514123159E+03  0.29216529514E+04  0.28027125997E+04 0.  0.
        1    1    3    3  502    0  0.78958243804E+03 -0.83231613433E+03 -0.12514634160E+04  0.16977488788E+04  0.50400001928E-02 0. -1.
       -1    1    3    3    0  502 -0.78958243804E+03  0.83231613433E+03  0.42632218439E+03  0.12239040726E+04  0.50400001928E-02 0.  1.
</event>
<event>
 5   0  0.5297741E-07  0.2796458E+04  0.7818609E-02  0.8304369E-01
       -1   -1    0    0    0  501  0.00000000000E+00  0.00000000000E+00  0.84363216806E+03  0.84363216807E+03  0.50400001928E-02 0. -1.
        1   -1    0    0  501    0  0.00000000000E+00  0.00000000000E+00 -0.23174139538E+04  0.23174139538E+04  0.50400001928E-02 0.  1.
    10030    2    1    2    0    0  0.00000000000E+00  0.00000000000E+00 -0.14737817858E+04  0.31610461219E+04  0.27964584447E+04 0.  0.
        5    1    3    3  502    0 -0.27566721361E+03  0.10381320053E+04  0.27497601465E+03  0.11087580311E+04  0.46999998093E+01 0. -1.
       -5    1    3    3    0  502  0.27566721361E+03 -0.10381320053E+04 -0.17487578004E+04  0.20522880908E+04  0.46999998093E+01 0.  1.
</event>
<event>
 5   0  0.1394410E-06  0.2801389E+04  0.7818609E-02  0.8302837E-01
        2   -1    0    0  501    0  0.00000000000E+00  0.00000000000E+00  0.18142943805E+04  0.18142943805E+04  0.25500000920E-02 0.  1.
       -2   -1    0    0    0  501  0.00000000000E+00  0.00000000000E+00 -0.10813822265E+04  0.10813822265E+04  0.25500000920E-02 0. -1.
    10030    2    1    2    0    0  0.00000000000E+00  0.00000000000E+00  0.73291215395E+03  0.28956766070E+04  0.28013894387E+04 0.  0.
        4    1    3    3  502    0  0.44765065550E+03  0.43462802089E+03 -0.92980598792E+03  0.11197470312E+04  0.12699999809E+01 0. -1.
       -4    1    3    3    0  502 -0.44765065550E+03 -0.43462802089E+03  0.16627181419E+04  0.17759295758E+04  0.12699999809E+01 0.  1.
</event>
<event>
 5   0  0.1499888E-06  0.2806101E+04  0.7818609E-02  0.8301377E-01
        2   -1    0    0  501    0  0.00000000000E+00  0.00000000000E+00  0.22940949704E+04  0.22940949704E+04  0.25500000920E-02 0. -1.
       -2   -1    0    0    0  501  0.00000000000E+00  0.00000000000E+00 -0.85809449222E+03  0.85809449222E+03  0.25500000920E-02 0.  1.
    10030    2    1    2    0    0  0.00000000000E+00  0.00000000000E+00  0.14360004782E+04  0.31521894626E+04  0.28061006816E+04 0.  0.
        3    1    3    3  502    0  0.34875809027E+03  0.22641484897E+03  0.22232911376E+04  0.22618398224E+04  0.10100000352E+00 0. -1.
       -3    1    3    3    0  502 -0.34875809027E+03 -0.22641484897E+03 -0.78729065939E+03  0.89034964027E+03  0.10100000352E+00 0.  1.
</event>
<event>
 5   0  0.1461146E-06  0.2804756E+04  0.7818609E-02  0.8301793E-01
        2   -1    0    0  501    0  0.00000000000E+00  0.00000000000E+00  0.21248231614E+04  0.21248231614E+04  0.25500000920E-02 0.  1.
       -2   -1    0    0    0  501  0.00000000000E+00  0.00000000000E+00 -0.92556613391E+03  0.92556613391E+03  0.25500000920E-02 0. -1.
    10030    2    1    2    0    0  0.00000000000E+00  0.00000000000E+00  0.11992570275E+04  0.30503892953E+04  0.28047562167E+04 0.  0.
        1    1    3    3  502    0 -0.12597901162E+04  0.27182139856E+03 -0.17008037312E+01  0.12887827212E+04  0.50400001928E-02 0. -1.
       -1    1    3    3    0  502  0.12597901162E+04 -0.27182139856E+03  0.12009578312E+04  0.17616065741E+04  0.50400001928E-02 0.  1.
</event>
<event>
 5   0  0.1499888E-06  0.2800122E+04  0.7818609E-02  0.8303230E-01
        2   -1    0    0  501    0  0.00000000000E+00  0.00000000000E+00  0.21782840871E+04  0.21782840871E+04  0.25500000920E-02 0. -1.
       -2   -1    0    0    0  501  0.00000000000E+00  0.00000000000E+00 -0.89986939023E+03  0.89986939023E+03  0.25500000920E-02 0.  1.
    10030    2    1    2    0    0  0.00000000000E+00  0.00000000000E+00  0.12784146968E+04  0.30781534773E+04  0.28001222639E+04 0.  0.
        3    1    3    3  502    0  0.10609757660E+04 -0.30311798094E+03  0.15865277945E+04  0.19325166336E+04  0.10100000352E+00 0. -1.
       -3    1    3    3    0  502 -0.10609757660E+04  0.30311798094E+03 -0.30811309762E+03  0.11456368437E+04  0.10100000352E+00 0.  1.
</event>
<event>
 5   0  0.1439207E-06  0.2798766E+04  0.7818609E-02  0.8303651E-01
       -2   -1    0    0    0  501  0.00000000000E+00  0.00000000000E+00  0.12383839400E+04  0.12383839400E+04  0.25500000920E-02 0. -1.
        2   -1    0    0  501    0  0.00000000000E+00  0.00000000000E+00 -0.15813134087E+04  0.15813134087E+04  0.25500000920E-02 0.  1.
    10030    2    1    2    0    0  0.00000000000E+00  0.00000000000E+00 -0.34292946869E+03  0.28196973486E+04  0.27987662491E+04 0.  0.
        5    1    3    3  502    0 -0.12274005457E+04 -0.22348912907E+03  0.46714607717E+03  0.13321813082E+04  0.46999998093E+01 0.  1.
       -5    1    3    3    0  502  0.12274005457E+04  0.22348912907E+03 -0.81007554586E+03  0.14875160404E+04  0.46999998093E+01 0. -1.
</event>
<event>
 5   0  0.5214658E-07  0.2798927E+04  0.7818609E-02  0.8303602E-01
        1   -1    0    0  501    0  0.00000000000E+00  0.00000000000E+00  0.22936577954E+04  0.22936577954E+04  0.50400001928E-02 0.  1.
       -1   -1    0    0    0  501  0.00000000000E+00  0.00000000000E+00 -0.85387548334E+03  0.85387548335E+03  0.50400001928E-02 0. -1.
    10030    2    1    2    0    0  0.00000000000E+00  0.00000000000E+00  0.14397823121E+04  0.31475332788E+04  0.27989270506E+04 0.  0.
        2    1    3    3  502    0  0.71747738854E+03  0.80226210338E+03  0.17257819927E+04  0.20338932548E+04  0.25500000920E-02 0. -1.
       -2    1    3    3    0  502 -0.71747738854E+03 -0.80226210338E+03 -0.28599968065E+03  0.11136400239E+04  0.25500000920E-02 0.  1.
</event>
<event>
 5   0  0.5551565E-07  0.2801865E+04  0.7818609E-02  0.8302689E-01
        1   -1    0    0  501    0  0.00000000000E+00  0.00000000000E+00  0.16145425943E+04  0.16145425943E+04  0.50400001928E-02 0. -1.
       -1   -1    0    0    0  501  0.00000000000E+00  0.00000000000E+00 -0.12155841497E+04  0.12155841497E+04  0.50400001928E-02 0.  1.
    10030    2    1    2    0    0  0.00000000000E+00  0.00000000000E+00  0.39895844455E+03  0.28301267440E+04  0.28018653691E+04 0.  0.
        3    1    3    3  502    0 -0.99798303224E+03  0.86633244403E+03  0.66904495437E+03  0.14812573029E+04  0.10100000352E+00 0. -1.
       -3    1    3    3    0  502  0.99798303224E+03 -0.86633244403E+03 -0.27008650981E+03  0.13488694411E+04  0.10100000352E+00 0.  1.
</event>
<event>
 5   0  0.1461146E-06  0.2808125E+04  0.7818609E-02  0.8300750E-01
       -2   -1    0    0    0  501  0.00000000000E+00  0.00000000000E+00  0.91708087693E+03  0.91708087694E+03  0.25500000920E-02 0. -1.
        2   -1    0    0  501    0  0.00000000000E+00  0.00000000000E+00 -0.21496370968E+04  0.21496370968E+04  0.25500000920E-02 0.  1.
    10030    2    1    2    0    0  0.00000000000E+00  0.00000000000E+00 -0.12325562199E+04  0.30667179737E+04  0.28081246937E+04 0.  0.
        1    1    3    3  502    0  0.97516564841E+03 -0.12515256589E+03 -0.17109725498E+04  0.19733317696E+04  0.50400001928E-02 0.  1.
       -1    1    3    3    0  502 -0.97516564841E+03  0.12515256589E+03  0.47841632997E+03  0.10933862041E+04  0.50400001928E-02 0. -1.
</event>
<event>
 5   0  0.5551565E-07  0.2802479E+04  0.7818609E-02  0.8302499E-01
       -1   -1    0    0    0  501  0.00000000000E+00  0.00000000000E+00  0.60675584804E+03  0.60675584806E+03  0.50400001928E-02 0. -1.
        1   -1    0    0  501    0  0.00000000000E+00  0.00000000000E+00 -0.32360178478E+04  0.32360178478E+04  0.50400001928E-02 0.  1.
    10030    2    1    2    0    0  0.00000000000E+00  0.00000000000E+00 -0.26292619998E+04  0.38427736959E+04  0.28024794405E+04 0.  0.
        3    1    3    3  502    0 -0.49938066403E+03  0.75295847957E+03  0.15399622477E+03  0.91653825179E+03  0.10100000352E+00 0. -1.
       -3    1    3    3    0  502  0.49938066403E+03 -0.75295847957E+03 -0.27832582245E+04  0.29262354441E+04  0.10100000352E+00 0.  1.
</event>
<event>
 5   0  0.5214658E-07  0.2796761E+04  0.7818609E-02  0.8304275E-01
        1   -1    0    0  501    0  0.00000000000E+00  0.00000000000E+00  0.21171290509E+04  0.21171290509E+04  0.50400001928E-02 0. -1.
       -1   -1    0    0    0  501  0.00000000000E+00  0.00000000000E+00 -0.92364156576E+03  0.92364156578E+03  0.50400001928E-02 0.  1.
    10030    2    1    2    0    0  0.00000000000E+00  0.00000000000E+00  0.11934874851E+04  0.30407706167E+04  0.27967612637E+04 0.  0.
        2    1    3    3  502    0  0.10426661410E+04 -0.56445914661E+03 -0.20936152200E+03  0.12039929637E+04  0.25500000920E-02 0.  1.
       -2    1    3    3    0  502 -0.10426661410E+04  0.56445914661E+03  0.14028490071E+04  0.18367776530E+04  0.25500000920E-02 0. -1.
</event>
<event>
 5   0  0.5282098E-07  0.2793075E+04  0.7818609E-02  0.8305422E-01
        1   -1    0    0  501    0  0.00000000000E+00  0.00000000000E+00  0.16440272716E+04  0.16440272716E+04  0.50400001928E-02 0.  1.
       -1   -1    0    0    0  501  0.00000000000E+00  0.00000000000E+00 -0.11863043836E+04  0.11863043836E+04  0.50400001928E-02 0. -1.
    10030    2    1    2    0    0  0.00000000000E+00  0.00000000000E+00  0.45772288800E+03  0.28303316553E+04  0.27930748355E+04 0.  0.
        4    1    3    3  502    0 -0.15620843802E+03  0.12573404022E+04 -0.36634837106E+03  0.13189081488E+04  0.12699999809E+01 0.  1.
       -4    1    3    3    0  502  0.15620843802E+03 -0.12573404022E+04  0.82407125906E+03  0.15114235065E+04  0.12699999809E+01 0. -1.
</event>
<event>
 5   0  0.1394410E-06  0.2800903E+04  0.7818609E-02  0.8302988E-01
        2   -1    0    0  501    0  0.00000000000E+00  0.00000000000E+00  0.18578633802E+04  0.18578633802E+04  0.25500000920E-02 0.  1.
       -2   -1    0    0    0  501  0.00000000000E+00  0.00000000000E+00 -0.10556559870E+04  0.10556559870E+04  0.25500000920E-02 0. -1.
    10030    2    1    2    0    0  0.00000000000E+00  0.00000000000E+00  0.80220739317E+03  0.29135193672E+04  0.28009031403E+04 0.  0.
        4    1    3    3  502    0 -0.10762591691E+04  0.62235343523E+03  0.10716988411E+04  0.16414011138E+04  0.12699999809E+01 0.  1.
       -4    1    3    3    0  502  0.10762591691E+04 -0.62235343523E+03 -0.26949144795E+03  0.12721182535E+04  0.12699999809E+01 0. -1.
</event>
<event>
 5   0  0.5297741E-07  0.2803051E+04  0.7818609E-02  0.8302322E-01
       -1   -1    0    0    0  501  0.00000000000E+00  0.00000000000E+00  0.23168720673E+04  0.23168720673E+04  0.50400001928E-02 0. -1.
        1   -1    0    0  501    0  0.00000000000E+00  0.00000000000E+00 -0.84781297517E+03  0.84781297519E+03  0.50400001928E-02 0.  1.
    10030    2    1    2    0    0  0.00000000000E+00  0.00000000000E+00  0.14690590921E+04  0.31646850425E+04  0.28030513377E+04 0.  0.
        5    1    3    3  502    0  0.11576976352E+04 -0.78441681427E+03  0.62935195641E+03  0.15335186755E+04  0.46999998093E+01 0.  1.
       -5    1    3    3    0  502 -0.11576976352E+04  0.78441681427E+03  0.83970713568E+03  0.16311663670E+04  0.46999998093E+01 0. -1.
</event>
<event>
 5   0  0.5297741E-07  0.2798946E+04  0.7818609E-02  0.8303596E-01
       -1   -1    0    0    0  501  0.00000000000E+00  0.00000000000E+00  0.10906595132E+04  0.10906595132E+04  0.50400001928E-02 0.  1.
        1   -1    0    0  501    0  0.00000000000E+00  0.00000000000E+00 -0.17957253522E+04  0.17957253522E+04  0.50400001928E-02 0. -1.
    10030    2    1    2    0    0  0.00000000000E+00  0.00000000000E+00 -0.70506583897E+03  0.28863848654E+04  0.27989461863E+04 0.  0.
        5    1    3    3  502    0  0.16613832204E+03  0.96159012930E+03  0.68192214190E+03  0.11905030098E+04  0.46999998093E+01 0.  1.
       -5    1    3    3    0  502 -0.16613832204E+03 -0.96159012930E+03 -0.13869879809E+04  0.16958818555E+04  0.46999998093E+01 0. -1.
</event>
<event>
 5   0  0.5297741E-07  0.2797855E+04  0.7818609E-02  0.8303935E-01
        1   -1    0    0  501    0  0.00000000000E+00  0.00000000000E+00  0.10487781905E+04  0.10487781905E+04  0.50400001928E-02 0. -1.
       -1   -1    0    0    0  501  0.00000000000E+00  0.00000000000E+00 -0.18659788079E+04  0.18659788079E+04  0.50400001928E-02 0.  1.
    10030    2    1    2    0    0  0.00000000000E+00  0.00000000000E+00 -0.81720061733E+03  0.29147569984E+04  0.27978548052E+04 0.  0.
        5    1    3    3  502    0  0.49455013294E+03  0.11170239496E+03  0.94968572304E+03  0.10765604124E+04  0.46999998093E+01 0. -1.
       -5    1    3    3    0  502 -0.49455013294E+03 -0.11170239496E+03 -0.17668863404E+04  0.18381965860E+04  0.46999998093E+01 0.  1.
</event>
<event>
 5   0  0.1439207E-06  0.2802655E+04  0.7818609E-02  0.8302444E-01
        2   -1    0    0  501    0  0.00000000000E+00  0.00000000000E+00  0.14233193888E+04  0.14233193888E+04  0.25500000920E-02 0. -1.
       -2   -1    0    0    0  501  0.00000000000E+00  0.00000000000E+00 -0.13796756740E+04  0.13796756740E+04  0.25500000920E-02 0.  1.
    10030    2    1    2    0    0  0.00000000000E+00  0.00000000000E+00  0.43643714833E+02  0.28029950628E+04  0.28026552674E+04 0.  0.
        5    1    3    3  502    0 -0.75524791091E+03 -0.88907905732E+03  0.79834117791E+03  0.14135882369E+04  0.46999998093E+01 0. -1.
       -5    1    3    3    0  502  0.75524791091E+03  0.88907905732E+03 -0.75469746308E+03  0.13894068259E+04  0.46999998093E+01 0.  1.
</event>
<event>
 5   0  0.1461146E-06  0.2805070E+04  0.7818609E-02  0.8301696E-01
        2   -1    0    0  501    0  0.00000000000E+00  0.00000000000E+00  0.22963916692E+04  0.22963916692E+04  0.25500000920E-02 0. -1.
       -2   -1    0    0    0  501  0.00000000000E+00  0.00000000000E+00 -0.85660656628E+03  0.85660656629E+03  0.25500000920E-02 0.  1.
    10030    2    1    2    0    0  0.00000000000E+00  0.00000000000E+00  0.14397851029E+04  0.31529982355E+04  0.28050698263E+04 0.  0.
        1    1    3    3  502    0  0.33929104813E+03  0.61709379059E+03  0.20832605879E+04  0.21990674930E+04  0.50400001928E-02 0. -1.
       -1    1    3    3    0  502 -0.33929104813E+03 -0.61709379059E+03 -0.64347548495E+03  0.95393074250E+03  0.50400001928E-02 0.  1.
</event>
<event>
 5   0  0.5214658E-07  0.2798142E+04  0.7818609E-02  0.8303845E-01
       -1   -1    0    0    0  501  0.00000000000E+00  0.00000000000E+00  0.99251729237E+03  0.99251729238E+03  0.50400001928E-02 0.  1.
        1   -1    0    0  501    0  0.00000000000E+00  0.00000000000E+00 -0.19721571020E+04  0.19721571020E+04  0.50400001928E-02 0. -1.
    10030    2    1    2    0    0  0.00000000000E+00  0.00000000000E+00 -0.97963980962E+03  0.29646743944E+04  0.27981422602E+04 0.  0.
        2    1    3    3  502    0  0.10633958596E+04  0.87658619046E+03 -0.23424619472E+03  0.13978860409E+04  0.25500000920E-02 0.  1.
       -2    1    3    3    0  502 -0.10633958596E+04 -0.87658619046E+03 -0.74539361490E+03  0.15667883535E+04  0.25500000920E-02 0. -1.
</event>
<event>
 5   0  0.5214658E-07  0.2803339E+04  0.7818609E-02  0.8302232E-01
        1   -1    0    0  501    0  0.00000000000E+00  0.00000000000E+00  0.18714256466E+04  0.18714256466E+04  0.50400001928E-02 0. -1.
       -1   -1    0    0    0  501  0.00000000000E+00  0.00000000000E+00 -0.10498294291E+04  0.10498294292E+04  0.50400001928E-02 0.  1.
    10030    2    1    2    0    0  0.00000000000E+00  0.00000000000E+00  0.82159621746E+03  0.29212550758E+04  0.28033392362E+04 0.  0.
        2    1    3    3  502    0  0.66472638611E+03 -0.42847638472E+03 -0.79512751558E+03  0.11214637518E+04  0.25500000920E-02 0.  1.
       -2    1    3    3    0  502 -0.66472638611E+03  0.42847638472E+03  0.16167237330E+04  0.17997913239E+04  0.25500000920E-02 0. -1.
</event>
<event>
 5   0  0.1461146E-06  0.2797092E+04  0.7818609E-02  0.8304172E-01
        2   -1    0    0  501    0  0.00000000000E+00  0.00000000000E+00  0.16765936961E+04  0.16765936961E+04  0.25500000920E-02 0.  1.
       -2   -1    0    0    0  501  0.00000000000E+00  0.00000000000E+00 -0.11666103274E+04  0.11666103274E+04  0.25500000920E-02 0. -1.
    10030    2    1    2    0    0  0.00000000000E+00  0.00000000000E+00  0.50998336866E+03  0.28432040235E+04  0.27970924338E+04 0.  0.
        1    1    3    3  502    0  0.57752392078E+03 -0.33766946825E+03  0.15033985641E+04  0.16455278155E+04  0.50400001928E-02 0.  1.
       -1    1    3    3    0  502 -0.57752392078E+03  0.33766946825E+03 -0.99341519545E+03  0.11976762081E+04  0.50400001928E-02 0. -1.
</event>
<event>
 5   0  0.1461146E-06  0.2793439E+04  0.7818609E-02  0.8305308E-01
       -2   -1    0    0    0  501  0.00000000000E+00  0.00000000000E+00  0.16660261016E+04  0.16660261016E+04  0.25500000920E-02 0. -1.
        2   -1    0    0  501    0  0.00000000000E+00  0.00000000000E+00 -0.11709449820E+04  0.11709449820E+04  0.25500000920E-02 0.  1.
    10030    2    1    2    0    0  0.00000000000E+00  0.00000000000E+00  0.49508111958E+03  0.28369710836E+04  0.27934386720E+04 0.  0.
        1    1    3    3  502    0  0.83333194859E+03  0.10644184146E+04  0.60429276870E+03  0.14807425327E+04  0.50400001928E-02 0. -1.
       -1    1    3    3    0  502 -0.83333194859E+03 -0.10644184146E+04 -0.10921164912E+03  0.13562285509E+04  0.50400001928E-02 0.  1.
</event>
<event>
 5   0  0.1499888E-06  0.2801108E+04  0.7818609E-02  0.8302924E-01
       -2   -1    0    0    0  501  0.00000000000E+00  0.00000000000E+00  0.13382799801E+04  0.13382799801E+04  0.25500000920E-02 0. -1.
        2   -1    0    0  501    0  0.00000000000E+00  0.00000000000E+00 -0.14657259093E+04  0.14657259093E+04  0.25500000920E-02 0.  1.
    10030    2    1    2    0    0  0.00000000000E+00  0.00000000000E+00 -0.12744592924E+03  0.28040058894E+04  0.28011080955E+04 0.  0.
        3    1    3    3  502    0 -0.93335658720E+03  0.10420248587E+04 -0.13147832741E+03  0.14050825192E+04  0.10100000352E+00 0. -1.
       -3    1    3    3    0  502  0.93335658720E+03 -0.10420248587E+04  0.40323981693E+01  0.13989233701E+04  0.10100000352E+00 0.  1.
</event>
<event>
 5   0  0.5282098E-07  0.2799381E+04  0.7818609E-02  0.8303461E-01
       -1   -1    0    0    0  501  0.00000000000E+00  0.00000000000E+00  0.13329924554E+04  0.13329924554E+04  0.50400001928E-02 0.  1.
        1   -1    0    0  501    0  0.00000000000E+00  0.00000000000E+00 -0.14697255906E+04  0.14697255906E+04  0.50400001928E-02 0. -1.
    10030    2    1    2    0    0  0.00000000000E+00  0.00000000000E+00 -0.13673313514E+03  0.28027180460E+04  0.27993807342E+04 0.  0.
        4    1    3    3  502    0  0.27676052259E+03 -0.12094794315E+04 -0.71697732302E+03  0.14330020854E+04  0.12699999809E+01 0.  1.
       -4    1    3    3    0  502 -0.27676052259E+03  0.12094794315E+04  0.58024418788E+03  0.13697159606E+04  0.12699999809E+01 0. -1.
</event>
<event>
 5   0  0.5282098E-07  0.2797581E+04  0.7818609E-02  0.8304020E-01
       -1   -1    0    0    0  501  0.00000000000E+00  0.00000000000E+00  0.10502909237E+04  0.10502909237E+04  0.50400001928E-02 0.  1.
        1   -1    0    0  501    0  0.00000000000E+00  0.00000000000E+00 -0.18629259432E+04  0.18629259432E+04  0.50400001928E-02 0. -1.
    10030    2    1    2    0    0  0.00000000000E+00  0.00000000000E+00 -0.81263501951E+03  0.29132168669E+04  0.27975805330E+04 0.  0.
        4    1    3    3  502    0 -0.96198611749E+03 -0.18167671351E+03  0.63407347877E+03  0.11663938048E+04  0.12699999809E+01 0.  1.
       -4    1    3    3    0  502  0.96198611749E+03  0.18167671351E+03 -0.14467084983E+04  0.17468230621E+04  0.12699999809E+01 0. -1.
</event>
<event>
 5   0  0.5362952E-07  0.2802087E+04  0.7818609E-02  0.8302621E-01
       -1   -1    0    0    0  501  0.00000000000E+00  0.00000000000E+00  0.19358828988E+04  0.19358828988E+04  0.50400001928E-02 0.  1.
        1   -1    0    0  501    0  0.00000000000E+00  0.00000000000E+00 -0.10139678016E+04  0.10139678016E+04  0.50400001928E-02 0. -1.
    10030    2    1    2    0    0  0.00000000000E+00  0.00000000000E+00  0.92191509727E+03  0.29498507004E+04  0.28020870272E+04 0.  0.
        1    1    3    3  502    0  0.76801361966E+03 -0.50094179927E+03  0.15761274330E+04  0.18234487356E+04  0.50400001928E-02 0.  1.
       -1    1    3    3    0  502 -0.76801361966E+03  0.50094179927E+03 -0.65421233571E+03  0.11264019649E+04  0.50400001928E-02 0. -1.
</event>
<event>
 5   0  0.1439207E-06  0.2799006E+04  0.7818609E-02  0.8303577E-01
       -2   -1    0    0    0  501  0.00000000000E+00  0.00000000000E+00  0.21444112357E+04  0.21444112357E+04  0.25500000920E-02 0.  1.
        2   -1    0    0  501    0  0.00000000000E+00  0.00000000000E+00 -0.91335472546E+03  0.91335472547E+03  0.25500000920E-02 0. -1.
    10030    2    1    2    0    0  0.00000000000E+00  0.00000000000E+00  0.12310565103E+04  0.30577659612E+04  0.27990056345E+04 0.  0.
        5    1    3    3  502    0  0.12743687331E+04 -0.14078268316E+03  0.26365242158E+01  0.12821327829E+04  0.46999998093E+01 0. -1.
       -5    1    3    3    0  502 -0.12743687331E+04  0.14078268316E+03  0.12284199861E+04  0.17756331783E+04  0.46999998093E+01 0.  1.
</event>
<event>
 5   0  0.5362952E-07  0.2799946E+04  0.7818609E-02  0.8303285E-01
        1   -1    0    0  501    0  0.00000000000E+00  0.00000000000E+00  0.13607271731E+04  0.13607271731E+04  0.50400001928E-02 0.  1.
       -1   -1    0    0    0  501  0.00000000000E+00  0.00000000000E+00 -0.14403504540E+04  0.14403504540E+04  0.50400001928E-02 0. -1.
    10030    2    1    2    0    0  0.00000000000E+00  0.00000000000E+00 -0.79623280952E+02  0.28010776271E+04  0.27999457149E+04 0.  0.
        1    1    3    3  502    0 -0.57859304697E+03  0.62410454132E+02 -0.13136130831E+04  0.14367478244E+04  0.50400001928E-02 0. -1.
       -1    1    3    3    0  502  0.57859304697E+03 -0.62410454132E+02  0.12339898021E+04  0.13643298027E+04  0.50400001928E-02 0.  1.
</event>
<event>
 5   0  0.1439207E-06  0.2799819E+04  0.7818609E-02  0.8303325E-01
        2   -1    0    0  501    0  0.00000000000E+00  0.00000000000E+00  0.17186938719E+04  0.17186938719E+04  0.25500000920E-02 0. -1.
       -2   -1    0    0    0  501  0.00000000000E+00  0.00000000000E+00 -0.11402531900E+04  0.11402531900E+04  0.25500000920E-02 0.  1.
    10030    2    1    2    0    0  0.00000000000E+00  0.00000000000E+00  0.57844068197E+03  0.28589470619E+04  0.27998186870E+04 0.  0.
        5    1    3    3  502    0  0.50217899861E+03  0.29052419032E+03 -0.10117088681E+04  0.11662611095E+04  0.46999998093E+01 0.  1.
       -5    1    3    3    0  502 -0.50217899861E+03 -0.29052419032E+03  0.15901495501E+04  0.16926859524E+04  0.46999998093E+01 0. -1.
</event>
<event>
 5   0  0.1461146E-06  0.2790810E+04  0.7818609E-02  0.8306127E-01
       -2   -1    0    0    0  501  0.00000000000E+00  0.00000000000E+00  0.18776268930E+04  0.18776268930E+04  0.25500000920E-02 0. -1.
        2   -1    0    0  501    0  0.00000000000E+00  0.00000000000E+00 -0.10370299838E+04  0.10370299838E+04  0.25500000920E-02 0.  1.
    10030    2    1    2    0    0  0.00000000000E+00  0.00000000000E+00  0.84059690923E+03  0.29146568767E+04  0.27908101951E+04 0.  0.
        1    1    3    3  502    0 -0.11351178438E+04 -0.73798622974E+03  0.77298118956E+03  0.15590433329E+04  0.50400001928E-02 0.  1.
       -1    1    3    3    0  502  0.11351178438E+04  0.73798622974E+03  0.67615719673E+02  0.13556135438E+04  0.50400001928E-02 0. -1.
</event>
<event>
 5   0  0.1394410E-06  0.2799339E+04  0.7818609E-02  0.8303473E-01
        2   -1    0    0  501    0  0.00000000000E+00  0.00000000000E+00  0.16067342727E+04  0.16067342727E+04  0.25500000920E-02 0.  1.
       -2   -1    0    0    0  501  0.00000000000E+00  0.00000000000E+00 -0.12192902278E+04  0.12192902279E+04  0.25500000920E-02 0. -1.
    10030    2    1    2    0    0  0.00000000000E+00  0.00000000000E+00  0.38744404490E+03  0.28260245006E+04  0.27993394917E+04 0.  0.
        4    1    3    3  502    0  0.10052581224E+04  0.61009058055E+03  0.96011578578E+03  0.15180837738E+04  0.12699999809E+01 0.  1.
       -4    1    3    3    0  502 -0.10052581224E+04 -0.61009058055E+03 -0.57267174088E+03  0.13079407268E+04  0.12699999809E+01 0. -1.
</event>
<event>
 5   0  0.1439207E-06  0.2799440E+04  0.7818609E-02  0.8303442E-01
        2   -1    0    0  501    0  0.00000000000E+00  0.00000000000E+00  0.18964941520E+04  0.18964941520E+04  0.25500000920E-02 0.  1.
       -2   -1    0    0    0  501  0.00000000000E+00  0.00000000000E+00 -0.10330723676E+04  0.10330723676E+04  0.25500000920E-02 0. -1.
    10030    2    1    2    0    0  0.00000000000E+00  0.00000000000E+00  0.86342178439E+03  0.29295665196E+04  0.27994397324E+04 0.  0.
        5    1    3    3  502    0  0.12358848773E+04 -0.64564876832E+03  0.30388627641E+03  0.14271099190E+04  0.46999998093E+01 0. -1.
       -5    1    3    3    0  502 -0.12358848773E+04  0.64564876832E+03  0.55953550797E+03  0.15024566006E+04  0.46999998093E+01 0.  1.
</event>
<event>
 5   0  0.5282098E-07  0.2777556E+04  0.7818609E-02  0.8310270E-01
       -1   -1    0    0    0  501  0.00000000000E+00  0.00000000000E+00  0.10011106643E+04  0.10011106643E+04  0.50400001928E-02 0.  1.
        1   -1    0    0  501    0  0.00000000000E+00  0.00000000000E+00 -0.19265651654E+04  0.19265651654E+04  0.50400001928E-02 0. -1.
    10030    2    1    2    0    0  0.00000000000E+00  0.00000000000E+00 -0.92545450111E+03  0.29276758297E+04  0.27775564315E+04 0.  0.
        4    1    3    3  502    0  0.52484545517E+03  0.97229883396E+03  0.42409902173E+03  0.11835072317E+04  0.12699999809E+01 0.  1.
       -4    1    3    3    0  502 -0.52484545517E+03 -0.97229883396E+03 -0.13495535228E+04  0.17441685980E+04  0.12699999809E+01 0. -1.
</event>
<event>
 5   0  0.1461146E-06  0.2798696E+04  0.7818609E-02  0.8303673E-01
       -2   -1    0    0    0  501  0.00000000000E+00  0.00000000000E+00  0.10249099966E+04  0.10249099966E+04  0.25500000920E-02 0. -1.
        2   -1    0    0  501    0  0.00000000000E+00  0.00000000000E+00 -0.19105825242E+04  0.19105825242E+04  0.25500000920E-02 0.  1.
    10030    2    1    2    0    0  0.00000000000E+00  0.00000000000E+00 -0.88567252761E+03  0.29354925208E+04  0.27986962167E+04 0.  0.
        1    1    3    3  502    0  0.48895668770E+03  0.10454115932E+04  0.38717807222E+03  0.12173211989E+04  0.50400001928E-02 0.  1.
       -1    1    3    3    0  502 -0.48895668770E+03 -0.10454115932E+04 -0.12728505998E+04  0.17181713218E+04  0.50400001928E-02 0. -1.
</event>
<event>
 5   0  0.5282098E-07  0.2799545E+04  0.7818609E-02  0.8303410E-01
       -1   -1    0    0    0  501  0.00000000000E+00  0.00000000000E+00  0.15419644887E+04  0.15419644887E+04  0.50400001928E-02 0.  1.
        1   -1    0    0  501    0  0.00000000000E+00  0.00000000000E+00 -0.12706924174E+04  0.12706924174E+04  0.50400001928E-02 0. -1.
    10030    2    1    2    0    0  0.00000000000E+00  0.00000000000E+00  0.27127207126E+03  0.28126569061E+04  0.27995446657E+04 0.  0.
        4    1    3    3  502    0 -0.12781272326E+04  0.31533599417E+03  0.61358991251E+03  0.14524256283E+04  0.12699999809E+01 0. -1.
       -4    1    3    3    0  502  0.12781272326E+04 -0.31533599417E+03 -0.34231784126E+03  0.13602312779E+04  0.12699999809E+01 0.  1.
</event>
<event>
 5   0  0.5214658E-07  0.2801678E+04  0.7818609E-02  0.8302748E-01
        1   -1    0    0  501    0  0.00000000000E+00  0.00000000000E+00  0.27281264067E+04  0.27281264067E+04  0.50400001928E-02 0.  1.
       -1   -1    0    0    0  501  0.00000000000E+00  0.00000000000E+00 -0.71930318402E+03  0.71930318404E+03  0.50400001928E-02 0. -1.
    10030    2    1    2    0    0  0.00000000000E+00  0.00000000000E+00  0.20088232227E+04  0.34474295908E+04  0.28016780763E+04 0.  0.
        2    1    3    3  502    0  0.61165030325E+03 -0.11248043872E+04  0.30503455772E+03  0.13161865690E+04  0.25500000920E-02 0. -1.
       -2    1    3    3    0  502 -0.61165030325E+03  0.11248043872E+04  0.17037886650E+04  0.21312430218E+04  0.25500000920E-02 0.  1.
</event>
<event>
 5   0  0.5214658E-07  0.2820143E+04  0.7818609E-02  0.8297042E-01
       -1   -1    0    0    0  501  0.00000000000E+00  0.00000000000E+00  0.83966889179E+03  0.83966889180E+03  0.50400001928E-02 0.  1.
        1   -1    0    0  501    0  0.00000000000E+00  0.00000000000E+00 -0.23679589421E+04  0.23679589421E+04  0.50400001928E-02 0. -1.
    10030    2    1    2    0    0  0.00000000000E+00  0.00000000000E+00 -0.15282900503E+04  0.32076278339E+04  0.28201428763E+04 0.  0.
        2    1    3    3  502    0  0.53219144933E+03 -0.23396071834E+03  0.69701930708E+03  0.90763498771E+03  0.25500000920E-02 0.  1.
       -2    1    3    3    0  502 -0.53219144933E+03  0.23396071834E+03 -0.22253093574E+04  0.22999928462E+04  0.25500000920E-02 0. -1.
</event>
<event>
 5   0  0.5362952E-07  0.2792731E+04  0.7818609E-02  0.8305529E-01
        1   -1    0    0  501    0  0.00000000000E+00  0.00000000000E+00  0.26583569925E+04  0.26583569925E+04  0.50400001928E-02 0. -1.
       -1   -1    0    0    0  501  0.00000000000E+00  0.00000000000E+00 -0.73347419590E+03  0.73347419592E+03  0.50400001928E-02 0.  1.
    10030    2    1    2    0    0  0.00000000000E+00  0.00000000000E+00  0.19248827966E+04  0.33918311884E+04  0.27927307479E+04 0.  0.
        1    1    3    3  502    0 -0.58401248424E+03  0.63617752577E+03  0.22951227209E+04  0.24522195518E+04  0.50400001928E-02 0. -1.
       -1    1    3    3    0  502  0.58401248424E+03 -0.63617752577E+03 -0.37023992435E+03  0.93961163661E+03  0.50400001928E-02 0.  1.
</event>
<event>
 5   0  0.5282098E-07  0.2808570E+04  0.7818609E-02  0.8300613E-01
       -1   -1    0    0    0  501  0.00000000000E+00  0.00000000000E+00  0.12817475023E+04  0.12817475023E+04  0.50400001928E-02 0. -1.
        1   -1    0    0  501    0  0.00000000000E+00  0.00000000000E+00 -0.15385370658E+04  0.15385370658E+04  0.50400001928E-02 0.  1.
    10030    2    1    2    0    0  0.00000000000E+00  0.00000000000E+00 -0.25678956344E+03  0.28202845681E+04  0.28085697722E+04 0.  0.
        4    1    3    3  502    0  0.98480188464E+03  0.37539447036E+03  0.80351638692E+03  0.13252908954E+04  0.12699999809E+01 0. -1.
       -4    1    3    3    0  502 -0.98480188464E+03 -0.37539447036E+03 -0.10603059504E+04  0.14949936728E+04  0.12699999809E+01 0.  1.
</event>
<event>
 5   0  0.1394410E-06  0.2803306E+04  0.7818609E-02  0.8302243E-01
       -2   -1    0    0    0  501  0.00000000000E+00  0.00000000000E+00  0.13028145456E+04  0.13028145456E+04  0.25500000920E-02 0.  1.
        2   -1    0    0  501    0  0.00000000000E+00  0.00000000000E+00 -0.15079903303E+04  0.15079903303E+04  0.25500000920E-02 0. -1.
    10030    2    1    2    0    0  0.00000000000E+00  0.00000000000E+00 -0.20517578469E+03  0.28108048760E+04  0.28033064314E+04 0.  0.
        4    1    3    3  502    0 -0.12119229286E+04  0.21361944886E+03  0.57020594340E+03  0.13562915928E+04  0.12699999809E+01 0.  1.
       -4    1    3    3    0  502  0.12119229286E+04 -0.21361944886E+03 -0.77538172809E+03  0.14545132832E+04  0.12699999809E+01 0. -1.
</event>
<event>
 5   0  0.1377807E-06  0.2798108E+04  0.7818609E-02  0.8303856E-01
       -2   -1    0    0    0  501  0.00000000000E+00  0.00000000000E+00  0.12225872059E+04  0.12225872059E+04  0.25500000920E-02 0.  1.
        2   -1    0    0  501    0  0.00000000000E+00  0.00000000000E+00 -0.16009918133E+04  0.16009918133E+04  0.25500000920E-02 0. -1.
    10030    2    1    2    0    0  0.00000000000E+00  0.00000000000E+00 -0.37840460746E+03  0.28235790192E+04  0.27981080091E+04 0.  0.
        2    1    3    3  502    0  0.10766672557E+04 -0.34534950710E+03 -0.10206403284E+04  0.15232154613E+04  0.25500000920E-02 0. -1.
       -2    1    3    3    0  502 -0.10766672557E+04  0.34534950710E+03  0.64223572092E+03  0.13003635579E+04  0.25500000920E-02 0.  1.
</event>
<event>
 5   0  0.5297741E-07  0.2796351E+04  0.7818609E-02  0.8304402E-01
        1   -1    0    0  501    0  0.00000000000E+00  0.00000000000E+00  0.14405815266E+04  0.14405815266E+04  0.50400001928E-02 0. -1.
       -1   -1    0    0    0  501  0.00000000000E+00  0.00000000000E+00 -0.13570175807E+04  0.13570175807E+04  0.50400001928E-02 0.  1.
    10030    2    1    2    0    0  0.00000000000E+00  0.00000000000E+00  0.83563945847E+02  0.27975991073E+04  0.27963508064E+04 0.  0.
        5    1    3    3  502    0  0.75365091191E+03 -0.10177170885E+04 -0.55104866424E+03  0.13810917745E+04  0.46999998093E+01 0.  1.
       -5    1    3    3    0  502 -0.75365091191E+03  0.10177170885E+04  0.63461261008E+03  0.14165073329E+04  0.46999998093E+01 0. -1.
</event>
<event>
 5   0  0.1377807E-06  0.2797590E+04  0.7818609E-02  0.8304017E-01
       -2   -1    0    0    0  501  0.00000000000E+00  0.00000000000E+00  0.12025039869E+04  0.12025039869E+04  0.25500000920E-02 0. -1.
        2   -1    0    0  501    0  0.00000000000E+00  0.00000000000E+00 -0.16271276260E+04  0.16271276260E+04  0.25500000920E-02 0.  1.
    10030    2    1    2    0    0  0.00000000000E+00  0.00000000000E+00 -0.42462363905E+03  0.28296316129E+04  0.27975900039E+04 0.  0.
        2    1    3    3  502    0  0.78360911464E+03 -0.85696866250E+03 -0.10011085192E+04  0.15331851813E+04  0.25500000920E-02 0.  1.
       -2    1    3    3    0  502 -0.78360911464E+03  0.85696866250E+03  0.57648488013E+03  0.12964464316E+04  0.25500000920E-02 0. -1.
</event>
<event>
 5   0  0.5297741E-07  0.2802355E+04  0.7818609E-02  0.8302538E-01
        1   -1    0    0  501    0  0.00000000000E+00  0.00000000000E+00  0.18266707783E+04  0.18266707783E+04  0.50400001928E-02 0.  1.
       -1   -1    0    0    0  501  0.00000000000E+00  0.00000000000E+00 -0.10747958397E+04  0.10747958397E+04  0.50400001928E-02 0. -1.
    10030    2    1    2    0    0  0.00000000000E+00  0.00000000000E+00  0.75187493860E+03  0.29014666180E+04  0.28023548333E+04 0.  0.
        5    1    3    3  502    0  0.10826724206E+04  0.88061488504E+03  0.50531247558E+03  0.14842590522E+04  0.46999998093E+01 0.  1.
       -5    1    3    3    0  502 -0.10826724206E+04 -0.88061488504E+03  0.24656246302E+03  0.14172075657E+04  0.46999998093E+01 0. -1.
</event>
<event>
 5   0  0.1461146E-06  0.2797855E+04  0.7818609E-02  0.8303935E-01
        2   -1    0    0  501    0  0.00000000000E+00  0.00000000000E+00  0.25549705153E+04  0.25549705153E+04  0.25500000920E-02 0.  1.
       -2   -1    0    0    0  501  0.00000000000E+00  0.00000000000E+00 -0.76595732409E+03  0.76595732409E+03  0.25500000920E-02 0. -1.
    10030    2    1    2    0    0  0.00000000000E+00  0.00000000000E+00  0.17890131912E+04  0.33209278394E+04  0.27978551635E+04 0.  0.
        1    1    3    3  502    0 -0.70473336865E+03 -0.11738129261E+04  0.55355399209E+03  0.14767897374E+04  0.50400001928E-02 0. -1.
       -1    1    3    3    0  502  0.70473336865E+03  0.11738129261E+04  0.12354591991E+04  0.18441381020E+04  0.50400001928E-02 0.  1.
</event>
<event>
 5   0  0.1394410E-06  0.2799226E+04  0.7818609E-02  0.8303509E-01
        2   -1    0    0  501    0  0.00000000000E+00  0.00000000000E+00  0.15565248863E+04  0.15565248863E+04  0.25500000920E-02 0.  1.
       -2   -1    0    0    0  501  0.00000000000E+00  0.00000000000E+00 -0.12585189269E+04  0.12585189269E+04  0.25500000920E-02 0. -1.
    10030    2    1    2    0    0  0.00000000000E+00  0.00000000000E+00  0.29800595941E+03  0.28150438132E+04  0.27992256283E+04 0.  0.
        4    1    3    3  502    0  0.59383512480E+03 -0.48621379155E+03 -0.10280255651E+04  0.12829193981E+04  0.12699999809E+01 0. -1.
       -4    1    3    3    0  502 -0.59383512480E+03  0.48621379155E+03  0.13260315245E+04  0.15321244151E+04  0.12699999809E+01 0.  1.
</event>
<event>
 5   0  0.5297741E-07  0.2794717E+04  0.7818609E-02  0.8304910E-01
       -1   -1    0    0    0  501  0.00000000000E+00  0.00000000000E+00  0.81532992217E+03  0.81532992219E+03  0.50400001928E-02 0.  1.
        1   -1    0    0  501    0  0.00000000000E+00  0.00000000000E+00 -0.23948722241E+04  0.23948722241E+04  0.50400001928E-02 0. -1.
    10030    2    1    2    0    0  0.00000000000E+00  0.00000000000E+00 -0.15795423019E+04  0.32102021463E+04  0.27947171478E+04 0.  0.
        5    1    3    3  502    0  0.93868605051E+03 -0.56362247480E+03  0.20751289413E+03  0.11143991595E+04  0.46999998093E+01 0.  1.
       -5    1    3    3    0  502 -0.93868605051E+03  0.56362247480E+03 -0.17870551960E+04  0.20958029867E+04  0.46999998093E+01 0. -1.
</event>
<event>
 5   0  0.1394410E-06  0.2800486E+04  0.7818609E-02  0.8303117E-01
       -2   -1    0    0    0  501  0.00000000000E+00  0.00000000000E+00  0.14329194985E+04  0.14329194985E+04  0.25500000920E-02 0.  1.
        2   -1    0    0  501    0  0.00000000000E+00  0.00000000000E+00 -0.13683118803E+04  0.13683118804E+04  0.25500000920E-02 0. -1.
    10030    2    1    2    0    0  0.00000000000E+00  0.00000000000E+00  0.64607618115E+02  0.28012313788E+04  0.28004862245E+04 0.  0.
        4    1    3    3  502    0  0.48771633317E+03 -0.71931175595E+03  0.11305041959E+04  0.14259445900E+04  0.12699999809E+01 0.  1.
       -4    1    3    3    0  502 -0.48771633317E+03  0.71931175595E+03 -0.10658965778E+04  0.13752867888E+04  0.12699999809E+01 0. -1.
</event>
<event>
 5   0  0.1439207E-06  0.2781859E+04  0.7818609E-02  0.8308923E-01
        2   -1    0    0  501    0  0.00000000000E+00  0.00000000000E+00  0.12368873851E+04  0.12368873851E+04  0.25500000920E-02 0. -1.
       -2   -1    0    0    0  501  0.00000000000E+00  0.00000000000E+00 -0.15641558168E+04  0.15641558168E+04  0.25500000920E-02 0.  1.
    10030    2    1    2    0    0  0.00000000000E+00  0.00000000000E+00 -0.32726843174E+03  0.28010432019E+04  0.27818588017E+04 0.  0.
        5    1    3    3  502    0  0.10962792683E+04 -0.20672215867E+03  0.67281736886E+03  0.13027922271E+04  0.46999998093E+01 0. -1.
       -5    1    3    3    0  502 -0.10962792683E+04  0.20672215867E+03 -0.10000858006E+04  0.14982509748E+04  0.46999998093E+01 0.  1.
</event>
<event>
 5   0  0.1461146E-06  0.2801092E+04  0.7818609E-02  0.8302929E-01
        2   -1    0    0  501    0  0.00000000000E+00  0.00000000000E+00  0.17136676462E+04  0.17136676462E+04  0.25500000920E-02 0.  1.
       -2   -1    0    0    0  501  0.00000000000E+00  0.00000000000E+00 -0.11446383715E+04  0.11446383715E+04  0.25500000920E-02 0. -1.
    10030    2    1    2    0    0  0.00000000000E+00  0.00000000000E+00  0.56902927472E+03  0.28583060176E+04  0.28010924610E+04 0.  0.
        1    1    3    3  502    0 -0.32929099085E+02 -0.10743849296E+04  0.12007080651E+04  0.16115480633E+04  0.50400001928E-02 0.  1.
       -1    1    3    3    0  502  0.32929099085E+02  0.10743849296E+04 -0.63167879043E+03  0.12467579544E+04  0.50400001928E-02 0. -1.
</event>
<event>
 5   0  0.5282098E-07  0.2808503E+04  0.7818609E-02  0.8300633E-01
        1   -1    0    0  501    0  0.00000000000E+00  0.00000000000E+00  0.27352285181E+04  0.27352285181E+04  0.50400001928E-02 0.  1.
       -1   -1    0    0    0  501  0.00000000000E+00  0.00000000000E+00 -0.72093510289E+03  0.72093510291E+03  0.50400001928E-02 0. -1.
    10030    2    1    2    0    0  0.00000000000E+00  0.00000000000E+00  0.20142934152E+04  0.34561636210E+04  0.28085029842E+04 0.  0.
        4    1    3    3  502    0  0.10445240596E+04 -0.55574728869E+03  0.19378917600E+04  0.22705311375E+04  0.12699999809E+01 0.  1.
       -4    1    3    3    0  502 -0.10445240596E+04  0.55574728869E+03  0.76401655153E+02  0.11856324835E+04  0.12699999809E+01 0. -1.
</event>
<event>
 5   0  0.1461146E-06  0.2807991E+04  0.7818609E-02  0.8300792E-01
        2   -1    0    0  501    0  0.00000000000E+00  0.00000000000E+00  0.10844287102E+04  0.10844287102E+04  0.25500000920E-02 0. -1.
       -2   -1    0    0    0  501  0.00000000000E+00  0.00000000000E+00 -0.18177341386E+04  0.18177341386E+04  0.25500000920E-02 0.  1.
    10030    2    1    2    0    0  0.00000000000E+00  0.00000000000E+00 -0.73330542840E+03  0.29021628487E+04  0.28079908029E+04 0.  0.
        1    1    3    3  502    0  0.22563559416E+03 -0.34742493647E+03  0.10198240345E+04  0.11007527284E+04  0.50400001928E-02 0. -1.
       -1    1    3    3    0  502 -0.22563559416E+03  0.34742493647E+03 -0.17531294629E+04  0.18014101203E+04  0.50400001928E-02 0.  1.
</event>
<event>
 5   0  0.5214658E-07  0.2796803E+04  0.7818609E-02  0.8304262E-01
        1   -1    0    0  501    0  0.00000000000E+00  0.00000000000E+00  0.17889876918E+04  0.17889876919E+04  0.50400001928E-02 0. -1.
       -1   -1    0    0    0  501  0.00000000000E+00  0.00000000000E+00 -0.10930913126E+04  0.10930913126E+04  0.50400001928E-02 0.  1.
    10030    2    1    2    0    0  0.00000000000E+00  0.00000000000E+00  0.69589637925E+03  0.28820790045E+04  0.27968031066E+04 0.  0.
        2    1    3    3  502    0  0.66311102587E+03  0.12048579379E+04  0.60890456255E+03  0.15040490848E+04  0.25500000920E-02 0.  1.
       -2    1    3    3    0  502 -0.66311102587E+03 -0.12048579379E+04  0.86991816697E+02  0.13780299196E+04  0.25500000920E-02 0. -1.
</event>
<event>
 5   0  0.1499888E-06  0.2785485E+04  0.7818609E-02  0.8307789E-01
        2   -1    0    0  501    0  0.00000000000E+00  0.00000000000E+00  0.25712872598E+04  0.25712872598E+04  0.25500000920E-02 0.  1.
       -2   -1    0    0    0  501  0.00000000000E+00  0.00000000000E+00 -0.75438146743E+03  0.75438146744E+03  0.25500000920E-02 0. -1.
    10030    2    1    2    0    0  0.00000000000E+00  0.00000000000E+00  0.18169057924E+04  0.33256687273E+04  0.27854848456E+04 0.  0.
        3    1    3    3  502    0  0.90719187785E+03 -0.37084483448E+03 -0.27299823696E+03  0.10173745830E+04  0.10100000352E+00 0. -1.
       -3    1    3    3    0  502 -0.90719187785E+03  0.37084483448E+03  0.20899040293E+04  0.23082941443E+04  0.10100000352E+00 0.  1.
</event>
<event>
 5   0  0.5282098E-07  0.2798360E+04  0.7818609E-02  0.8303778E-01
       -1   -1    0    0    0  501  0.00000000000E+00  0.00000000000E+00  0.13538188547E+04  0.13538188547E+04  0.50400001928E-02 0. -1.
        1   -1    0    0  501    0  0.00000000000E+00  0.00000000000E+00 -0.14460613886E+04  0.14460613887E+04  0.50400001928E-02 0.  1.
    10030    2    1    2    0    0  0.00000000000E+00  0.00000000000E+00 -0.92242533937E+02  0.27998802434E+04  0.27983603578E+04 0.  0.
        4    1    3    3  502    0 -0.13922225829E+03  0.10990529935E+04  0.80897923592E+03  0.13717686892E+04  0.12699999809E+01 0. -1.
       -4    1    3    3    0  502  0.13922225829E+03 -0.10990529935E+04 -0.90122176986E+03  0.14281115541E+04  0.12699999809E+01 0.  1.
</event>
<event>
 5   0  0.5362952E-07  0.2799616E+04  0.7818609E-02  0.8303388E-01
        1   -1    0    0  501    0  0.00000000000E+00  0.00000000000E+00  0.14632813994E+04  0.14632813994E+04  0.50400001928E-02 0. -1.
       -1   -1    0    0    0  501  0.00000000000E+00  0.00000000000E+00 -0.13390876251E+04  0.13390876251E+04  0.50400001928E-02 0.  1.
    10030    2    1    2    0    0  0.00000000000E+00  0.00000000000E+00  0.12419377430E+03  0.28023690245E+04  0.27996156979E+04 0.  0.
        1    1    3    3  502    0  0.19522186839E+03  0.42070310501E+03  0.13841377551E+04  0.14597739570E+04  0.50400001928E-02 0. -1.
       -1    1    3    3    0  502 -0.19522186839E+03 -0.42070310501E+03 -0.12599439808E+04  0.13425950675E+04  0.50400001928E-02 0.  1.
</event>
<event>
 5   0  0.1461146E-06  0.2798234E+04  0.7818609E-02  0.8303817E-01
       -2   -1    0    0    0  501  0.00000000000E+00  0.00000000000E+00  0.82391707404E+03  0.82391707404E+03  0.25500000920E-02 0.  1.
        2   -1    0    0  501    0  0.00000000000E+00  0.00000000000E+00 -0.23758804756E+04  0.23758804756E+04  0.25500000920E-02 0. -1.
    10030    2    1    2    0    0  0.00000000000E+00  0.00000000000E+00 -0.15519634016E+04  0.31997975497E+04  0.27982340787E+04 0.  0.
        1    1    3    3  502    0  0.76845102752E+03 -0.96407828198E+03 -0.19567738009E+02  0.12330234434E+04  0.50400001928E-02 0.  1.
       -1    1    3    3    0  502 -0.76845102752E+03  0.96407828198E+03 -0.15323956636E+04  0.19667741063E+04  0.50400001928E-02 0. -1.
</event>
<event>
 5   0  0.1394410E-06  0.2798113E+04  0.7818609E-02  0.8303854E-01
       -2   -1    0    0    0  501  0.00000000000E+00  0.00000000000E+00  0.18887004613E+04  0.18887004613E+04  0.25500000920E-02 0.  1.
        2   -1    0    0  501    0  0.00000000000E+00  0.00000000000E+00 -0.10363522899E+04  0.10363522899E+04  0.25500000920E-02 0. -1.
    10030    2    1    2    0    0  0.00000000000E+00  0.00000000000E+00  0.85234817142E+03  0.29250527511E+04  0.27981129698E+04 0.  0.
        4    1    3    3  502    0  0.24456838225E+03  0.10108695568E+04  0.14044081471E+04  0.17475797009E+04  0.12699999809E+01 0.  1.
       -4    1    3    3    0  502 -0.24456838225E+03 -0.10108695568E+04 -0.55205997571E+03  0.11774730502E+04  0.12699999809E+01 0. -1.
</event>
<event>
 5   0  0.5297741E-07  0.2808618E+04  0.7818609E-02  0.8300598E-01
       -1   -1    0    0    0  501  0.00000000000E+00  0.00000000000E+00  0.11322611314E+04  0.11322611314E+04  0.50400001928E-02 0.  1.
        1   -1    0    0  501    0  0.00000000000E+00  0.00000000000E+00 -0.17417222457E+04  0.17417222457E+04  0.50400001928E-02 0. -1.
    10030    2    1    2    0    0  0.00000000000E+00  0.00000000000E+00 -0.60946111427E+03  0.28739833771E+04  0.28086184508E+04 0.  0.
        5    1    3    3  502    0  0.32150256741E+02 -0.14107953500E+02 -0.17412650210E+04  0.17416252860E+04  0.46999998093E+01 0. -1.
       -5    1    3    3    0  502 -0.32150256741E+02  0.14107953500E+02  0.11318039067E+04  0.11323580912E+04  0.46999998093E+01 0.  1.
</event>
<event>
 5   0  0.1461146E-06  0.2795331E+04  0.7818609E-02  0.8304719E-01
        2   -1    0    0  501    0  0.00000000000E+00  0.00000000000E+00  0.18303679323E+04  0.18303679323E+04  0.25500000920E-02 0.  1.
       -2   -1    0    0    0  501  0.00000000000E+00  0.00000000000E+00 -0.10672548843E+04  0.10672548843E+04  0.25500000920E-02 0. -1.
    10030    2    1    2    0    0  0.00000000000E+00  0.00000000000E+00  0.76311304803E+03  0.28976228167E+04  0.27953311903E+04 0.  0.
        1    1    3    3  502    0 -0.52208576776E+03  0.12735505482E+04  0.63326865336E+03  0.15151018893E+04  0.50400001928E-02 0. -1.
       -1    1    3    3    0  502  0.52208576776E+03 -0.12735505482E+04  0.12984439467E+03  0.13825209273E+04  0.50400001928E-02 0.  1.
</event>
<event>
 5   0  0.1499888E-06  0.2800273E+04  0.7818609E-02  0.8303183E-01
        2   -1    0    0  501    0  0.00000000000E+00  0.00000000000E+00  0.24207645576E+04  0.24207645576E+04  0.25500000920E-02 0. -1.
       -2   -1    0    0    0  501  0.00000000000E+00  0.00000000000E+00 -0.80981965854E+03  0.80981965854E+03  0.25500000920E-02 0.  1.
    10030    2    1    2    0    0  0.00000000000E+00  0.00000000000E+00  0.16109448990E+04  0.32305842161E+04  0.28002733634E+04 0.  0.
        3    1    3    3  502    0  0.91573998254E+03 -0.78712951932E+03 -0.12110857318E+02  0.12076006289E+04  0.10100000352E+00 0.  1.
       -3    1    3    3    0  502 -0.91573998254E+03  0.78712951932E+03  0.16230557563E+04  0.20229835872E+04  0.10100000352E+00 0. -1.
</event>
<event>
 5   0  0.5362952E-07  0.2797011E+04  0.7818609E-02  0.8304197E-01
       -1   -1    0    0    0  501  0.00000000000E+00  0.00000000000E+00  0.87211734268E+03  0.87211734269E+03  0.50400001928E-02 0.  1.
        1   -1    0    0  501    0  0.00000000000E+00  0.00000000000E+00 -0.22426079341E+04  0.22426079341E+04  0.50400001928E-02 0. -1.
    10030    2    1    2    0    0  0.00000000000E+00  0.00000000000E+00 -0.13704905914E+04  0.31147252768E+04  0.27970107416E+04 0.  0.
        1    1    3    3  502    0  0.18238059118E+03  0.13604217517E+04 -0.98365281286E+03  0.16886630448E+04  0.50400001928E-02 0. -1.
       -1    1    3    3    0  502 -0.18238059118E+03 -0.13604217517E+04 -0.38683777858E+03  0.14260622320E+04  0.50400001928E-02 0.  1.
</event>
<event>
 5   0  0.5362952E-07  0.2811372E+04  0.7818609E-02  0.8299746E-01
       -1   -1    0    0    0  501  0.00000000000E+00  0.00000000000E+00  0.11133168566E+04  0.11133168566E+04  0.50400001928E-02 0. -1.
        1   -1    0    0  501    0  0.00000000000E+00  0.00000000000E+00 -0.17748349791E+04  0.17748349791E+04  0.50400001928E-02 0.  1.
    10030    2    1    2    0    0  0.00000000000E+00  0.00000000000E+00 -0.66151812248E+03  0.28881518357E+04  0.28113724050E+04 0.  0.
        1    1    3    3  502    0  0.82339778744E+03 -0.81703803950E+02  0.83662633415E+03  0.11766915700E+04  0.50400001928E-02 0. -1.
       -1    1    3    3    0  502 -0.82339778744E+03  0.81703803950E+02 -0.14981444566E+04  0.17114602657E+04  0.50400001928E-02 0.  1.
</event>
<event>
 5   0  0.5551565E-07  0.2801111E+04  0.7818609E-02  0.8302924E-01
       -1   -1    0    0    0  501  0.00000000000E+00  0.00000000000E+00  0.12659454741E+04  0.12659454741E+04  0.50400001928E-02 0. -1.
        1   -1    0    0  501    0  0.00000000000E+00  0.00000000000E+00 -0.15494783922E+04  0.15494783923E+04  0.50400001928E-02 0.  1.
    10030    2    1    2    0    0  0.00000000000E+00  0.00000000000E+00 -0.28353291819E+03  0.28154238663E+04  0.28011106068E+04 0.  0.
        3    1    3    3  502    0  0.40963697512E+03 -0.12697840674E+04 -0.56985490848E+03  0.14508234407E+04  0.10100000352E+00 0. -1.
       -3    1    3    3    0  502 -0.40963697512E+03  0.12697840674E+04  0.28632199029E+03  0.13646004256E+04  0.10100000352E+00 0.  1.
</event>
<event>
 5   0  0.5297741E-07  0.2801660E+04  0.7818609E-02  0.8302753E-01
       -1   -1    0    0    0  501  0.00000000000E+00  0.00000000000E+00  0.19317857852E+04  0.19317857852E+04  0.50400001928E-02 0.  1.
        1   -1    0    0  501    0  0.00000000000E+00  0.00000000000E+00 -0.10158084899E+04  0.10158084899E+04  0.50400001928E-02 0. -1.
    10030    2    1    2    0    0  0.00000000000E+00  0.00000000000E+00  0.91597729530E+03  0.29475942751E+04  0.28016597947E+04 0.  0.
        5    1    3    3  502    0  0.76988719302E+02 -0.92664255128E+03  0.15602785929E+04  0.18163383656E+04  0.46999998093E+01 0.  1.
       -5    1    3    3    0  502 -0.76988719302E+02  0.92664255128E+03 -0.64430129763E+03  0.11312559095E+04  0.46999998093E+01 0. -1.
</event>
<event>
 5   0  0.5297741E-07  0.2800227E+04  0.7818609E-02  0.8303198E-01
       -1   -1    0    0    0  501  0.00000000000E+00  0.00000000000E+00  0.12265675037E+04  0.12265675037E+04  0.50400001928E-02 0. -1.
        1   -1    0    0  501    0  0.00000000000E+00  0.00000000000E+00 -0.15982140667E+04  0.15982140667E+04  0.50400001928E-02 0.  1.
    10030    2    1    2    0    0  0.00000000000E+00  0.00000000000E+00 -0.37164656297E+03  0.28247815704E+04  0.28002267324E+04 0.  0.
        5    1    3    3  502    0  0.58520776543E+03 -0.11122725146E+03 -0.14639998137E+04  0.15805559701E+04  0.46999998093E+01 0.  1.
       -5    1    3    3    0  502 -0.58520776543E+03  0.11122725146E+03  0.10923532507E+04  0.12442256003E+04  0.46999998093E+01 0. -1.
</event>
<event>
 5   0  0.1394410E-06  0.2790704E+04  0.7818609E-02  0.8306160E-01
        2   -1    0    0  501    0  0.00000000000E+00  0.00000000000E+00  0.17013111553E+04  0.17013111553E+04  0.25500000920E-02 0. -1.
       -2   -1    0    0    0  501  0.00000000000E+00  0.00000000000E+00 -0.11444160706E+04  0.11444160706E+04  0.25500000920E-02 0.  1.
    10030    2    1    2    0    0  0.00000000000E+00  0.00000000000E+00  0.55689508477E+03  0.28457272259E+04  0.27907044467E+04 0.  0.
        4    1    3    3  502    0 -0.59164886138E+03 -0.45499751009E+03  0.14806474395E+04  0.16581283311E+04  0.12699999809E+01 0. -1.
       -4    1    3    3    0  502  0.59164886138E+03  0.45499751009E+03 -0.92375235469E+03  0.11875988949E+04  0.12699999809E+01 0.  1.
</event>
<event>
 5   0  0.1461146E-06  0.2774256E+04  0.7818609E-02  0.8311306E-01
       -2   -1    0    0    0  501  0.00000000000E+00  0.00000000000E+00  0.10236294878E+04  0.10236294878E+04  0.25500000920E-02 0. -1.
        2   -1    0    0  501    0  0.00000000000E+00  0.00000000000E+00 -0.18797070417E+04  0.18797070417E+04  0.25500000920E-02 0.  1.
    10030    2    1    2    0    0  0.00000000000E+00  0.00000000000E+00 -0.85607755392E+03  0.29033365295E+04  0.27742556164E+04 0.  0.
        1    1    3    3  502    0 -0.99110507554E+03 -0.77790401321E+03  0.17921779714E+03  0.12726126447E+04  0.50400001928E-02 0. -1.
       -1    1    3    3    0  502  0.99110507554E+03  0.77790401321E+03 -0.10352953511E+04  0.16307238848E+04  0.50400001928E-02 0.  1.
</event>
<event>
 5   0  0.5214658E-07  0.2797102E+04  0.7818609E-02  0.8304169E-01
       -1   -1    0    0    0  501  0.00000000000E+00  0.00000000000E+00  0.86667974863E+03  0.86667974865E+03  0.50400001928E-02 0. -1.
        1   -1    0    0  501    0  0.00000000000E+00  0.00000000000E+00 -0.22568252486E+04  0.22568252486E+04  0.50400001928E-02 0.  1.
    10030    2    1    2    0    0  0.00000000000E+00  0.00000000000E+00 -0.13901455000E+04  0.31235049973E+04  0.27971018853E+04 0.  0.
        2    1    3    3  502    0 -0.95619163468E+03 -0.98550193905E+03 -0.99142435993E+03  0.16936465911E+04  0.25500000920E-02 0. -1.
       -2    1    3    3    0  502  0.95619163468E+03  0.98550193905E+03 -0.39872114003E+03  0.14298584061E+04  0.25500000920E-02 0.  1.
</event>
<event>
 5   0  0.1439207E-06  0.2806843E+04  0.7818609E-02  0.8301147E-01
        2   -1    0    0  501    0  0.00000000000E+00  0.00000000000E+00  0.17910653867E+04  0.17910653867E+04  0.25500000920E-02 0. -1.
       -2   -1    0    0    0  501  0.00000000000E+00  0.00000000000E+00 -0.10996758310E+04  0.10996758310E+04  0.25500000920E-02 0.  1.
    10030    2    1    2    0    0  0.00000000000E+00  0.00000000000E+00  0.69138955573E+03  0.28907412177E+04  0.28068425802E+04 0.  0.
        5    1    3    3  502    0  0.12884062386E+04 -0.95144073706E+01 -0.22725045929E+03  0.13083371205E+04  0.46999998093E+01 0.  1.
       -5    1    3    3    0  502 -0.12884062386E+04  0.95144073706E+01  0.91864001502E+03  0.15824040972E+04  0.46999998093E+01 0. -1.
</event>
<event>
 5   0  0.5214658E-07  0.2804097E+04  0.7818609E-02  0.8301998E-01
       -1   -1    0    0    0  501  0.00000000000E+00  0.00000000000E+00  0.13476577013E+04  0.13476577013E+04  0.50400001928E-02 0. -1.
        1   -1    0    0  501    0  0.00000000000E+00  0.00000000000E+00 -0.14586340806E+04  0.14586340806E+04  0.50400001928E-02 0.  1.
    10030    2    1    2    0    0  0.00000000000E+00  0.00000000000E+00 -0.11097637934E+03  0.28062917819E+04  0.28040966118E+04 0.  0.
        2    1    3    3  502    0 -0.92271669839E+03 -0.37145301175E+03 -0.10443690085E+04  0.14422517364E+04  0.25500000920E-02 0.  1.
       -2    1    3    3    0  502  0.92271669839E+03  0.37145301175E+03  0.93339262913E+03  0.13640400454E+04  0.25500000920E-02 0. -1.
</event>
<event>
 5   0  0.1377807E-06  0.2799042E+04  0.7818609E-02  0.8303566E-01
       -2   -1    0    0    0  501  0.00000000000E+00  0.00000000000E+00  0.87695762629E+03  0.87695762629E+03  0.25500000920E-02 0. -1.
        2   -1    0    0  501    0  0.00000000000E+00  0.00000000000E+00 -0.22334699441E+04  0.22334699441E+04  0.25500000920E-02 0.  1.
    10030    2    1    2    0    0  0.00000000000E+00  0.00000000000E+00 -0.13565123178E+04  0.31104275704E+04  0.27990416221E+04 0.  0.
        2    1    3    3  502    0 -0.91810869751E+03  0.65803132642E+03  0.23993928223E+03  0.11547725604E+04  0.25500000920E-02 0. -1.
       -2    1    3    3    0  502  0.91810869751E+03 -0.65803132642E+03 -0.15964516000E+04  0.19556550100E+04  0.25500000920E-02 0.  1.
</event>
<event>
 5   0  0.1499888E-06  0.2798719E+04  0.7818609E-02  0.8303666E-01
       -2   -1    0    0    0  501  0.00000000000E+00  0.00000000000E+00  0.17317382498E+04  0.17317382498E+04  0.25500000920E-02 0.  1.
        2   -1    0    0  501    0  0.00000000000E+00  0.00000000000E+00 -0.11307756925E+04  0.11307756925E+04  0.25500000920E-02 0. -1.
    10030    2    1    2    0    0  0.00000000000E+00  0.00000000000E+00  0.60096255731E+03  0.28625139423E+04  0.27987193633E+04 0.  0.
        3    1    3    3  502    0  0.74723587187E+03  0.83048213352E+03  0.11623912868E+04  0.16122082794E+04  0.10100000352E+00 0.  1.
       -3    1    3    3    0  502 -0.74723587187E+03 -0.83048213352E+03 -0.56142872947E+03  0.12503056629E+04  0.10100000352E+00 0. -1.
</event>
<event>
 5   0  0.1461146E-06  0.2801861E+04  0.7818609E-02  0.8302691E-01
        2   -1    0    0  501    0  0.00000000000E+00  0.00000000000E+00  0.12202459332E+04  0.12202459332E+04  0.25500000920E-02 0. -1.
       -2   -1    0    0    0  501  0.00000000000E+00  0.00000000000E+00 -0.16083695535E+04  0.16083695535E+04  0.25500000920E-02 0.  1.
    10030    2    1    2    0    0  0.00000000000E+00  0.00000000000E+00 -0.38812362029E+03  0.28286154867E+04  0.28018611005E+04 0.  0.
        1    1    3    3  502    0 -0.12616964196E+04  0.17729174140E+03  0.39399164277E+03  0.13336189978E+04  0.50400001928E-02 0. -1.
       -1    1    3    3    0  502  0.12616964196E+04 -0.17729174140E+03 -0.78211526306E+03  0.14949964888E+04  0.50400001928E-02 0.  1.
</event>
<event>
 5   0  0.1394410E-06  0.2799319E+04  0.7818609E-02  0.8303480E-01
       -2   -1    0    0    0  501  0.00000000000E+00  0.00000000000E+00  0.95618895094E+03  0.95618895094E+03  0.25500000920E-02 0.  1.
        2   -1    0    0  501    0  0.00000000000E+00  0.00000000000E+00 -0.20488067239E+04  0.20488067239E+04  0.25500000920E-02 0. -1.
    10030    2    1    2    0    0  0.00000000000E+00  0.00000000000E+00 -0.10926177729E+04  0.30049956748E+04  0.27993187400E+04 0.  0.
        4    1    3    3  502    0 -0.10874839459E+04 -0.69842521305E+03 -0.11230208297E+04  0.17121905582E+04  0.12699999809E+01 0. -1.
       -4    1    3    3    0  502  0.10874839459E+04  0.69842521305E+03  0.30403056777E+02  0.12928051166E+04  0.12699999809E+01 0.  1.
</event>
<event>
 5   0  0.5297741E-07  0.2796140E+04  0.7818609E-02  0.8304468E-01
        1   -1    0    0  501    0  0.00000000000E+00  0.00000000000E+00  0.15019174369E+04  0.15019174369E+04  0.50400001928E-02 0.  1.
       -1   -1    0    0    0  501  0.00000000000E+00  0.00000000000E+00 -0.13014028432E+04  0.13014028432E+04  0.50400001928E-02 0. -1.
    10030    2    1    2    0    0  0.00000000000E+00  0.00000000000E+00  0.20051459369E+03  0.28033202800E+04  0.27961399268E+04 0.  0.
        5    1    3    3  502    0  0.13495126356E+04  0.34073241077E+03  0.23210395231E+03  0.14110908065E+04  0.46999998093E+01 0.  1.
       -5    1    3    3    0  502 -0.13495126356E+04 -0.34073241077E+03 -0.31589358611E+02  0.13922294735E+04  0.46999998093E+01 0. -1.
</event>
<event>
 5   0  0.5282098E-07  0.2801124E+04  0.7818609E-02  0.8302920E-01
       -1   -1    0    0    0  501  0.00000000000E+00  0.00000000000E+00  0.17961942048E+04  0.17961942048E+04  0.50400001928E-02 0. -1.
        1   -1    0    0  501    0  0.00000000000E+00  0.00000000000E+00 -0.10920719148E+04  0.10920719148E+04  0.50400001928E-02 0.  1.
    10030    2    1    2    0    0  0.00000000000E+00  0.00000000000E+00  0.70412229008E+03  0.28882661196E+04  0.28011235207E+04 0.  0.
        4    1    3    3  502    0 -0.11362727008E+04  0.74444981855E+03  0.49887133959E+00  0.13584266799E+04  0.12699999809E+01 0.  1.
       -4    1    3    3    0  502  0.11362727008E+04 -0.74444981855E+03  0.70362341874E+03  0.15298394397E+04  0.12699999809E+01 0. -1.
</event>
<event>
 5   0  0.4710000E-07  0.2810399E+04  0.7818609E-02  0.8300047E-01
       -3   -1    0    0    0  501  0.00000000000E+00  0.00000000000E+00  0.21389130230E+04  0.21389130254E+04  0.10100000352E+00 0. -1.
        3   -1    0    0  501    0  0.00000000000E+00  0.00000000000E+00 -0.92317275434E+03  0.92317275986E+03  0.10100000352E+00 0.  1.
    10030    2    1    2    0    0  0.00000000000E+00  0.00000000000E+00  0.12157402687E+04  0.30620857853E+04  0.28103994299E+04 0.  0.
        2    1    3    3  502    0 -0.76070844434E+02  0.29666112594E+03 -0.88636742197E+03  0.93778558517E+03  0.25500000920E-02 0.  1.
       -2    1    3    3    0  502  0.76070844434E+02 -0.29666112594E+03  0.21021076907E+04  0.21243002001E+04  0.25500000920E-02 0. -1.
</event>
<event>
 5   0  0.1499888E-06  0.2792815E+04  0.7818609E-02  0.8305502E-01
       -2   -1    0    0    0  501  0.00000000000E+00  0.00000000000E+00  0.13144711596E+04  0.13144711596E+04  0.25500000920E-02 0. -1.
        2   -1    0    0  501    0  0.00000000000E+00  0.00000000000E+00 -0.14834516003E+04  0.14834516003E+04  0.25500000920E-02 0.  1.
    10030    2    1    2    0    0  0.00000000000E+00  0.00000000000E+00 -0.16898044070E+03  0.27979227599E+04  0.27928153145E+04 0.  0.
        3    1    3    3  502    0 -0.12635702619E+04  0.56632059811E+03 -0.26544587012E+03  0.14098901897E+04  0.10100000352E+00 0.  1.
       -3    1    3    3    0  502  0.12635702619E+04 -0.56632059811E+03  0.96465429420E+02  0.13880325702E+04  0.10100000352E+00 0. -1.
</event>
<event>
 5   0  0.1377807E-06  0.2801030E+04  0.7818609E-02  0.8302949E-01
        2   -1    0    0  501    0  0.00000000000E+00  0.00000000000E+00  0.16756561294E+04  0.16756561294E+04  0.25500000920E-02 0. -1.
       -2   -1    0    0    0  501  0.00000000000E+00  0.00000000000E+00 -0.11705514009E+04  0.11705514009E+04  0.25500000920E-02 0.  1.
    10030    2    1    2    0    0  0.00000000000E+00  0.00000000000E+00  0.50510472846E+03  0.28462075303E+04  0.28010295462E+04 0.  0.
        2    1    3    3  502    0  0.42836103930E+02  0.24901276978E+03 -0.11471997545E+04  0.11746955214E+04  0.25500000920E-02 0.  1.
       -2    1    3    3    0  502 -0.42836103930E+02 -0.24901276978E+03  0.16523044830E+04  0.16715120089E+04  0.25500000920E-02 0. -1.
</event>
<event>
 5   0  0.1439207E-06  0.2798983E+04  0.7818609E-02  0.8303584E-01
       -2   -1    0    0    0  501  0.00000000000E+00  0.00000000000E+00  0.12816129445E+04  0.12816129445E+04  0.25500000920E-02 0.  1.
        2   -1    0    0  501    0  0.00000000000E+00  0.00000000000E+00 -0.15282126591E+04  0.15282126591E+04  0.25500000920E-02 0. -1.
    10030    2    1    2    0    0  0.00000000000E+00  0.00000000000E+00 -0.24659971463E+03  0.28098256036E+04  0.27989834768E+04 0.  0.
        5    1    3    3  502    0 -0.59604353281E+03 -0.76806387597E+03 -0.11338595838E+04  0.14936029112E+04  0.46999998093E+01 0. -1.
       -5    1    3    3    0  502  0.59604353281E+03  0.76806387597E+03  0.88725986919E+03  0.13162226924E+04  0.46999998093E+01 0.  1.
</event>
<event>
 5   0  0.5282098E-07  0.2800244E+04  0.7818609E-02  0.8303193E-01
        1   -1    0    0  501    0  0.00000000000E+00  0.00000000000E+00  0.14090657896E+04  0.14090657896E+04  0.50400001928E-02 0.  1.
       -1   -1    0    0    0  501  0.00000000000E+00  0.00000000000E+00 -0.13912349859E+04  0.13912349859E+04  0.50400001928E-02 0. -1.
    10030    2    1    2    0    0  0.00000000000E+00  0.00000000000E+00  0.17830803728E+02  0.28003007755E+04  0.28002440065E+04 0.  0.
        4    1    3    3  502    0  0.19434520162E+03  0.10026767501E+04 -0.94881445455E+03  0.13940520810E+04  0.12699999809E+01 0. -1.
       -4    1    3    3    0  502 -0.19434520162E+03 -0.10026767501E+04  0.96664525828E+03  0.14062486945E+04  0.12699999809E+01 0.  1.
</event>
<event>
 5   0  0.5362952E-07  0.2795064E+04  0.7818609E-02  0.8304802E-01
        1   -1    0    0  501    0  0.00000000000E+00  0.00000000000E+00  0.18058582938E+04  0.18058582939E+04  0.50400001928E-02 0. -1.
       -1   -1    0    0    0  501  0.00000000000E+00  0.00000000000E+00 -0.10815330430E+04  0.10815330430E+04  0.50400001928E-02 0.  1.
    10030    2    1    2    0    0  0.00000000000E+00  0.00000000000E+00  0.72432525086E+03  0.28873913368E+04  0.27950638030E+04 0.  0.
        1    1    3    3  502    0 -0.10376802523E+04  0.24038842138E+02  0.13288829137E+04  0.16862051982E+04  0.50400001928E-02 0. -1.
       -1    1    3    3    0  502  0.10376802523E+04 -0.24038842138E+02 -0.60455766288E+03  0.12011861387E+04  0.50400001928E-02 0.  1.
</event>
<event>
 5   0  0.1377807E-06  0.2793626E+04  0.7818609E-02  0.8305250E-01
       -2   -1    0    0    0  501  0.00000000000E+00  0.00000000000E+00  0.74494870683E+03  0.74494870684E+03  0.25500000920E-02 0.  1.
        2   -1    0    0  501    0  0.00000000000E+00  0.00000000000E+00 -0.26190880298E+04  0.26190880298E+04  0.25500000920E-02 0. -1.
    10030    2    1    2    0    0  0.00000000000E+00  0.00000000000E+00 -0.18741393230E+04  0.33640367367E+04  0.27936257737E+04 0.  0.
        2    1    3    3  502    0 -0.40111402896E+03 -0.72570291498E+03  0.41652475672E+03  0.92791705341E+03  0.25500000920E-02 0.  1.
       -2    1    3    3    0  502  0.40111402896E+03  0.72570291498E+03 -0.22906640797E+04  0.24361196832E+04  0.25500000920E-02 0. -1.
</event>
<event>
 5   0  0.5282098E-07  0.2770891E+04  0.7818609E-02  0.8312363E-01
       -1   -1    0    0    0  501  0.00000000000E+00  0.00000000000E+00  0.12590463275E+04  0.12590463275E+04  0.50400001928E-02 0. -1.
        1   -1    0    0  501    0  0.00000000000E+00  0.00000000000E+00 -0.15245337364E+04  0.15245337364E+04  0.50400001928E-02 0.  1.
    10030    2    1    2    0    0  0.00000000000E+00  0.00000000000E+00 -0.26548740897E+03  0.27835800639E+04  0.27708905442E+04 0.  0.
        4    1    3    3  502    0 -0.10006022551E+04  0.94810310733E+03 -0.27249445971E+03  0.14051189340E+04  0.12699999809E+01 0.  1.
       -4    1    3    3    0  502  0.10006022551E+04 -0.94810310733E+03  0.70070507395E+01  0.13784611299E+04  0.12699999809E+01 0. -1.
</event>
<event>
 5   0  0.1394410E-06  0.2792656E+04  0.7818609E-02  0.8305552E-01
       -2   -1    0    0    0  501  0.00000000000E+00  0.00000000000E+00  0.13315803024E+04  0.13315803024E+04  0.25500000920E-02 0. -1.
        2   -1    0    0  501    0  0.00000000000E+00  0.00000000000E+00 -0.14642244146E+04  0.14642244146E+04  0.25500000920E-02 0.  1.
    10030    2    1    2    0    0  0.00000000000E+00  0.00000000000E+00 -0.13264411226E+03  0.27958047170E+04  0.27926563618E+04 0.  0.
        4    1    3    3  502    0 -0.95897695989E+03 -0.10142220316E+04 -0.28231336810E+02  0.13960951831E+04  0.12699999809E+01 0.  1.
       -4    1    3    3    0  502  0.95897695989E+03  0.10142220316E+04 -0.10441277545E+03  0.13997095340E+04  0.12699999809E+01 0. -1.
</event>
<event>
 5   0  0.5297741E-07  0.2801908E+04  0.7818609E-02  0.8302676E-01
        1   -1    0    0  501    0  0.00000000000E+00  0.00000000000E+00  0.18783796361E+04  0.18783796361E+04  0.50400001928E-02 0.  1.
       -1   -1    0    0    0  501  0.00000000000E+00  0.00000000000E+00 -0.10448748001E+04  0.10448748001E+04  0.50400001928E-02 0. -1.
    10030    2    1    2    0    0  0.00000000000E+00  0.00000000000E+00  0.83350483600E+03  0.29232544362E+04  0.28019075979E+04 0.  0.
        5    1    3    3  502    0  0.12105824252E+04  0.16917243947E+03  0.11308820118E+04  0.16652463293E+04  0.46999998093E+01 0.  1.
       -5    1    3    3    0  502 -0.12105824252E+04 -0.16917243947E+03 -0.29737717585E+03  0.12580081069E+04  0.46999998093E+01 0. -1.
</event>
<event>
 5   0  0.1439207E-06  0.2803332E+04  0.7818609E-02  0.8302235E-01
       -2   -1    0    0    0  501  0.00000000000E+00  0.00000000000E+00  0.12824132937E+04  0.12824132937E+04  0.25500000920E-02 0. -1.
        2   -1    0    0  501    0  0.00000000000E+00  0.00000000000E+00 -0.15320086429E+04  0.15320086429E+04  0.25500000920E-02 0.  1.
    10030    2    1    2    0    0  0.00000000000E+00  0.00000000000E+00 -0.24959534915E+03  0.28144219366E+04  0.28033324810E+04 0.  0.
        5    1    3    3  502    0  0.31717435065E+03  0.12650060428E+04  0.39085488962E+03  0.13614806248E+04  0.46999998093E+01 0.  1.
       -5    1    3    3    0  502 -0.31717435065E+03 -0.12650060428E+04 -0.64045023877E+03  0.14529413117E+04  0.46999998093E+01 0. -1.
</event>
<event>
 5   0  0.1461146E-06  0.2805387E+04  0.7818609E-02  0.8301598E-01
        2   -1    0    0  501    0  0.00000000000E+00  0.00000000000E+00  0.18425570642E+04  0.18425570642E+04  0.25500000920E-02 0.  1.
       -2   -1    0    0    0  501  0.00000000000E+00  0.00000000000E+00 -0.10678362660E+04  0.10678362660E+04  0.25500000920E-02 0. -1.
    10030    2    1    2    0    0  0.00000000000E+00  0.00000000000E+00  0.77472079824E+03  0.29103933302E+04  0.28053871429E+04 0.  0.
        1    1    3    3  502    0 -0.67456335083E+03 -0.42135784503E+03  0.15860170995E+04  0.17742684092E+04  0.50400001928E-02 0.  1.
       -1    1    3    3    0  502  0.67456335083E+03  0.42135784503E+03 -0.81129630125E+03  0.11361249211E+04  0.50400001928E-02 0. -1.
</event>
<event>
 5   0  0.5551565E-07  0.2787656E+04  0.7818609E-02  0.8307111E-01
        1   -1    0    0  501    0  0.00000000000E+00  0.00000000000E+00  0.16909067623E+04  0.16909067623E+04  0.50400001928E-02 0. -1.
       -1   -1    0    0    0  501  0.00000000000E+00  0.00000000000E+00 -0.11489434117E+04  0.11489434117E+04  0.50400001928E-02 0.  1.
    10030    2    1    2    0    0  0.00000000000E+00  0.00000000000E+00  0.54196335061E+03  0.28398501741E+04  0.27876557782E+04 0.  0.
        3    1    3    3  502    0 -0.12766468540E+04 -0.50491653688E+03  0.51629795931E+03  0.14667417946E+04  0.10100000352E+00 0. -1.
       -3    1    3    3    0  502  0.12766468540E+04  0.50491653688E+03  0.25665391296E+02  0.13731083794E+04  0.10100000352E+00 0.  1.
</event>
<event>
 5   0  0.5282098E-07  0.2804268E+04  0.7818609E-02  0.8301945E-01
        1   -1    0    0  501    0  0.00000000000E+00  0.00000000000E+00  0.19227342087E+04  0.19227342087E+04  0.50400001928E-02 0.  1.
       -1   -1    0    0    0  501  0.00000000000E+00  0.00000000000E+00 -0.10224913402E+04  0.10224913402E+04  0.50400001928E-02 0. -1.
    10030    2    1    2    0    0  0.00000000000E+00  0.00000000000E+00  0.90024286851E+03  0.29452255489E+04  0.28042675178E+04 0.  0.
        4    1    3    3  502    0  0.17950859385E+03  0.58892219897E+02  0.19093049998E+04  0.19186294129E+04  0.12699999809E+01 0.  1.
       -4    1    3    3    0  502 -0.17950859385E+03 -0.58892219897E+02 -0.10090621313E+04  0.10265961360E+04  0.12699999809E+01 0. -1.
</event>
<event>
 5   0  0.5282098E-07  0.2806335E+04  0.7818609E-02  0.8301304E-01
        1   -1    0    0  501    0  0.00000000000E+00  0.00000000000E+00  0.15171411602E+04  0.15171411602E+04  0.50400001928E-02 0. -1.
       -1   -1    0    0    0  501  0.00000000000E+00  0.00000000000E+00 -0.12977560341E+04  0.12977560341E+04  0.50400001928E-02 0.  1.
    10030    2    1    2    0    0  0.00000000000E+00  0.00000000000E+00  0.21938512613E+03  0.28148971943E+04  0.28063350444E+04 0.  0.
        4    1    3    3  502    0  0.45734772464E+03 -0.12822021719E+04  0.45083039007E+03  0.14340359146E+04  0.12699999809E+01 0.  1.
       -4    1    3    3    0  502 -0.45734772464E+03  0.12822021719E+04 -0.23144526394E+03  0.13808612798E+04  0.12699999809E+01 0. -1.
</event>
<event>
 5   0  0.5282098E-07  0.2799562E+04  0.7818609E-02  0.8303404E-01
       -1   -1    0    0    0  501  0.00000000000E+00  0.00000000000E+00  0.11762357016E+04  0.11762357016E+04  0.50400001928E-02 0. -1.
        1   -1    0    0  501    0  0.00000000000E+00  0.00000000000E+00 -0.16658112127E+04  0.16658112127E+04  0.50400001928E-02 0.  1.
    10030    2    1    2    0    0  0.00000000000E+00  0.00000000000E+00 -0.48957551111E+03  0.28420469144E+04  0.27995618376E+04 0.  0.
        4    1    3    3  502    0  0.31657379897E+03 -0.10188814320E+04 -0.11646548819E+04  0.15794812280E+04  0.12699999809E+01 0.  1.
       -4    1    3    3    0  502 -0.31657379897E+03  0.10188814320E+04  0.67507937079E+03  0.12625656864E+04  0.12699999809E+01 0. -1.
</event>
<event>
 5   0  0.5551565E-07  0.2800221E+04  0.7818609E-02  0.8303200E-01
       -1   -1    0    0    0  501  0.00000000000E+00  0.00000000000E+00  0.16124286753E+04  0.16124286754E+04  0.50400001928E-02 0. -1.
        1   -1    0    0  501    0  0.00000000000E+00  0.00000000000E+00 -0.12157498399E+04  0.12157498399E+04  0.50400001928E-02 0.  1.
    10030    2    1    2    0    0  0.00000000000E+00  0.00000000000E+00  0.39667883549E+03  0.28281785152E+04  0.28002213512E+04 0.  0.
        3    1    3    3  502    0 -0.98252964281E+03  0.99506378685E+03  0.12841340369E+03  0.14042814715E+04  0.10100000352E+00 0.  1.
       -3    1    3    3    0  502  0.98252964281E+03 -0.99506378685E+03  0.26826543180E+03  0.14238970437E+04  0.10100000352E+00 0. -1.
</event>
<event>
 5   0  0.1439207E-06  0.2804733E+04  0.7818609E-02  0.8301801E-01
        2   -1    0    0  501    0  0.00000000000E+00  0.00000000000E+00  0.16648510596E+04  0.16648510596E+04  0.25500000920E-02 0.  1.
       -2   -1    0    0    0  501  0.00000000000E+00  0.00000000000E+00 -0.11812655494E+04  0.11812655494E+04  0.25500000920E-02 0. -1.
    10030    2    1    2    0    0  0.00000000000E+00  0.00000000000E+00  0.48358551025E+03  0.28461166090E+04  0.28047325730E+04 0.  0.
        5    1    3    3  502    0 -0.39025458001E+03 -0.19343395218E+03  0.15944630880E+04  0.16528913939E+04  0.46999998093E+01 0.  1.
       -5    1    3    3    0  502  0.39025458001E+03  0.19343395218E+03 -0.11108775778E+04  0.11932252151E+04  0.46999998093E+01 0. -1.
</event>
<event>
 5   0  0.1377807E-06  0.2784354E+04  0.7818609E-02  0.8308142E-01
        2   -1    0    0  501    0  0.00000000000E+00  0.00000000000E+00  0.22832857001E+04  0.22832857001E+04  0.25500000920E-02 0.  1.
       -2   -1    0    0    0  501  0.00000000000E+00  0.00000000000E+00 -0.84884579774E+03  0.84884579775E+03  0.25500000920E-02 0. -1.
    10030    2    1    2    0    0  0.00000000000E+00  0.00000000000E+00  0.14344399024E+04  0.31321314979E+04  0.27843544829E+04 0.  0.
        2    1    3    3  502    0  0.49621245797E+03  0.10574902756E+04  0.15692149826E+04  0.19562587119E+04  0.25500000920E-02 0.  1.
       -2    1    3    3    0  502 -0.49621245797E+03 -0.10574902756E+04 -0.13477508017E+03  0.11758727860E+04  0.25500000920E-02 0. -1.
</event>
<event>
 5   0  0.5214658E-07  0.2795723E+04  0.7818609E-02  0.8304597E-01
       -1   -1    0    0    0  501  0.00000000000E+00  0.00000000000E+00  0.80407171031E+03  0.80407171032E+03  0.50400001928E-02 0.  1.
        1   -1    0    0  501    0  0.00000000000E+00  0.00000000000E+00 -0.24301520595E+04  0.24301520595E+04  0.50400001928E-02 0. -1.
    10030    2    1    2    0    0  0.00000000000E+00  0.00000000000E+00 -0.16260803492E+04  0.32342237699E+04  0.27957228209E+04 0.  0.
        2    1    3    3  502    0 -0.65183613674E+03  0.11190489765E+04 -0.14217391623E+04  0.19231492939E+04  0.25500000920E-02 0. -1.
       -2    1    3    3    0  502  0.65183613674E+03 -0.11190489765E+04 -0.20434118697E+03  0.13110744760E+04  0.25500000920E-02 0.  1.
</event>
<event>
 5   0  0.5362952E-07  0.2790670E+04  0.7818609E-02  0.8306171E-01
        1   -1    0    0  501    0  0.00000000000E+00  0.00000000000E+00  0.19926375043E+04  0.19926375043E+04  0.50400001928E-02 0.  1.
       -1   -1    0    0    0  501  0.00000000000E+00  0.00000000000E+00 -0.97707667451E+03  0.97707667452E+03  0.50400001928E-02 0. -1.
    10030    2    1    2    0    0  0.00000000000E+00  0.00000000000E+00  0.10155608298E+04  0.29697141789E+04  0.27906699026E+04 0.  0.
        1    1    3    3  502    0  0.41257311461E+03  0.36331377656E+03 -0.85697750531E+03  0.10181472977E+04  0.50400001928E-02 0. -1.
       -1    1    3    3    0  502 -0.41257311461E+03 -0.36331377656E+03  0.18725383351E+04  0.19515668812E+04  0.50400001928E-02 0.  1.
</event>
<event>
 5   0  0.5551565E-07  0.2794312E+04  0.7818609E-02  0.8305036E-01
       -1   -1    0    0    0  501  0.00000000000E+00  0.00000000000E+00  0.60939180372E+03  0.60939180374E+03  0.50400001928E-02 0. -1.
        1   -1    0    0  501    0  0.00000000000E+00  0.00000000000E+00 -0.32032682417E+04  0.32032682417E+04  0.50400001928E-02 0.  1.
    10030    2    1    2    0    0  0.00000000000E+00  0.00000000000E+00 -0.25938764380E+04  0.38126600455E+04  0.27943123746E+04 0.  0.
        3    1    3    3  502    0 -0.52102457451E+03  0.34324877682E+03 -0.30026244495E+04  0.30667637543E+04  0.10100000352E+00 0.  1.
       -3    1    3    3    0  502  0.52102457451E+03 -0.34324877682E+03  0.40874801148E+03  0.74589629113E+03  0.10100000352E+00 0. -1.
</event>
<event>
 5   0  0.5362952E-07  0.2798316E+04  0.7818609E-02  0.8303791E-01
        1   -1    0    0  501    0  0.00000000000E+00  0.00000000000E+00  0.16803936492E+04  0.16803936492E+04  0.50400001928E-02 0.  1.
       -1   -1    0    0    0  501  0.00000000000E+00  0.00000000000E+00 -0.11649904614E+04  0.11649904615E+04  0.50400001928E-02 0. -1.
    10030    2    1    2    0    0  0.00000000000E+00  0.00000000000E+00  0.51540318771E+03  0.28453841106E+04  0.27983156168E+04 0.  0.
        1    1    3    3  502    0  0.11886727138E+04 -0.20123877944E+02  0.10078743555E+04  0.15585757946E+04  0.50400001928E-02 0.  1.
       -1    1    3    3    0  502 -0.11886727138E+04  0.20123877944E+02 -0.49247116777E+03  0.12868083160E+04  0.50400001928E-02 0. -1.
</event>
<event>
 5   0  0.5282098E-07  0.2807604E+04  0.7818609E-02  0.8300912E-01
        1   -1    0    0  501    0  0.00000000000E+00  0.00000000000E+00  0.26529516769E+04  0.26529516769E+04  0.50400001928E-02 0. -1.
       -1   -1    0    0    0  501  0.00000000000E+00  0.00000000000E+00 -0.74281766078E+03  0.74281766080E+03  0.50400001928E-02 0.  1.
    10030    2    1    2    0    0  0.00000000000E+00  0.00000000000E+00  0.19101340161E+04  0.33957693377E+04  0.28076035039E+04 0.  0.
        4    1    3    3  502    0 -0.74950504783E+03 -0.11243019975E+04  0.14153809004E+04  0.19568130990E+04  0.12699999809E+01 0. -1.
       -4    1    3    3    0  502  0.74950504783E+03  0.11243019975E+04  0.49475311566E+03  0.14389562386E+04  0.12699999809E+01 0.  1.
</event>
<event>
 5   0  0.5282098E-07  0.2797816E+04  0.7818609E-02  0.8303947E-01
        1   -1    0    0  501    0  0.00000000000E+00  0.00000000000E+00  0.15706859434E+04  0.15706859434E+04  0.50400001928E-02 0. -1.
       -1   -1    0    0    0  501  0.00000000000E+00  0.00000000000E+00 -0.12459165003E+04  0.12459165003E+04  0.50400001928E-02 0.  1.
    10030    2    1    2    0    0  0.00000000000E+00  0.00000000000E+00  0.32476944302E+03  0.28166024437E+04  0.27978159580E+04 0.  0.
        4    1    3    3  502    0  0.10177452242E+04  0.95917458102E+03  0.12868303973E+03  0.14044152363E+04  0.12699999809E+01 0. -1.
       -4    1    3    3    0  502 -0.10177452242E+04 -0.95917458102E+03  0.19608640329E+03  0.14121872074E+04  0.12699999809E+01 0.  1.
</event>
<event>
 5   0  0.5551565E-07  0.2807654E+04  0.7818609E-02  0.8300896E-01
        1   -1    0    0  501    0  0.00000000000E+00  0.00000000000E+00  0.18830426049E+04  0.18830426049E+04  0.50400001928E-02 0. -1.
       -1   -1    0    0    0  501  0.00000000000E+00  0.00000000000E+00 -0.10465668070E+04  0.10465668070E+04  0.50400001928E-02 0.  1.
    10030    2    1    2    0    0  0.00000000000E+00  0.00000000000E+00  0.83647579789E+03  0.29296094119E+04  0.28076537440E+04 0.  0.
        3    1    3    3  502    0  0.93217831067E+03  0.85327833748E+03 -0.21961664406E+03  0.12826814899E+04  0.10100000352E+00 0.  1.
       -3    1    3    3    0  502 -0.93217831067E+03 -0.85327833748E+03  0.10560924420E+04  0.16469279220E+04  0.10100000352E+00 0. -1.
</event>
<event>
 5   0  0.1377807E-06  0.2798329E+04  0.7818609E-02  0.8303787E-01
       -2   -1    0    0    0  501  0.00000000000E+00  0.00000000000E+00  0.10677522110E+04  0.10677522110E+04  0.25500000920E-02 0. -1.
        2   -1    0    0  501    0  0.00000000000E+00  0.00000000000E+00 -0.18334410608E+04  0.18334410608E+04  0.25500000920E-02 0.  1.
    10030    2    1    2    0    0  0.00000000000E+00  0.00000000000E+00 -0.76568884985E+03  0.29011932719E+04  0.27983286058E+04 0.  0.
        2    1    3    3  502    0 -0.87571871168E+03  0.77728272546E+03 -0.11769026135E+04  0.16601660938E+04  0.25500000920E-02 0.  1.
       -2    1    3    3    0  502  0.87571871168E+03 -0.77728272546E+03  0.41121376365E+03  0.12410271781E+04  0.25500000920E-02 0. -1.
</event>
<event>
 5   0  0.5297741E-07  0.2801342E+04  0.7818609E-02  0.8302852E-01
        1   -1    0    0  501    0  0.00000000000E+00  0.00000000000E+00  0.21236736858E+04  0.21236736858E+04  0.50400001928E-02 0.  1.
       -1   -1    0    0    0  501  0.00000000000E+00  0.00000000000E+00 -0.92381398670E+03  0.92381398671E+03  0.50400001928E-02 0. -1.
    10030    2    1    2    0    0  0.00000000000E+00  0.00000000000E+00  0.11998596991E+04  0.30474876725E+04  0.28013421456E+04 0.  0.
        5    1    3    3  502    0 -0.12079732996E+04 -0.70621050521E+03  0.66808099642E+03  0.15505763696E+04  0.46999998093E+01 0.  1.
       -5    1    3    3    0  502  0.12079732996E+04  0.70621050521E+03  0.53177870270E+03  0.14969113029E+04  0.46999998093E+01 0. -1.
</event>
<event>
 5   0  0.1461146E-06  0.2794630E+04  0.7818609E-02  0.8304937E-01
        2   -1    0    0  501    0  0.00000000000E+00  0.00000000000E+00  0.19881003737E+04  0.19881003737E+04  0.25500000920E-02 0.  1.
       -2   -1    0    0    0  501  0.00000000000E+00  0.00000000000E+00 -0.98208814258E+03  0.98208814259E+03  0.25500000920E-02 0. -1.
    10030    2    1    2    0    0  0.00000000000E+00  0.00000000000E+00  0.10060122311E+04  0.29701885163E+04  0.27946304252E+04 0.  0.
        1    1    3    3  502    0 -0.12394005268E+04 -0.50062279571E+03  0.93570947794E+03  0.16316522536E+04  0.50400001928E-02 0.  1.
       -1    1    3    3    0  502  0.12394005268E+04  0.50062279571E+03  0.70302753191E+02  0.13385362627E+04  0.50400001928E-02 0. -1.
</event>
<event>
 5   0  0.5551565E-07  0.2797957E+04  0.7818609E-02  0.8303903E-01
        1   -1    0    0  501    0  0.00000000000E+00  0.00000000000E+00  0.17717718551E+04  0.17717718551E+04  0.50400001928E-02 0.  1.
       -1   -1    0    0    0  501  0.00000000000E+00  0.00000000000E+00 -0.11046235242E+04  0.11046235242E+04  0.50400001928E-02 0. -1.
    10030    2    1    2    0    0  0.00000000000E+00  0.00000000000E+00  0.66714833089E+03  0.28763953793E+04  0.27979570195E+04 0.  0.
        3    1    3    3  502    0 -0.18694227694E+02  0.91342295450E+03 -0.75558418356E+03  0.11855793675E+04  0.10100000352E+00 0. -1.
       -3    1    3    3    0  502  0.18694227694E+02 -0.91342295450E+03  0.14227325145E+04  0.16908160118E+04  0.10100000352E+00 0.  1.
</event>
<event>
 5   0  0.1461146E-06  0.2796565E+04  0.7818609E-02  0.8304336E-01
        2   -1    0    0  501    0  0.00000000000E+00  0.00000000000E+00  0.23329750297E+04  0.23329750297E+04  0.25500000920E-02 0.  1.
       -2   -1    0    0    0  501  0.00000000000E+00  0.00000000000E+00 -0.83806881210E+03  0.83806881210E+03  0.25500000920E-02 0. -1.
    10030    2    1    2    0    0  0.00000000000E+00  0.00000000000E+00  0.14949062176E+04  0.31710438418E+04  0.27965647583E+04 0.  0.
        1    1    3    3  502    0 -0.60339927468E+03 -0.29821973835E+03  0.21372028658E+04  0.22406833303E+04  0.50400001928E-02 0.  1.
       -1    1    3    3    0  502  0.60339927468E+03  0.29821973835E+03 -0.64229664821E+03  0.93036051150E+03  0.50400001928E-02 0. -1.
</event>
<event>
 5   0  0.5362952E-07  0.2802313E+04  0.7818609E-02  0.8302551E-01
        1   -1    0    0  501    0  0.00000000000E+00  0.00000000000E+00  0.14415473666E+04  0.14415473666E+04  0.50400001928E-02 0. -1.
       -1   -1    0    0    0  501  0.00000000000E+00  0.00000000000E+00 -0.13618974880E+04  0.13618974880E+04  0.50400001928E-02 0.  1.
    10030    2    1    2    0    0  0.00000000000E+00  0.00000000000E+00  0.79649878644E+02  0.28034448546E+04  0.28023131427E+04 0.  0.
        1    1    3    3  502    0  0.23941327243E+03  0.58363198969E+03 -0.12117977132E+04  0.13661620373E+04  0.50400001928E-02 0.  1.
       -1    1    3    3    0  502 -0.23941327243E+03 -0.58363198969E+03  0.12914475919E+04  0.14372828173E+04  0.50400001928E-02 0. -1.
</event>
<event>
 5   0  0.1439207E-06  0.2802553E+04  0.7818609E-02  0.8302476E-01
       -2   -1    0    0    0  501  0.00000000000E+00  0.00000000000E+00  0.92275147071E+03  0.92275147071E+03  0.25500000920E-02 0. -1.
        2   -1    0    0  501    0  0.00000000000E+00  0.00000000000E+00 -0.21279573457E+04  0.21279573457E+04  0.25500000920E-02 0.  1.
    10030    2    1    2    0    0  0.00000000000E+00  0.00000000000E+00 -0.12052058750E+04  0.30507088165E+04  0.28025529579E+04 0.  0.
        5    1    3    3  502    0 -0.31635750501E+03  0.91218823039E+03  0.50289306138E+03  0.10886197499E+04  0.46999998093E+01 0. -1.
       -5    1    3    3    0  502  0.31635750501E+03 -0.91218823039E+03 -0.17080989364E+04  0.19620890666E+04  0.46999998093E+01 0.  1.
</event>
<event>
 5   0  0.5214658E-07  0.2799343E+04  0.7818609E-02  0.8303472E-01
       -1   -1    0    0    0  501  0.00000000000E+00  0.00000000000E+00  0.18955329967E+04  0.18955329967E+04  0.50400001928E-02 0.  1.
        1   -1    0    0  501    0  0.00000000000E+00  0.00000000000E+00 -0.10335250516E+04  0.10335250516E+04  0.50400001928E-02 0. -1.
    10030    2    1    2    0    0  0.00000000000E+00  0.00000000000E+00  0.86200794514E+03  0.29290580483E+04  0.27993433789E+04 0.  0.
        2    1    3    3  502    0 -0.94267445915E+03  0.81851179229E+03 -0.23115835674E+03  0.12696577791E+04  0.25500000920E-02 0. -1.
       -2    1    3    3    0  502  0.94267445915E+03 -0.81851179229E+03  0.10931663019E+04  0.16594002693E+04  0.25500000920E-02 0.  1.
</event>
<event>
 5   0  0.1499888E-06  0.2814219E+04  0.7818609E-02  0.8298868E-01
        2   -1    0    0  501    0  0.00000000000E+00  0.00000000000E+00  0.14549947113E+04  0.14549947113E+04  0.25500000920E-02 0.  1.
       -2   -1    0    0    0  501  0.00000000000E+00  0.00000000000E+00 -0.13607997782E+04  0.13607997782E+04  0.25500000920E-02 0. -1.
    10030    2    1    2    0    0  0.00000000000E+00  0.00000000000E+00  0.94194933130E+02  0.28157944895E+04  0.28142185277E+04 0.  0.
        3    1    3    3  502    0 -0.21358052458E+03 -0.13226315563E+04 -0.38324290790E+03  0.13935013494E+04  0.10100000352E+00 0. -1.
       -3    1    3    3    0  502  0.21358052458E+03  0.13226315563E+04  0.47743784103E+03  0.14222931401E+04  0.10100000352E+00 0.  1.
</event>
<event>
 5   0  0.1377807E-06  0.2802597E+04  0.7818609E-02  0.8302463E-01
        2   -1    0    0  501    0  0.00000000000E+00  0.00000000000E+00  0.17539279523E+04  0.17539279523E+04  0.25500000920E-02 0. -1.
       -2   -1    0    0    0  501  0.00000000000E+00  0.00000000000E+00 -0.11195656362E+04  0.11195656362E+04  0.25500000920E-02 0.  1.
    10030    2    1    2    0    0  0.00000000000E+00  0.00000000000E+00  0.63436231610E+03  0.28734935886E+04  0.28025969842E+04 0.  0.
        2    1    3    3  502    0  0.27329469268E+02  0.11520069652E+04 -0.50034145439E+03  0.12562676939E+04  0.25500000920E-02 0.  1.
       -2    1    3    3    0  502 -0.27329469268E+02 -0.11520069652E+04  0.11347037705E+04  0.16172258947E+04  0.25500000920E-02 0. -1.
</event>
<event>
 5   0  0.5214658E-07  0.2805105E+04  0.7818609E-02  0.8301685E-01
       -1   -1    0    0    0  501  0.00000000000E+00  0.00000000000E+00  0.12831486769E+04  0.12831486769E+04  0.50400001928E-02 0.  1.
        1   -1    0    0  501    0  0.00000000000E+00  0.00000000000E+00 -0.15330677229E+04  0.15330677229E+04  0.50400001928E-02 0. -1.
    10030    2    1    2    0    0  0.00000000000E+00  0.00000000000E+00 -0.24991904593E+03  0.28162163998E+04  0.28051052175E+04 0.  0.
        2    1    3    3  502    0 -0.13905752971E+04 -0.55260839535E+02  0.50088228598E+02  0.13925739650E+04  0.25500000920E-02 0.  1.
       -2    1    3    3    0  502  0.13905752971E+04  0.55260839535E+02 -0.30000727453E+03  0.14236424348E+04  0.25500000920E-02 0. -1.
</event>
<event>
 5   0  0.1439207E-06  0.2793742E+04  0.7818609E-02  0.8305214E-01
       -2   -1    0    0    0  501  0.00000000000E+00  0.00000000000E+00  0.10645209809E+04  0.10645209809E+04  0.25500000920E-02 0.  1.
        2   -1    0    0  501    0  0.00000000000E+00  0.00000000000E+00 -0.18329829342E+04  0.18329829342E+04  0.25500000920E-02 0. -1.
    10030    2    1    2    0    0  0.00000000000E+00  0.00000000000E+00 -0.76846195322E+03  0.28975039151E+04  0.27937421435E+04 0.  0.
        5    1    3    3  502    0 -0.14004760221E+03  0.88025541517E+02  0.10543191348E+04  0.10672266652E+04  0.46999998093E+01 0.  1.
       -5    1    3    3    0  502  0.14004760221E+03 -0.88025541517E+02 -0.18227810880E+04  0.18302772499E+04  0.46999998093E+01 0. -1.
</event>
<event>
 5   0  0.1439207E-06  0.2794688E+04  0.7818609E-02  0.8304919E-01
       -2   -1    0    0    0  501  0.00000000000E+00  0.00000000000E+00  0.74591907053E+03  0.74591907053E+03  0.25500000920E-02 0.  1.
        2   -1    0    0  501    0  0.00000000000E+00  0.00000000000E+00 -0.26176702198E+04  0.26176702198E+04  0.25500000920E-02 0. -1.
    10030    2    1    2    0    0  0.00000000000E+00  0.00000000000E+00 -0.18717511493E+04  0.33635892904E+04  0.27946879163E+04 0.  0.
        5    1    3    3  502    0 -0.13545071530E+04 -0.27774217476E+03 -0.11787385351E+04  0.18169416521E+04  0.46999998093E+01 0. -1.
       -5    1    3    3    0  502  0.13545071530E+04  0.27774217476E+03 -0.69301261424E+03  0.15466476382E+04  0.46999998093E+01 0.  1.
</event>
<event>
 5   0  0.1499888E-06  0.2798235E+04  0.7818609E-02  0.8303817E-01
       -2   -1    0    0    0  501  0.00000000000E+00  0.00000000000E+00  0.14231034166E+04  0.14231034166E+04  0.25500000920E-02 0.  1.
        2   -1    0    0  501    0  0.00000000000E+00  0.00000000000E+00 -0.13755355718E+04  0.13755355718E+04  0.25500000920E-02 0. -1.
    10030    2    1    2    0    0  0.00000000000E+00  0.00000000000E+00  0.47567844811E+02  0.27986389884E+04  0.27982347092E+04 0.  0.
        3    1    3    3  502    0 -0.74390536829E+03  0.11647311271E+04 -0.19427410416E+03  0.13956132104E+04  0.10100000352E+00 0.  1.
       -3    1    3    3    0  502  0.74390536829E+03 -0.11647311271E+04  0.24184194897E+03  0.14030257780E+04  0.10100000352E+00 0. -1.
</event>
<event>
 5   0  0.1461146E-06  0.2801280E+04  0.7818609E-02  0.8302871E-01
        2   -1    0    0  501    0  0.00000000000E+00  0.00000000000E+00  0.16663860239E+04  0.16663860239E+04  0.25500000920E-02 0.  1.
       -2   -1    0    0    0  501  0.00000000000E+00  0.00000000000E+00 -0.11772735419E+04  0.11772735419E+04  0.25500000920E-02 0. -1.
    10030    2    1    2    0    0  0.00000000000E+00  0.00000000000E+00  0.48911248199E+03  0.28436595658E+04  0.28012798336E+04 0.  0.
        1    1    3    3  502    0  0.94549703184E+03 -0.13779540384E+03  0.12841788648E+04  0.16006459844E+04  0.50400001928E-02 0.  1.
       -1    1    3    3    0  502 -0.94549703184E+03  0.13779540384E+03 -0.79506638281E+03  0.12430135814E+04  0.50400001928E-02 0. -1.
</event>
<event>
 5   0  0.5297741E-07  0.2799115E+04  0.7818609E-02  0.8303543E-01
       -1   -1    0    0    0  501  0.00000000000E+00  0.00000000000E+00  0.14624419616E+04  0.14624419616E+04  0.50400001928E-02 0.  1.
        1   -1    0    0  501    0  0.00000000000E+00  0.00000000000E+00 -0.13393773884E+04  0.13393773885E+04  0.50400001928E-02 0. -1.
    10030    2    1    2    0    0  0.00000000000E+00  0.00000000000E+00  0.12306457319E+03  0.28018193501E+04  0.27991153569E+04 0.  0.
        5    1    3    3  502    0  0.95350239545E+03  0.37106196693E+03  0.10173818822E+04  0.14428935462E+04  0.46999998093E+01 0.  1.
       -5    1    3    3    0  502 -0.95350239545E+03 -0.37106196693E+03 -0.89431730899E+03  0.13589258039E+04  0.46999998093E+01 0. -1.
</event>
<event>
 5   0  0.5362952E-07  0.2797139E+04  0.7818609E-02  0.8304157E-01
       -1   -1    0    0    0  501  0.00000000000E+00  0.00000000000E+00  0.18065369173E+04  0.18065369173E+04  0.50400001928E-02 0. -1.
        1   -1    0    0  501    0  0.00000000000E+00  0.00000000000E+00 -0.10827328151E+04  0.10827328151E+04  0.50400001928E-02 0.  1.
    10030    2    1    2    0    0  0.00000000000E+00  0.00000000000E+00  0.72380410220E+03  0.28892697323E+04  0.27971391113E+04 0.  0.
        1    1    3    3  502    0  0.24075682818E+03 -0.13771532589E+04  0.32213928208E+03  0.14346737140E+04  0.50400001928E-02 0. -1.
       -1    1    3    3    0  502 -0.24075682818E+03  0.13771532589E+04  0.40166482012E+03  0.14545960183E+04  0.50400001928E-02 0.  1.
</event>
<event>
 5   0  0.1377807E-06  0.2803327E+04  0.7818609E-02  0.8302236E-01
        2   -1    0    0  501    0  0.00000000000E+00  0.00000000000E+00  0.25519936368E+04  0.25519936368E+04  0.25500000920E-02 0.  1.
       -2   -1    0    0    0  501  0.00000000000E+00  0.00000000000E+00 -0.76985303638E+03  0.76985303639E+03  0.25500000920E-02 0. -1.
    10030    2    1    2    0    0  0.00000000000E+00  0.00000000000E+00  0.17821406004E+04  0.33218466732E+04  0.28033266311E+04 0.  0.
        2    1    3    3  502    0 -0.12692698578E+04 -0.10319021158E+03  0.15850253247E+04  0.20332239108E+04  0.25500000920E-02 0. -1.
       -2    1    3    3    0  502  0.12692698578E+04  0.10319021158E+03  0.19711527571E+03  0.12886227623E+04  0.25500000920E-02 0.  1.
</event>
<event>
 5   0  0.5214658E-07  0.2799176E+04  0.7818609E-02  0.8303524E-01
       -1   -1    0    0    0  501  0.00000000000E+00  0.00000000000E+00  0.11394996847E+04  0.11394996847E+04  0.50400001928E-02 0. -1.
        1   -1    0    0  501    0  0.00000000000E+00  0.00000000000E+00 -0.17190412862E+04  0.17190412862E+04  0.50400001928E-02 0.  1.
    10030    2    1    2    0    0  0.00000000000E+00  0.00000000000E+00 -0.57954160152E+03  0.28585409709E+04  0.27991763100E+04 0.  0.
        2    1    3    3  502    0  0.11450288822E+04 -0.77908636045E+03 -0.49599489496E+03  0.14710804308E+04  0.25500000920E-02 0. -1.
       -2    1    3    3    0  502 -0.11450288822E+04  0.77908636045E+03 -0.83546706566E+02  0.13874605401E+04  0.25500000920E-02 0.  1.
</event>
<event>
 5   0  0.1461146E-06  0.2795822E+04  0.7818609E-02  0.8304567E-01
       -2   -1    0    0    0  501  0.00000000000E+00  0.00000000000E+00  0.98277703910E+03  0.98277703910E+03  0.25500000920E-02 0. -1.
        2   -1    0    0  501    0  0.00000000000E+00  0.00000000000E+00 -0.19884006703E+04  0.19884006703E+04  0.25500000920E-02 0.  1.
    10030    2    1    2    0    0  0.00000000000E+00  0.00000000000E+00 -0.10056236312E+04  0.29711777094E+04  0.27958215417E+04 0.  0.
        1    1    3    3  502    0 -0.11204809884E+04  0.83466997841E+03 -0.55037263896E+03  0.15016862722E+04  0.50400001928E-02 0.  1.
       -1    1    3    3    0  502  0.11204809884E+04 -0.83466997841E+03 -0.45525099224E+03  0.14694914373E+04  0.50400001928E-02 0. -1.
</event>
<event>
 5   0  0.1439207E-06  0.2796456E+04  0.7818609E-02  0.8304370E-01
        2   -1    0    0  501    0  0.00000000000E+00  0.00000000000E+00  0.15194302763E+04  0.15194302763E+04  0.25500000920E-02 0.  1.
       -2   -1    0    0    0  501  0.00000000000E+00  0.00000000000E+00 -0.12866934977E+04  0.12866934977E+04  0.25500000920E-02 0. -1.
    10030    2    1    2    0    0  0.00000000000E+00  0.00000000000E+00  0.23273677857E+03  0.28061237741E+04  0.27964556544E+04 0.  0.
        5    1    3    3  502    0  0.79648662238E+03 -0.10739197487E+03  0.12644809466E+04  0.14982850630E+04  0.46999998093E+01 0.  1.
       -5    1    3    3    0  502 -0.79648662238E+03  0.10739197487E+03 -0.10317441680E+04  0.13078387110E+04  0.46999998093E+01 0. -1.
</event>
<event>
 5   0  0.5297741E-07  0.2802467E+04  0.7818609E-02  0.8302503E-01
        1   -1    0    0  501    0  0.00000000000E+00  0.00000000000E+00  0.13794608581E+04  0.13794608581E+04  0.50400001928E-02 0.  1.
       -1   -1    0    0    0  501  0.00000000000E+00  0.00000000000E+00 -0.14233494153E+04  0.14233494153E+04  0.50400001928E-02 0. -1.
    10030    2    1    2    0    0  0.00000000000E+00  0.00000000000E+00 -0.43888557197E+02  0.28028102734E+04  0.28024666320E+04 0.  0.
        5    1    3    3  502    0 -0.50443705255E+03  0.12995449762E+04 -0.16394348533E+03  0.14036286694E+04  0.46999998093E+01 0.  1.
       -5    1    3    3    0  502  0.50443705255E+03 -0.12995449762E+04  0.12005492813E+03  0.13991816040E+04  0.46999998093E+01 0. -1.
</event>
<event>
 5   0  0.5297741E-07  0.2768586E+04  0.7818609E-02  0.8313088E-01
        1   -1    0    0  501    0  0.00000000000E+00  0.00000000000E+00  0.12731417265E+04  0.12731417265E+04  0.50400001928E-02 0.  1.
       -1   -1    0    0    0  501  0.00000000000E+00  0.00000000000E+00 -0.15051486305E+04  0.15051486305E+04  0.50400001928E-02 0. -1.
    10030    2    1    2    0    0  0.00000000000E+00  0.00000000000E+00 -0.23200690398E+03  0.27782903570E+04  0.27685863007E+04 0.  0.
        5    1    3    3  502    0  0.59084011777E+03 -0.32341727804E+03 -0.13296035930E+04  0.14904893777E+04  0.46999998093E+01 0. -1.
       -5    1    3    3    0  502 -0.59084011777E+03  0.32341727804E+03  0.10975966890E+04  0.12878009793E+04  0.46999998093E+01 0.  1.
</event>
<event>
 5   0  0.1461146E-06  0.2795681E+04  0.7818609E-02  0.8304611E-01
        2   -1    0    0  501    0  0.00000000000E+00  0.00000000000E+00  0.18494055566E+04  0.18494055566E+04  0.25500000920E-02 0. -1.
       -2   -1    0    0    0  501  0.00000000000E+00  0.00000000000E+00 -0.10565328953E+04  0.10565328953E+04  0.25500000920E-02 0.  1.
    10030    2    1    2    0    0  0.00000000000E+00  0.00000000000E+00  0.79287266132E+03  0.29059384519E+04  0.27956808168E+04 0.  0.
        1    1    3    3  502    0  0.36404074042E+03  0.67015792333E+03 -0.82122524407E+03  0.11207355640E+04  0.50400001928E-02 0.  1.
       -1    1    3    3    0  502 -0.36404074042E+03 -0.67015792333E+03  0.16140979054E+04  0.17852028879E+04  0.50400001928E-02 0. -1.
</event>
<event>
 5   0  0.1394410E-06  0.2809800E+04  0.7818609E-02  0.8300232E-01
       -2   -1    0    0    0  501  0.00000000000E+00  0.00000000000E+00  0.82029677555E+03  0.82029677556E+03  0.25500000920E-02 0. -1.
        2   -1    0    0  501    0  0.00000000000E+00  0.00000000000E+00 -0.24061336147E+04  0.24061336147E+04  0.25500000920E-02 0.  1.
    10030    2    1    2    0    0  0.00000000000E+00  0.00000000000E+00 -0.15858368392E+04  0.32264303903E+04  0.28097997407E+04 0.  0.
        4    1    3    3  502    0  0.62143299322E+03  0.67936837809E+03  0.42556691575E+03  0.10143121664E+04  0.12699999809E+01 0. -1.
       -4    1    3    3    0  502 -0.62143299322E+03 -0.67936837809E+03 -0.20114037549E+04  0.22121182239E+04  0.12699999809E+01 0.  1.
</event>
<event>
 5   0  0.5214658E-07  0.2796471E+04  0.7818609E-02  0.8304365E-01
       -1   -1    0    0    0  501  0.00000000000E+00  0.00000000000E+00  0.85839565796E+03  0.85839565797E+03  0.50400001928E-02 0.  1.
        1   -1    0    0  501    0  0.00000000000E+00  0.00000000000E+00 -0.22775778548E+04  0.22775778548E+04  0.50400001928E-02 0. -1.
    10030    2    1    2    0    0  0.00000000000E+00  0.00000000000E+00 -0.14191821969E+04  0.31359735128E+04  0.27964713060E+04 0.  0.
        2    1    3    3  502    0 -0.12952484019E+04 -0.21671661040E+03 -0.17128407250E+03  0.13243763609E+04  0.25500000920E-02 0.  1.
       -2    1    3    3    0  502  0.12952484019E+04  0.21671661040E+03 -0.12478981244E+04  0.18115971519E+04  0.25500000920E-02 0. -1.
</event>
<event>
 5   0  0.5282098E-07  0.2727479E+04  0.7818609E-02  0.8326144E-01
       -1   -1    0    0    0  501  0.00000000000E+00  0.00000000000E+00  0.10527055865E+04  0.10527055865E+04  0.50400001928E-02 0. -1.
        1   -1    0    0  501    0  0.00000000000E+00  0.00000000000E+00 -0.17666713840E+04  0.17666713841E+04  0.50400001928E-02 0.  1.
    10030    2    1    2    0    0  0.00000000000E+00  0.00000000000E+00 -0.71396579756E+03  0.28193769706E+04  0.27274785686E+04 0.  0.
        4    1    3    3  502    0 -0.35334094690E+03 -0.64661364511E+03  0.82921103708E+03  0.11093022977E+04  0.12699999809E+01 0. -1.
       -4    1    3    3    0  502  0.35334094690E+03  0.64661364511E+03 -0.15431768346E+04  0.17100746728E+04  0.12699999809E+01 0.  1.
</event>
<event>
 5   0  0.1439207E-06  0.2805120E+04  0.7818609E-02  0.8301680E-01
       -2   -1    0    0    0  501  0.00000000000E+00  0.00000000000E+00  0.17976126881E+04  0.17976126881E+04  0.25500000920E-02 0. -1.
        2   -1    0    0  501    0  0.00000000000E+00  0.00000000000E+00 -0.10943264554E+04  0.10943264554E+04  0.25500000920E-02 0.  1.
    10030    2    1    2    0    0  0.00000000000E+00  0.00000000000E+00  0.70328623266E+03  0.28919391435E+04  0.28051204046E+04 0.  0.
        5    1    3    3  502    0  0.25434308798E+03 -0.96063574018E+02 -0.10668911708E+04  0.11009984001E+04  0.46999998093E+01 0.  1.
       -5    1    3    3    0  502 -0.25434308798E+03  0.96063574018E+02  0.17701774034E+04  0.17909407434E+04  0.46999998093E+01 0. -1.
</event>
<event>
 5   0  0.5362952E-07  0.2800170E+04  0.7818609E-02  0.8303216E-01
       -1   -1    0    0    0  501  0.00000000000E+00  0.00000000000E+00  0.10413620912E+04  0.10413620912E+04  0.50400001928E-02 0.  1.
        1   -1    0    0  501    0  0.00000000000E+00  0.00000000000E+00 -0.18823783507E+04  0.18823783507E+04  0.50400001928E-02 0. -1.
    10030    2    1    2    0    0  0.00000000000E+00  0.00000000000E+00 -0.84101625952E+03  0.29237404419E+04  0.28001696061E+04 0.  0.
        1    1    3    3  502    0  0.99293823069E+03 -0.61546113394E+03  0.38524534323E+03  0.12300945947E+04  0.50400001928E-02 0.  1.
       -1    1    3    3    0  502 -0.99293823069E+03  0.61546113394E+03 -0.12262616028E+04  0.16936458472E+04  0.50400001928E-02 0. -1.
</event>
<event>
 5   0  0.1439207E-06  0.2800816E+04  0.7818609E-02  0.8303015E-01
        2   -1    0    0  501    0  0.00000000000E+00  0.00000000000E+00  0.17063282235E+04  0.17063282235E+04  0.25500000920E-02 0.  1.
       -2   -1    0    0    0  501  0.00000000000E+00  0.00000000000E+00 -0.11493345087E+04  0.11493345087E+04  0.25500000920E-02 0. -1.
    10030    2    1    2    0    0  0.00000000000E+00  0.00000000000E+00  0.55699371482E+03  0.28556627322E+04  0.28008155315E+04 0.  0.
        5    1    3    3  502    0 -0.67126452844E+03 -0.97568972654E+03 -0.48350270674E+03  0.12792042320E+04  0.46999998093E+01 0. -1.
       -5    1    3    3    0  502  0.67126452844E+03  0.97568972654E+03  0.10404964216E+04  0.15764585002E+04  0.46999998093E+01 0.  1.
</event>
<event>
 5   0  0.5214658E-07  0.2740460E+04  0.7818609E-02  0.8321995E-01
       -1   -1    0    0    0  501  0.00000000000E+00  0.00000000000E+00  0.15654165732E+04  0.15654165732E+04  0.50400001928E-02 0.  1.
        1   -1    0    0  501    0  0.00000000000E+00  0.00000000000E+00 -0.11993804127E+04  0.11993804127E+04  0.50400001928E-02 0. -1.
    10030    2    1    2    0    0  0.00000000000E+00  0.00000000000E+00  0.36603616046E+03  0.27647969859E+04  0.27404597977E+04 0.  0.
        2    1    3    3  502    0  0.94820239348E+03  0.94473360393E+03 -0.11270723172E+03  0.13432469175E+04  0.25500000920E-02 0. -1.
       -2    1    3    3    0  502 -0.94820239348E+03 -0.94473360393E+03  0.47874339218E+03  0.14215500684E+04  0.25500000920E-02 0.  1.
</event>
<event>
 5   0  0.1461146E-06  0.2797424E+04  0.7818609E-02  0.8304068E-01
        2   -1    0    0  501    0  0.00000000000E+00  0.00000000000E+00  0.14622616783E+04  0.14622616783E+04  0.25500000920E-02 0.  1.
       -2   -1    0    0    0  501  0.00000000000E+00  0.00000000000E+00 -0.13379243732E+04  0.13379243732E+04  0.25500000920E-02 0. -1.
    10030    2    1    2    0    0  0.00000000000E+00  0.00000000000E+00  0.12433730515E+03  0.28001860515E+04  0.27974242005E+04 0.  0.
        1    1    3    3  502    0  0.11759521208E+04 -0.59316593607E+03 -0.40913196478E+03  0.13791657561E+04  0.50400001928E-02 0. -1.
       -1    1    3    3    0  502 -0.11759521208E+04  0.59316593607E+03  0.53346926993E+03  0.14210202955E+04  0.50400001928E-02 0.  1.
</event>
<event>
 5   0  0.1377807E-06  0.2795611E+04  0.7818609E-02  0.8304632E-01
        2   -1    0    0  501    0  0.00000000000E+00  0.00000000000E+00  0.17787626105E+04  0.17787626105E+04  0.25500000920E-02 0.  1.
       -2   -1    0    0    0  501  0.00000000000E+00  0.00000000000E+00 -0.10984376917E+04  0.10984376917E+04  0.25500000920E-02 0. -1.
    10030    2    1    2    0    0  0.00000000000E+00  0.00000000000E+00  0.68032491880E+03  0.28772003021E+04  0.27956107711E+04 0.  0.
        2    1    3    3  502    0 -0.13076299778E+04 -0.20887955876E+03 -0.12048609454E+03  0.13296780542E+04  0.25500000920E-02 0. -1.
       -2    1    3    3    0  502  0.13076299778E+04  0.20887955876E+03  0.80081101335E+03  0.15475222479E+04  0.25500000920E-02 0.  1.
</event>
<event>
 5   0  0.4710000E-07  0.2788370E+04  0.7818609E-02  0.8306888E-01
       -3   -1    0    0    0  501  0.00000000000E+00  0.00000000000E+00  0.15928687024E+04  0.15928687056E+04  0.10100000352E+00 0. -1.
        3   -1    0    0  501    0  0.00000000000E+00  0.00000000000E+00 -0.12202837469E+04  0.12202837511E+04  0.10100000352E+00 0.  1.
    10030    2    1    2    0    0  0.00000000000E+00  0.00000000000E+00  0.37258495550E+03  0.28131524567E+04  0.27883699890E+04 0.  0.
        3    1    3    3  502    0 -0.53130862688E+03 -0.12459847581E+04 -0.14677027159E+03  0.13624640903E+04  0.10100000352E+00 0.  1.
       -3    1    3    3    0  502  0.53130862688E+03  0.12459847581E+04  0.51935522709E+03  0.14506883664E+04  0.10100000352E+00 0. -1.
</event>
<event>
 5   0  0.5282098E-07  0.2805743E+04  0.7818609E-02  0.8301487E-01
        1   -1    0    0  501    0  0.00000000000E+00  0.00000000000E+00  0.12320572706E+04  0.12320572706E+04  0.50400001928E-02 0. -1.
       -1   -1    0    0    0  501  0.00000000000E+00  0.00000000000E+00 -0.15973681606E+04  0.15973681606E+04  0.50400001928E-02 0.  1.
    10030    2    1    2    0    0  0.00000000000E+00  0.00000000000E+00 -0.36531089008E+03  0.28294254312E+04  0.28057434352E+04 0.  0.
        4    1    3    3  502    0  0.49592428454E+03 -0.24322943061E+03  0.11177817106E+04  0.12468115405E+04  0.12699999809E+01 0. -1.
       -4    1    3    3    0  502 -0.49592428454E+03  0.24322943061E+03 -0.14830926007E+04  0.15826138907E+04  0.12699999809E+01 0.  1.
</event>
<event>
 5   0  0.1394410E-06  0.2802878E+04  0.7818609E-02  0.8302375E-01
        2   -1    0    0  501    0  0.00000000000E+00  0.00000000000E+00  0.27679836713E+04  0.27679836713E+04  0.25500000920E-02 0.  1.
       -2   -1    0    0    0  501  0.00000000000E+00  0.00000000000E+00 -0.70955313273E+03  0.70955313274E+03  0.25500000920E-02 0. -1.
    10030    2    1    2    0    0  0.00000000000E+00  0.00000000000E+00  0.20584305386E+04  0.34775368040E+04  0.28028781531E+04 0.  0.
        4    1    3    3  502    0 -0.86887462528E+03  0.10874903407E+04  0.12310020947E+04  0.18582104632E+04  0.12699999809E+01 0. -1.
       -4    1    3    3    0  502  0.86887462528E+03 -0.10874903407E+04  0.82742844387E+03  0.16193263408E+04  0.12699999809E+01 0.  1.
</event>
<event>
 5   0  0.1439207E-06  0.2792956E+04  0.7818609E-02  0.8305459E-01
       -2   -1    0    0    0  501  0.00000000000E+00  0.00000000000E+00  0.14806903378E+04  0.14806903378E+04  0.25500000920E-02 0. -1.
        2   -1    0    0  501    0  0.00000000000E+00  0.00000000000E+00 -0.13170552800E+04  0.13170552800E+04  0.25500000920E-02 0.  1.
    10030    2    1    2    0    0  0.00000000000E+00  0.00000000000E+00  0.16363505776E+03  0.27977456179E+04  0.27929561597E+04 0.  0.
        5    1    3    3  502    0 -0.13427750409E+04  0.25064061668E+03  0.37259691573E+03  0.14158799669E+04  0.46999998093E+01 0. -1.
       -5    1    3    3    0  502  0.13427750409E+04 -0.25064061668E+03 -0.20896185797E+03  0.13818656509E+04  0.46999998093E+01 0.  1.
</event>
<event>
 5   0  0.5362952E-07  0.2763484E+04  0.7818609E-02  0.8314696E-01
       -1   -1    0    0    0  501  0.00000000000E+00  0.00000000000E+00  0.76165179755E+03  0.76165179757E+03  0.50400001928E-02 0.  1.
        1   -1    0    0  501    0  0.00000000000E+00  0.00000000000E+00 -0.25066715236E+04  0.25066715236E+04  0.50400001928E-02 0. -1.
    10030    2    1    2    0    0  0.00000000000E+00  0.00000000000E+00 -0.17450197261E+04  0.32683233212E+04  0.27634839402E+04 0.  0.
        1    1    3    3  502    0 -0.58658376964E+03  0.12480354969E+04 -0.76982912658E+03  0.15793384705E+04  0.50400001928E-02 0.  1.
       -1    1    3    3    0  502  0.58658376964E+03 -0.12480354969E+04 -0.97519059950E+03  0.16889848507E+04  0.50400001928E-02 0. -1.
</event>
<event>
 5   0  0.1394410E-06  0.2802367E+04  0.7818609E-02  0.8302534E-01
        2   -1    0    0  501    0  0.00000000000E+00  0.00000000000E+00  0.10106948739E+04  0.10106948739E+04  0.25500000920E-02 0. -1.
       -2   -1    0    0    0  501  0.00000000000E+00  0.00000000000E+00 -0.19425405847E+04  0.19425405847E+04  0.25500000920E-02 0.  1.
    10030    2    1    2    0    0  0.00000000000E+00  0.00000000000E+00 -0.93184571079E+03  0.29532354586E+04  0.28023674358E+04 0.  0.
        4    1    3    3  502    0 -0.36807809460E+03  0.85737983447E+03 -0.15675380900E+04  0.18242146093E+04  0.12699999809E+01 0.  1.
       -4    1    3    3    0  502  0.36807809460E+03 -0.85737983447E+03  0.63569237918E+03  0.11290208493E+04  0.12699999809E+01 0. -1.
</event>
<event>
 5   0  0.5551565E-07  0.2797109E+04  0.7818609E-02  0.8304167E-01
       -1   -1    0    0    0  501  0.00000000000E+00  0.00000000000E+00  0.99018438467E+03  0.99018438468E+03  0.50400001928E-02 0.  1.
        1   -1    0    0  501    0  0.00000000000E+00  0.00000000000E+00 -0.19753434892E+04  0.19753434892E+04  0.50400001928E-02 0. -1.
    10030    2    1    2    0    0  0.00000000000E+00  0.00000000000E+00 -0.98515910454E+03  0.29655278739E+04  0.27971087054E+04 0.  0.
        3    1    3    3  502    0 -0.59858586898E+03 -0.43630531796E+02 -0.18318691434E+04  0.19276807917E+04  0.10100000352E+00 0. -1.
       -3    1    3    3    0  502  0.59858586898E+03  0.43630531796E+02  0.84671003890E+03  0.10378470822E+04  0.10100000352E+00 0.  1.
</event>
<event>
 5   0  0.5214658E-07  0.2791413E+04  0.7818609E-02  0.8305939E-01
       -1   -1    0    0    0  501  0.00000000000E+00  0.00000000000E+00  0.16462309594E+04  0.16462309594E+04  0.50400001928E-02 0.  1.
        1   -1    0    0  501    0  0.00000000000E+00  0.00000000000E+00 -0.11833067091E+04  0.11833067091E+04  0.50400001928E-02 0. -1.
    10030    2    1    2    0    0  0.00000000000E+00  0.00000000000E+00  0.46292425037E+03  0.28295376685E+04  0.27914126452E+04 0.  0.
        2    1    3    3  502    0  0.10249834945E+04 -0.75250538954E+02  0.11886807275E+04  0.15713738192E+04  0.25500000920E-02 0.  1.
       -2    1    3    3    0  502 -0.10249834945E+04  0.75250538954E+02 -0.72575647712E+03  0.12581638493E+04  0.25500000920E-02 0. -1.
</event>
<event>
 5   0  0.5214658E-07  0.2802029E+04  0.7818609E-02  0.8302639E-01
        1   -1    0    0  501    0  0.00000000000E+00  0.00000000000E+00  0.12951847971E+04  0.12951847971E+04  0.50400001928E-02 0. -1.
       -1   -1    0    0    0  501  0.00000000000E+00  0.00000000000E+00 -0.15154915541E+04  0.15154915541E+04  0.50400001928E-02 0.  1.
    10030    2    1    2    0    0  0.00000000000E+00  0.00000000000E+00 -0.22030675699E+03  0.28106763513E+04  0.28020289942E+04 0.  0.
        2    1    3    3  502    0  0.20679432673E+03  0.10698586203E+04 -0.99348461510E+03  0.14745755462E+04  0.25500000920E-02 0.  1.
       -2    1    3    3    0  502 -0.20679432673E+03 -0.10698586203E+04  0.77317785811E+03  0.13361008051E+04  0.25500000920E-02 0. -1.
</event>
<event>
 5   0  0.5362952E-07  0.2826221E+04  0.7818609E-02  0.8295174E-01
       -1   -1    0    0    0  501  0.00000000000E+00  0.00000000000E+00  0.19153993620E+04  0.19153993620E+04  0.50400001928E-02 0. -1.
        1   -1    0    0  501    0  0.00000000000E+00  0.00000000000E+00 -0.10425403631E+04  0.10425403631E+04  0.50400001928E-02 0.  1.
    10030    2    1    2    0    0  0.00000000000E+00  0.00000000000E+00  0.87285899887E+03  0.29579397251E+04  0.28262209017E+04 0.  0.
        1    1    3    3  502    0 -0.37913162361E+03  0.12710830402E+04 -0.73610564846E+02  0.13284620425E+04  0.50400001928E-02 0. -1.
       -1    1    3    3    0  502  0.37913162361E+03 -0.12710830402E+04  0.94646956372E+03  0.16294776826E+04  0.50400001928E-02 0.  1.
</event>
<event>
 5   0  0.5297741E-07  0.2797469E+04  0.7818609E-02  0.8304055E-01
        1   -1    0    0  501    0  0.00000000000E+00  0.00000000000E+00  0.17191153317E+04  0.17191153317E+04  0.50400001928E-02 0.  1.
       -1   -1    0    0    0  501  0.00000000000E+00  0.00000000000E+00 -0.11380610980E+04  0.11380610980E+04  0.50400001928E-02 0. -1.
    10030    2    1    2    0    0  0.00000000000E+00  0.00000000000E+00  0.58105423369E+03  0.28571764297E+04  0.27974690576E+04 0.  0.
        5    1    3    3  502    0 -0.36628036049E+03 -0.13002941143E+03  0.16628444418E+04  0.17076717126E+04  0.46999998093E+01 0.  1.
       -5    1    3    3    0  502  0.36628036049E+03  0.13002941143E+03 -0.10817902081E+04  0.11495047171E+04  0.46999998093E+01 0. -1.
</event>
<event>
 5   0  0.5214658E-07  0.2803133E+04  0.7818609E-02  0.8302296E-01
        1   -1    0    0  501    0  0.00000000000E+00  0.00000000000E+00  0.24397553055E+04  0.24397553055E+04  0.50400001928E-02 0.  1.
       -1   -1    0    0    0  501  0.00000000000E+00  0.00000000000E+00 -0.80515812420E+03  0.80515812421E+03  0.50400001928E-02 0. -1.
    10030    2    1    2    0    0  0.00000000000E+00  0.00000000000E+00  0.16345971813E+04  0.32449134297E+04  0.28031331080E+04 0.  0.
        2    1    3    3  502    0 -0.70630860484E+03  0.46925121551E+03  0.21091123923E+04  0.22731967868E+04  0.25500000920E-02 0.  1.
       -2    1    3    3    0  502  0.70630860484E+03 -0.46925121551E+03 -0.47451521098E+03  0.97171664285E+03  0.25500000920E-02 0. -1.
</event>
<event>
 5   0  0.1394410E-06  0.2799980E+04  0.7818609E-02  0.8303275E-01
        2   -1    0    0  501    0  0.00000000000E+00  0.00000000000E+00  0.17099483957E+04  0.17099483957E+04  0.25500000920E-02 0. -1.
       -2   -1    0    0    0  501  0.00000000000E+00  0.00000000000E+00 -0.11462170313E+04  0.11462170313E+04  0.25500000920E-02 0.  1.
    10030    2    1    2    0    0  0.00000000000E+00  0.00000000000E+00  0.56373136441E+03  0.28561654270E+04  0.27999799812E+04 0.  0.
        4    1    3    3  502    0  0.48135134734E+03 -0.11330651552E+04  0.96190239651E+03  0.15623039393E+04  0.12699999809E+01 0. -1.
       -4    1    3    3    0  502 -0.48135134734E+03  0.11330651552E+04 -0.39817103209E+03  0.12938614876E+04  0.12699999809E+01 0.  1.
</event>
<event>
 5   0  0.1394410E-06  0.2850091E+04  0.7818609E-02  0.8287884E-01
        2   -1    0    0  501    0  0.00000000000E+00  0.00000000000E+00  0.14640141568E+04  0.14640141568E+04  0.25500000920E-02 0.  1.
       -2   -1    0    0    0  501  0.00000000000E+00  0.00000000000E+00 -0.13871144919E+04  0.13871144919E+04  0.25500000920E-02 0. -1.
    10030    2    1    2    0    0  0.00000000000E+00  0.00000000000E+00  0.76899664848E+02  0.28511286487E+04  0.28500914043E+04 0.  0.
        4    1    3    3  502    0 -0.77454165957E+03 -0.11794191950E+04 -0.16114526146E+03  0.14201809139E+04  0.12699999809E+01 0. -1.
       -4    1    3    3    0  502  0.77454165957E+03  0.11794191950E+04  0.23804492631E+03  0.14309477348E+04  0.12699999809E+01 0.  1.
</event>
<event>
 5   0  0.1461146E-06  0.2793419E+04  0.7818609E-02  0.8305314E-01
       -2   -1    0    0    0  501  0.00000000000E+00  0.00000000000E+00  0.95481517169E+03  0.95481517169E+03  0.25500000920E-02 0.  1.
        2   -1    0    0  501    0  0.00000000000E+00  0.00000000000E+00 -0.20431155778E+04  0.20431155778E+04  0.25500000920E-02 0. -1.
    10030    2    1    2    0    0  0.00000000000E+00  0.00000000000E+00 -0.10883004061E+04  0.29979307495E+04  0.27934192319E+04 0.  0.
        1    1    3    3  502    0 -0.51347726212E+03  0.42893061752E+03 -0.18599436049E+04  0.19766210024E+04  0.50400001928E-02 0. -1.
       -1    1    3    3    0  502  0.51347726212E+03 -0.42893061752E+03  0.77164319881E+03  0.10213097472E+04  0.50400001928E-02 0.  1.
</event>
<event>
 5   0  0.5282098E-07  0.2793079E+04  0.7818609E-02  0.8305420E-01
        1   -1    0    0  501    0  0.00000000000E+00  0.00000000000E+00  0.23040671532E+04  0.23040671532E+04  0.50400001928E-02 0.  1.
       -1   -1    0    0    0  501  0.00000000000E+00  0.00000000000E+00 -0.84646972483E+03  0.84646972484E+03  0.50400001928E-02 0. -1.
    10030    2    1    2    0    0  0.00000000000E+00  0.00000000000E+00  0.14575974283E+04  0.31505368780E+04  0.27930793681E+04 0.  0.
        4    1    3    3  502    0 -0.43818014393E+03 -0.43019880485E+03  0.21436147427E+04  0.22298337670E+04  0.12699999809E+01 0.  1.
       -4    1    3    3    0  502  0.43818014393E+03  0.43019880485E+03 -0.68601731436E+03  0.92070311106E+03  0.12699999809E+01 0. -1.
</event>
<event>
 5   0  0.5282098E-07  0.2801879E+04  0.7818609E-02  0.8302685E-01
       -1   -1    0    0    0  501  0.00000000000E+00  0.00000000000E+00  0.99339702836E+03  0.99339702837E+03  0.50400001928E-02 0.  1.
        1   -1    0    0  501    0  0.00000000000E+00  0.00000000000E+00 -0.19756772319E+04  0.19756772319E+04  0.50400001928E-02 0. -1.
    10030    2    1    2    0    0  0.00000000000E+00  0.00000000000E+00 -0.98228020352E+03  0.29690742603E+04  0.28018792916E+04 0.  0.
        4    1    3    3  502    0  0.11284597592E+04 -0.79467008883E+03 -0.74570046317E+03  0.15687551664E+04  0.12699999809E+01 0.  1.
       -4    1    3    3    0  502 -0.11284597592E+04  0.79467008883E+03 -0.23657974035E+03  0.14003190939E+04  0.12699999809E+01 0. -1.
</event>
<event>
 5   0  0.1439207E-06  0.2795555E+04  0.7818609E-02  0.8304650E-01
        2   -1    0    0  501    0  0.00000000000E+00  0.00000000000E+00  0.18143314461E+04  0.18143314461E+04  0.25500000920E-02 0. -1.
       -2   -1    0    0    0  501  0.00000000000E+00  0.00000000000E+00 -0.10768608472E+04  0.10768608472E+04  0.25500000920E-02 0.  1.
    10030    2    1    2    0    0  0.00000000000E+00  0.00000000000E+00  0.73747059897E+03  0.28911922933E+04  0.27955553996E+04 0.  0.
        5    1    3    3  502    0 -0.10392149003E+04 -0.88126298708E+03  0.46352931305E+02  0.13633644948E+04  0.46999998093E+01 0. -1.
       -5    1    3    3    0  502  0.10392149003E+04  0.88126298708E+03  0.69111766766E+03  0.15278277985E+04  0.46999998093E+01 0.  1.
</event>
<event>
 5   0  0.5297741E-07  0.2798689E+04  0.7818609E-02  0.8303676E-01
        1   -1    0    0  501    0  0.00000000000E+00  0.00000000000E+00  0.13833868013E+04  0.13833868013E+04  0.50400001928E-02 0. -1.
       -1   -1    0    0    0  501  0.00000000000E+00  0.00000000000E+00 -0.14154862029E+04  0.14154862029E+04  0.50400001928E-02 0.  1.
    10030    2    1    2    0    0  0.00000000000E+00  0.00000000000E+00 -0.32099401582E+02  0.27988730043E+04  0.27986889292E+04 0.  0.
        5    1    3    3  502    0  0.35113569645E+03 -0.12291171615E+04  0.55330098529E+03  0.13929067967E+04  0.46999998093E+01 0.  1.
       -5    1    3    3    0  502 -0.35113569645E+03  0.12291171615E+04 -0.58540038687E+03  0.14059662076E+04  0.46999998093E+01 0. -1.
</event>
<event>
 5   0  0.4710000E-07  0.2801096E+04  0.7818609E-02  0.8302928E-01
        3   -1    0    0  501    0  0.00000000000E+00  0.00000000000E+00  0.10819229227E+04  0.10819229274E+04  0.10100000352E+00 0. -1.
       -3   -1    0    0    0  501  0.00000000000E+00  0.00000000000E+00 -0.18130076040E+04  0.18130076068E+04  0.10100000352E+00 0.  1.
    10030    2    1    2    0    0  0.00000000000E+00  0.00000000000E+00 -0.73108468137E+03  0.28949305342E+04  0.28010958546E+04 0.  0.
        2    1    3    3  502    0 -0.41289033524E+03 -0.36826968388E+03  0.96419555878E+03  0.11116537521E+04  0.25500000920E-02 0. -1.
       -2    1    3    3    0  502  0.41289033524E+03  0.36826968388E+03 -0.16952802401E+04  0.17832767821E+04  0.25500000920E-02 0.  1.
</event>
<event>
 5   0  0.1377807E-06  0.2799934E+04  0.7818609E-02  0.8303289E-01
       -2   -1    0    0    0  501  0.00000000000E+00  0.00000000000E+00  0.89725482532E+03  0.89725482533E+03  0.25500000920E-02 0. -1.
        2   -1    0    0  501    0  0.00000000000E+00  0.00000000000E+00 -0.21843384352E+04  0.21843384352E+04  0.25500000920E-02 0.  1.
    10030    2    1    2    0    0  0.00000000000E+00  0.00000000000E+00 -0.12870836099E+04  0.30815932605E+04  0.27999344286E+04 0.  0.
        2    1    3    3  502    0  0.24516321506E+03 -0.13683453573E+04 -0.46124734709E+03  0.14646580263E+04  0.25500000920E-02 0. -1.
       -2    1    3    3    0  502 -0.24516321506E+03  0.13683453573E+04 -0.82583626277E+03  0.16169352342E+04  0.25500000920E-02 0.  1.
</event>
<event>
 5   0  0.5551565E-07  0.2800850E+04  0.7818609E-02  0.8303004E-01
       -1   -1    0    0    0  501  0.00000000000E+00  0.00000000000E+00  0.10270835321E+04  0.10270835321E+04  0.50400001928E-02 0. -1.
        1   -1    0    0  501    0  0.00000000000E+00  0.00000000000E+00 -0.19094753764E+04  0.19094753764E+04  0.50400001928E-02 0.  1.
    10030    2    1    2    0    0  0.00000000000E+00  0.00000000000E+00 -0.88239184430E+03  0.29365589086E+04  0.28008503810E+04 0.  0.
        3    1    3    3  502    0  0.10138552252E+04 -0.77240801787E+03 -0.10495461673E+04  0.16510795654E+04  0.10100000352E+00 0.  1.
       -3    1    3    3    0  502 -0.10138552252E+04  0.77240801787E+03  0.16715432301E+03  0.12854793432E+04  0.10100000352E+00 0. -1.
</event>
<event>
 5   0  0.1499888E-06  0.2798075E+04  0.7818609E-02  0.8303866E-01
        2   -1    0    0  501    0  0.00000000000E+00  0.00000000000E+00  0.13691454443E+04  0.13691454443E+04  0.25500000920E-02 0. -1.
       -2   -1    0    0    0  501  0.00000000000E+00  0.00000000000E+00 -0.14295819023E+04  0.14295819023E+04  0.25500000920E-02 0.  1.
    10030    2    1    2    0    0  0.00000000000E+00  0.00000000000E+00 -0.60436458057E+02  0.27987273466E+04  0.27980747301E+04 0.  0.
        3    1    3    3  502    0  0.93662453330E+03 -0.85915605919E+03 -0.61506897109E+03  0.14119930948E+04  0.10100000352E+00 0.  1.
       -3    1    3    3    0  502 -0.93662453330E+03  0.85915605919E+03  0.55463251304E+03  0.13867342518E+04  0.10100000352E+00 0. -1.
</event>
<event>
 5   0  0.1394410E-06  0.2790164E+04  0.7818609E-02  0.8306329E-01
       -2   -1    0    0    0  501  0.00000000000E+00  0.00000000000E+00  0.78948641797E+03  0.78948641797E+03  0.25500000920E-02 0.  1.
        2   -1    0    0  501    0  0.00000000000E+00  0.00000000000E+00 -0.24652144592E+04  0.24652144592E+04  0.25500000920E-02 0. -1.
    10030    2    1    2    0    0  0.00000000000E+00  0.00000000000E+00 -0.16757280413E+04  0.32547008772E+04  0.27901636747E+04 0.  0.
        4    1    3    3  502    0 -0.52828426201E+03 -0.10760666436E+04 -0.54371657903E+01  0.11987638878E+04  0.12699999809E+01 0.  1.
       -4    1    3    3    0  502  0.52828426201E+03  0.10760666436E+04 -0.16702908755E+04  0.20559369894E+04  0.12699999809E+01 0. -1.
</event>
<event>
 5   0  0.1394410E-06  0.2792641E+04  0.7818609E-02  0.8305557E-01
       -2   -1    0    0    0  501  0.00000000000E+00  0.00000000000E+00  0.10024367432E+04  0.10024367432E+04  0.25500000920E-02 0. -1.
        2   -1    0    0  501    0  0.00000000000E+00  0.00000000000E+00 -0.19449720355E+04  0.19449720355E+04  0.25500000920E-02 0.  1.
    10030    2    1    2    0    0  0.00000000000E+00  0.00000000000E+00 -0.94253529225E+03  0.29474087787E+04  0.27926413539E+04 0.  0.
        4    1    3    3  502    0 -0.77237076984E+03  0.84626712483E+03  0.37107709268E+03  0.12043356983E+04  0.12699999809E+01 0. -1.
       -4    1    3    3    0  502  0.77237076984E+03 -0.84626712483E+03 -0.13136123849E+04  0.17430730803E+04  0.12699999809E+01 0.  1.
</event>
<event>
 5   0  0.5214658E-07  0.2797720E+04  0.7818609E-02  0.8303976E-01
       -1   -1    0    0    0  501  0.00000000000E+00  0.00000000000E+00  0.82549343860E+03  0.82549343861E+03  0.50400001928E-02 0. -1.
        1   -1    0    0  501    0  0.00000000000E+00  0.00000000000E+00 -0.23704728130E+04  0.23704728130E+04  0.50400001928E-02 0.  1.
    10030    2    1    2    0    0  0.00000000000E+00  0.00000000000E+00 -0.15449793744E+04  0.31959662516E+04  0.27977203245E+04 0.  0.
        2    1    3    3  502    0  0.54922262603E+03  0.12656797208E+04 -0.10360206629E+04  0.17253780636E+04  0.25500000920E-02 0.  1.
       -2    1    3    3    0  502 -0.54922262603E+03 -0.12656797208E+04 -0.50895871146E+03  0.14705881879E+04  0.25500000920E-02 0. -1.
</event>
<event>
 5   0  0.1461146E-06  0.2799610E+04  0.7818609E-02  0.8303390E-01
        2   -1    0    0  501    0  0.00000000000E+00  0.00000000000E+00  0.16607505326E+04  0.16607505326E+04  0.25500000920E-02 0.  1.
       -2   -1    0    0    0  501  0.00000000000E+00  0.00000000000E+00 -0.11798601632E+04  0.11798601632E+04  0.25500000920E-02 0. -1.
    10030    2    1    2    0    0  0.00000000000E+00  0.00000000000E+00  0.48089036937E+03  0.28406106958E+04  0.27996095402E+04 0.  0.
        1    1    3    3  502    0 -0.68796133524E+03  0.23700462162E+03  0.14537808587E+04  0.16257123899E+04  0.50400001928E-02 0.  1.
       -1    1    3    3    0  502  0.68796133524E+03 -0.23700462162E+03 -0.97289048931E+03  0.12148983059E+04  0.50400001928E-02 0. -1.
</event>
<event>
 5   0  0.5362952E-07  0.2802284E+04  0.7818609E-02  0.8302560E-01
        1   -1    0    0  501    0  0.00000000000E+00  0.00000000000E+00  0.15035607787E+04  0.15035607787E+04  0.50400001928E-02 0.  1.
       -1   -1    0    0    0  501  0.00000000000E+00  0.00000000000E+00 -0.13056996942E+04  0.13056996942E+04  0.50400001928E-02 0. -1.
    10030    2    1    2    0    0  0.00000000000E+00  0.00000000000E+00  0.19786108451E+03  0.28092604728E+04  0.28022839605E+04 0.  0.
        1    1    3    3  502    0  0.12803693202E+04  0.55411970872E+03 -0.31024750460E+02  0.13954772599E+04  0.50400001928E-02 0.  1.
       -1    1    3    3    0  502 -0.12803693202E+04 -0.55411970872E+03  0.22888583497E+03  0.14137832129E+04  0.50400001928E-02 0. -1.
</event>
<event>
 5   0  0.5297741E-07  0.2800479E+04  0.7818609E-02  0.8303120E-01
       -1   -1    0    0    0  501  0.00000000000E+00  0.00000000000E+00  0.78913579409E+03  0.78913579410E+03  0.50400001928E-02 0. -1.
        1   -1    0    0  501    0  0.00000000000E+00  0.00000000000E+00 -0.24845798464E+04  0.24845798464E+04  0.50400001928E-02 0.  1.
    10030    2    1    2    0    0  0.00000000000E+00  0.00000000000E+00 -0.16954440524E+04  0.32737156405E+04  0.28004791662E+04 0.  0.
        5    1    3    3  502    0 -0.72675910511E+03 -0.10178118803E+04 -0.11160633827E+03  0.12556264911E+04  0.46999998093E+01 0. -1.
       -5    1    3    3    0  502  0.72675910511E+03  0.10178118803E+04 -0.15838377141E+04  0.20180891494E+04  0.46999998093E+01 0.  1.
</event>
<event>
 5   0  0.1461146E-06  0.2763467E+04  0.7818609E-02  0.8314701E-01
        2   -1    0    0  501    0  0.00000000000E+00  0.00000000000E+00  0.13741027417E+04  0.13741027417E+04  0.25500000920E-02 0. -1.
       -2   -1    0    0    0  501  0.00000000000E+00  0.00000000000E+00 -0.13894066490E+04  0.13894066490E+04  0.25500000920E-02 0.  1.
    10030    2    1    2    0    0  0.00000000000E+00  0.00000000000E+00 -0.15303907353E+02  0.27635093907E+04  0.27634670150E+04 0.  0.
        1    1    3    3  502    0  0.11949322341E+04  0.66140976704E+03  0.20178277800E+03  0.13805948767E+04  0.50400001928E-02 0.  1.
       -1    1    3    3    0  502 -0.11949322341E+04 -0.66140976704E+03 -0.21708668535E+03  0.13829145140E+04  0.50400001928E-02 0. -1.
</event>
<event>
 5   0  0.5297741E-07  0.2801844E+04  0.7818609E-02  0.8302696E-01
        1   -1    0    0  501    0  0.00000000000E+00  0.00000000000E+00  0.99906310115E+03  0.99906310117E+03  0.50400001928E-02 0. -1.
       -1   -1    0    0    0  501  0.00000000000E+00  0.00000000000E+00 -0.19644233598E+04  0.19644233598E+04  0.50400001928E-02 0.  1.
    10030    2    1    2    0    0  0.00000000000E+00  0.00000000000E+00 -0.96536025865E+03  0.29634864610E+04  0.28018443168E+04 0.  0.
        5    1    3    3  502    0 -0.10620885850E+04 -0.91238457443E+03 -0.53095339584E+03  0.14974683211E+04  0.46999998093E+01 0.  1.
       -5    1    3    3    0  502  0.10620885850E+04  0.91238457443E+03 -0.43440686281E+03  0.14660181399E+04  0.46999998093E+01 0. -1.
</event>
<event>
 5   0  0.5551565E-07  0.2791931E+04  0.7818609E-02  0.8305778E-01
       -1   -1    0    0    0  501  0.00000000000E+00  0.00000000000E+00  0.24866613085E+04  0.24866613085E+04  0.50400001928E-02 0.  1.
        1   -1    0    0  501    0  0.00000000000E+00  0.00000000000E+00 -0.78366903680E+03  0.78366903682E+03  0.50400001928E-02 0. -1.
    10030    2    1    2    0    0  0.00000000000E+00  0.00000000000E+00  0.17029922717E+04  0.32703303453E+04  0.27919308534E+04 0.  0.
        3    1    3    3  502    0  0.10858028994E+03 -0.18900462779E+03 -0.76361225078E+03  0.79411341031E+03  0.10100000352E+00 0. -1.
       -3    1    3    3    0  502 -0.10858028994E+03  0.18900462779E+03  0.24666045224E+04  0.24762169350E+04  0.10100000352E+00 0.  1.
</event>
<event>
 5   0  0.5282098E-07  0.2802123E+04  0.7818609E-02  0.8302610E-01
       -1   -1    0    0    0  501  0.00000000000E+00  0.00000000000E+00  0.12869010708E+04  0.12869010708E+04  0.50400001928E-02 0.  1.
        1   -1    0    0  501    0  0.00000000000E+00  0.00000000000E+00 -0.15253490773E+04  0.15253490773E+04  0.50400001928E-02 0. -1.
    10030    2    1    2    0    0  0.00000000000E+00  0.00000000000E+00 -0.23844800650E+03  0.28122501481E+04  0.28021230244E+04 0.  0.
        4    1    3    3  502    0  0.22558284879E+03 -0.13591105826E+04  0.13645651146E+03  0.13844461672E+04  0.12699999809E+01 0.  1.
       -4    1    3    3    0  502 -0.22558284879E+03  0.13591105826E+04 -0.37490451796E+03  0.14278039809E+04  0.12699999809E+01 0. -1.
</event>
<event>
 5   0  0.1439207E-06  0.2800725E+04  0.7818609E-02  0.8303043E-01
        2   -1    0    0  501    0  0.00000000000E+00  0.00000000000E+00  0.19734413236E+04  0.19734413236E+04  0.25500000920E-02 0.  1.
       -2   -1    0    0    0  501  0.00000000000E+00  0.00000000000E+00 -0.99370321459E+03  0.99370321460E+03  0.25500000920E-02 0. -1.
    10030    2    1    2    0    0  0.00000000000E+00  0.00000000000E+00  0.97973810903E+03  0.29671445382E+04  0.28007248970E+04 0.  0.
        5    1    3    3  502    0  0.12504153449E+04 -0.10495840971E+03  0.11484485674E+04  0.17010323350E+04  0.46999998093E+01 0.  1.
       -5    1    3    3    0  502 -0.12504153449E+04  0.10495840971E+03 -0.16871045840E+03  0.12661122033E+04  0.46999998093E+01 0. -1.
</event>
<event>
 5   0  0.1461146E-06  0.2799739E+04  0.7818609E-02  0.8303349E-01
        2   -1    0    0  501    0  0.00000000000E+00  0.00000000000E+00  0.14387392232E+04  0.14387392232E+04  0.25500000920E-02 0.  1.
       -2   -1    0    0    0  501  0.00000000000E+00  0.00000000000E+00 -0.13620500961E+04  0.13620500961E+04  0.25500000920E-02 0. -1.
    10030    2    1    2    0    0  0.00000000000E+00  0.00000000000E+00  0.76689127100E+02  0.28007893193E+04  0.27997392001E+04 0.  0.
        1    1    3    3  502    0  0.87137441329E+03  0.45506446313E+03 -0.95865247782E+03  0.13730956292E+04  0.50400001928E-02 0. -1.
       -1    1    3    3    0  502 -0.87137441329E+03 -0.45506446313E+03  0.10353416049E+04  0.14276936901E+04  0.50400001928E-02 0.  1.
</event>
<event>
 5   0  0.5214658E-07  0.2794770E+04  0.7818609E-02  0.8304894E-01
       -1   -1    0    0    0  501  0.00000000000E+00  0.00000000000E+00  0.16330399595E+04  0.16330399595E+04  0.50400001928E-02 0. -1.
        1   -1    0    0  501    0  0.00000000000E+00  0.00000000000E+00 -0.11957364193E+04  0.11957364193E+04  0.50400001928E-02 0.  1.
    10030    2    1    2    0    0  0.00000000000E+00  0.00000000000E+00  0.43730354014E+03  0.28287763788E+04  0.27947703689E+04 0.  0.
        2    1    3    3  502    0 -0.98764859834E+03  0.98282939183E+03  0.11114265798E+03  0.13977682418E+04  0.25500000920E-02 0. -1.
       -2    1    3    3    0  502  0.98764859834E+03 -0.98282939183E+03  0.32616088216E+03  0.14310081371E+04  0.25500000920E-02 0.  1.
</event>
<event>
 5   0  0.5297741E-07  0.2795091E+04  0.7818609E-02  0.8304794E-01
       -1   -1    0    0    0  501  0.00000000000E+00  0.00000000000E+00  0.89945058022E+03  0.89945058024E+03  0.50400001928E-02 0.  1.
        1   -1    0    0  501    0  0.00000000000E+00  0.00000000000E+00 -0.21714736183E+04  0.21714736183E+04  0.50400001928E-02 0. -1.
    10030    2    1    2    0    0  0.00000000000E+00  0.00000000000E+00 -0.12720230380E+04  0.30709241985E+04  0.27950908435E+04 0.  0.
        5    1    3    3  502    0 -0.12251016335E+03  0.82206902701E+03  0.59838674285E+03  0.10241557544E+04  0.46999998093E+01 0.  1.
       -5    1    3    3    0  502  0.12251016335E+03 -0.82206902701E+03 -0.18704097809E+04  0.20467684441E+04  0.46999998093E+01 0. -1.
</event>
<event>
 5   0  0.1499888E-06  0.2802310E+04  0.7818609E-02  0.8302552E-01
        2   -1    0    0  501    0  0.00000000000E+00  0.00000000000E+00  0.15796537180E+04  0.15796537180E+04  0.25500000920E-02 0.  1.
       -2   -1    0    0    0  501  0.00000000000E+00  0.00000000000E+00 -0.12428259965E+04  0.12428259965E+04  0.25500000920E-02 0. -1.
    10030    2    1    2    0    0  0.00000000000E+00  0.00000000000E+00  0.33682772154E+03  0.28224797145E+04  0.28023095520E+04 0.  0.
        3    1    3    3  502    0  0.68091308706E+03 -0.13335396285E+03 -0.10576435442E+04  0.12649252106E+04  0.10100000352E+00 0. -1.
       -3    1    3    3    0  502 -0.68091308706E+03  0.13335396285E+03  0.13944712658E+04  0.15575545040E+04  0.10100000352E+00 0.  1.
</event>
<event>
 5   0  0.1461146E-06  0.2797946E+04  0.7818609E-02  0.8303906E-01
       -2   -1    0    0    0  501  0.00000000000E+00  0.00000000000E+00  0.10767043168E+04  0.10767043168E+04  0.25500000920E-02 0.  1.
        2   -1    0    0  501    0  0.00000000000E+00  0.00000000000E+00 -0.18176999778E+04  0.18176999778E+04  0.25500000920E-02 0. -1.
    10030    2    1    2    0    0  0.00000000000E+00  0.00000000000E+00 -0.74099566096E+03  0.28944042946E+04  0.27979459700E+04 0.  0.
        1    1    3    3  502    0  0.10744190254E+04  0.78902880568E+03 -0.80961097027E+03  0.15596193835E+04  0.50400001928E-02 0. -1.
       -1    1    3    3    0  502 -0.10744190254E+04 -0.78902880568E+03  0.68615309309E+02  0.13347849111E+04  0.50400001928E-02 0.  1.
</event>
<event>
 5   0  0.4710000E-07  0.2802491E+04  0.7818609E-02  0.8302495E-01
       -3   -1    0    0    0  501  0.00000000000E+00  0.00000000000E+00  0.21428705012E+04  0.21428705036E+04  0.10100000352E+00 0.  1.
        3   -1    0    0  501    0  0.00000000000E+00  0.00000000000E+00 -0.91628922736E+03  0.91628923293E+03  0.10100000352E+00 0. -1.
    10030    2    1    2    0    0  0.00000000000E+00  0.00000000000E+00  0.12265812739E+04  0.30591597366E+04  0.28024911547E+04 0.  0.
        4    1    3    3  502    0 -0.77615454719E+03  0.10955543369E+04  0.10510592631E+04  0.17051047985E+04  0.12699999809E+01 0.  1.
       -4    1    3    3    0  502  0.77615454719E+03 -0.10955543369E+04  0.17552201076E+03  0.13540549381E+04  0.12699999809E+01 0. -1.
</event>
<event>
 5   0  0.5214658E-07  0.2801390E+04  0.7818609E-02  0.8302837E-01
       -1   -1    0    0    0  501  0.00000000000E+00  0.00000000000E+00  0.16912118669E+04  0.16912118669E+04  0.50400001928E-02 0.  1.
        1   -1    0    0  501    0  0.00000000000E+00  0.00000000000E+00 -0.11600830752E+04  0.11600830752E+04  0.50400001928E-02 0. -1.
    10030    2    1    2    0    0  0.00000000000E+00  0.00000000000E+00  0.53112879170E+03  0.28512949422E+04  0.28013898433E+04 0.  0.
        2    1    3    3  502    0  0.70252200998E+03 -0.31741459497E+03 -0.92473770585E+03  0.12039223498E+04  0.25500000920E-02 0. -1.
       -2    1    3    3    0  502 -0.70252200998E+03  0.31741459497E+03  0.14558664976E+04  0.16473725924E+04  0.25500000920E-02 0.  1.
</event>
<event>
 5   0  0.5297741E-07  0.2799329E+04  0.7818609E-02  0.8303477E-01
       -1   -1    0    0    0  501  0.00000000000E+00  0.00000000000E+00  0.14684489110E+04  0.14684489111E+04  0.50400001928E-02 0. -1.
        1   -1    0    0  501    0  0.00000000000E+00  0.00000000000E+00 -0.13341023547E+04  0.13341023547E+04  0.50400001928E-02 0.  1.
    10030    2    1    2    0    0  0.00000000000E+00  0.00000000000E+00  0.13434655634E+03  0.28025512658E+04  0.27993293125E+04 0.  0.
        5    1    3    3  502    0  0.10790748906E+04  0.85663600625E+03 -0.17970980724E+03  0.13894407406E+04  0.46999998093E+01 0.  1.
       -5    1    3    3    0  502 -0.10790748906E+04 -0.85663600625E+03  0.31405636358E+03  0.14131105252E+04  0.46999998093E+01 0. -1.
</event>
<event>
 5   0  0.5214658E-07  0.2802929E+04  0.7818609E-02  0.8302360E-01
        1   -1    0    0  501    0  0.00000000000E+00  0.00000000000E+00  0.17571712021E+04  0.17571712021E+04  0.50400001928E-02 0.  1.
       -1   -1    0    0    0  501  0.00000000000E+00  0.00000000000E+00 -0.11177641036E+04  0.11177641036E+04  0.50400001928E-02 0. -1.
    10030    2    1    2    0    0  0.00000000000E+00  0.00000000000E+00  0.63940709855E+03  0.28749353057E+04  0.28029291062E+04 0.  0.
        2    1    3    3  502    0 -0.76665828824E+03 -0.11227529579E+04 -0.29277843316E+02  0.13598515829E+04  0.25500000920E-02 0. -1.
       -2    1    3    3    0  502  0.76665828824E+03  0.11227529579E+04  0.66868494187E+03  0.15150837228E+04  0.25500000920E-02 0.  1.
</event>
<event>
 5   0  0.5297741E-07  0.2812876E+04  0.7818609E-02  0.8299282E-01
       -1   -1    0    0    0  501  0.00000000000E+00  0.00000000000E+00  0.10960402037E+04  0.10960402038E+04  0.50400001928E-02 0. -1.
        1   -1    0    0  501    0  0.00000000000E+00  0.00000000000E+00 -0.18047407535E+04  0.18047407535E+04  0.50400001928E-02 0.  1.
    10030    2    1    2    0    0  0.00000000000E+00  0.00000000000E+00 -0.70870054980E+03  0.29007809573E+04  0.28128764091E+04 0.  0.
        5    1    3    3  502    0 -0.10627605050E+04  0.91804583889E+03 -0.27595974887E+03  0.14312385986E+04  0.46999998093E+01 0. -1.
       -5    1    3    3    0  502  0.10627605050E+04 -0.91804583889E+03 -0.43274080092E+03  0.14695423587E+04  0.46999998093E+01 0.  1.
</event>
<event>
 5   0  0.5214658E-07  0.2807194E+04  0.7818609E-02  0.8301038E-01
        1   -1    0    0  501    0  0.00000000000E+00  0.00000000000E+00  0.14187409753E+04  0.14187409753E+04  0.50400001928E-02 0. -1.
       -1   -1    0    0    0  501  0.00000000000E+00  0.00000000000E+00 -0.13886145804E+04  0.13886145804E+04  0.50400001928E-02 0.  1.
    10030    2    1    2    0    0  0.00000000000E+00  0.00000000000E+00  0.30126394845E+02  0.28073555557E+04  0.28071939044E+04 0.  0.
        2    1    3    3  502    0  0.10804742408E+04  0.41890447211E+03  0.80705505113E+03  0.14121768293E+04  0.25500000920E-02 0. -1.
       -2    1    3    3    0  502 -0.10804742408E+04 -0.41890447211E+03 -0.77692865629E+03  0.13951787264E+04  0.25500000920E-02 0.  1.
</event>
<event>
 5   0  0.1499888E-06  0.2804562E+04  0.7818609E-02  0.8301854E-01
       -2   -1    0    0    0  501  0.00000000000E+00  0.00000000000E+00  0.12470488815E+04  0.12470488815E+04  0.25500000920E-02 0.  1.
        2   -1    0    0  501    0  0.00000000000E+00  0.00000000000E+00 -0.15768358861E+04  0.15768358861E+04  0.25500000920E-02 0. -1.
    10030    2    1    2    0    0  0.00000000000E+00  0.00000000000E+00 -0.32978700458E+03  0.28238847676E+04  0.28045615900E+04 0.  0.
        3    1    3    3  502    0  0.83842936356E+03  0.23058398862E+03 -0.12725907728E+04  0.15413046612E+04  0.10100000352E+00 0. -1.
       -3    1    3    3    0  502 -0.83842936356E+03 -0.23058398862E+03  0.94280376824E+03  0.12825801063E+04  0.10100000352E+00 0.  1.
</event>
<event>
 5   0  0.1377807E-06  0.2787997E+04  0.7818609E-02  0.8307005E-01
       -2   -1    0    0    0  501  0.00000000000E+00  0.00000000000E+00  0.11471550738E+04  0.11471550738E+04  0.25500000920E-02 0.  1.
        2   -1    0    0  501    0  0.00000000000E+00  0.00000000000E+00 -0.16939569320E+04  0.16939569320E+04  0.25500000920E-02 0. -1.
    10030    2    1    2    0    0  0.00000000000E+00  0.00000000000E+00 -0.54680185826E+03  0.28411120058E+04  0.27879966207E+04 0.  0.
        2    1    3    3  502    0 -0.75171202455E+03 -0.89697557837E+03  0.49838852720E+03  0.12720170125E+04  0.25500000920E-02 0.  1.
       -2    1    3    3    0  502  0.75171202455E+03  0.89697557837E+03 -0.10451903855E+04  0.15690949933E+04  0.25500000920E-02 0. -1.
</event>
<event>
 5   0  0.1461146E-06  0.2795631E+04  0.7818609E-02  0.8304626E-01
       -2   -1    0    0    0  501  0.00000000000E+00  0.00000000000E+00  0.13437166697E+04  0.13437166697E+04  0.25500000920E-02 0.  1.
        2   -1    0    0  501    0  0.00000000000E+00  0.00000000000E+00 -0.14540918927E+04  0.14540918927E+04  0.25500000920E-02 0. -1.
    10030    2    1    2    0    0  0.00000000000E+00  0.00000000000E+00 -0.11037522293E+03  0.27978085624E+04  0.27956305303E+04 0.  0.
        1    1    3    3  502    0 -0.69070459619E+03 -0.52752863239E+03 -0.11508136677E+04  0.14421273851E+04  0.50400001928E-02 0. -1.
       -1    1    3    3    0  502  0.69070459619E+03  0.52752863239E+03  0.10404384447E+04  0.13556811773E+04  0.50400001928E-02 0.  1.
</event>
<event>
 5   0  0.5214658E-07  0.2804118E+04  0.7818609E-02  0.8301991E-01
        1   -1    0    0  501    0  0.00000000000E+00  0.00000000000E+00  0.15992787641E+04  0.15992787641E+04  0.50400001928E-02 0.  1.
       -1   -1    0    0    0  501  0.00000000000E+00  0.00000000000E+00 -0.12291598195E+04  0.12291598195E+04  0.50400001928E-02 0. -1.
    10030    2    1    2    0    0  0.00000000000E+00  0.00000000000E+00  0.37011894455E+03  0.28284385836E+04  0.28041178271E+04 0.  0.
        2    1    3    3  502    0 -0.97951175969E+03 -0.53538348605E+03  0.10407630724E+04  0.15261934797E+04  0.25500000920E-02 0.  1.
       -2    1    3    3    0  502  0.97951175969E+03  0.53538348605E+03 -0.67064412784E+03  0.13022451039E+04  0.25500000920E-02 0. -1.
</event>
<event>
 5   0  0.1394410E-06  0.2801056E+04  0.7818609E-02  0.8302941E-01
       -2   -1    0    0    0  501  0.00000000000E+00  0.00000000000E+00  0.11256544795E+04  0.11256544795E+04  0.25500000920E-02 0. -1.
        2   -1    0    0  501    0  0.00000000000E+00  0.00000000000E+00 -0.17425227110E+04  0.17425227110E+04  0.25500000920E-02 0.  1.
    10030    2    1    2    0    0  0.00000000000E+00  0.00000000000E+00 -0.61686823147E+03  0.28681771905E+04  0.28010558689E+04 0.  0.
        4    1    3    3  502    0 -0.52969590771E+03 -0.35144950308E+03  0.96942164202E+03  0.11592559859E+04  0.12699999809E+01 0. -1.
       -4    1    3    3    0  502  0.52969590771E+03  0.35144950308E+03 -0.15862898735E+04  0.17089212046E+04  0.12699999809E+01 0.  1.
</event>
<event>
 5   0  0.5362952E-07  0.2806305E+04  0.7818609E-02  0.8301313E-01
        1   -1    0    0  501    0  0.00000000000E+00  0.00000000000E+00  0.22025065439E+04  0.22025065439E+04  0.50400001928E-02 0. -1.
       -1   -1    0    0    0  501  0.00000000000E+00  0.00000000000E+00 -0.89390761016E+03  0.89390761018E+03  0.50400001928E-02 0.  1.
    10030    2    1    2    0    0  0.00000000000E+00  0.00000000000E+00  0.13085989338E+04  0.30964141541E+04  0.28063053013E+04 0.  0.
        1    1    3    3  502    0  0.64615407343E+02 -0.13476091982E+04  0.22894542049E+03  0.13684449962E+04  0.50400001928E-02 0. -1.
       -1    1    3    3    0  502 -0.64615407343E+02  0.13476091982E+04  0.10796535133E+04  0.17279691579E+04  0.50400001928E-02 0.  1.
</event>
<event>
 5   0  0.5282098E-07  0.2800575E+04  0.7818609E-02  0.8303090E-01
        1   -1    0    0  501    0  0.00000000000E+00  0.00000000000E+00  0.83411951396E+03  0.83411951398E+03  0.50400001928E-02 0. -1.
       -1   -1    0    0    0  501  0.00000000000E+00  0.00000000000E+00 -0.23507488278E+04  0.23507488278E+04  0.50400001928E-02 0.  1.
    10030    2    1    2    0    0  0.00000000000E+00  0.00000000000E+00 -0.15166293138E+04  0.31848683418E+04  0.28005752764E+04 0.  0.
        4    1    3    3  502    0  0.28952239985E+03 -0.82846143742E+02  0.79685810150E+03  0.85186334020E+03  0.12699999809E+01 0. -1.
       -4    1    3    3    0  502 -0.28952239985E+03  0.82846143742E+02 -0.23134874153E+04  0.23330050016E+04  0.12699999809E+01 0.  1.
</event>
<event>
 5   0  0.1499888E-06  0.2789552E+04  0.7818609E-02  0.8306519E-01
        2   -1    0    0  501    0  0.00000000000E+00  0.00000000000E+00  0.20484272883E+04  0.20484272883E+04  0.25500000920E-02 0.  1.
       -2   -1    0    0    0  501  0.00000000000E+00  0.00000000000E+00 -0.94970432909E+03  0.94970432909E+03  0.25500000920E-02 0. -1.
    10030    2    1    2    0    0  0.00000000000E+00  0.00000000000E+00  0.10987229592E+04  0.29981316174E+04  0.27895521243E+04 0.  0.
        3    1    3    3  502    0 -0.57335063890E+03 -0.12701950223E+04  0.61085780255E+03  0.15216023183E+04  0.10100000352E+00 0. -1.
       -3    1    3    3    0  502  0.57335063890E+03  0.12701950223E+04  0.48786515665E+03  0.14765292991E+04  0.10100000352E+00 0.  1.
</event>
<event>
 5   0  0.5297741E-07  0.2797263E+04  0.7818609E-02  0.8304119E-01
        1   -1    0    0  501    0  0.00000000000E+00  0.00000000000E+00  0.18559586132E+04  0.18559586132E+04  0.50400001928E-02 0. -1.
       -1   -1    0    0    0  501  0.00000000000E+00  0.00000000000E+00 -0.10539940836E+04  0.10539940836E+04  0.50400001928E-02 0.  1.
    10030    2    1    2    0    0  0.00000000000E+00  0.00000000000E+00  0.80196452959E+03  0.29099526968E+04  0.27972625174E+04 0.  0.
        5    1    3    3  502    0  0.53384155032E+03  0.16163948026E+03  0.17352409396E+04  0.18226895871E+04  0.46999998093E+01 0. -1.
       -5    1    3    3    0  502 -0.53384155032E+03 -0.16163948026E+03 -0.93327640998E+03  0.10872631098E+04  0.46999998093E+01 0.  1.
</event>
<event>
 5   0  0.1499888E-06  0.2799882E+04  0.7818609E-02  0.8303305E-01
        2   -1    0    0  501    0  0.00000000000E+00  0.00000000000E+00  0.23747560102E+04  0.23747560102E+04  0.25500000920E-02 0. -1.
       -2   -1    0    0    0  501  0.00000000000E+00  0.00000000000E+00 -0.82527821271E+03  0.82527821272E+03  0.25500000920E-02 0.  1.
    10030    2    1    2    0    0  0.00000000000E+00  0.00000000000E+00  0.15494777975E+04  0.32000342229E+04  0.27998817087E+04 0.  0.
        3    1    3    3  502    0  0.58439390889E+03  0.26804077004E+03 -0.64656193543E+03  0.91181381965E+03  0.10100000352E+00 0.  1.
       -3    1    3    3    0  502 -0.58439390889E+03 -0.26804077004E+03  0.21960397329E+04  0.22882204032E+04  0.10100000352E+00 0. -1.
</event>
<event>
 5   0  0.5282098E-07  0.2799127E+04  0.7818609E-02  0.8303539E-01
       -1   -1    0    0    0  501  0.00000000000E+00  0.00000000000E+00  0.89312493505E+03  0.89312493506E+03  0.50400001928E-02 0. -1.
        1   -1    0    0  501    0  0.00000000000E+00  0.00000000000E+00 -0.21931742273E+04  0.21931742273E+04  0.50400001928E-02 0.  1.
    10030    2    1    2    0    0  0.00000000000E+00  0.00000000000E+00 -0.13000492922E+04  0.30862991623E+04  0.27991274278E+04 0.  0.
        4    1    3    3  502    0  0.12450122717E+04 -0.26272776226E+03 -0.12926535799E+04  0.18138457278E+04  0.12699999809E+01 0. -1.
       -4    1    3    3    0  502 -0.12450122717E+04  0.26272776226E+03 -0.73957123517E+01  0.12724534346E+04  0.12699999809E+01 0.  1.
</event>
<event>
 5   0  0.5297741E-07  0.2799107E+04  0.7818609E-02  0.8303546E-01
        1   -1    0    0  501    0  0.00000000000E+00  0.00000000000E+00  0.12744275334E+04  0.12744275334E+04  0.50400001928E-02 0.  1.
       -1   -1    0    0    0  501  0.00000000000E+00  0.00000000000E+00 -0.15369646895E+04  0.15369646895E+04  0.50400001928E-02 0. -1.
    10030    2    1    2    0    0  0.00000000000E+00  0.00000000000E+00 -0.26253715615E+03  0.28113922229E+04  0.27991070849E+04 0.  0.
        5    1    3    3  502    0  0.12203845530E+04 -0.44140940939E+03 -0.65754088506E+03  0.14548411698E+04  0.46999998093E+01 0.  1.
       -5    1    3    3    0  502 -0.12203845530E+04  0.44140940939E+03  0.39500372891E+03  0.13565510531E+04  0.46999998093E+01 0. -1.
</event>
<event>
 5   0  0.1439207E-06  0.2797821E+04  0.7818609E-02  0.8303945E-01
        2   -1    0    0  501    0  0.00000000000E+00  0.00000000000E+00  0.11076487827E+04  0.11076487827E+04  0.25500000920E-02 0.  1.
       -2   -1    0    0    0  501  0.00000000000E+00  0.00000000000E+00 -0.17667613686E+04  0.17667613686E+04  0.25500000920E-02 0. -1.
    10030    2    1    2    0    0  0.00000000000E+00  0.00000000000E+00 -0.65911258594E+03  0.28744101514E+04  0.27978213519E+04 0.  0.
        5    1    3    3  502    0 -0.12523598910E+04  0.56363517491E+03 -0.56114293502E+02  0.13745038417E+04  0.46999998093E+01 0.  1.
       -5    1    3    3    0  502  0.12523598910E+04 -0.56363517491E+03 -0.60299829244E+03  0.14999063096E+04  0.46999998093E+01 0. -1.
</event>
<event>
 5   0  0.5362952E-07  0.2760803E+04  0.7818609E-02  0.8315542E-01
       -1   -1    0    0    0  501  0.00000000000E+00  0.00000000000E+00  0.89233369094E+03  0.89233369095E+03  0.50400001928E-02 0. -1.
        1   -1    0    0  501    0  0.00000000000E+00  0.00000000000E+00 -0.21354209898E+04  0.21354209898E+04  0.50400001928E-02 0.  1.
    10030    2    1    2    0    0  0.00000000000E+00  0.00000000000E+00 -0.12430872989E+04  0.30277546807E+04  0.27608028496E+04 0.  0.
        1    1    3    3  502    0 -0.96057579530E+03  0.85298617315E+03 -0.67505156699E+02  0.12864090393E+04  0.50400001928E-02 0. -1.
       -1    1    3    3    0  502  0.96057579530E+03 -0.85298617315E+03 -0.11755821422E+04  0.17413456415E+04  0.50400001928E-02 0.  1.
</event>
<event>
 5   0  0.1439207E-06  0.2756531E+04  0.7818609E-02  0.8316892E-01
       -2   -1    0    0    0  501  0.00000000000E+00  0.00000000000E+00  0.90719882103E+03  0.90719882104E+03  0.25500000920E-02 0.  1.
        2   -1    0    0  501    0  0.00000000000E+00  0.00000000000E+00 -0.20939353188E+04  0.20939353188E+04  0.25500000920E-02 0. -1.
    10030    2    1    2    0    0  0.00000000000E+00  0.00000000000E+00 -0.11867364977E+04  0.30011341398E+04  0.27565309014E+04 0.  0.
        5    1    3    3  502    0  0.45314418307E+03  0.13578838864E+03  0.81603618588E+03  0.94324720186E+03  0.46999998093E+01 0.  1.
       -5    1    3    3    0  502 -0.45314418307E+03 -0.13578838864E+03 -0.20027726836E+04  0.20578869380E+04  0.46999998093E+01 0. -1.
</event>
<event>
 5   0  0.5214658E-07  0.2800477E+04  0.7818609E-02  0.8303120E-01
        1   -1    0    0  501    0  0.00000000000E+00  0.00000000000E+00  0.22071580411E+04  0.22071580411E+04  0.50400001928E-02 0.  1.
       -1   -1    0    0    0  501  0.00000000000E+00  0.00000000000E+00 -0.88832265523E+03  0.88832265524E+03  0.50400001928E-02 0. -1.
    10030    2    1    2    0    0  0.00000000000E+00  0.00000000000E+00  0.13188353859E+04  0.30954806964E+04  0.28004774533E+04 0.  0.
        2    1    3    3  502    0 -0.12473893112E+04 -0.21233704266E+03  0.13222546171E+04  0.18301432692E+04  0.25500000920E-02 0.  1.
       -2    1    3    3    0  502  0.12473893112E+04  0.21233704266E+03 -0.34192311751E+01  0.12653374272E+04  0.25500000920E-02 0. -1.
</event>
<event>
 5   0  0.5551565E-07  0.2800491E+04  0.7818609E-02  0.8303116E-01
       -1   -1    0    0    0  501  0.00000000000E+00  0.00000000000E+00  0.17421248956E+04  0.17421248956E+04  0.50400001928E-02 0. -1.
        1   -1    0    0  501    0  0.00000000000E+00  0.00000000000E+00 -0.11254574947E+04  0.11254574947E+04  0.50400001928E-02 0.  1.
    10030    2    1    2    0    0  0.00000000000E+00  0.00000000000E+00  0.61666740088E+03  0.28675823902E+04  0.28004910429E+04 0.  0.
        3    1    3    3  502    0  0.54857178909E+03 -0.17555032639E+03 -0.99854136566E+03  0.11527505342E+04  0.10100000352E+00 0.  1.
       -3    1    3    3    0  502 -0.54857178909E+03  0.17555032639E+03  0.16152087665E+04  0.17148318561E+04  0.10100000352E+00 0. -1.
</event>
<event>
 5   0  0.5297741E-07  0.2808017E+04  0.7818609E-02  0.8300784E-01
        1   -1    0    0  501    0  0.00000000000E+00  0.00000000000E+00  0.16515388506E+04  0.16515388506E+04  0.50400001928E-02 0.  1.
       -1   -1    0    0    0  501  0.00000000000E+00  0.00000000000E+00 -0.11935779222E+04  0.11935779222E+04  0.50400001928E-02 0. -1.
    10030    2    1    2    0    0  0.00000000000E+00  0.00000000000E+00  0.45796092839E+03  0.28451167728E+04  0.28080173145E+04 0.  0.
        5    1    3    3  502    0  0.13591703202E+04  0.33710752190E+03  0.33147415026E+03  0.14390561639E+04  0.46999998093E+01 0.  1.
       -5    1    3    3    0  502 -0.13591703202E+04 -0.33710752190E+03  0.12648677812E+03  0.14060606088E+04  0.46999998093E+01 0. -1.
</event>
<event>
 5   0  0.1377807E-06  0.2806742E+04  0.7818609E-02  0.8301178E-01
        2   -1    0    0  501    0  0.00000000000E+00  0.00000000000E+00  0.18024908215E+04  0.18024908215E+04  0.25500000920E-02 0. -1.
       -2   -1    0    0    0  501  0.00000000000E+00  0.00000000000E+00 -0.10926269179E+04  0.10926269179E+04  0.25500000920E-02 0.  1.
    10030    2    1    2    0    0  0.00000000000E+00  0.00000000000E+00  0.70986390360E+03  0.28951177394E+04  0.28067418768E+04 0.  0.
        2    1    3    3  502    0 -0.88111371887E+03 -0.87782020364E+03  0.10254146005E+04  0.16119568228E+04  0.25500000920E-02 0. -1.
       -2    1    3    3    0  502  0.88111371887E+03  0.87782020364E+03 -0.31555069694E+03  0.12831609166E+04  0.25500000920E-02 0.  1.
</event>
<event>
 5   0  0.1461146E-06  0.2817514E+04  0.7818609E-02  0.8297851E-01
       -2   -1    0    0    0  501  0.00000000000E+00  0.00000000000E+00  0.13653329406E+04  0.13653329406E+04  0.25500000920E-02 0.  1.
        2   -1    0    0  501    0  0.00000000000E+00  0.00000000000E+00 -0.14535624912E+04  0.14535624912E+04  0.25500000920E-02 0. -1.
    10030    2    1    2    0    0  0.00000000000E+00  0.00000000000E+00 -0.88229550632E+02  0.28188954318E+04  0.28175143304E+04 0.  0.
        1    1    3    3  502    0  0.33388655166E+03  0.15623750693E+03 -0.14044526821E+04  0.14520253869E+04  0.50400001928E-02 0. -1.
       -1    1    3    3    0  502 -0.33388655166E+03 -0.15623750693E+03  0.13162231314E+04  0.13668700449E+04  0.50400001928E-02 0.  1.
</event>
<event>
 5   0  0.5362952E-07  0.2801644E+04  0.7818609E-02  0.8302758E-01
        1   -1    0    0  501    0  0.00000000000E+00  0.00000000000E+00  0.17707153980E+04  0.17707153980E+04  0.50400001928E-02 0.  1.
       -1   -1    0    0    0  501  0.00000000000E+00  0.00000000000E+00 -0.11081973991E+04  0.11081973991E+04  0.50400001928E-02 0. -1.
    10030    2    1    2    0    0  0.00000000000E+00  0.00000000000E+00  0.66251799890E+03  0.28789127971E+04  0.28016439449E+04 0.  0.
        1    1    3    3  502    0  0.70814961714E+03  0.46511321873E+03  0.14775960356E+04  0.17032604707E+04  0.50400001928E-02 0.  1.
       -1    1    3    3    0  502 -0.70814961714E+03 -0.46511321873E+03 -0.81507803673E+03  0.11756523264E+04  0.50400001928E-02 0. -1.
</event>
<event>
 5   0  0.5551565E-07  0.2816152E+04  0.7818609E-02  0.8298271E-01
        1   -1    0    0  501    0  0.00000000000E+00  0.00000000000E+00  0.14200725196E+04  0.14200725196E+04  0.50400001928E-02 0. -1.
       -1   -1    0    0    0  501  0.00000000000E+00  0.00000000000E+00 -0.13961804940E+04  0.13961804940E+04  0.50400001928E-02 0.  1.
    10030    2    1    2    0    0  0.00000000000E+00  0.00000000000E+00  0.23892025570E+02  0.28162530136E+04  0.28161516663E+04 0.  0.
        3    1    3    3  502    0  0.25795771733E+03 -0.11701747950E+04  0.75144967467E+03  0.14144001762E+04  0.10100000352E+00 0. -1.
       -3    1    3    3    0  502 -0.25795771733E+03  0.11701747950E+04 -0.72755764910E+03  0.14018528374E+04  0.10100000352E+00 0.  1.
</event>
<event>
 5   0  0.5551565E-07  0.2801667E+04  0.7818609E-02  0.8302751E-01
       -1   -1    0    0    0  501  0.00000000000E+00  0.00000000000E+00  0.11376013697E+04  0.11376013697E+04  0.50400001928E-02 0.  1.
        1   -1    0    0  501    0  0.00000000000E+00  0.00000000000E+00 -0.17249752800E+04  0.17249752800E+04  0.50400001928E-02 0. -1.
    10030    2    1    2    0    0  0.00000000000E+00  0.00000000000E+00 -0.58737391031E+03  0.28625766497E+04  0.28016668191E+04 0.  0.
        3    1    3    3  502    0 -0.12464204374E+04  0.14129643994E+03  0.34341203400E+03  0.13005615810E+04  0.10100000352E+00 0.  1.
       -3    1    3    3    0  502  0.12464204374E+04 -0.14129643994E+03 -0.93078594431E+03  0.15620150687E+04  0.10100000352E+00 0. -1.
</event>
<event>
 5   0  0.5282098E-07  0.2802024E+04  0.7818609E-02  0.8302640E-01
       -1   -1    0    0    0  501  0.00000000000E+00  0.00000000000E+00  0.14149800932E+04  0.14149800932E+04  0.50400001928E-02 0.  1.
        1   -1    0    0  501    0  0.00000000000E+00  0.00000000000E+00 -0.13871813636E+04  0.13871813636E+04  0.50400001928E-02 0. -1.
    10030    2    1    2    0    0  0.00000000000E+00  0.00000000000E+00  0.27798729549E+02  0.28021614568E+04  0.28020235653E+04 0.  0.
        4    1    3    3  502    0 -0.13080297602E+04  0.45039974887E+03  0.23533883902E+03  0.14032775097E+04  0.12699999809E+01 0.  1.
       -4    1    3    3    0  502  0.13080297602E+04 -0.45039974887E+03 -0.20754010948E+03  0.13988839470E+04  0.12699999809E+01 0. -1.
</event>
<event>
 5   0  0.1461146E-06  0.2777315E+04  0.7818609E-02  0.8310346E-01
       -2   -1    0    0    0  501  0.00000000000E+00  0.00000000000E+00  0.80750120997E+03  0.80750120998E+03  0.25500000920E-02 0.  1.
        2   -1    0    0  501    0  0.00000000000E+00  0.00000000000E+00 -0.23880694663E+04  0.23880694663E+04  0.25500000920E-02 0. -1.
    10030    2    1    2    0    0  0.00000000000E+00  0.00000000000E+00 -0.15805682564E+04  0.31955706763E+04  0.27773145184E+04 0.  0.
        1    1    3    3  502    0 -0.94560575698E+03 -0.59113216019E+03 -0.17424070743E+04  0.20687169673E+04  0.50400001928E-02 0. -1.
       -1    1    3    3    0  502  0.94560575698E+03  0.59113216019E+03  0.16183881790E+03  0.11268537090E+04  0.50400001928E-02 0.  1.
</event>
<event>
 5   0  0.1499888E-06  0.2799399E+04  0.7818609E-02  0.8303455E-01
        2   -1    0    0  501    0  0.00000000000E+00  0.00000000000E+00  0.13658366743E+04  0.13658366743E+04  0.25500000920E-02 0.  1.
       -2   -1    0    0    0  501  0.00000000000E+00  0.00000000000E+00 -0.14344018700E+04  0.14344018700E+04  0.25500000920E-02 0. -1.
    10030    2    1    2    0    0  0.00000000000E+00  0.00000000000E+00 -0.68565195659E+02  0.28002385443E+04  0.27993989925E+04 0.  0.
        3    1    3    3  502    0  0.55701012537E+03 -0.16321142007E+03  0.12397792586E+04  0.13689232512E+04  0.10100000352E+00 0.  1.
       -3    1    3    3    0  502 -0.55701012537E+03  0.16321142007E+03 -0.13083444542E+04  0.14313152932E+04  0.10100000352E+00 0. -1.
</event>
<event>
 5   0  0.5551565E-07  0.2800633E+04  0.7818609E-02  0.8303072E-01
        1   -1    0    0  501    0  0.00000000000E+00  0.00000000000E+00  0.15003016161E+04  0.15003016161E+04  0.50400001928E-02 0.  1.
       -1   -1    0    0    0  501  0.00000000000E+00  0.00000000000E+00 -0.13069949215E+04  0.13069949215E+04  0.50400001928E-02 0. -1.
    10030    2    1    2    0    0  0.00000000000E+00  0.00000000000E+00  0.19330669468E+03  0.28072965376E+04  0.28006332091E+04 0.  0.
        3    1    3    3  502    0  0.89731603243E+02 -0.40689721316E+03 -0.12434153895E+04  0.13113729232E+04  0.10100000352E+00 0. -1.
       -3    1    3    3    0  502 -0.89731603243E+02  0.40689721316E+03  0.14367220842E+04  0.14959236144E+04  0.10100000352E+00 0.  1.
</event>
<event>
 5   0  0.1394410E-06  0.2806931E+04  0.7818609E-02  0.8301120E-01
        2   -1    0    0  501    0  0.00000000000E+00  0.00000000000E+00  0.21168528086E+04  0.21168528086E+04  0.25500000920E-02 0.  1.
       -2   -1    0    0    0  501  0.00000000000E+00  0.00000000000E+00 -0.93049218880E+03  0.93049218880E+03  0.25500000920E-02 0. -1.
    10030    2    1    2    0    0  0.00000000000E+00  0.00000000000E+00  0.11863606198E+04  0.30473449974E+04  0.28069307104E+04 0.  0.
        4    1    3    3  502    0  0.95308634316E+03 -0.99772700340E+03  0.31452402966E+03  0.14151889376E+04  0.12699999809E+01 0. -1.
       -4    1    3    3    0  502 -0.95308634316E+03  0.99772700340E+03  0.87183659010E+03  0.16321560598E+04  0.12699999809E+01 0.  1.
</event>
<event>
 5   0  0.5551565E-07  0.2801697E+04  0.7818609E-02  0.8302742E-01
       -1   -1    0    0    0  501  0.00000000000E+00  0.00000000000E+00  0.13986634697E+04  0.13986634697E+04  0.50400001928E-02 0.  1.
        1   -1    0    0  501    0  0.00000000000E+00  0.00000000000E+00 -0.14030367000E+04  0.14030367000E+04  0.50400001928E-02 0. -1.
    10030    2    1    2    0    0  0.00000000000E+00  0.00000000000E+00 -0.43732303052E+01  0.28017001697E+04  0.28016967566E+04 0.  0.
        3    1    3    3  502    0 -0.10617592293E+04  0.53353469803E+03  0.73969314244E+03  0.13996920698E+04  0.10100000352E+00 0.  1.
       -3    1    3    3    0  502  0.10617592293E+04 -0.53353469803E+03 -0.74406637275E+03  0.14020080999E+04  0.10100000352E+00 0. -1.
</event>
<event>
 5   0  0.5551565E-07  0.2802975E+04  0.7818609E-02  0.8302345E-01
       -1   -1    0    0    0  501  0.00000000000E+00  0.00000000000E+00  0.18343904040E+04  0.18343904040E+04  0.50400001928E-02 0.  1.
        1   -1    0    0  501    0  0.00000000000E+00  0.00000000000E+00 -0.10707464080E+04  0.10707464080E+04  0.50400001928E-02 0. -1.
    10030    2    1    2    0    0  0.00000000000E+00  0.00000000000E+00  0.76364399599E+03  0.29051368120E+04  0.28029748025E+04 0.  0.
        3    1    3    3  502    0  0.45274293442E+03  0.59535605986E+03 -0.84659457679E+03  0.11296669378E+04  0.10100000352E+00 0. -1.
       -3    1    3    3    0  502 -0.45274293442E+03 -0.59535605986E+03  0.16102385728E+04  0.17754698742E+04  0.10100000352E+00 0.  1.
</event>
<event>
 5   0  0.1439207E-06  0.2797692E+04  0.7818609E-02  0.8303985E-01
        2   -1    0    0  501    0  0.00000000000E+00  0.00000000000E+00  0.14801340827E+04  0.14801340827E+04  0.25500000920E-02 0.  1.
       -2   -1    0    0    0  501  0.00000000000E+00  0.00000000000E+00 -0.13220225901E+04  0.13220225901E+04  0.25500000920E-02 0. -1.
    10030    2    1    2    0    0  0.00000000000E+00  0.00000000000E+00  0.15811149260E+03  0.28021566728E+04  0.27976924018E+04 0.  0.
        5    1    3    3  502    0 -0.24591811839E+03  0.33874570551E+03  0.14159230972E+04  0.14765109824E+04  0.46999998093E+01 0.  1.
       -5    1    3    3    0  502  0.24591811839E+03 -0.33874570551E+03 -0.12578116046E+04  0.13256456904E+04  0.46999998093E+01 0. -1.
</event>
<event>
 5   0  0.5282098E-07  0.2800356E+04  0.7818609E-02  0.8303158E-01
        1   -1    0    0  501    0  0.00000000000E+00  0.00000000000E+00  0.16434544634E+04  0.16434544634E+04  0.50400001928E-02 0.  1.
       -1   -1    0    0    0  501  0.00000000000E+00  0.00000000000E+00 -0.11929128304E+04  0.11929128304E+04  0.50400001928E-02 0. -1.
    10030    2    1    2    0    0  0.00000000000E+00  0.00000000000E+00  0.45054163298E+03  0.28363672938E+04  0.28003556314E+04 0.  0.
        4    1    3    3  502    0 -0.10861792003E+04 -0.71686857930E+03 -0.29790869606E+03  0.13350794056E+04  0.12699999809E+01 0. -1.
       -4    1    3    3    0  502  0.10861792003E+04  0.71686857930E+03  0.74845032904E+03  0.15012878882E+04  0.12699999809E+01 0.  1.
</event>
<event>
 5   0  0.5551565E-07  0.2800542E+04  0.7818609E-02  0.8303100E-01
       -1   -1    0    0    0  501  0.00000000000E+00  0.00000000000E+00  0.13417263559E+04  0.13417263559E+04  0.50400001928E-02 0.  1.
        1   -1    0    0  501    0  0.00000000000E+00  0.00000000000E+00 -0.14613699352E+04  0.14613699352E+04  0.50400001928E-02 0. -1.
    10030    2    1    2    0    0  0.00000000000E+00  0.00000000000E+00 -0.11964357928E+03  0.28030962911E+04  0.28005417746E+04 0.  0.
        3    1    3    3  502    0 -0.58840796759E+03  0.78217695056E+03 -0.10621011681E+04  0.14443280860E+04  0.10100000352E+00 0. -1.
       -3    1    3    3    0  502  0.58840796759E+03 -0.78217695056E+03  0.94245758886E+03  0.13587682051E+04  0.10100000352E+00 0.  1.
</event>
<event>
 5   0  0.1377807E-06  0.2798694E+04  0.7818609E-02  0.8303674E-01
        2   -1    0    0  501    0  0.00000000000E+00  0.00000000000E+00  0.66374005996E+03  0.66374005997E+03  0.25500000920E-02 0. -1.
       -2   -1    0    0    0  501  0.00000000000E+00  0.00000000000E+00 -0.29502083087E+04  0.29502083087E+04  0.25500000920E-02 0.  1.
    10030    2    1    2    0    0  0.00000000000E+00  0.00000000000E+00 -0.22864682487E+04  0.36139483686E+04  0.27986935807E+04 0.  0.
        2    1    3    3  502    0 -0.96204641020E+03 -0.83070520396E+03 -0.38744722528E+03  0.13288038921E+04  0.25500000920E-02 0. -1.
       -2    1    3    3    0  502  0.96204641020E+03  0.83070520396E+03 -0.18990210234E+04  0.22851444765E+04  0.25500000920E-02 0.  1.
</event>
<event>
 5   0  0.5282098E-07  0.2810755E+04  0.7818609E-02  0.8299937E-01
       -1   -1    0    0    0  501  0.00000000000E+00  0.00000000000E+00  0.14423977474E+04  0.14423977474E+04  0.50400001928E-02 0. -1.
        1   -1    0    0  501    0  0.00000000000E+00  0.00000000000E+00 -0.13693077988E+04  0.13693077989E+04  0.50400001928E-02 0.  1.
    10030    2    1    2    0    0  0.00000000000E+00  0.00000000000E+00  0.73089948516E+02  0.28117055462E+04  0.28107554035E+04 0.  0.
        4    1    3    3  502    0 -0.55637228227E+03  0.50659012778E+03 -0.11508277067E+04  0.13749871626E+04  0.12699999809E+01 0.  1.
       -4    1    3    3    0  502  0.55637228227E+03 -0.50659012778E+03  0.12239176552E+04  0.14367183836E+04  0.12699999809E+01 0. -1.
</event>
<event>
 5   0  0.1461146E-06  0.2799772E+04  0.7818609E-02  0.8303339E-01
        2   -1    0    0  501    0  0.00000000000E+00  0.00000000000E+00  0.18374759533E+04  0.18374759533E+04  0.25500000920E-02 0.  1.
       -2   -1    0    0    0  501  0.00000000000E+00  0.00000000000E+00 -0.10665068483E+04  0.10665068483E+04  0.25500000920E-02 0. -1.
    10030    2    1    2    0    0  0.00000000000E+00  0.00000000000E+00  0.77096910502E+03  0.29039828016E+04  0.27997719105E+04 0.  0.
        1    1    3    3  502    0 -0.16875026037E+03 -0.22959496007E+03  0.18070794429E+04  0.18294060810E+04  0.50400001928E-02 0.  1.
       -1    1    3    3    0  502  0.16875026037E+03  0.22959496007E+03 -0.10361103379E+04  0.10745767206E+04  0.50400001928E-02 0. -1.
</event>
<event>
 5   0  0.5214658E-07  0.2822145E+04  0.7818609E-02  0.8296426E-01
        1   -1    0    0  501    0  0.00000000000E+00  0.00000000000E+00  0.10939626032E+04  0.10939626032E+04  0.50400001928E-02 0.  1.
       -1   -1    0    0    0  501  0.00000000000E+00  0.00000000000E+00 -0.18201036948E+04  0.18201036948E+04  0.50400001928E-02 0. -1.
    10030    2    1    2    0    0  0.00000000000E+00  0.00000000000E+00 -0.72614109158E+03  0.29140662980E+04  0.28221448411E+04 0.  0.
        2    1    3    3  502    0  0.34043088538E+02  0.67934803380E+03  0.91350385021E+03  0.11389301854E+04  0.25500000920E-02 0.  1.
       -2    1    3    3    0  502 -0.34043088538E+02 -0.67934803380E+03 -0.16396449418E+04  0.17751361125E+04  0.25500000920E-02 0. -1.
</event>
<event>
 5   0  0.5282098E-07  0.2771560E+04  0.7818609E-02  0.8312152E-01
        1   -1    0    0  501    0  0.00000000000E+00  0.00000000000E+00  0.16070863321E+04  0.16070863321E+04  0.50400001928E-02 0.  1.
       -1   -1    0    0    0  501  0.00000000000E+00  0.00000000000E+00 -0.11949494144E+04  0.11949494144E+04  0.50400001928E-02 0. -1.
    10030    2    1    2    0    0  0.00000000000E+00  0.00000000000E+00  0.41213691770E+03  0.28020357466E+04  0.27715604785E+04 0.  0.
        4    1    3    3  502    0 -0.82243476615E+03 -0.14064171028E+03  0.13246730644E+04  0.15655476281E+04  0.12699999809E+01 0.  1.
       -4    1    3    3    0  502  0.82243476615E+03  0.14064171028E+03 -0.91253614672E+03  0.12364881185E+04  0.12699999809E+01 0. -1.
</event>
<event>
 5   0  0.1499888E-06  0.2795334E+04  0.7818609E-02  0.8304718E-01
        2   -1    0    0  501    0  0.00000000000E+00  0.00000000000E+00  0.16635328639E+04  0.16635328639E+04  0.25500000920E-02 0. -1.
       -2   -1    0    0    0  501  0.00000000000E+00  0.00000000000E+00 -0.11742919052E+04  0.11742919052E+04  0.25500000920E-02 0.  1.
    10030    2    1    2    0    0  0.00000000000E+00  0.00000000000E+00  0.48924095864E+03  0.28378247691E+04  0.27953340953E+04 0.  0.
        3    1    3    3  502    0 -0.61240852807E+03  0.88989165235E+03 -0.65572095601E+03  0.12636935311E+04  0.10100000352E+00 0.  1.
       -3    1    3    3    0  502  0.61240852807E+03 -0.88989165235E+03  0.11449619147E+04  0.15741312380E+04  0.10100000352E+00 0. -1.
</event>
<event>
 5   0  0.5551565E-07  0.2797584E+04  0.7818609E-02  0.8304019E-01
       -1   -1    0    0    0  501  0.00000000000E+00  0.00000000000E+00  0.16507557976E+04  0.16507557976E+04  0.50400001928E-02 0.  1.
        1   -1    0    0  501    0  0.00000000000E+00  0.00000000000E+00 -0.11852864457E+04  0.11852864457E+04  0.50400001928E-02 0. -1.
    10030    2    1    2    0    0  0.00000000000E+00  0.00000000000E+00  0.46546935194E+03  0.28360422433E+04  0.27975835802E+04 0.  0.
        3    1    3    3  502    0  0.31444027086E+01  0.29401619269E+03  0.16190734229E+04  0.16455558841E+04  0.10100000352E+00 0.  1.
       -3    1    3    3    0  502 -0.31444027086E+01 -0.29401619269E+03 -0.11536040709E+04  0.11904863592E+04  0.10100000352E+00 0. -1.
</event>
<event>
 5   0  0.1377807E-06  0.2787822E+04  0.7818609E-02  0.8307059E-01
       -2   -1    0    0    0  501  0.00000000000E+00  0.00000000000E+00  0.93865756277E+03  0.93865756278E+03  0.25500000920E-02 0.  1.
        2   -1    0    0  501    0  0.00000000000E+00  0.00000000000E+00 -0.20699638339E+04  0.20699638339E+04  0.25500000920E-02 0. -1.
    10030    2    1    2    0    0  0.00000000000E+00  0.00000000000E+00 -0.11313062711E+04  0.30086213967E+04  0.27878215204E+04 0.  0.
        2    1    3    3  502    0  0.21319132926E+03 -0.12390729161E+04 -0.12151809639E+04  0.17485471138E+04  0.25500000920E-02 0. -1.
       -2    1    3    3    0  502 -0.21319132926E+03  0.12390729161E+04  0.83874692759E+02  0.12600742829E+04  0.25500000920E-02 0.  1.
</event>
<event>
 5   0  0.1499888E-06  0.2801959E+04  0.7818609E-02  0.8302660E-01
        2   -1    0    0  501    0  0.00000000000E+00  0.00000000000E+00  0.19690041994E+04  0.19690041994E+04  0.25500000920E-02 0.  1.
       -2   -1    0    0    0  501  0.00000000000E+00  0.00000000000E+00 -0.99682041117E+03  0.99682041118E+03  0.25500000920E-02 0. -1.
    10030    2    1    2    0    0  0.00000000000E+00  0.00000000000E+00  0.97218378823E+03  0.29658246106E+04  0.28019590116E+04 0.  0.
        3    1    3    3  502    0 -0.23631210007E+03 -0.16922131293E+03  0.19367398795E+04  0.19584281024E+04  0.10100000352E+00 0.  1.
       -3    1    3    3    0  502  0.23631210007E+03  0.16922131293E+03 -0.96455609122E+03  0.10073965082E+04  0.10100000352E+00 0. -1.
</event>
<event>
 5   0  0.1377807E-06  0.2804776E+04  0.7818609E-02  0.8301787E-01
       -2   -1    0    0    0  501  0.00000000000E+00  0.00000000000E+00  0.13817588118E+04  0.13817588118E+04  0.25500000920E-02 0.  1.
        2   -1    0    0  501    0  0.00000000000E+00  0.00000000000E+00 -0.14233255792E+04  0.14233255792E+04  0.25500000920E-02 0. -1.
    10030    2    1    2    0    0  0.00000000000E+00  0.00000000000E+00 -0.41566767440E+02  0.28050843910E+04  0.28047763983E+04 0.  0.
        2    1    3    3  502    0  0.21917162743E+03 -0.63320533349E+03  0.12113046009E+04  0.13842846647E+04  0.25500000920E-02 0.  1.
       -2    1    3    3    0  502 -0.21917162743E+03  0.63320533349E+03 -0.12528713684E+04  0.14207997263E+04  0.25500000920E-02 0. -1.
</event>
<event>
 5   0  0.1377807E-06  0.2796403E+04  0.7818609E-02  0.8304386E-01
        2   -1    0    0  501    0  0.00000000000E+00  0.00000000000E+00  0.20395544078E+04  0.20395544078E+04  0.25500000920E-02 0.  1.
       -2   -1    0    0    0  501  0.00000000000E+00  0.00000000000E+00 -0.95852706982E+03  0.95852706982E+03  0.25500000920E-02 0. -1.
    10030    2    1    2    0    0  0.00000000000E+00  0.00000000000E+00  0.10810273380E+04  0.29980814776E+04  0.27964034832E+04 0.  0.
        2    1    3    3  502    0  0.11976414673E+04  0.63471804626E+03  0.90841822900E+03  0.16316972027E+04  0.25500000920E-02 0. -1.
       -2    1    3    3    0  502 -0.11976414673E+04 -0.63471804626E+03  0.17260910899E+03  0.13663842750E+04  0.25500000920E-02 0.  1.
</event>
<event>
 5   0  0.5297741E-07  0.2789739E+04  0.7818609E-02  0.8306461E-01
        1   -1    0    0  501    0  0.00000000000E+00  0.00000000000E+00  0.14784948725E+04  0.14784948725E+04  0.50400001928E-02 0.  1.
       -1   -1    0    0    0  501  0.00000000000E+00  0.00000000000E+00 -0.13159738694E+04  0.13159738694E+04  0.50400001928E-02 0. -1.
    10030    2    1    2    0    0  0.00000000000E+00  0.00000000000E+00  0.16252100317E+03  0.27944687419E+04  0.27897387822E+04 0.  0.
        5    1    3    3  502    0  0.88797551196E+03 -0.93678815514E+03 -0.44837595315E+03  0.13664317190E+04  0.46999998093E+01 0. -1.
       -5    1    3    3    0  502 -0.88797551196E+03  0.93678815514E+03  0.61089695632E+03  0.14280370229E+04  0.46999998093E+01 0.  1.
</event>
<event>
 5   0  0.5362952E-07  0.2801701E+04  0.7818609E-02  0.8302740E-01
       -1   -1    0    0    0  501  0.00000000000E+00  0.00000000000E+00  0.12692032805E+04  0.12692032805E+04  0.50400001928E-02 0.  1.
        1   -1    0    0  501    0  0.00000000000E+00  0.00000000000E+00 -0.15461531945E+04  0.15461531945E+04  0.50400001928E-02 0. -1.
    10030    2    1    2    0    0  0.00000000000E+00  0.00000000000E+00 -0.27694991400E+03  0.28153564751E+04  0.28017014164E+04 0.  0.
        1    1    3    3  502    0 -0.78656385071E+03 -0.10238022123E+04  0.40780042343E+03  0.13539404885E+04  0.50400001928E-02 0. -1.
       -1    1    3    3    0  502  0.78656385071E+03  0.10238022123E+04 -0.68475033742E+03  0.14614159865E+04  0.50400001928E-02 0.  1.
</event>
<event>
 5   0  0.1377807E-06  0.2790422E+04  0.7818609E-02  0.8306248E-01
       -2   -1    0    0    0  501  0.00000000000E+00  0.00000000000E+00  0.10921733431E+04  0.10921733431E+04  0.25500000920E-02 0.  1.
        2   -1    0    0  501    0  0.00000000000E+00  0.00000000000E+00 -0.17823303529E+04  0.17823303529E+04  0.25500000920E-02 0. -1.
    10030    2    1    2    0    0  0.00000000000E+00  0.00000000000E+00 -0.69015700978E+03  0.28745036959E+04  0.27904219752E+04 0.  0.
        2    1    3    3  502    0 -0.63600997813E+03  0.20486431227E+03 -0.16067847415E+04  0.17401825433E+04  0.25500000920E-02 0. -1.
       -2    1    3    3    0  502  0.63600997813E+03 -0.20486431227E+03  0.91662773168E+03  0.11343211526E+04  0.25500000920E-02 0.  1.
</event>
<event>
 5   0  0.1377807E-06  0.2801070E+04  0.7818609E-02  0.8302936E-01
       -2   -1    0    0    0  501  0.00000000000E+00  0.00000000000E+00  0.13887472716E+04  0.13887472716E+04  0.25500000920E-02 0. -1.
        2   -1    0    0  501    0  0.00000000000E+00  0.00000000000E+00 -0.14124230640E+04  0.14124230640E+04  0.25500000920E-02 0.  1.
    10030    2    1    2    0    0  0.00000000000E+00  0.00000000000E+00 -0.23675792423E+02  0.28011703356E+04  0.28010702786E+04 0.  0.
        2    1    3    3  502    0  0.72314693012E+03  0.65944268379E+03  0.99004245977E+03  0.13921171674E+04  0.25500000920E-02 0. -1.
       -2    1    3    3    0  502 -0.72314693012E+03 -0.65944268379E+03 -0.10137182522E+04  0.14090531681E+04  0.25500000920E-02 0.  1.
</event>
<event>
 5   0  0.1499888E-06  0.2795435E+04  0.7818609E-02  0.8304687E-01
        2   -1    0    0  501    0  0.00000000000E+00  0.00000000000E+00  0.14019013555E+04  0.14019013555E+04  0.25500000920E-02 0. -1.
       -2   -1    0    0    0  501  0.00000000000E+00  0.00000000000E+00 -0.13935456397E+04  0.13935456397E+04  0.25500000920E-02 0.  1.
    10030    2    1    2    0    0  0.00000000000E+00  0.00000000000E+00  0.83557157836E+01  0.27954469952E+04  0.27954345073E+04 0.  0.
        3    1    3    3  502    0  0.82489238235E+03  0.66350493359E+03  0.91683042783E+03  0.14004514568E+04  0.10100000352E+00 0. -1.
       -3    1    3    3    0  502 -0.82489238235E+03 -0.66350493359E+03 -0.90847471205E+03  0.13949955383E+04  0.10100000352E+00 0.  1.
</event>
<event>
 5   0  0.5214658E-07  0.2798117E+04  0.7818609E-02  0.8303853E-01
       -1   -1    0    0    0  501  0.00000000000E+00  0.00000000000E+00  0.12003840547E+04  0.12003840548E+04  0.50400001928E-02 0. -1.
        1   -1    0    0  501    0  0.00000000000E+00  0.00000000000E+00 -0.16306155407E+04  0.16306155407E+04  0.50400001928E-02 0.  1.
    10030    2    1    2    0    0  0.00000000000E+00  0.00000000000E+00 -0.43023148596E+03  0.28309995955E+04  0.27981171487E+04 0.  0.
        2    1    3    3  502    0 -0.52811534520E+03 -0.12916208975E+04 -0.31717001136E+03  0.14310091463E+04  0.25500000920E-02 0.  1.
       -2    1    3    3    0  502  0.52811534520E+03  0.12916208975E+04 -0.11306147460E+03  0.13999904492E+04  0.25500000920E-02 0. -1.
</event>
<event>
 5   0  0.5362952E-07  0.2798420E+04  0.7818609E-02  0.8303759E-01
        1   -1    0    0  501    0  0.00000000000E+00  0.00000000000E+00  0.10652397555E+04  0.10652397555E+04  0.50400001928E-02 0. -1.
       -1   -1    0    0    0  501  0.00000000000E+00  0.00000000000E+00 -0.18378851150E+04  0.18378851150E+04  0.50400001928E-02 0.  1.
    10030    2    1    2    0    0  0.00000000000E+00  0.00000000000E+00 -0.77264535950E+03  0.29031248705E+04  0.27984197616E+04 0.  0.
        1    1    3    3  502    0 -0.29583379478E+02  0.19807433080E+03  0.10502939514E+04  0.10692174715E+04  0.50400001928E-02 0. -1.
       -1    1    3    3    0  502  0.29583379478E+02 -0.19807433080E+03 -0.18229393109E+04  0.18339073990E+04  0.50400001928E-02 0.  1.
</event>
<event>
 5   0  0.1377807E-06  0.2803857E+04  0.7818609E-02  0.8302072E-01
       -2   -1    0    0    0  501  0.00000000000E+00  0.00000000000E+00  0.85480766302E+03  0.85480766303E+03  0.25500000920E-02 0.  1.
        2   -1    0    0  501    0  0.00000000000E+00  0.00000000000E+00 -0.22992350104E+04  0.22992350104E+04  0.25500000920E-02 0. -1.
    10030    2    1    2    0    0  0.00000000000E+00  0.00000000000E+00 -0.14444273474E+04  0.31540426735E+04  0.28038571333E+04 0.  0.
        2    1    3    3  502    0  0.64690025720E+03  0.12243346522E+04 -0.96848182600E+03  0.16898024532E+04  0.25500000920E-02 0. -1.
       -2    1    3    3    0  502 -0.64690025720E+03 -0.12243346522E+04 -0.47594552142E+03  0.14642402203E+04  0.25500000920E-02 0.  1.
</event>
<event>
 5   0  0.1439207E-06  0.2793895E+04  0.7818609E-02  0.8305166E-01
       -2   -1    0    0    0  501  0.00000000000E+00  0.00000000000E+00  0.11253224954E+04  0.11253224954E+04  0.25500000920E-02 0. -1.
        2   -1    0    0  501    0  0.00000000000E+00  0.00000000000E+00 -0.17341365307E+04  0.17341365307E+04  0.25500000920E-02 0.  1.
    10030    2    1    2    0    0  0.00000000000E+00  0.00000000000E+00 -0.60881403528E+03  0.28594590261E+04  0.27938953796E+04 0.  0.
        5    1    3    3  502    0 -0.65088962915E+03  0.21083778433E+03  0.94209434315E+03  0.11643340251E+04  0.46999998093E+01 0. -1.
       -5    1    3    3    0  502  0.65088962915E+03 -0.21083778433E+03 -0.15509083784E+04  0.16951250010E+04  0.46999998093E+01 0.  1.
</event>
<event>
 5   0  0.5214658E-07  0.2718482E+04  0.7818609E-02  0.8329033E-01
        1   -1    0    0  501    0  0.00000000000E+00  0.00000000000E+00  0.18154180237E+04  0.18154180237E+04  0.50400001928E-02 0.  1.
       -1   -1    0    0    0  501  0.00000000000E+00  0.00000000000E+00 -0.10176918299E+04  0.10176918299E+04  0.50400001928E-02 0. -1.
    10030    2    1    2    0    0  0.00000000000E+00  0.00000000000E+00  0.79772619377E+03  0.28331098536E+04  0.27184819959E+04 0.  0.
        2    1    3    3  502    0 -0.10142969513E+03 -0.79401225329E+03 -0.74599927467E+03  0.10941930174E+04  0.25500000920E-02 0. -1.
       -2    1    3    3    0  502  0.10142969513E+03  0.79401225329E+03  0.15437254684E+04  0.17389168362E+04  0.25500000920E-02 0.  1.
</event>
<event>
 5   0  0.5297741E-07  0.2800500E+04  0.7818609E-02  0.8303113E-01
       -1   -1    0    0    0  501  0.00000000000E+00  0.00000000000E+00  0.15026013533E+04  0.15026013533E+04  0.50400001928E-02 0.  1.
        1   -1    0    0  501    0  0.00000000000E+00  0.00000000000E+00 -0.13048708759E+04  0.13048708759E+04  0.50400001928E-02 0. -1.
    10030    2    1    2    0    0  0.00000000000E+00  0.00000000000E+00  0.19773047740E+03  0.28074722293E+04  0.28005004868E+04 0.  0.
        5    1    3    3  502    0  0.25073567041E+03  0.58916008141E+03 -0.11495061446E+04  0.13158132255E+04  0.46999998093E+01 0. -1.
       -5    1    3    3    0  502 -0.25073567041E+03 -0.58916008141E+03  0.13472366220E+04  0.14916590038E+04  0.46999998093E+01 0.  1.
</event>
<event>
 5   0  0.1394410E-06  0.2801203E+04  0.7818609E-02  0.8302895E-01
       -2   -1    0    0    0  501  0.00000000000E+00  0.00000000000E+00  0.99851418139E+03  0.99851418139E+03  0.25500000920E-02 0.  1.
        2   -1    0    0  501    0  0.00000000000E+00  0.00000000000E+00 -0.19646038857E+04  0.19646038857E+04  0.25500000920E-02 0. -1.
    10030    2    1    2    0    0  0.00000000000E+00  0.00000000000E+00 -0.96608970436E+03  0.29631180671E+04  0.28012031991E+04 0.  0.
        4    1    3    3  502    0  0.63301453642E+03 -0.43199600840E+03 -0.17231366912E+04  0.18858763544E+04  0.12699999809E+01 0. -1.
       -4    1    3    3    0  502 -0.63301453642E+03  0.43199600840E+03  0.75704698681E+03  0.10772417128E+04  0.12699999809E+01 0.  1.
</event>
<event>
 5   0  0.5551565E-07  0.2797564E+04  0.7818609E-02  0.8304025E-01
       -1   -1    0    0    0  501  0.00000000000E+00  0.00000000000E+00  0.14932150077E+04  0.14932150077E+04  0.50400001928E-02 0.  1.
        1   -1    0    0  501    0  0.00000000000E+00  0.00000000000E+00 -0.13103209941E+04  0.13103209941E+04  0.50400001928E-02 0. -1.
    10030    2    1    2    0    0  0.00000000000E+00  0.00000000000E+00  0.18289401365E+03  0.28035360018E+04  0.27975639212E+04 0.  0.
        3    1    3    3  502    0  0.13434548718E+04 -0.28838221371E+02 -0.29782568763E+03  0.13763730548E+04  0.10100000352E+00 0. -1.
       -3    1    3    3    0  502 -0.13434548718E+04  0.28838221371E+02  0.48071970128E+03  0.14271629469E+04  0.10100000352E+00 0.  1.
</event>
<event>
 5   0  0.5214658E-07  0.2807401E+04  0.7818609E-02  0.8300974E-01
        1   -1    0    0  501    0  0.00000000000E+00  0.00000000000E+00  0.18079163698E+04  0.18079163698E+04  0.50400001928E-02 0. -1.
       -1   -1    0    0    0  501  0.00000000000E+00  0.00000000000E+00 -0.10898599821E+04  0.10898599821E+04  0.50400001928E-02 0.  1.
    10030    2    1    2    0    0  0.00000000000E+00  0.00000000000E+00  0.71805638777E+03  0.28977763519E+04  0.28074014337E+04 0.  0.
        2    1    3    3  502    0 -0.34843477787E+03 -0.68804789448E+03 -0.85156982368E+03  0.11489072478E+04  0.25500000920E-02 0.  1.
       -2    1    3    3    0  502  0.34843477787E+03  0.68804789448E+03  0.15696262115E+04  0.17488691041E+04  0.25500000920E-02 0. -1.
</event>
<event>
 5   0  0.1377807E-06  0.2799572E+04  0.7818609E-02  0.8303401E-01
       -2   -1    0    0    0  501  0.00000000000E+00  0.00000000000E+00  0.78821213653E+03  0.78821213653E+03  0.25500000920E-02 0.  1.
        2   -1    0    0  501    0  0.00000000000E+00  0.00000000000E+00 -0.24858798713E+04  0.24858798713E+04  0.25500000920E-02 0. -1.
    10030    2    1    2    0    0  0.00000000000E+00  0.00000000000E+00 -0.16976677347E+04  0.32740920078E+04  0.27995718848E+04 0.  0.
        2    1    3    3  502    0  0.14807961620E+03  0.10915804273E+04 -0.18588932797E+04  0.21607775516E+04  0.25500000920E-02 0. -1.
       -2    1    3    3    0  502 -0.14807961620E+03 -0.10915804273E+04  0.16122554495E+03  0.11133144562E+04  0.25500000920E-02 0.  1.
</event>
<event>
 5   0  0.1439207E-06  0.2798956E+04  0.7818609E-02  0.8303593E-01
       -2   -1    0    0    0  501  0.00000000000E+00  0.00000000000E+00  0.10139896017E+04  0.10139896017E+04  0.25500000920E-02 0. -1.
        2   -1    0    0  501    0  0.00000000000E+00  0.00000000000E+00 -0.19315173297E+04  0.19315173297E+04  0.25500000920E-02 0.  1.
    10030    2    1    2    0    0  0.00000000000E+00  0.00000000000E+00 -0.91752772799E+03  0.29455069315E+04  0.27989558681E+04 0.  0.
        5    1    3    3  502    0  0.11072539522E+04  0.65951063804E+03 -0.10328070425E+04  0.16515683677E+04  0.46999998093E+01 0. -1.
       -5    1    3    3    0  502 -0.11072539522E+04 -0.65951063804E+03  0.11527931450E+03  0.12939385637E+04  0.46999998093E+01 0.  1.
</event>
<event>
 5   0  0.5282098E-07  0.2805004E+04  0.7818609E-02  0.8301717E-01
        1   -1    0    0  501    0  0.00000000000E+00  0.00000000000E+00  0.19185173954E+04  0.19185173954E+04  0.50400001928E-02 0.  1.
       -1   -1    0    0    0  501  0.00000000000E+00  0.00000000000E+00 -0.10252766980E+04  0.10252766980E+04  0.50400001928E-02 0. -1.
    10030    2    1    2    0    0  0.00000000000E+00  0.00000000000E+00  0.89324069742E+03  0.29437940935E+04  0.28050035154E+04 0.  0.
        4    1    3    3  502    0  0.97311874694E+03  0.64263360144E+03 -0.37107956395E+03  0.12237809024E+04  0.12699999809E+01 0. -1.
       -4    1    3    3    0  502 -0.97311874694E+03 -0.64263360144E+03  0.12643202614E+04  0.17200131911E+04  0.12699999809E+01 0.  1.
</event>
<event>
 5   0  0.1439207E-06  0.2785251E+04  0.7818609E-02  0.8307862E-01
       -2   -1    0    0    0  501  0.00000000000E+00  0.00000000000E+00  0.21922653434E+04  0.21922653434E+04  0.25500000920E-02 0.  1.
        2   -1    0    0  501    0  0.00000000000E+00  0.00000000000E+00 -0.88465824459E+03  0.88465824459E+03  0.25500000920E-02 0. -1.
    10030    2    1    2    0    0  0.00000000000E+00  0.00000000000E+00  0.13076070988E+04  0.30769235880E+04  0.27852508759E+04 0.  0.
        5    1    3    3  502    0 -0.60737646225E+02 -0.26634510713E+03 -0.85475875638E+03  0.89736469697E+03  0.46999998093E+01 0. -1.
       -5    1    3    3    0  502  0.60737646225E+02  0.26634510713E+03  0.21623658552E+04  0.21795588910E+04  0.46999998093E+01 0.  1.
</event>
<event>
 5   0  0.5551565E-07  0.2801935E+04  0.7818609E-02  0.8302668E-01
       -1   -1    0    0    0  501  0.00000000000E+00  0.00000000000E+00  0.10391826015E+04  0.10391826015E+04  0.50400001928E-02 0.  1.
        1   -1    0    0  501    0  0.00000000000E+00  0.00000000000E+00 -0.18887056117E+04  0.18887056117E+04  0.50400001928E-02 0. -1.
    10030    2    1    2    0    0  0.00000000000E+00  0.00000000000E+00 -0.84952301022E+03  0.29278882132E+04  0.28019350536E+04 0.  0.
        3    1    3    3  502    0  0.10665433935E+04  0.76293647309E+03 -0.94000149721E+03  0.16134403296E+04  0.10100000352E+00 0. -1.
       -3    1    3    3    0  502 -0.10665433935E+04 -0.76293647309E+03  0.90478486992E+02  0.13144478837E+04  0.10100000352E+00 0.  1.
</event>
<event>
 5   0  0.1377807E-06  0.2726767E+04  0.7818609E-02  0.8326372E-01
       -2   -1    0    0    0  501  0.00000000000E+00  0.00000000000E+00  0.13805060467E+04  0.13805060467E+04  0.25500000920E-02 0.  1.
        2   -1    0    0  501    0  0.00000000000E+00  0.00000000000E+00 -0.13464734897E+04  0.13464734897E+04  0.25500000920E-02 0. -1.
    10030    2    1    2    0    0  0.00000000000E+00  0.00000000000E+00  0.34032556978E+02  0.27269795363E+04  0.27267671658E+04 0.  0.
        2    1    3    3  502    0 -0.34722176048E+03 -0.68773356072E+03 -0.11079154922E+04  0.13494506806E+04  0.25500000920E-02 0. -1.
       -2    1    3    3    0  502  0.34722176048E+03  0.68773356072E+03  0.11419480492E+04  0.13775288558E+04  0.25500000920E-02 0.  1.
</event>
<event>
 5   0  0.1499888E-06  0.2801501E+04  0.7818609E-02  0.8302802E-01
        2   -1    0    0  501    0  0.00000000000E+00  0.00000000000E+00  0.14648054817E+04  0.14648054817E+04  0.25500000920E-02 0. -1.
       -2   -1    0    0    0  501  0.00000000000E+00  0.00000000000E+00 -0.13394970088E+04  0.13394970088E+04  0.25500000920E-02 0.  1.
    10030    2    1    2    0    0  0.00000000000E+00  0.00000000000E+00  0.12530847297E+03  0.28043024905E+04  0.28015014269E+04 0.  0.
        3    1    3    3  502    0  0.13327405861E+04  0.43062557236E+03  0.41029448221E+02  0.14011849553E+04  0.10100000352E+00 0. -1.
       -3    1    3    3    0  502 -0.13327405861E+04 -0.43062557236E+03  0.84279024747E+02  0.14031175352E+04  0.10100000352E+00 0.  1.
</event>
<event>
 5   0  0.1461146E-06  0.2799843E+04  0.7818609E-02  0.8303317E-01
        2   -1    0    0  501    0  0.00000000000E+00  0.00000000000E+00  0.15430148914E+04  0.15430148914E+04  0.25500000920E-02 0.  1.
       -2   -1    0    0    0  501  0.00000000000E+00  0.00000000000E+00 -0.12700979454E+04  0.12700979454E+04  0.25500000920E-02 0. -1.
    10030    2    1    2    0    0  0.00000000000E+00  0.00000000000E+00  0.27291694600E+03  0.28131128368E+04  0.27998428837E+04 0.  0.
        1    1    3    3  502    0 -0.80200095284E+03  0.10969346517E+04  0.47466771719E+03  0.14393681254E+04  0.50400001928E-02 0. -1.
       -1    1    3    3    0  502  0.80200095284E+03 -0.10969346517E+04 -0.20175077118E+03  0.13737447114E+04  0.50400001928E-02 0.  1.
</event>
<event>
 5   0  0.5362952E-07  0.2790483E+04  0.7818609E-02  0.8306229E-01
       -1   -1    0    0    0  501  0.00000000000E+00  0.00000000000E+00  0.12263184254E+04  0.12263184254E+04  0.50400001928E-02 0.  1.
        1   -1    0    0  501    0  0.00000000000E+00  0.00000000000E+00 -0.15874331586E+04  0.15874331586E+04  0.50400001928E-02 0. -1.
    10030    2    1    2    0    0  0.00000000000E+00  0.00000000000E+00 -0.36111473320E+03  0.28137515839E+04  0.27904827764E+04 0.  0.
        1    1    3    3  502    0 -0.47035508252E+03  0.32891576213E+03  0.11017699282E+04  0.12423028845E+04  0.50400001928E-02 0.  1.
       -1    1    3    3    0  502  0.47035508252E+03 -0.32891576213E+03 -0.14628846614E+04  0.15714486994E+04  0.50400001928E-02 0. -1.
</event>
<event>
 5   0  0.1499888E-06  0.2792624E+04  0.7818609E-02  0.8305562E-01
       -2   -1    0    0    0  501  0.00000000000E+00  0.00000000000E+00  0.85135794104E+03  0.85135794104E+03  0.25500000920E-02 0.  1.
        2   -1    0    0  501    0  0.00000000000E+00  0.00000000000E+00 -0.22900909420E+04  0.22900909420E+04  0.25500000920E-02 0. -1.
    10030    2    1    2    0    0  0.00000000000E+00  0.00000000000E+00 -0.14387330009E+04  0.31414488830E+04  0.27926239340E+04 0.  0.
        3    1    3    3  502    0 -0.49413047866E+03 -0.74366344808E+02 -0.21860653687E+04  0.22424489046E+04  0.10100000352E+00 0. -1.
       -3    1    3    3    0  502  0.49413047866E+03  0.74366344808E+02  0.74733236775E+03  0.89899997846E+03  0.10100000352E+00 0.  1.
</event>
<event>
 5   0  0.5282098E-07  0.2799692E+04  0.7818609E-02  0.8303364E-01
       -1   -1    0    0    0  501  0.00000000000E+00  0.00000000000E+00  0.10050913933E+04  0.10050913933E+04  0.50400001928E-02 0.  1.
        1   -1    0    0  501    0  0.00000000000E+00  0.00000000000E+00 -0.19496422629E+04  0.19496422629E+04  0.50400001928E-02 0. -1.
    10030    2    1    2    0    0  0.00000000000E+00  0.00000000000E+00 -0.94455086964E+03  0.29547336562E+04  0.27996918819E+04 0.  0.
        4    1    3    3  502    0  0.18874313957E+03  0.11270240052E+04 -0.13256059214E+04  0.17501542083E+04  0.12699999809E+01 0. -1.
       -4    1    3    3    0  502 -0.18874313957E+03 -0.11270240052E+04  0.38105505176E+03  0.12045794479E+04  0.12699999809E+01 0.  1.
</event>
<event>
 5   0  0.1439207E-06  0.2799838E+04  0.7818609E-02  0.8303319E-01
        2   -1    0    0  501    0  0.00000000000E+00  0.00000000000E+00  0.28269633767E+04  0.28269633767E+04  0.25500000920E-02 0. -1.
       -2   -1    0    0    0  501  0.00000000000E+00  0.00000000000E+00 -0.69324305864E+03  0.69324305864E+03  0.25500000920E-02 0.  1.
    10030    2    1    2    0    0  0.00000000000E+00  0.00000000000E+00  0.21337203180E+04  0.35202064353E+04  0.27998376652E+04 0.  0.
        5    1    3    3  502    0  0.12860608731E+03 -0.12437970969E+04  0.18582336566E+04  0.22397823905E+04  0.46999998093E+01 0. -1.
       -5    1    3    3    0  502 -0.12860608731E+03  0.12437970969E+04  0.27548666141E+03  0.12804240449E+04  0.46999998093E+01 0.  1.
</event>
<event>
 5   0  0.5282098E-07  0.2801902E+04  0.7818609E-02  0.8302678E-01
       -1   -1    0    0    0  501  0.00000000000E+00  0.00000000000E+00  0.13716994982E+04  0.13716994982E+04  0.50400001928E-02 0. -1.
        1   -1    0    0  501    0  0.00000000000E+00  0.00000000000E+00 -0.14308258196E+04  0.14308258196E+04  0.50400001928E-02 0.  1.
    10030    2    1    2    0    0  0.00000000000E+00  0.00000000000E+00 -0.59126321426E+02  0.28025253178E+04  0.28019015391E+04 0.  0.
        4    1    3    3  502    0 -0.26685053599E+03  0.11832559109E+04 -0.73068832060E+03  0.14160546578E+04  0.12699999809E+01 0.  1.
       -4    1    3    3    0  502  0.26685053599E+03 -0.11832559109E+04  0.67156199918E+03  0.13864706599E+04  0.12699999809E+01 0. -1.
</event>
<event>
 5   0  0.5551565E-07  0.2799491E+04  0.7818609E-02  0.8303426E-01
       -1   -1    0    0    0  501  0.00000000000E+00  0.00000000000E+00  0.15650121006E+04  0.15650121006E+04  0.50400001928E-02 0. -1.
        1   -1    0    0  501    0  0.00000000000E+00  0.00000000000E+00 -0.12519314649E+04  0.12519314649E+04  0.50400001928E-02 0.  1.
    10030    2    1    2    0    0  0.00000000000E+00  0.00000000000E+00  0.31308063569E+03  0.28169435654E+04  0.27994913049E+04 0.  0.
        3    1    3    3  502    0 -0.89532460001E+03 -0.10455655828E+04  0.41204127015E+03  0.14368686599E+04  0.10100000352E+00 0. -1.
       -3    1    3    3    0  502  0.89532460001E+03  0.10455655828E+04 -0.98960634458E+02  0.13800749055E+04  0.10100000352E+00 0.  1.
</event>
<event>
 5   0  0.1461146E-06  0.2808999E+04  0.7818609E-02  0.8300480E-01
       -2   -1    0    0    0  501  0.00000000000E+00  0.00000000000E+00  0.13550914696E+04  0.13550914696E+04  0.25500000920E-02 0. -1.
        2   -1    0    0  501    0  0.00000000000E+00  0.00000000000E+00 -0.14557087721E+04  0.14557087721E+04  0.25500000920E-02 0.  1.
    10030    2    1    2    0    0  0.00000000000E+00  0.00000000000E+00 -0.10061730252E+03  0.28108002417E+04  0.28089987819E+04 0.  0.
        1    1    3    3  502    0 -0.96948257955E+03  0.93024693818E+03 -0.45967088109E+03  0.14200539275E+04  0.50400001928E-02 0. -1.
       -1    1    3    3    0  502  0.96948257955E+03 -0.93024693818E+03  0.35905357856E+03  0.13907463142E+04  0.50400001928E-02 0.  1.
</event>
<event>
 5   0  0.1394410E-06  0.2798045E+04  0.7818609E-02  0.8303875E-01
       -2   -1    0    0    0  501  0.00000000000E+00  0.00000000000E+00  0.20107226558E+04  0.20107226558E+04  0.25500000920E-02 0. -1.
        2   -1    0    0  501    0  0.00000000000E+00  0.00000000000E+00 -0.97341338949E+03  0.97341338950E+03  0.25500000920E-02 0.  1.
    10030    2    1    2    0    0  0.00000000000E+00  0.00000000000E+00  0.10373092663E+04  0.29841360453E+04  0.27980452861E+04 0.  0.
        4    1    3    3  502    0  0.89712552236E+03  0.86383041844E+03  0.11984019407E+04  0.17283535573E+04  0.12699999809E+01 0. -1.
       -4    1    3    3    0  502 -0.89712552236E+03 -0.86383041844E+03 -0.16109267431E+03  0.12557824881E+04  0.12699999809E+01 0.  1.
</event>
<event>
 5   0  0.1499888E-06  0.2795653E+04  0.7818609E-02  0.8304619E-01
        2   -1    0    0  501    0  0.00000000000E+00  0.00000000000E+00  0.23770382486E+04  0.23770382486E+04  0.25500000920E-02 0.  1.
       -2   -1    0    0    0  501  0.00000000000E+00  0.00000000000E+00 -0.82199704783E+03  0.82199704783E+03  0.25500000920E-02 0. -1.
    10030    2    1    2    0    0  0.00000000000E+00  0.00000000000E+00  0.15550412008E+04  0.31990352964E+04  0.27956526415E+04 0.  0.
        3    1    3    3  502    0  0.13013991592E+04 -0.23778750455E+03  0.26102165759E+03  0.13484491036E+04  0.10100000352E+00 0. -1.
       -3    1    3    3    0  502 -0.13013991592E+04  0.23778750455E+03  0.12940195432E+04  0.18505861929E+04  0.10100000352E+00 0.  1.
</event>
<event>
 5   0  0.5282098E-07  0.2802690E+04  0.7818609E-02  0.8302434E-01
        1   -1    0    0  501    0  0.00000000000E+00  0.00000000000E+00  0.17577468238E+04  0.17577468238E+04  0.50400001928E-02 0. -1.
       -1   -1    0    0    0  501  0.00000000000E+00  0.00000000000E+00 -0.11172072478E+04  0.11172072478E+04  0.50400001928E-02 0.  1.
    10030    2    1    2    0    0  0.00000000000E+00  0.00000000000E+00  0.64053957597E+03  0.28749540716E+04  0.28026897733E+04 0.  0.
        4    1    3    3  502    0 -0.12643595765E+04  0.48827226639E+03 -0.44930798186E+02  0.13561103695E+04  0.12699999809E+01 0.  1.
       -4    1    3    3    0  502  0.12643595765E+04 -0.48827226639E+03  0.68547037416E+03  0.15188437021E+04  0.12699999809E+01 0. -1.
</event>
<event>
 5   0  0.5214658E-07  0.2800787E+04  0.7818609E-02  0.8303024E-01
       -1   -1    0    0    0  501  0.00000000000E+00  0.00000000000E+00  0.77794746966E+03  0.77794746967E+03  0.50400001928E-02 0. -1.
        1   -1    0    0  501    0  0.00000000000E+00  0.00000000000E+00 -0.25208667072E+04  0.25208667072E+04  0.50400001928E-02 0.  1.
    10030    2    1    2    0    0  0.00000000000E+00  0.00000000000E+00 -0.17429192375E+04  0.32988141769E+04  0.28007869439E+04 0.  0.
        2    1    3    3  502    0  0.87119356242E+03 -0.97927058716E+03 -0.14522472916E+04  0.19562646298E+04  0.25500000920E-02 0.  1.
       -2    1    3    3    0  502 -0.87119356242E+03  0.97927058716E+03 -0.29067194599E+03  0.13425495470E+04  0.25500000920E-02 0. -1.
</event>
<event>
 5   0  0.1439207E-06  0.2804022E+04  0.7818609E-02  0.8302021E-01
        2   -1    0    0  501    0  0.00000000000E+00  0.00000000000E+00  0.12924122583E+04  0.12924122583E+04  0.25500000920E-02 0. -1.
       -2   -1    0    0    0  501  0.00000000000E+00  0.00000000000E+00 -0.15209036391E+04  0.15209036391E+04  0.25500000920E-02 0.  1.
    10030    2    1    2    0    0  0.00000000000E+00  0.00000000000E+00 -0.22849138084E+03  0.28133158974E+04  0.28040217595E+04 0.  0.
        5    1    3    3  502    0 -0.13764010751E+03 -0.38256243175E+03  0.12319593193E+04  0.12973221141E+04  0.46999998093E+01 0. -1.
       -5    1    3    3    0  502  0.13764010751E+03  0.38256243175E+03 -0.14604507002E+04  0.15159937833E+04  0.46999998093E+01 0.  1.
</event>
<event>
 5   0  0.5362952E-07  0.2805263E+04  0.7818609E-02  0.8301636E-01
       -1   -1    0    0    0  501  0.00000000000E+00  0.00000000000E+00  0.15540344351E+04  0.15540344351E+04  0.50400001928E-02 0. -1.
        1   -1    0    0  501    0  0.00000000000E+00  0.00000000000E+00 -0.12659788615E+04  0.12659788615E+04  0.50400001928E-02 0.  1.
    10030    2    1    2    0    0  0.00000000000E+00  0.00000000000E+00  0.28805557355E+03  0.28200132966E+04  0.28052627291E+04 0.  0.
        1    1    3    3  502    0 -0.38259612778E+03 -0.18708594887E+03  0.14874656595E+04  0.15472346420E+04  0.50400001928E-02 0. -1.
       -1    1    3    3    0  502  0.38259612778E+03  0.18708594887E+03 -0.11994100859E+04  0.12727786546E+04  0.50400001928E-02 0.  1.
</event>
<event>
 5   0  0.1499888E-06  0.2796843E+04  0.7818609E-02  0.8304249E-01
        2   -1    0    0  501    0  0.00000000000E+00  0.00000000000E+00  0.17835993564E+04  0.17835993564E+04  0.25500000920E-02 0.  1.
       -2   -1    0    0    0  501  0.00000000000E+00  0.00000000000E+00 -0.10964249545E+04  0.10964249545E+04  0.25500000920E-02 0. -1.
    10030    2    1    2    0    0  0.00000000000E+00  0.00000000000E+00  0.68717440187E+03  0.28800243109E+04  0.27968431083E+04 0.  0.
        3    1    3    3  502    0  0.89576610439E+03  0.50749190911E+03  0.13181150980E+04  0.16725347151E+04  0.10100000352E+00 0.  1.
       -3    1    3    3    0  502 -0.89576610439E+03 -0.50749190911E+03 -0.63094069612E+03  0.12074895957E+04  0.10100000352E+00 0. -1.
</event>
<event>
 5   0  0.5214658E-07  0.2802796E+04  0.7818609E-02  0.8302401E-01
       -1   -1    0    0    0  501  0.00000000000E+00  0.00000000000E+00  0.75209195958E+03  0.75209195960E+03  0.50400001928E-02 0.  1.
        1   -1    0    0  501    0  0.00000000000E+00  0.00000000000E+00 -0.26112716314E+04  0.26112716314E+04  0.50400001928E-02 0. -1.
    10030    2    1    2    0    0  0.00000000000E+00  0.00000000000E+00 -0.18591796718E+04  0.33633635910E+04  0.28027960313E+04 0.  0.
        2    1    3    3  502    0 -0.12578892468E+04  0.49843589386E+03 -0.49164184621E+03  0.14395955691E+04  0.25500000920E-02 0.  1.
       -2    1    3    3    0  502  0.12578892468E+04 -0.49843589386E+03 -0.13675378256E+04  0.19237680219E+04  0.25500000920E-02 0. -1.
</event>
<event>
 5   0  0.5282098E-07  0.2796830E+04  0.7818609E-02  0.8304253E-01
        1   -1    0    0  501    0  0.00000000000E+00  0.00000000000E+00  0.11497170232E+04  0.11497170232E+04  0.50400001928E-02 0.  1.
       -1   -1    0    0    0  501  0.00000000000E+00  0.00000000000E+00 -0.17009094484E+04  0.17009094484E+04  0.50400001928E-02 0. -1.
    10030    2    1    2    0    0  0.00000000000E+00  0.00000000000E+00 -0.55119242519E+03  0.28506264715E+04  0.27968300253E+04 0.  0.
        4    1    3    3  502    0 -0.24528715255E+03 -0.11653224392E+04  0.47159449114E+03  0.12808376757E+04  0.12699999809E+01 0.  1.
       -4    1    3    3    0  502  0.24528715255E+03  0.11653224392E+04 -0.10227869163E+04  0.15697887959E+04  0.12699999809E+01 0. -1.
</event>
<event>
 5   0  0.4710000E-07  0.2803227E+04  0.7818609E-02  0.8302267E-01
        3   -1    0    0  501    0  0.00000000000E+00  0.00000000000E+00  0.13657987372E+04  0.13657987409E+04  0.10100000352E+00 0. -1.
       -3   -1    0    0    0  501  0.00000000000E+00  0.00000000000E+00 -0.14383678152E+04  0.14383678188E+04  0.10100000352E+00 0.  1.
    10030    2    1    2    0    0  0.00000000000E+00  0.00000000000E+00 -0.72569078064E+02  0.28041665597E+04  0.28032273941E+04 0.  0.
        1    1    3    3  502    0  0.10728876207E+03 -0.98112054785E+03 -0.10318126878E+04  0.14278465711E+04  0.50400001928E-02 0.  1.
       -1    1    3    3    0  502 -0.10728876207E+03  0.98112054785E+03  0.95924360977E+03  0.13763199885E+04  0.50400001928E-02 0. -1.
</event>
<event>
 5   0  0.1394410E-06  0.2795618E+04  0.7818609E-02  0.8304630E-01
       -2   -1    0    0    0  501  0.00000000000E+00  0.00000000000E+00  0.96897673840E+03  0.96897673840E+03  0.25500000920E-02 0.  1.
        2   -1    0    0  501    0  0.00000000000E+00  0.00000000000E+00 -0.20164268179E+04  0.20164268179E+04  0.25500000920E-02 0. -1.
    10030    2    1    2    0    0  0.00000000000E+00  0.00000000000E+00 -0.10474500795E+04  0.29854035563E+04  0.27956184870E+04 0.  0.
        4    1    3    3  502    0  0.66743953497E+02  0.81575460700E+03  0.68631760197E+03  0.10681497076E+04  0.12699999809E+01 0.  1.
       -4    1    3    3    0  502 -0.66743953497E+02 -0.81575460700E+03 -0.17337676815E+04  0.19172538487E+04  0.12699999809E+01 0. -1.
</event>
<event>
 5   0  0.5297741E-07  0.2802096E+04  0.7818609E-02  0.8302618E-01
       -1   -1    0    0    0  501  0.00000000000E+00  0.00000000000E+00  0.15752924162E+04  0.15752924162E+04  0.50400001928E-02 0.  1.
        1   -1    0    0  501    0  0.00000000000E+00  0.00000000000E+00 -0.12460767301E+04  0.12460767302E+04  0.50400001928E-02 0. -1.
    10030    2    1    2    0    0  0.00000000000E+00  0.00000000000E+00  0.32921568605E+03  0.28213691464E+04  0.28020958035E+04 0.  0.
        5    1    3    3  502    0  0.17290190255E+03 -0.10290653680E+04  0.11059406973E+04  0.15205254077E+04  0.46999998093E+01 0.  1.
       -5    1    3    3    0  502 -0.17290190255E+03  0.10290653680E+04 -0.77672501120E+03  0.13008437387E+04  0.46999998093E+01 0. -1.
</event>
<event>
 5   0  0.1377807E-06  0.2800650E+04  0.7818609E-02  0.8303066E-01
        2   -1    0    0  501    0  0.00000000000E+00  0.00000000000E+00  0.16579670939E+04  0.16579670939E+04  0.25500000920E-02 0. -1.
       -2   -1    0    0    0  501  0.00000000000E+00  0.00000000000E+00 -0.11827198426E+04  0.11827198426E+04  0.25500000920E-02 0.  1.
    10030    2    1    2    0    0  0.00000000000E+00  0.00000000000E+00  0.47524725124E+03  0.28406869365E+04  0.28006503390E+04 0.  0.
        2    1    3    3  502    0 -0.29614012886E+03  0.12802412083E+04 -0.25323046528E+03  0.13382235224E+04  0.25500000920E-02 0.  1.
       -2    1    3    3    0  502  0.29614012886E+03 -0.12802412083E+04  0.72847771652E+03  0.15024634141E+04  0.25500000920E-02 0. -1.
</event>
<event>
 5   0  0.5282098E-07  0.2801499E+04  0.7818609E-02  0.8302803E-01
        1   -1    0    0  501    0  0.00000000000E+00  0.00000000000E+00  0.18392732715E+04  0.18392732715E+04  0.50400001928E-02 0.  1.
       -1   -1    0    0    0  501  0.00000000000E+00  0.00000000000E+00 -0.10667795356E+04  0.10667795357E+04  0.50400001928E-02 0. -1.
    10030    2    1    2    0    0  0.00000000000E+00  0.00000000000E+00  0.77249373581E+03  0.29060528071E+04  0.28014989463E+04 0.  0.
        4    1    3    3  502    0  0.94619562030E+03  0.92431515225E+03  0.86437499113E+03  0.15801235365E+04  0.12699999809E+01 0.  1.
       -4    1    3    3    0  502 -0.94619562030E+03 -0.92431515225E+03 -0.91881255322E+02  0.13259292706E+04  0.12699999809E+01 0. -1.
</event>
<event>
 5   0  0.5362952E-07  0.2800907E+04  0.7818609E-02  0.8302987E-01
       -1   -1    0    0    0  501  0.00000000000E+00  0.00000000000E+00  0.17575048666E+04  0.17575048666E+04  0.50400001928E-02 0. -1.
        1   -1    0    0  501    0  0.00000000000E+00  0.00000000000E+00 -0.11159396701E+04  0.11159396701E+04  0.50400001928E-02 0.  1.
    10030    2    1    2    0    0  0.00000000000E+00  0.00000000000E+00  0.64156519647E+03  0.28734445367E+04  0.28009065683E+04 0.  0.
        1    1    3    3  502    0 -0.23712162382E+03  0.11001771590E+04 -0.53426076546E+03  0.12458133934E+04  0.50400001928E-02 0.  1.
       -1    1    3    3    0  502  0.23712162382E+03 -0.11001771590E+04  0.11758259619E+04  0.16276311433E+04  0.50400001928E-02 0. -1.
</event>
<event>
 5   0  0.1377807E-06  0.2807187E+04  0.7818609E-02  0.8301041E-01
       -2   -1    0    0    0  501  0.00000000000E+00  0.00000000000E+00  0.96482404630E+03  0.96482404631E+03  0.25500000920E-02 0.  1.
        2   -1    0    0  501    0  0.00000000000E+00  0.00000000000E+00 -0.20419002186E+04  0.20419002186E+04  0.25500000920E-02 0. -1.
    10030    2    1    2    0    0  0.00000000000E+00  0.00000000000E+00 -0.10770761723E+04  0.30067242650E+04  0.28071867990E+04 0.  0.
        2    1    3    3  502    0  0.10561003295E+04  0.33923916640E+02  0.45102459630E+03  0.11488785509E+04  0.25500000920E-02 0.  1.
       -2    1    3    3    0  502 -0.10561003295E+04 -0.33923916640E+02 -0.15281007686E+04  0.18578457141E+04  0.25500000920E-02 0. -1.
</event>
<event>
 5   0  0.1394410E-06  0.2802258E+04  0.7818609E-02  0.8302568E-01
       -2   -1    0    0    0  501  0.00000000000E+00  0.00000000000E+00  0.10345580090E+04  0.10345580090E+04  0.25500000920E-02 0. -1.
        2   -1    0    0  501    0  0.00000000000E+00  0.00000000000E+00 -0.18975862382E+04  0.18975862382E+04  0.25500000920E-02 0.  1.
    10030    2    1    2    0    0  0.00000000000E+00  0.00000000000E+00 -0.86302822919E+03  0.29321442471E+04  0.28022584038E+04 0.  0.
        4    1    3    3  502    0  0.11422087269E+04  0.69113322690E+03 -0.87649671428E+03  0.15970454020E+04  0.12699999809E+01 0.  1.
       -4    1    3    3    0  502 -0.11422087269E+04 -0.69113322690E+03  0.13468485089E+02  0.13350988451E+04  0.12699999809E+01 0. -1.
</event>
<event>
 5   0  0.5214658E-07  0.2799935E+04  0.7818609E-02  0.8303289E-01
       -1   -1    0    0    0  501  0.00000000000E+00  0.00000000000E+00  0.10107214601E+04  0.10107214601E+04  0.50400001928E-02 0.  1.
        1   -1    0    0  501    0  0.00000000000E+00  0.00000000000E+00 -0.19391182623E+04  0.19391182623E+04  0.50400001928E-02 0. -1.
    10030    2    1    2    0    0  0.00000000000E+00  0.00000000000E+00 -0.92839680224E+03  0.29498397224E+04  0.27999346002E+04 0.  0.
        2    1    3    3  502    0  0.11346286656E+04 -0.63200669280E+03  0.86363849787E+02  0.13016425711E+04  0.25500000920E-02 0.  1.
       -2    1    3    3    0  502 -0.11346286656E+04  0.63200669280E+03 -0.10147606520E+04  0.16481971512E+04  0.25500000920E-02 0. -1.
</event>
<event>
 5   0  0.5362952E-07  0.2792701E+04  0.7818609E-02  0.8305538E-01
        1   -1    0    0  501    0  0.00000000000E+00  0.00000000000E+00  0.18109095284E+04  0.18109095284E+04  0.50400001928E-02 0. -1.
       -1   -1    0    0    0  501  0.00000000000E+00  0.00000000000E+00 -0.10766935297E+04  0.10766935297E+04  0.50400001928E-02 0.  1.
    10030    2    1    2    0    0  0.00000000000E+00  0.00000000000E+00  0.73421599868E+03  0.28876030581E+04  0.27927008949E+04 0.  0.
        1    1    3    3  502    0  0.47329277097E+03  0.22207590127E+03 -0.97167771061E+03  0.11033953626E+04  0.50400001928E-02 0.  1.
       -1    1    3    3    0  502 -0.47329277097E+03 -0.22207590127E+03  0.17058937093E+04  0.17842076954E+04  0.50400001928E-02 0. -1.
</event>
<event>
 5   0  0.5362952E-07  0.2797825E+04  0.7818609E-02  0.8303944E-01
        1   -1    0    0  501    0  0.00000000000E+00  0.00000000000E+00  0.10786706016E+04  0.10786706016E+04  0.50400001928E-02 0.  1.
       -1   -1    0    0    0  501  0.00000000000E+00  0.00000000000E+00 -0.18142295132E+04  0.18142295132E+04  0.50400001928E-02 0. -1.
    10030    2    1    2    0    0  0.00000000000E+00  0.00000000000E+00 -0.73555891159E+03  0.28929001148E+04  0.27978248983E+04 0.  0.
        1    1    3    3  502    0 -0.50015033107E+03 -0.49546262011E+02 -0.17176508975E+04  0.17896730962E+04  0.50400001928E-02 0. -1.
       -1    1    3    3    0  502  0.50015033107E+03  0.49546262011E+02  0.98209198587E+03  0.11032270186E+04  0.50400001928E-02 0.  1.
</event>
<event>
 5   0  0.1394410E-06  0.2783744E+04  0.7818609E-02  0.8308333E-01
       -2   -1    0    0    0  501  0.00000000000E+00  0.00000000000E+00  0.11502695184E+04  0.11502695184E+04  0.25500000920E-02 0. -1.
        2   -1    0    0  501    0  0.00000000000E+00  0.00000000000E+00 -0.16842200806E+04  0.16842200806E+04  0.25500000920E-02 0.  1.
    10030    2    1    2    0    0  0.00000000000E+00  0.00000000000E+00 -0.53395056219E+03  0.28344895990E+04  0.27837435378E+04 0.  0.
        4    1    3    3  502    0  0.68358084179E+02  0.85936892690E+03 -0.13796525110E+04  0.16268467796E+04  0.12699999809E+01 0.  1.
       -4    1    3    3    0  502 -0.68358084179E+02 -0.85936892690E+03  0.84570194883E+03  0.12076428194E+04  0.12699999809E+01 0. -1.
</event>
<event>
 5   0  0.5551565E-07  0.2819771E+04  0.7818609E-02  0.8297156E-01
        1   -1    0    0  501    0  0.00000000000E+00  0.00000000000E+00  0.11224416355E+04  0.11224416356E+04  0.50400001928E-02 0. -1.
       -1   -1    0    0    0  501  0.00000000000E+00  0.00000000000E+00 -0.17709406564E+04  0.17709406564E+04  0.50400001928E-02 0.  1.
    10030    2    1    2    0    0  0.00000000000E+00  0.00000000000E+00 -0.64849902081E+03  0.28933822919E+04  0.28197712863E+04 0.  0.
        3    1    3    3  502    0  0.32924450455E+03 -0.21563686227E+03  0.10649304671E+04  0.11353317181E+04  0.10100000352E+00 0. -1.
       -3    1    3    3    0  502 -0.32924450455E+03  0.21563686227E+03 -0.17134294879E+04  0.17580505739E+04  0.10100000352E+00 0.  1.
</event>
<event>
 5   0  0.5362952E-07  0.2798314E+04  0.7818609E-02  0.8303792E-01
        1   -1    0    0  501    0  0.00000000000E+00  0.00000000000E+00  0.15452599946E+04  0.15452599946E+04  0.50400001928E-02 0. -1.
       -1   -1    0    0    0  501  0.00000000000E+00  0.00000000000E+00 -0.12668676254E+04  0.12668676254E+04  0.50400001928E-02 0.  1.
    10030    2    1    2    0    0  0.00000000000E+00  0.00000000000E+00  0.27839236925E+03  0.28121276200E+04  0.27983136779E+04 0.  0.
        1    1    3    3  502    0 -0.83944237106E+03  0.79600465299E+03 -0.65167861743E+03  0.13277695291E+04  0.50400001928E-02 0.  1.
       -1    1    3    3    0  502  0.83944237106E+03 -0.79600465299E+03  0.93007098668E+03  0.14843580910E+04  0.50400001928E-02 0. -1.
</event>
<event>
 5   0  0.5362952E-07  0.2796164E+04  0.7818609E-02  0.8304460E-01
        1   -1    0    0  501    0  0.00000000000E+00  0.00000000000E+00  0.17051453668E+04  0.17051453668E+04  0.50400001928E-02 0.  1.
       -1   -1    0    0    0  501  0.00000000000E+00  0.00000000000E+00 -0.11463148512E+04  0.11463148512E+04  0.50400001928E-02 0. -1.
    10030    2    1    2    0    0  0.00000000000E+00  0.00000000000E+00  0.55883051561E+03  0.28514602181E+04  0.27961641279E+04 0.  0.
        1    1    3    3  502    0 -0.63791827885E+03 -0.93361353937E+03  0.11179037617E+04  0.15900574807E+04  0.50400001928E-02 0. -1.
       -1    1    3    3    0  502  0.63791827885E+03  0.93361353937E+03 -0.55907324611E+03  0.12614027374E+04  0.50400001928E-02 0.  1.
</event>
<event>
 5   0  0.1394410E-06  0.2802058E+04  0.7818609E-02  0.8302630E-01
       -2   -1    0    0    0  501  0.00000000000E+00  0.00000000000E+00  0.10473271464E+04  0.10473271464E+04  0.25500000920E-02 0.  1.
        2   -1    0    0  501    0  0.00000000000E+00  0.00000000000E+00 -0.18741825151E+04  0.18741825151E+04  0.25500000920E-02 0. -1.
    10030    2    1    2    0    0  0.00000000000E+00  0.00000000000E+00 -0.82685536875E+03  0.29215096615E+04  0.28020579761E+04 0.  0.
        4    1    3    3  502    0 -0.69736822129E+03 -0.23357407353E+03  0.82988456123E+03  0.11088684691E+04  0.12699999809E+01 0.  1.
       -4    1    3    3    0  502  0.69736822129E+03  0.23357407353E+03 -0.16567399300E+04  0.18126411924E+04  0.12699999809E+01 0. -1.
</event>
<event>
 5   0  0.1499888E-06  0.2821322E+04  0.7818609E-02  0.8296679E-01
       -2   -1    0    0    0  501  0.00000000000E+00  0.00000000000E+00  0.79544115111E+03  0.79544115112E+03  0.25500000920E-02 0. -1.
        2   -1    0    0  501    0  0.00000000000E+00  0.00000000000E+00 -0.25017122742E+04  0.25017122742E+04  0.25500000920E-02 0.  1.
    10030    2    1    2    0    0  0.00000000000E+00  0.00000000000E+00 -0.17062711231E+04  0.32971534253E+04  0.28213223078E+04 0.  0.
        3    1    3    3  502    0 -0.64350065855E+03  0.58254396377E+03 -0.21526647176E+04  0.23210807750E+04  0.10100000352E+00 0.  1.
       -3    1    3    3    0  502  0.64350065855E+03 -0.58254396377E+03  0.44639359454E+03  0.97607265034E+03  0.10100000352E+00 0. -1.
</event>
<event>
 5   0  0.1439207E-06  0.2798155E+04  0.7818609E-02  0.8303841E-01
       -2   -1    0    0    0  501  0.00000000000E+00  0.00000000000E+00  0.99005982856E+03  0.99005982857E+03  0.25500000920E-02 0. -1.
        2   -1    0    0  501    0  0.00000000000E+00  0.00000000000E+00 -0.19770706496E+04  0.19770706496E+04  0.25500000920E-02 0.  1.
    10030    2    1    2    0    0  0.00000000000E+00  0.00000000000E+00 -0.98701082100E+03  0.29671304781E+04  0.27981552697E+04 0.  0.
        5    1    3    3  502    0 -0.11654356500E+04  0.45600850672E+01  0.32727543486E+03  0.12105339106E+04  0.46999998093E+01 0. -1.
       -5    1    3    3    0  502  0.11654356500E+04 -0.45600850672E+01 -0.13142862559E+04  0.17565965675E+04  0.46999998093E+01 0.  1.
</event>
<event>
 5   0  0.1499888E-06  0.2800304E+04  0.7818609E-02  0.8303174E-01
        2   -1    0    0  501    0  0.00000000000E+00  0.00000000000E+00  0.15978354798E+04  0.15978354798E+04  0.25500000920E-02 0.  1.
       -2   -1    0    0    0  501  0.00000000000E+00  0.00000000000E+00 -0.12269254092E+04  0.12269254092E+04  0.25500000920E-02 0. -1.
    10030    2    1    2    0    0  0.00000000000E+00  0.00000000000E+00  0.37091007064E+03  0.28247608890E+04  0.28003035192E+04 0.  0.
        3    1    3    3  502    0 -0.60632855074E+03  0.12466014717E+04  0.38408955408E+03  0.14384624905E+04  0.10100000352E+00 0. -1.
       -3    1    3    3    0  502  0.60632855074E+03 -0.12466014717E+04 -0.13179483436E+02  0.13862983985E+04  0.10100000352E+00 0.  1.
</event>
<event>
 5   0  0.5297741E-07  0.2806526E+04  0.7818609E-02  0.8301245E-01
        1   -1    0    0  501    0  0.00000000000E+00  0.00000000000E+00  0.20203521792E+04  0.20203521792E+04  0.50400001928E-02 0. -1.
       -1   -1    0    0    0  501  0.00000000000E+00  0.00000000000E+00 -0.97465511828E+03  0.97465511829E+03  0.50400001928E-02 0.  1.
    10030    2    1    2    0    0  0.00000000000E+00  0.00000000000E+00  0.10456970609E+04  0.29950072975E+04  0.28065256758E+04 0.  0.
        5    1    3    3  502    0 -0.86886573955E+03 -0.64160558808E+02 -0.65106457700E+03  0.10876357038E+04  0.46999998093E+01 0.  1.
       -5    1    3    3    0  502  0.86886573955E+03  0.64160558808E+02  0.16967616379E+04  0.19073715937E+04  0.46999998093E+01 0. -1.
</event>
<event>
 5   0  0.1439207E-06  0.2810132E+04  0.7818609E-02  0.8300130E-01
       -2   -1    0    0    0  501  0.00000000000E+00  0.00000000000E+00  0.73450579972E+03  0.73450579973E+03  0.25500000920E-02 0.  1.
        2   -1    0    0  501    0  0.00000000000E+00  0.00000000000E+00 -0.26878082183E+04  0.26878082183E+04  0.25500000920E-02 0. -1.
    10030    2    1    2    0    0  0.00000000000E+00  0.00000000000E+00 -0.19533024185E+04  0.34223140180E+04  0.28101321854E+04 0.  0.
        5    1    3    3  502    0  0.82505708366E+03  0.81334488968E+03 -0.85274692894E+01  0.11585956623E+04  0.46999998093E+01 0.  1.
       -5    1    3    3    0  502 -0.82505708366E+03 -0.81334488968E+03 -0.19447749493E+04  0.22637183557E+04  0.46999998093E+01 0. -1.
</event>
<event>
 5   0  0.1377807E-06  0.2808183E+04  0.7818609E-02  0.8300732E-01
        2   -1    0    0  501    0  0.00000000000E+00  0.00000000000E+00  0.75672382818E+03  0.75672382819E+03  0.25500000920E-02 0. -1.
       -2   -1    0    0    0  501  0.00000000000E+00  0.00000000000E+00 -0.26052735663E+04  0.26052735663E+04  0.25500000920E-02 0.  1.
    10030    2    1    2    0    0  0.00000000000E+00  0.00000000000E+00 -0.18485497382E+04  0.33619973945E+04  0.28081827480E+04 0.  0.
        2    1    3    3  502    0 -0.23632578612E+03 -0.12840643164E+04 -0.30587958025E+03  0.13409822383E+04  0.25500000920E-02 0.  1.
       -2    1    3    3    0  502  0.23632578612E+03  0.12840643164E+04 -0.15426701579E+04  0.20210151563E+04  0.25500000920E-02 0. -1.
</event>
<event>
 5   0  0.1439207E-06  0.2805893E+04  0.7818609E-02  0.8301441E-01
       -2   -1    0    0    0  501  0.00000000000E+00  0.00000000000E+00  0.23843412989E+04  0.23843412989E+04  0.25500000920E-02 0. -1.
        2   -1    0    0  501    0  0.00000000000E+00  0.00000000000E+00 -0.82549370261E+03  0.82549370261E+03  0.25500000920E-02 0.  1.
    10030    2    1    2    0    0  0.00000000000E+00  0.00000000000E+00  0.15588475962E+04  0.32098350015E+04  0.28058928897E+04 0.  0.
        5    1    3    3  502    0  0.56014171050E+03 -0.51115781607E+03 -0.57083701920E+03  0.94916702495E+03  0.46999998093E+01 0.  1.
       -5    1    3    3    0  502 -0.56014171050E+03  0.51115781607E+03  0.21296846154E+04  0.22606679765E+04  0.46999998093E+01 0. -1.
</event>
<event>
 5   0  0.5362952E-07  0.2811960E+04  0.7818609E-02  0.8299565E-01
       -1   -1    0    0    0  501  0.00000000000E+00  0.00000000000E+00  0.11897378270E+04  0.11897378270E+04  0.50400001928E-02 0. -1.
        1   -1    0    0  501    0  0.00000000000E+00  0.00000000000E+00 -0.16615253223E+04  0.16615253224E+04  0.50400001928E-02 0.  1.
    10030    2    1    2    0    0  0.00000000000E+00  0.00000000000E+00 -0.47178749533E+03  0.28512631494E+04  0.28119598337E+04 0.  0.
        1    1    3    3  502    0  0.93234020785E+03  0.51142507592E+03  0.69672588615E+03  0.12713146078E+04  0.50400001928E-02 0. -1.
       -1    1    3    3    0  502 -0.93234020785E+03 -0.51142507592E+03 -0.11685133815E+04  0.15799485416E+04  0.50400001928E-02 0.  1.
</event>
<event>
 5   0  0.1377807E-06  0.2794083E+04  0.7818609E-02  0.8305108E-01
        2   -1    0    0  501    0  0.00000000000E+00  0.00000000000E+00  0.17437454234E+04  0.17437454234E+04  0.25500000920E-02 0. -1.
       -2   -1    0    0    0  501  0.00000000000E+00  0.00000000000E+00 -0.11192717654E+04  0.11192717654E+04  0.25500000920E-02 0.  1.
    10030    2    1    2    0    0  0.00000000000E+00  0.00000000000E+00  0.62447365795E+03  0.28630171888E+04  0.27940830470E+04 0.  0.
        2    1    3    3  502    0  0.39913155551E+02  0.13376689163E+04 -0.98621714872E+02  0.13418932268E+04  0.25500000920E-02 0.  1.
       -2    1    3    3    0  502 -0.39913155551E+02 -0.13376689163E+04  0.72309537282E+03  0.15211239620E+04  0.25500000920E-02 0. -1.
</event>
<event>
 5   0  0.5297741E-07  0.2794302E+04  0.7818609E-02  0.8305039E-01
       -1   -1    0    0    0  501  0.00000000000E+00  0.00000000000E+00  0.15149007969E+04  0.15149007970E+04  0.50400001928E-02 0. -1.
        1   -1    0    0  501    0  0.00000000000E+00  0.00000000000E+00 -0.12885540528E+04  0.12885540528E+04  0.50400001928E-02 0.  1.
    10030    2    1    2    0    0  0.00000000000E+00  0.00000000000E+00  0.22634674411E+03  0.28034548498E+04  0.27943024615E+04 0.  0.
        5    1    3    3  502    0  0.98685127501E+03 -0.48774263375E+03  0.97636409946E+03  0.14714201509E+04  0.46999998093E+01 0. -1.
       -5    1    3    3    0  502 -0.98685127501E+03  0.48774263375E+03 -0.75001735535E+03  0.13320346989E+04  0.46999998093E+01 0.  1.
</event>
<event>
 5   0  0.5551565E-07  0.2798572E+04  0.7818609E-02  0.8303712E-01
        1   -1    0    0  501    0  0.00000000000E+00  0.00000000000E+00  0.12548919887E+04  0.12548919887E+04  0.50400001928E-02 0. -1.
       -1   -1    0    0    0  501  0.00000000000E+00  0.00000000000E+00 -0.15602946979E+04  0.15602946979E+04  0.50400001928E-02 0.  1.
    10030    2    1    2    0    0  0.00000000000E+00  0.00000000000E+00 -0.30540270919E+03  0.28151866866E+04  0.27985720047E+04 0.  0.
        3    1    3    3  502    0  0.17766859233E+03 -0.44647374995E+03  0.11692911721E+04  0.12641783076E+04  0.10100000352E+00 0. -1.
       -3    1    3    3    0  502 -0.17766859233E+03  0.44647374995E+03 -0.14746938813E+04  0.15510083790E+04  0.10100000352E+00 0.  1.
</event>
<event>
 5   0  0.1394410E-06  0.2797837E+04  0.7818609E-02  0.8303940E-01
       -2   -1    0    0    0  501  0.00000000000E+00  0.00000000000E+00  0.11386234416E+04  0.11386234416E+04  0.25500000920E-02 0. -1.
        2   -1    0    0  501    0  0.00000000000E+00  0.00000000000E+00 -0.17187187247E+04  0.17187187247E+04  0.25500000920E-02 0.  1.
    10030    2    1    2    0    0  0.00000000000E+00  0.00000000000E+00 -0.58009528314E+03  0.28573421664E+04  0.27978373288E+04 0.  0.
        4    1    3    3  502    0 -0.94284857583E+03  0.11904728092E+03  0.75835071343E+03  0.12158261017E+04  0.12699999809E+01 0. -1.
       -4    1    3    3    0  502  0.94284857583E+03 -0.11904728092E+03 -0.13384459966E+04  0.16415160647E+04  0.12699999809E+01 0.  1.
</event>
<event>
 5   0  0.5297741E-07  0.2800677E+04  0.7818609E-02  0.8303058E-01
       -1   -1    0    0    0  501  0.00000000000E+00  0.00000000000E+00  0.14543623433E+04  0.14543623433E+04  0.50400001928E-02 0.  1.
        1   -1    0    0  501    0  0.00000000000E+00  0.00000000000E+00 -0.13483218365E+04  0.13483218365E+04  0.50400001928E-02 0. -1.
    10030    2    1    2    0    0  0.00000000000E+00  0.00000000000E+00  0.10604050681E+03  0.28026841799E+04  0.28006774222E+04 0.  0.
        5    1    3    3  502    0 -0.48800205688E+03 -0.10533348064E+04  0.83669451663E+03  0.14309926716E+04  0.46999998093E+01 0.  1.
       -5    1    3    3    0  502  0.48800205688E+03  0.10533348064E+04 -0.73065400982E+03  0.13716915083E+04  0.46999998093E+01 0. -1.
</event>
<event>
 5   0  0.5362952E-07  0.2798501E+04  0.7818609E-02  0.8303734E-01
        1   -1    0    0  501    0  0.00000000000E+00  0.00000000000E+00  0.66122636860E+03  0.66122636862E+03  0.50400001928E-02 0.  1.
       -1   -1    0    0    0  501  0.00000000000E+00  0.00000000000E+00 -0.29610152850E+04  0.29610152850E+04  0.50400001928E-02 0. -1.
    10030    2    1    2    0    0  0.00000000000E+00  0.00000000000E+00 -0.22997889164E+04  0.36222416536E+04  0.27985005873E+04 0.  0.
        1    1    3    3  502    0  0.11636769258E+04 -0.71098564696E+03 -0.74416799036E+03  0.15535219908E+04  0.50400001928E-02 0.  1.
       -1    1    3    3    0  502 -0.11636769258E+04  0.71098564696E+03 -0.15556209260E+04  0.20687196628E+04  0.50400001928E-02 0. -1.
</event>
<event>
 5   0  0.5297741E-07  0.2761429E+04  0.7818609E-02  0.8315344E-01
       -1   -1    0    0    0  501  0.00000000000E+00  0.00000000000E+00  0.10265845257E+04  0.10265845257E+04  0.50400001928E-02 0.  1.
        1   -1    0    0  501    0  0.00000000000E+00  0.00000000000E+00 -0.18570045669E+04  0.18570045669E+04  0.50400001928E-02 0. -1.
    10030    2    1    2    0    0  0.00000000000E+00  0.00000000000E+00 -0.83042004117E+03  0.28835890927E+04  0.27614287263E+04 0.  0.
        5    1    3    3  502    0  0.14691814990E+03 -0.61181532383E+03 -0.16985812522E+04  0.18113815980E+04  0.46999998093E+01 0. -1.
       -5    1    3    3    0  502 -0.14691814990E+03  0.61181532383E+03  0.86816121103E+03  0.10722074947E+04  0.46999998093E+01 0.  1.
</event>
<event>
 5   0  0.1439207E-06  0.2796918E+04  0.7818609E-02  0.8304226E-01
        2   -1    0    0  501    0  0.00000000000E+00  0.00000000000E+00  0.11058728695E+04  0.11058728695E+04  0.25500000920E-02 0. -1.
       -2   -1    0    0    0  501  0.00000000000E+00  0.00000000000E+00 -0.17684559543E+04  0.17684559543E+04  0.25500000920E-02 0.  1.
    10030    2    1    2    0    0  0.00000000000E+00  0.00000000000E+00 -0.66258308487E+03  0.28743288238E+04  0.27969179185E+04 0.  0.
        5    1    3    3  502    0 -0.10610731285E+04 -0.57313623345E+03  0.39633298976E+03  0.12694342263E+04  0.46999998093E+01 0. -1.
       -5    1    3    3    0  502  0.10610731285E+04  0.57313623345E+03 -0.10589160746E+04  0.16048945975E+04  0.46999998093E+01 0.  1.
</event>
<event>
 5   0  0.5282098E-07  0.2823654E+04  0.7818609E-02  0.8295962E-01
       -1   -1    0    0    0  501  0.00000000000E+00  0.00000000000E+00  0.15995729815E+04  0.15995729815E+04  0.50400001928E-02 0.  1.
        1   -1    0    0  501    0  0.00000000000E+00  0.00000000000E+00 -0.12461172375E+04  0.12461172375E+04  0.50400001928E-02 0. -1.
    10030    2    1    2    0    0  0.00000000000E+00  0.00000000000E+00  0.35345574405E+03  0.28456902190E+04  0.28236539907E+04 0.  0.
        4    1    3    3  502    0  0.12853615815E+04  0.42826475246E+03  0.57692734338E+03  0.14725528398E+04  0.12699999809E+01 0. -1.
       -4    1    3    3    0  502 -0.12853615815E+04 -0.42826475246E+03 -0.22347159933E+03  0.13731373792E+04  0.12699999809E+01 0.  1.
</event>
<event>
 5   0  0.4710000E-07  0.2794897E+04  0.7818609E-02  0.8304854E-01
       -3   -1    0    0    0  501  0.00000000000E+00  0.00000000000E+00  0.14976644064E+04  0.14976644098E+04  0.10100000352E+00 0. -1.
        3   -1    0    0  501    0  0.00000000000E+00  0.00000000000E+00 -0.13039386862E+04  0.13039386901E+04  0.10100000352E+00 0.  1.
    10030    2    1    2    0    0  0.00000000000E+00  0.00000000000E+00  0.19372572025E+03  0.28016030999E+04  0.27948971850E+04 0.  0.
        2    1    3    3  502    0  0.36476188660E+03  0.84312268297E+03  0.11524590840E+04  0.14737940944E+04  0.25500000920E-02 0. -1.
       -2    1    3    3    0  502 -0.36476188660E+03 -0.84312268297E+03 -0.95873336373E+03  0.13278090055E+04  0.25500000920E-02 0.  1.
</event>
<event>
 5   0  0.1439207E-06  0.2800990E+04  0.7818609E-02  0.8302961E-01
        2   -1    0    0  501    0  0.00000000000E+00  0.00000000000E+00  0.16540997962E+04  0.16540997962E+04  0.25500000920E-02 0. -1.
       -2   -1    0    0    0  501  0.00000000000E+00  0.00000000000E+00 -0.11857723184E+04  0.11857723184E+04  0.25500000920E-02 0.  1.
    10030    2    1    2    0    0  0.00000000000E+00  0.00000000000E+00  0.46832747779E+03  0.28398721145E+04  0.28009896466E+04 0.  0.
        5    1    3    3  502    0 -0.30941638733E+02 -0.13930373645E+04  0.37702098666E+03  0.14434948556E+04  0.46999998093E+01 0.  1.
       -5    1    3    3    0  502  0.30941638733E+02  0.13930373645E+04  0.91306491129E+02  0.13963772589E+04  0.46999998093E+01 0. -1.
</event>
<event>
 5   0  0.5297741E-07  0.2807254E+04  0.7818609E-02  0.8301020E-01
       -1   -1    0    0    0  501  0.00000000000E+00  0.00000000000E+00  0.15807462813E+04  0.15807462813E+04  0.50400001928E-02 0. -1.
        1   -1    0    0  501    0  0.00000000000E+00  0.00000000000E+00 -0.12463535286E+04  0.12463535286E+04  0.50400001928E-02 0.  1.
    10030    2    1    2    0    0  0.00000000000E+00  0.00000000000E+00  0.33439275276E+03  0.28270998099E+04  0.28072539647E+04 0.  0.
        5    1    3    3  502    0  0.42956157373E+03 -0.34249685609E+03 -0.11335691967E+04  0.12596937945E+04  0.46999998093E+01 0.  1.
       -5    1    3    3    0  502 -0.42956157373E+03  0.34249685609E+03  0.14679619495E+04  0.15674060154E+04  0.46999998093E+01 0. -1.
</event>
<event>
 5   0  0.1394410E-06  0.2798132E+04  0.7818609E-02  0.8303849E-01
        2   -1    0    0  501    0  0.00000000000E+00  0.00000000000E+00  0.17926277163E+04  0.17926277163E+04  0.25500000920E-02 0.  1.
       -2   -1    0    0    0  501  0.00000000000E+00  0.00000000000E+00 -0.10919083374E+04  0.10919083374E+04  0.25500000920E-02 0. -1.
    10030    2    1    2    0    0  0.00000000000E+00  0.00000000000E+00  0.70071937892E+03  0.28845360537E+04  0.27981316262E+04 0.  0.
        4    1    3    3  502    0  0.41800180428E+03  0.38077070053E+03 -0.96887254285E+03  0.11217965288E+04  0.12699999809E+01 0. -1.
       -4    1    3    3    0  502 -0.41800180428E+03 -0.38077070053E+03  0.16695919218E+04  0.17627395250E+04  0.12699999809E+01 0.  1.
</event>
<event>
 5   0  0.5282098E-07  0.2730885E+04  0.7818609E-02  0.8325053E-01
        1   -1    0    0  501    0  0.00000000000E+00  0.00000000000E+00  0.97043708782E+03  0.97043708783E+03  0.50400001928E-02 0.  1.
       -1   -1    0    0    0  501  0.00000000000E+00  0.00000000000E+00 -0.19212297857E+04  0.19212297857E+04  0.50400001928E-02 0. -1.
    10030    2    1    2    0    0  0.00000000000E+00  0.00000000000E+00 -0.95079269790E+03  0.28916668736E+04  0.27308845734E+04 0.  0.
        4    1    3    3  502    0 -0.10231176017E+04  0.88888656385E+03 -0.29966742714E+03  0.13880529998E+04  0.12699999809E+01 0. -1.
       -4    1    3    3    0  502  0.10231176017E+04 -0.88888656385E+03 -0.65112527076E+03  0.15036138738E+04  0.12699999809E+01 0.  1.
</event>
<event>
 5   0  0.5214658E-07  0.2799773E+04  0.7818609E-02  0.8303339E-01
       -1   -1    0    0    0  501  0.00000000000E+00  0.00000000000E+00  0.15034145839E+04  0.15034145839E+04  0.50400001928E-02 0. -1.
        1   -1    0    0  501    0  0.00000000000E+00  0.00000000000E+00 -0.13034879424E+04  0.13034879424E+04  0.50400001928E-02 0.  1.
    10030    2    1    2    0    0  0.00000000000E+00  0.00000000000E+00  0.19992664153E+03  0.28069025264E+04  0.27997734070E+04 0.  0.
        2    1    3    3  502    0  0.76466795703E+03 -0.51200031877E+03 -0.95762629051E+03  0.13281225558E+04  0.25500000920E-02 0.  1.
       -2    1    3    3    0  502 -0.76466795703E+03  0.51200031877E+03  0.11575529320E+04  0.14787799706E+04  0.25500000920E-02 0. -1.
</event>
<event>
 5   0  0.5551565E-07  0.2808476E+04  0.7818609E-02  0.8300642E-01
       -1   -1    0    0    0  501  0.00000000000E+00  0.00000000000E+00  0.10142820229E+04  0.10142820229E+04  0.50400001928E-02 0. -1.
        1   -1    0    0  501    0  0.00000000000E+00  0.00000000000E+00 -0.19441177619E+04  0.19441177620E+04  0.50400001928E-02 0.  1.
    10030    2    1    2    0    0  0.00000000000E+00  0.00000000000E+00 -0.92983573905E+03  0.29583997849E+04  0.28084755269E+04 0.  0.
        3    1    3    3  502    0  0.99638341822E+03 -0.25687135696E+03 -0.14715026379E+04  0.17955731212E+04  0.10100000352E+00 0.  1.
       -3    1    3    3    0  502 -0.99638341822E+03  0.25687135696E+03  0.54166689885E+03  0.11628266636E+04  0.10100000352E+00 0. -1.
</event>
<event>
 5   0  0.1499888E-06  0.2801035E+04  0.7818609E-02  0.8302947E-01
       -2   -1    0    0    0  501  0.00000000000E+00  0.00000000000E+00  0.14049012368E+04  0.14049012368E+04  0.25500000920E-02 0.  1.
        2   -1    0    0  501    0  0.00000000000E+00  0.00000000000E+00 -0.13961478781E+04  0.13961478781E+04  0.25500000920E-02 0. -1.
    10030    2    1    2    0    0  0.00000000000E+00  0.00000000000E+00  0.87533586774E+01  0.28010491149E+04  0.28010354377E+04 0.  0.
        3    1    3    3  502    0  0.14518519953E+03 -0.50677947890E+03 -0.12931448540E+04  0.13964697655E+04  0.10100000352E+00 0. -1.
       -3    1    3    3    0  502 -0.14518519953E+03  0.50677947890E+03  0.13018982127E+04  0.14045793494E+04  0.10100000352E+00 0.  1.
</event>
<event>
 5   0  0.5214658E-07  0.2792417E+04  0.7818609E-02  0.8305626E-01
       -1   -1    0    0    0  501  0.00000000000E+00  0.00000000000E+00  0.13945178719E+04  0.13945178719E+04  0.50400001928E-02 0.  1.
        1   -1    0    0  501    0  0.00000000000E+00  0.00000000000E+00 -0.13979012088E+04  0.13979012089E+04  0.50400001928E-02 0. -1.
    10030    2    1    2    0    0  0.00000000000E+00  0.00000000000E+00 -0.33833369706E+01  0.27924190807E+04  0.27924170311E+04 0.  0.
        2    1    3    3  502    0 -0.74635326145E+03 -0.14736946481E+03  0.11690513780E+04  0.13947910505E+04  0.25500000920E-02 0.  1.
       -2    1    3    3    0  502  0.74635326145E+03  0.14736946481E+03 -0.11724347150E+04  0.13976280303E+04  0.25500000920E-02 0. -1.
</event>
<event>
 5   0  0.5214658E-07  0.2798818E+04  0.7818609E-02  0.8303635E-01
       -1   -1    0    0    0  501  0.00000000000E+00  0.00000000000E+00  0.17397149834E+04  0.17397149834E+04  0.50400001928E-02 0. -1.
        1   -1    0    0  501    0  0.00000000000E+00  0.00000000000E+00 -0.11256703141E+04  0.11256703141E+04  0.50400001928E-02 0.  1.
    10030    2    1    2    0    0  0.00000000000E+00  0.00000000000E+00  0.61404466935E+03  0.28653852975E+04  0.27988179732E+04 0.  0.
        2    1    3    3  502    0 -0.13257443381E+04 -0.39429215579E+03  0.89167533848E+02  0.13860069275E+04  0.25500000920E-02 0.  1.
       -2    1    3    3    0  502  0.13257443381E+04  0.39429215579E+03  0.52487713550E+03  0.14793783699E+04  0.25500000920E-02 0. -1.
</event>
<event>
 5   0  0.1439207E-06  0.2832214E+04  0.7818609E-02  0.8293337E-01
       -2   -1    0    0    0  501  0.00000000000E+00  0.00000000000E+00  0.11966808664E+04  0.11966808664E+04  0.25500000920E-02 0.  1.
        2   -1    0    0  501    0  0.00000000000E+00  0.00000000000E+00 -0.16757673176E+04  0.16757673176E+04  0.25500000920E-02 0. -1.
    10030    2    1    2    0    0  0.00000000000E+00  0.00000000000E+00 -0.47908645122E+03  0.28724481839E+04  0.28322137528E+04 0.  0.
        5    1    3    3  502    0  0.65566417879E+03  0.12094953791E+04  0.10072554503E+03  0.13794717513E+04  0.46999998093E+01 0.  1.
       -5    1    3    3    0  502 -0.65566417879E+03 -0.12094953791E+04 -0.57981199625E+03  0.14929764326E+04  0.46999998093E+01 0. -1.
</event>
<event>
 5   0  0.1394410E-06  0.2801524E+04  0.7818609E-02  0.8302795E-01
        2   -1    0    0  501    0  0.00000000000E+00  0.00000000000E+00  0.13749727976E+04  0.13749727976E+04  0.25500000920E-02 0. -1.
       -2   -1    0    0    0  501  0.00000000000E+00  0.00000000000E+00 -0.14270353136E+04  0.14270353136E+04  0.25500000920E-02 0.  1.
    10030    2    1    2    0    0  0.00000000000E+00  0.00000000000E+00 -0.52062515915E+02  0.28020081112E+04  0.28015243975E+04 0.  0.
        4    1    3    3  502    0  0.35765530508E+03  0.18441192977E+03 -0.13679812392E+04  0.14259380635E+04  0.12699999809E+01 0.  1.
       -4    1    3    3    0  502 -0.35765530508E+03 -0.18441192977E+03  0.13159187233E+04  0.13760700477E+04  0.12699999809E+01 0. -1.
</event>
<event>
 5   0  0.5214658E-07  0.2799470E+04  0.7818609E-02  0.8303433E-01
       -1   -1    0    0    0  501  0.00000000000E+00  0.00000000000E+00  0.16233173284E+04  0.16233173284E+04  0.50400001928E-02 0.  1.
        1   -1    0    0  501    0  0.00000000000E+00  0.00000000000E+00 -0.12069471309E+04  0.12069471309E+04  0.50400001928E-02 0. -1.
    10030    2    1    2    0    0  0.00000000000E+00  0.00000000000E+00  0.41637019755E+03  0.28302644593E+04  0.27994700870E+04 0.  0.
        2    1    3    3  502    0  0.88851406687E+03  0.66195190755E+03 -0.65657203659E+03  0.12879147542E+04  0.25500000920E-02 0. -1.
       -2    1    3    3    0  502 -0.88851406687E+03 -0.66195190755E+03  0.10729422341E+04  0.15423497051E+04  0.25500000920E-02 0.  1.
</event>
<event>
 5   0  0.5551565E-07  0.2801359E+04  0.7818609E-02  0.8302847E-01
        1   -1    0    0  501    0  0.00000000000E+00  0.00000000000E+00  0.13289825291E+04  0.13289825291E+04  0.50400001928E-02 0.  1.
       -1   -1    0    0    0  501  0.00000000000E+00  0.00000000000E+00 -0.14762445826E+04  0.14762445826E+04  0.50400001928E-02 0. -1.
    10030    2    1    2    0    0  0.00000000000E+00  0.00000000000E+00 -0.14726205350E+03  0.28052271118E+04  0.28013591409E+04 0.  0.
        3    1    3    3  502    0  0.12876026761E+03  0.21578193349E+03  0.13062273875E+04  0.13301770737E+04  0.10100000352E+00 0.  1.
       -3    1    3    3    0  502 -0.12876026761E+03 -0.21578193349E+03 -0.14534894410E+04  0.14750500380E+04  0.10100000352E+00 0. -1.
</event>
<event>
 5   0  0.5551565E-07  0.2805994E+04  0.7818609E-02  0.8301410E-01
        1   -1    0    0  501    0  0.00000000000E+00  0.00000000000E+00  0.12325205676E+04  0.12325205676E+04  0.50400001928E-02 0.  1.
       -1   -1    0    0    0  501  0.00000000000E+00  0.00000000000E+00 -0.15970523625E+04  0.15970523625E+04  0.50400001928E-02 0. -1.
    10030    2    1    2    0    0  0.00000000000E+00  0.00000000000E+00 -0.36453179490E+03  0.28295729302E+04  0.28059935028E+04 0.  0.
        3    1    3    3  502    0  0.22007418145E+03  0.53592611240E+03  0.11062629160E+04  0.12487862478E+04  0.10100000352E+00 0.  1.
       -3    1    3    3    0  502 -0.22007418145E+03 -0.53592611240E+03 -0.14707947109E+04  0.15807866823E+04  0.10100000352E+00 0. -1.
</event>
<event>
 5   0  0.1377807E-06  0.2800114E+04  0.7818609E-02  0.8303233E-01
       -2   -1    0    0    0  501  0.00000000000E+00  0.00000000000E+00  0.88596669399E+03  0.88596669399E+03  0.25500000920E-02 0. -1.
        2   -1    0    0  501    0  0.00000000000E+00  0.00000000000E+00 -0.22124524504E+04  0.22124524504E+04  0.25500000920E-02 0.  1.
    10030    2    1    2    0    0  0.00000000000E+00  0.00000000000E+00 -0.13264857564E+04  0.30984191444E+04  0.28001136999E+04 0.  0.
        2    1    3    3  502    0 -0.10795295620E+04  0.15678331330E+03 -0.16343443109E+04  0.19649545565E+04  0.25500000920E-02 0.  1.
       -2    1    3    3    0  502  0.10795295620E+04 -0.15678331330E+03  0.30785855448E+03  0.11334645879E+04  0.25500000920E-02 0. -1.
</event>
<event>
 5   0  0.5362952E-07  0.2799820E+04  0.7818609E-02  0.8303324E-01
       -1   -1    0    0    0  501  0.00000000000E+00  0.00000000000E+00  0.80403480036E+03  0.80403480037E+03  0.50400001928E-02 0.  1.
        1   -1    0    0  501    0  0.00000000000E+00  0.00000000000E+00 -0.24373912482E+04  0.24373912482E+04  0.50400001928E-02 0. -1.
    10030    2    1    2    0    0  0.00000000000E+00  0.00000000000E+00 -0.16333564479E+04  0.32414260486E+04  0.27998195554E+04 0.  0.
        1    1    3    3  502    0 -0.48739156372E+03  0.69910738586E+03  0.46910008553E+03  0.97280859557E+03  0.50400001928E-02 0.  1.
       -1    1    3    3    0  502  0.48739156372E+03 -0.69910738586E+03 -0.21024565334E+04  0.22686174530E+04  0.50400001928E-02 0. -1.
</event>
<event>
 5   0  0.1439207E-06  0.2826750E+04  0.7818609E-02  0.8295011E-01
        2   -1    0    0  501    0  0.00000000000E+00  0.00000000000E+00  0.14122318428E+04  0.14122318428E+04  0.25500000920E-02 0. -1.
       -2   -1    0    0    0  501  0.00000000000E+00  0.00000000000E+00 -0.14145188370E+04  0.14145188370E+04  0.25500000920E-02 0.  1.
    10030    2    1    2    0    0  0.00000000000E+00  0.00000000000E+00 -0.22869942246E+01  0.28267506798E+04  0.28267497546E+04 0.  0.
        5    1    3    3  502    0 -0.78441206435E+03 -0.14981749531E+03 -0.11672737537E+04  0.14143188024E+04  0.46999998093E+01 0.  1.
       -5    1    3    3    0  502  0.78441206435E+03  0.14981749531E+03  0.11649867595E+04  0.14124318774E+04  0.46999998093E+01 0. -1.
</event>
<event>
 5   0  0.5551565E-07  0.2789164E+04  0.7818609E-02  0.8306640E-01
        1   -1    0    0  501    0  0.00000000000E+00  0.00000000000E+00  0.15750771477E+04  0.15750771477E+04  0.50400001928E-02 0. -1.
       -1   -1    0    0    0  501  0.00000000000E+00  0.00000000000E+00 -0.12347708394E+04  0.12347708394E+04  0.50400001928E-02 0.  1.
    10030    2    1    2    0    0  0.00000000000E+00  0.00000000000E+00  0.34030630826E+03  0.28098479871E+04  0.27891642704E+04 0.  0.
        3    1    3    3  502    0 -0.12663797039E+04  0.51469158119E+03 -0.10800004810E+03  0.13712363030E+04  0.10100000352E+00 0. -1.
       -3    1    3    3    0  502  0.12663797039E+04 -0.51469158119E+03  0.44830635635E+03  0.14386116841E+04  0.10100000352E+00 0.  1.
</event>
<event>
 5   0  0.1377807E-06  0.2822977E+04  0.7818609E-02  0.8296170E-01
       -2   -1    0    0    0  501  0.00000000000E+00  0.00000000000E+00  0.15972188135E+04  0.15972188135E+04  0.25500000920E-02 0. -1.
        2   -1    0    0  501    0  0.00000000000E+00  0.00000000000E+00 -0.12473551576E+04  0.12473551576E+04  0.25500000920E-02 0.  1.
    10030    2    1    2    0    0  0.00000000000E+00  0.00000000000E+00  0.34986365591E+03  0.28445739712E+04  0.28229765319E+04 0.  0.
        2    1    3    3  502    0  0.35486857280E+03 -0.13585969606E+04  0.31949271113E+03  0.14400670116E+04  0.25500000920E-02 0. -1.
       -2    1    3    3    0  502 -0.35486857280E+03  0.13585969606E+04  0.30370944775E+02  0.14045069596E+04  0.25500000920E-02 0.  1.
</event>
<event>
 5   0  0.1439207E-06  0.2791699E+04  0.7818609E-02  0.8305850E-01
        2   -1    0    0  501    0  0.00000000000E+00  0.00000000000E+00  0.21585680556E+04  0.21585680556E+04  0.25500000920E-02 0. -1.
       -2   -1    0    0    0  501  0.00000000000E+00  0.00000000000E+00 -0.90263359527E+03  0.90263359527E+03  0.25500000920E-02 0.  1.
    10030    2    1    2    0    0  0.00000000000E+00  0.00000000000E+00  0.12559344603E+04  0.30612016509E+04  0.27916991562E+04 0.  0.
        5    1    3    3  502    0 -0.13835072349E+04 -0.13352831892E+03  0.48732005689E+03  0.14728968086E+04  0.46999998093E+01 0. -1.
       -5    1    3    3    0  502  0.13835072349E+04  0.13352831892E+03  0.76861440343E+03  0.15883048423E+04  0.46999998093E+01 0.  1.
</event>
<event>
 5   0  0.5362952E-07  0.2812653E+04  0.7818609E-02  0.8299351E-01
        1   -1    0    0  501    0  0.00000000000E+00  0.00000000000E+00  0.10381137053E+04  0.10381137053E+04  0.50400001928E-02 0. -1.
       -1   -1    0    0    0  501  0.00000000000E+00  0.00000000000E+00 -0.19051423159E+04  0.19051423159E+04  0.50400001928E-02 0.  1.
    10030    2    1    2    0    0  0.00000000000E+00  0.00000000000E+00 -0.86702861060E+03  0.29432560213E+04  0.28126530883E+04 0.  0.
        1    1    3    3  502    0  0.58828938054E+03  0.11605533595E+04  0.12491869835E+03  0.13071240097E+04  0.50400001928E-02 0.  1.
       -1    1    3    3    0  502 -0.58828938054E+03 -0.11605533595E+04 -0.99194730896E+03  0.16361320116E+04  0.50400001928E-02 0. -1.
</event>
<event>
 5   0  0.5282098E-07  0.2798554E+04  0.7818609E-02  0.8303717E-01
        1   -1    0    0  501    0  0.00000000000E+00  0.00000000000E+00  0.24254234554E+04  0.24254234554E+04  0.50400001928E-02 0. -1.
       -1   -1    0    0    0  501  0.00000000000E+00  0.00000000000E+00 -0.80727204107E+03  0.80727204109E+03  0.50400001928E-02 0.  1.
    10030    2    1    2    0    0  0.00000000000E+00  0.00000000000E+00  0.16181514143E+04  0.32326954965E+04  0.27985543006E+04 0.  0.
        4    1    3    3  502    0 -0.50214277210E+03 -0.23159537735E+02  0.23175236810E+04  0.23714133661E+04  0.12699999809E+01 0. -1.
       -4    1    3    3    0  502  0.50214277210E+03  0.23159537735E+02 -0.69937226673E+03  0.86128213039E+03  0.12699999809E+01 0.  1.
</event>
<event>
 5   0  0.1499888E-06  0.2802487E+04  0.7818609E-02  0.8302497E-01
       -2   -1    0    0    0  501  0.00000000000E+00  0.00000000000E+00  0.82740786005E+03  0.82740786006E+03  0.25500000920E-02 0.  1.
        2   -1    0    0  501    0  0.00000000000E+00  0.00000000000E+00 -0.23730544543E+04  0.23730544543E+04  0.25500000920E-02 0. -1.
    10030    2    1    2    0    0  0.00000000000E+00  0.00000000000E+00 -0.15456465942E+04  0.32004623144E+04  0.28024874007E+04 0.  0.
        3    1    3    3  502    0  0.25477135278E+03 -0.13350369337E+04 -0.38344748618E+03  0.14121841387E+04  0.10100000352E+00 0.  1.
       -3    1    3    3    0  502 -0.25477135278E+03  0.13350369337E+04 -0.11621991081E+04  0.17882781757E+04  0.10100000352E+00 0. -1.
</event>
<event>
 5   0  0.5297741E-07  0.2787136E+04  0.7818609E-02  0.8307273E-01
       -1   -1    0    0    0  501  0.00000000000E+00  0.00000000000E+00  0.10511370355E+04  0.10511370355E+04  0.50400001928E-02 0.  1.
        1   -1    0    0  501    0  0.00000000000E+00  0.00000000000E+00 -0.18475537372E+04  0.18475537372E+04  0.50400001928E-02 0. -1.
    10030    2    1    2    0    0  0.00000000000E+00  0.00000000000E+00 -0.79641670173E+03  0.28986907727E+04  0.27871362782E+04 0.  0.
        5    1    3    3  502    0 -0.80278266989E+02  0.13747201698E+04 -0.62056438927E+03  0.15104378162E+04  0.46999998093E+01 0. -1.
       -5    1    3    3    0  502  0.80278266989E+02 -0.13747201698E+04 -0.17585231246E+03  0.13882529565E+04  0.46999998093E+01 0.  1.
</event>
<event>
 5   0  0.1461146E-06  0.2799247E+04  0.7818609E-02  0.8303502E-01
       -2   -1    0    0    0  501  0.00000000000E+00  0.00000000000E+00  0.14260592084E+04  0.14260592084E+04  0.25500000920E-02 0. -1.
        2   -1    0    0  501    0  0.00000000000E+00  0.00000000000E+00 -0.13736774034E+04  0.13736774034E+04  0.25500000920E-02 0.  1.
    10030    2    1    2    0    0  0.00000000000E+00  0.00000000000E+00  0.52381804981E+02  0.27997366118E+04  0.27992465490E+04 0.  0.
        1    1    3    3  502    0  0.38731271400E+03  0.99654072233E+03  0.92958807070E+03  0.14167704581E+04  0.50400001928E-02 0. -1.
       -1    1    3    3    0  502 -0.38731271400E+03 -0.99654072233E+03 -0.87720626572E+03  0.13829661537E+04  0.50400001928E-02 0.  1.
</event>
<event>
 5   0  0.5362952E-07  0.2799978E+04  0.7818609E-02  0.8303275E-01
       -1   -1    0    0    0  501  0.00000000000E+00  0.00000000000E+00  0.92575064268E+03  0.92575064269E+03  0.50400001928E-02 0. -1.
        1   -1    0    0  501    0  0.00000000000E+00  0.00000000000E+00 -0.21171669103E+04  0.21171669103E+04  0.50400001928E-02 0.  1.
    10030    2    1    2    0    0  0.00000000000E+00  0.00000000000E+00 -0.11914162676E+04  0.30429175530E+04  0.27999775912E+04 0.  0.
        1    1    3    3  502    0  0.99716759129E+03  0.71756118525E+03  0.13390815563E+03  0.12357866539E+04  0.50400001928E-02 0. -1.
       -1    1    3    3    0  502 -0.99716759129E+03 -0.71756118525E+03 -0.13253244232E+04  0.18071308991E+04  0.50400001928E-02 0.  1.
</event>
<event>
 5   0  0.1377807E-06  0.2811784E+04  0.7818609E-02  0.8299619E-01
       -2   -1    0    0    0  501  0.00000000000E+00  0.00000000000E+00  0.13367621074E+04  0.13367621074E+04  0.25500000920E-02 0. -1.
        2   -1    0    0  501    0  0.00000000000E+00  0.00000000000E+00 -0.14785972541E+04  0.14785972541E+04  0.25500000920E-02 0.  1.
    10030    2    1    2    0    0  0.00000000000E+00  0.00000000000E+00 -0.14183514673E+03  0.28153593615E+04  0.28117843312E+04 0.  0.
        2    1    3    3  502    0  0.79893910834E+03  0.80251626409E+03 -0.90516161262E+03  0.14497081078E+04  0.25500000920E-02 0.  1.
       -2    1    3    3    0  502 -0.79893910834E+03 -0.80251626409E+03  0.76332646590E+03  0.13656512536E+04  0.25500000920E-02 0. -1.
</event>
<event>
 5   0  0.5551565E-07  0.2801987E+04  0.7818609E-02  0.8302652E-01
        1   -1    0    0  501    0  0.00000000000E+00  0.00000000000E+00  0.10583235570E+04  0.10583235570E+04  0.50400001928E-02 0.  1.
       -1   -1    0    0    0  501  0.00000000000E+00  0.00000000000E+00 -0.18546144833E+04  0.18546144833E+04  0.50400001928E-02 0. -1.
    10030    2    1    2    0    0  0.00000000000E+00  0.00000000000E+00 -0.79629092629E+03  0.29129380403E+04  0.28019865787E+04 0.  0.
        3    1    3    3  502    0  0.91637921772E+03 -0.63980443648E+03 -0.12763940225E+04  0.16965501167E+04  0.10100000352E+00 0.  1.
       -3    1    3    3    0  502 -0.91637921772E+03  0.63980443648E+03  0.48010309617E+03  0.12163879236E+04  0.10100000352E+00 0. -1.
</event>
<event>
 5   0  0.1394410E-06  0.2801067E+04  0.7818609E-02  0.8302937E-01
        2   -1    0    0  501    0  0.00000000000E+00  0.00000000000E+00  0.15614078711E+04  0.15614078711E+04  0.25500000920E-02 0.  1.
       -2   -1    0    0    0  501  0.00000000000E+00  0.00000000000E+00 -0.12562345073E+04  0.12562345073E+04  0.25500000920E-02 0. -1.
    10030    2    1    2    0    0  0.00000000000E+00  0.00000000000E+00  0.30517336379E+03  0.28176423783E+04  0.28010672591E+04 0.  0.
        4    1    3    3  502    0  0.24303753713E+03  0.40497490077E+03  0.14788806766E+04  0.15524695112E+04  0.12699999809E+01 0.  1.
       -4    1    3    3    0  502 -0.24303753713E+03 -0.40497490077E+03 -0.11737073128E+04  0.12651728671E+04  0.12699999809E+01 0. -1.
</event>
<event>
 5   0  0.1461146E-06  0.2795977E+04  0.7818609E-02  0.8304519E-01
        2   -1    0    0  501    0  0.00000000000E+00  0.00000000000E+00  0.21378149698E+04  0.21378149698E+04  0.25500000920E-02 0.  1.
       -2   -1    0    0    0  501  0.00000000000E+00  0.00000000000E+00 -0.91419103896E+03  0.91419103896E+03  0.25500000920E-02 0. -1.
    10030    2    1    2    0    0  0.00000000000E+00  0.00000000000E+00  0.12236239308E+04  0.30520060087E+04  0.27959766010E+04 0.  0.
        1    1    3    3  502    0 -0.62145335586E+03 -0.80808238684E+03 -0.43243376609E+03  0.11073393245E+04  0.50400001928E-02 0. -1.
       -1    1    3    3    0  502  0.62145335586E+03  0.80808238684E+03  0.16560576969E+04  0.19446666843E+04  0.50400001928E-02 0.  1.
</event>
<event>
 5   0  0.5551565E-07  0.2798122E+04  0.7818609E-02  0.8303852E-01
        1   -1    0    0  501    0  0.00000000000E+00  0.00000000000E+00  0.14338108046E+04  0.14338108046E+04  0.50400001928E-02 0. -1.
       -1   -1    0    0    0  501  0.00000000000E+00  0.00000000000E+00 -0.13651530230E+04  0.13651530230E+04  0.50400001928E-02 0.  1.
    10030    2    1    2    0    0  0.00000000000E+00  0.00000000000E+00  0.68657781669E+02  0.27989638276E+04  0.27981216230E+04 0.  0.
        3    1    3    3  502    0 -0.13106421265E+04  0.62493874837E+02  0.51994682027E+03  0.14113939826E+04  0.10100000352E+00 0. -1.
       -3    1    3    3    0  502  0.13106421265E+04 -0.62493874837E+02 -0.45128903860E+03  0.13875698450E+04  0.10100000352E+00 0.  1.
</event>
<event>
 5   0  0.5297741E-07  0.2797555E+04  0.7818609E-02  0.8304028E-01
        1   -1    0    0  501    0  0.00000000000E+00  0.00000000000E+00  0.19170439062E+04  0.19170439062E+04  0.50400001928E-02 0. -1.
       -1   -1    0    0    0  501  0.00000000000E+00  0.00000000000E+00 -0.10206229128E+04  0.10206229128E+04  0.50400001928E-02 0.  1.
    10030    2    1    2    0    0  0.00000000000E+00  0.00000000000E+00  0.89642099345E+03  0.29376668190E+04  0.27975553153E+04 0.  0.
        5    1    3    3  502    0 -0.52651472479E+03 -0.80418567126E+03  0.15152857964E+04  0.17944485181E+04  0.46999998093E+01 0. -1.
       -5    1    3    3    0  502  0.52651472479E+03  0.80418567126E+03 -0.61886480294E+03  0.11432183009E+04  0.46999998093E+01 0.  1.
</event>
<event>
 5   0  0.5551565E-07  0.2798806E+04  0.7818609E-02  0.8303639E-01
        1   -1    0    0  501    0  0.00000000000E+00  0.00000000000E+00  0.17328954945E+04  0.17328954945E+04  0.50400001928E-02 0.  1.
       -1   -1    0    0    0  501  0.00000000000E+00  0.00000000000E+00 -0.11300903477E+04  0.11300903477E+04  0.50400001928E-02 0. -1.
    10030    2    1    2    0    0  0.00000000000E+00  0.00000000000E+00  0.60280514681E+03  0.28629858422E+04  0.27988057967E+04 0.  0.
        3    1    3    3  502    0  0.59279006011E+03  0.12553243933E+04  0.48176676903E+03  0.14694688216E+04  0.10100000352E+00 0. -1.
       -3    1    3    3    0  502 -0.59279006011E+03 -0.12553243933E+04  0.12103837779E+03  0.13935170206E+04  0.10100000352E+00 0.  1.
</event>
<event>
 5   0  0.4710000E-07  0.2798096E+04  0.7818609E-02  0.8303860E-01
        3   -1    0    0  501    0  0.00000000000E+00  0.00000000000E+00  0.19121860425E+04  0.19121860452E+04  0.10100000352E+00 0. -1.
       -3   -1    0    0    0  501  0.00000000000E+00  0.00000000000E+00 -0.10236116873E+04  0.10236116923E+04  0.10100000352E+00 0.  1.
    10030    2    1    2    0    0  0.00000000000E+00  0.00000000000E+00  0.88857435518E+03  0.29357977374E+04  0.27980964906E+04 0.  0.
        2    1    3    3  502    0 -0.87255433388E+03 -0.10503398906E+04  0.76385986888E+03  0.15646235492E+04  0.25500000920E-02 0. -1.
       -2    1    3    3    0  502  0.87255433388E+03  0.10503398906E+04  0.12471448631E+03  0.13711741882E+04  0.25500000920E-02 0.  1.
</event>
<event>
 5   0  0.1377807E-06  0.2799573E+04  0.7818609E-02  0.8303401E-01
       -2   -1    0    0    0  501  0.00000000000E+00  0.00000000000E+00  0.10012348920E+04  0.10012348920E+04  0.25500000920E-02 0. -1.
        2   -1    0    0  501    0  0.00000000000E+00  0.00000000000E+00 -0.19569850986E+04  0.19569850986E+04  0.25500000920E-02 0.  1.
    10030    2    1    2    0    0  0.00000000000E+00  0.00000000000E+00 -0.95575020668E+03  0.29582199906E+04  0.27995726558E+04 0.  0.
        2    1    3    3  502    0  0.12144850318E+03  0.10826475358E+04 -0.14066177153E+04  0.17791708245E+04  0.25500000920E-02 0. -1.
       -2    1    3    3    0  502 -0.12144850318E+03 -0.10826475358E+04  0.45086750862E+03  0.11790491661E+04  0.25500000920E-02 0.  1.
</event>
<event>
 5   0  0.5551565E-07  0.2803870E+04  0.7818609E-02  0.8302068E-01
        1   -1    0    0  501    0  0.00000000000E+00  0.00000000000E+00  0.17537826610E+04  0.17537826610E+04  0.50400001928E-02 0.  1.
       -1   -1    0    0    0  501  0.00000000000E+00  0.00000000000E+00 -0.11206756379E+04  0.11206756379E+04  0.50400001928E-02 0. -1.
    10030    2    1    2    0    0  0.00000000000E+00  0.00000000000E+00  0.63310702315E+03  0.28744582989E+04  0.28038698275E+04 0.  0.
        3    1    3    3  502    0  0.10268946479E+04 -0.55034221534E+03 -0.48284161780E+03  0.12611602634E+04  0.10100000352E+00 0. -1.
       -3    1    3    3    0  502 -0.10268946479E+04  0.55034221534E+03  0.11159486410E+04  0.16132980355E+04  0.10100000352E+00 0.  1.
</event>
<event>
 5   0  0.1461146E-06  0.2796724E+04  0.7818609E-02  0.8304286E-01
       -2   -1    0    0    0  501  0.00000000000E+00  0.00000000000E+00  0.10145477873E+04  0.10145477873E+04  0.25500000920E-02 0. -1.
        2   -1    0    0  501    0  0.00000000000E+00  0.00000000000E+00 -0.19273766066E+04  0.19273766066E+04  0.25500000920E-02 0.  1.
    10030    2    1    2    0    0  0.00000000000E+00  0.00000000000E+00 -0.91282881934E+03  0.29419243939E+04  0.27967235626E+04 0.  0.
        1    1    3    3  502    0 -0.35639568237E+03 -0.63092478747E+03  0.80164267605E+03  0.10806086016E+04  0.50400001928E-02 0. -1.
       -1    1    3    3    0  502  0.35639568237E+03  0.63092478747E+03 -0.17144714954E+04  0.18613157922E+04  0.50400001928E-02 0.  1.
</event>
<event>
 5   0  0.1394410E-06  0.2800383E+04  0.7818609E-02  0.8303149E-01
       -2   -1    0    0    0  501  0.00000000000E+00  0.00000000000E+00  0.12316910823E+04  0.12316910823E+04  0.25500000920E-02 0.  1.
        2   -1    0    0  501    0  0.00000000000E+00  0.00000000000E+00 -0.15917437026E+04  0.15917437026E+04  0.25500000920E-02 0. -1.
    10030    2    1    2    0    0  0.00000000000E+00  0.00000000000E+00 -0.36005262030E+03  0.28234347849E+04  0.28003832051E+04 0.  0.
        4    1    3    3  502    0  0.14573995117E+03  0.10802940906E+04  0.70599040224E+03  0.12987299629E+04  0.12699999809E+01 0.  1.
       -4    1    3    3    0  502 -0.14573995117E+03 -0.10802940906E+04 -0.10660430225E+04  0.15247048220E+04  0.12699999809E+01 0. -1.
</event>
<event>
 5   0  0.5297741E-07  0.2777944E+04  0.7818609E-02  0.8310149E-01
       -1   -1    0    0    0  501  0.00000000000E+00  0.00000000000E+00  0.12967042361E+04  0.12967042361E+04  0.50400001928E-02 0. -1.
        1   -1    0    0  501    0  0.00000000000E+00  0.00000000000E+00 -0.14878049950E+04  0.14878049950E+04  0.50400001928E-02 0.  1.
    10030    2    1    2    0    0  0.00000000000E+00  0.00000000000E+00 -0.19110075894E+03  0.27845092311E+04  0.27779438724E+04 0.  0.
        5    1    3    3  502    0  0.62805654137E+03 -0.84354443811E+03  0.81389691695E+03  0.13298392834E+04  0.46999998093E+01 0. -1.
       -5    1    3    3    0  502 -0.62805654137E+03  0.84354443811E+03 -0.10049976759E+04  0.14546699477E+04  0.46999998093E+01 0.  1.
</event>
<event>
 5   0  0.1499888E-06  0.2797474E+04  0.7818609E-02  0.8304053E-01
       -2   -1    0    0    0  501  0.00000000000E+00  0.00000000000E+00  0.10161986901E+04  0.10161986901E+04  0.25500000920E-02 0.  1.
        2   -1    0    0  501    0  0.00000000000E+00  0.00000000000E+00 -0.19252780273E+04  0.19252780273E+04  0.25500000920E-02 0. -1.
    10030    2    1    2    0    0  0.00000000000E+00  0.00000000000E+00 -0.90907933716E+03  0.29414767174E+04  0.27974738672E+04 0.  0.
        3    1    3    3  502    0 -0.68206271008E+03 -0.66934838725E+03 -0.15285019655E+04  0.18026522329E+04  0.10100000352E+00 0. -1.
       -3    1    3    3    0  502  0.68206271008E+03  0.66934838725E+03  0.61942262830E+03  0.11388244846E+04  0.10100000352E+00 0.  1.
</event>
<event>
 5   0  0.1499888E-06  0.2801493E+04  0.7818609E-02  0.8302805E-01
       -2   -1    0    0    0  501  0.00000000000E+00  0.00000000000E+00  0.14147831749E+04  0.14147831749E+04  0.25500000920E-02 0.  1.
        2   -1    0    0  501    0  0.00000000000E+00  0.00000000000E+00 -0.13868487711E+04  0.13868487711E+04  0.25500000920E-02 0. -1.
    10030    2    1    2    0    0  0.00000000000E+00  0.00000000000E+00  0.27934403769E+02  0.28016319460E+04  0.28014926789E+04 0.  0.
        3    1    3    3  502    0  0.35776757099E+03 -0.73732868264E+03 -0.11220642146E+04  0.13894888747E+04  0.10100000352E+00 0. -1.
       -3    1    3    3    0  502 -0.35776757099E+03  0.73732868264E+03  0.11499986184E+04  0.14121430712E+04  0.10100000352E+00 0.  1.
</event>
<event>
 5   0  0.5214658E-07  0.2802505E+04  0.7818609E-02  0.8302491E-01
       -1   -1    0    0    0  501  0.00000000000E+00  0.00000000000E+00  0.85859077734E+03  0.85859077735E+03  0.50400001928E-02 0.  1.
        1   -1    0    0  501    0  0.00000000000E+00  0.00000000000E+00 -0.22868962949E+04  0.22868962949E+04  0.50400001928E-02 0. -1.
    10030    2    1    2    0    0  0.00000000000E+00  0.00000000000E+00 -0.14283055176E+04  0.31454870723E+04  0.28025046423E+04 0.  0.
        2    1    3    3  502    0  0.61452198858E+03  0.77498361936E+03 -0.18282406508E+04  0.20786295394E+04  0.25500000920E-02 0. -1.
       -2    1    3    3    0  502 -0.61452198858E+03 -0.77498361936E+03  0.39993513322E+03  0.10668575329E+04  0.25500000920E-02 0.  1.
</event>
<event>
 5   0  0.5297741E-07  0.2771656E+04  0.7818609E-02  0.8312122E-01
        1   -1    0    0  501    0  0.00000000000E+00  0.00000000000E+00  0.96633528303E+03  0.96633528304E+03  0.50400001928E-02 0.  1.
       -1   -1    0    0    0  501  0.00000000000E+00  0.00000000000E+00 -0.19874252327E+04  0.19874252327E+04  0.50400001928E-02 0. -1.
    10030    2    1    2    0    0  0.00000000000E+00  0.00000000000E+00 -0.10210899497E+04  0.29537605158E+04  0.27716559128E+04 0.  0.
        5    1    3    3  502    0  0.30914095609E+03 -0.91160742473E+03 -0.15729924986E+04  0.18441593527E+04  0.46999998093E+01 0. -1.
       -5    1    3    3    0  502 -0.30914095609E+03  0.91160742473E+03  0.55190254891E+03  0.11096011630E+04  0.46999998093E+01 0.  1.
</event>
<event>
 5   0  0.5362952E-07  0.2802579E+04  0.7818609E-02  0.8302468E-01
        1   -1    0    0  501    0  0.00000000000E+00  0.00000000000E+00  0.12096044399E+04  0.12096044399E+04  0.50400001928E-02 0. -1.
       -1   -1    0    0    0  501  0.00000000000E+00  0.00000000000E+00 -0.16233511345E+04  0.16233511345E+04  0.50400001928E-02 0.  1.
    10030    2    1    2    0    0  0.00000000000E+00  0.00000000000E+00 -0.41374669462E+03  0.28329555744E+04  0.28025793404E+04 0.  0.
        1    1    3    3  502    0 -0.11667813698E+04 -0.51203787233E+03 -0.79633288446E+03  0.15025670070E+04  0.50400001928E-02 0.  1.
       -1    1    3    3    0  502  0.11667813698E+04  0.51203787233E+03  0.38258618985E+03  0.13303885674E+04  0.50400001928E-02 0. -1.
</event>
<event>
 5   0  0.1439207E-06  0.2833586E+04  0.7818609E-02  0.8292916E-01
       -2   -1    0    0    0  501  0.00000000000E+00  0.00000000000E+00  0.19552655097E+04  0.19552655097E+04  0.25500000920E-02 0. -1.
        2   -1    0    0  501    0  0.00000000000E+00  0.00000000000E+00 -0.10266139037E+04  0.10266139037E+04  0.25500000920E-02 0.  1.
    10030    2    1    2    0    0  0.00000000000E+00  0.00000000000E+00  0.92865160601E+03  0.29818794134E+04  0.28335862490E+04 0.  0.
        5    1    3    3  502    0 -0.50594108845E+02  0.10623301451E+04  0.14493552404E+04  0.17977090431E+04  0.46999998093E+01 0. -1.
       -5    1    3    3    0  502  0.50594108845E+02 -0.10623301451E+04 -0.52070363435E+03  0.11841703703E+04  0.46999998093E+01 0.  1.
</event>
<event>
 5   0  0.1499888E-06  0.2800880E+04  0.7818609E-02  0.8302995E-01
        2   -1    0    0  501    0  0.00000000000E+00  0.00000000000E+00  0.25762762034E+04  0.25762762034E+04  0.25500000920E-02 0.  1.
       -2   -1    0    0    0  501  0.00000000000E+00  0.00000000000E+00 -0.76126609138E+03  0.76126609139E+03  0.25500000920E-02 0. -1.
    10030    2    1    2    0    0  0.00000000000E+00  0.00000000000E+00  0.18150101120E+04  0.33375422948E+04  0.28008796587E+04 0.  0.
        3    1    3    3  502    0 -0.53072368606E+03  0.12495294167E+04  0.13172514221E+04  0.18915979259E+04  0.10100000352E+00 0.  1.
       -3    1    3    3    0  502  0.53072368606E+03 -0.12495294167E+04  0.49775868993E+03  0.14459443688E+04  0.10100000352E+00 0. -1.
</event>
<event>
 5   0  0.1394410E-06  0.2801410E+04  0.7818609E-02  0.8302831E-01
        2   -1    0    0  501    0  0.00000000000E+00  0.00000000000E+00  0.19627361958E+04  0.19627361958E+04  0.25500000920E-02 0. -1.
       -2   -1    0    0    0  501  0.00000000000E+00  0.00000000000E+00 -0.99961175350E+03  0.99961175350E+03  0.25500000920E-02 0.  1.
    10030    2    1    2    0    0  0.00000000000E+00  0.00000000000E+00  0.96312444226E+03  0.29623479493E+04  0.28014097667E+04 0.  0.
        4    1    3    3  502    0 -0.89726229516E+03  0.10345728377E+04  0.79266072300E+03  0.15823189367E+04  0.12699999809E+01 0. -1.
       -4    1    3    3    0  502  0.89726229516E+03 -0.10345728377E+04  0.17046371927E+03  0.13800290125E+04  0.12699999809E+01 0.  1.
</event>
<event>
 5   0  0.1499888E-06  0.2801269E+04  0.7818609E-02  0.8302875E-01
       -2   -1    0    0    0  501  0.00000000000E+00  0.00000000000E+00  0.65171526905E+03  0.65171526906E+03  0.25500000920E-02 0.  1.
        2   -1    0    0  501    0  0.00000000000E+00  0.00000000000E+00 -0.30101748940E+04  0.30101748940E+04  0.25500000920E-02 0. -1.
    10030    2    1    2    0    0  0.00000000000E+00  0.00000000000E+00 -0.23584596250E+04  0.36618901631E+04  0.28012689560E+04 0.  0.
        3    1    3    3  502    0 -0.28473991338E+03  0.12582331264E+04 -0.18922964649E+04  0.22901994105E+04  0.10100000352E+00 0. -1.
       -3    1    3    3    0  502  0.28473991338E+03 -0.12582331264E+04 -0.46616316010E+03  0.13716907526E+04  0.10100000352E+00 0.  1.
</event>
<event>
 5   0  0.5297741E-07  0.2799760E+04  0.7818609E-02  0.8303343E-01
        1   -1    0    0  501    0  0.00000000000E+00  0.00000000000E+00  0.17404392524E+04  0.17404392524E+04  0.50400001928E-02 0.  1.
       -1   -1    0    0    0  501  0.00000000000E+00  0.00000000000E+00 -0.11259594784E+04  0.11259594784E+04  0.50400001928E-02 0. -1.
    10030    2    1    2    0    0  0.00000000000E+00  0.00000000000E+00  0.61447977400E+03  0.28663987309E+04  0.27997600418E+04 0.  0.
        5    1    3    3  502    0  0.12236165992E+03 -0.68537525098E+03  0.15506132276E+04  0.16997455933E+04  0.46999998093E+01 0.  1.
       -5    1    3    3    0  502 -0.12236165992E+03  0.68537525098E+03 -0.93613345356E+03  0.11666531375E+04  0.46999998093E+01 0. -1.
</event>
<event>
 5   0  0.5282098E-07  0.2803323E+04  0.7818609E-02  0.8302238E-01
       -1   -1    0    0    0  501  0.00000000000E+00  0.00000000000E+00  0.16735447916E+04  0.16735447917E+04  0.50400001928E-02 0.  1.
        1   -1    0    0  501    0  0.00000000000E+00  0.00000000000E+00 -0.11739479142E+04  0.11739479142E+04  0.50400001928E-02 0. -1.
    10030    2    1    2    0    0  0.00000000000E+00  0.00000000000E+00  0.49959687741E+03  0.28474927059E+04  0.28033226126E+04 0.  0.
        4    1    3    3  502    0  0.11327781922E+04 -0.27592224486E+03  0.10400890419E+04  0.15624040278E+04  0.12699999809E+01 0.  1.
       -4    1    3    3    0  502 -0.11327781922E+04  0.27592224486E+03 -0.54049216453E+03  0.12850886781E+04  0.12699999809E+01 0. -1.
</event>
<event>
 5   0  0.5297741E-07  0.2801515E+04  0.7818609E-02  0.8302798E-01
       -1   -1    0    0    0  501  0.00000000000E+00  0.00000000000E+00  0.14240668862E+04  0.14240668862E+04  0.50400001928E-02 0. -1.
        1   -1    0    0  501    0  0.00000000000E+00  0.00000000000E+00 -0.13778298408E+04  0.13778298408E+04  0.50400001928E-02 0.  1.
    10030    2    1    2    0    0  0.00000000000E+00  0.00000000000E+00  0.46237045417E+02  0.28018967270E+04  0.28015151980E+04 0.  0.
        5    1    3    3  502    0  0.93393733318E+02  0.94737027077E+03  0.10508123250E+04  0.14179074201E+04  0.46999998093E+01 0. -1.
       -5    1    3    3    0  502 -0.93393733318E+02 -0.94737027077E+03 -0.10045752796E+04  0.13839893070E+04  0.46999998093E+01 0.  1.
</event>
<event>
 5   0  0.5282098E-07  0.2800060E+04  0.7818609E-02  0.8303250E-01
       -1   -1    0    0    0  501  0.00000000000E+00  0.00000000000E+00  0.13711517644E+04  0.13711517644E+04  0.50400001928E-02 0.  1.
        1   -1    0    0  501    0  0.00000000000E+00  0.00000000000E+00 -0.14295164756E+04  0.14295164756E+04  0.50400001928E-02 0. -1.
    10030    2    1    2    0    0  0.00000000000E+00  0.00000000000E+00 -0.58364711229E+02  0.28006682400E+04  0.28000600263E+04 0.  0.
        4    1    3    3  502    0  0.40342403234E+02  0.71787256321E+03  0.11723753405E+04  0.13752941788E+04  0.12699999809E+01 0.  1.
       -4    1    3    3    0  502 -0.40342403234E+02 -0.71787256321E+03 -0.12307400517E+04  0.14253740612E+04  0.12699999809E+01 0. -1.
</event>
<event>
 5   0  0.1499888E-06  0.2841877E+04  0.7818609E-02  0.8290384E-01
        2   -1    0    0  501    0  0.00000000000E+00  0.00000000000E+00  0.10134284264E+04  0.10134284264E+04  0.25500000920E-02 0.  1.
       -2   -1    0    0    0  501  0.00000000000E+00  0.00000000000E+00 -0.19923131237E+04  0.19923131237E+04  0.25500000920E-02 0. -1.
    10030    2    1    2    0    0  0.00000000000E+00  0.00000000000E+00 -0.97888469736E+03  0.30057415501E+04  0.28418773751E+04 0.  0.
        3    1    3    3  502    0 -0.82551387709E+03  0.97502647855E+03  0.16845051771E+03  0.12886137444E+04  0.10100000352E+00 0. -1.
       -3    1    3    3    0  502  0.82551387709E+03 -0.97502647855E+03 -0.11473352151E+04  0.17171278057E+04  0.10100000352E+00 0.  1.
</event>
<event>
 5   0  0.5551565E-07  0.2803176E+04  0.7818609E-02  0.8302283E-01
        1   -1    0    0  501    0  0.00000000000E+00  0.00000000000E+00  0.23021903062E+04  0.23021903062E+04  0.50400001928E-02 0. -1.
       -1   -1    0    0    0  501  0.00000000000E+00  0.00000000000E+00 -0.85329543205E+03  0.85329543206E+03  0.50400001928E-02 0.  1.
    10030    2    1    2    0    0  0.00000000000E+00  0.00000000000E+00  0.14488948742E+04  0.31554857383E+04  0.28031756791E+04 0.  0.
        3    1    3    3  502    0  0.83880310399E+03  0.98315314442E+03  0.11380468125E+03  0.12973558757E+04  0.10100000352E+00 0.  1.
       -3    1    3    3    0  502 -0.83880310399E+03 -0.98315314442E+03  0.13350901929E+04  0.18581298625E+04  0.10100000352E+00 0. -1.
</event>
<event>
 5   0  0.4710000E-07  0.2788990E+04  0.7818609E-02  0.8306695E-01
        4   -1    0    0  501    0  0.00000000000E+00  0.00000000000E+00  0.12656789943E+04  0.12656796315E+04  0.12699999809E+01 0.  1.
       -4   -1    0    0    0  501  0.00000000000E+00  0.00000000000E+00 -0.15364206700E+04  0.15364211949E+04  0.12699999809E+01 0. -1.
    10030    2    1    2    0    0  0.00000000000E+00  0.00000000000E+00 -0.27074167567E+03  0.28021008264E+04  0.27889904959E+04 0.  0.
        3    1    3    3  502    0 -0.11191611653E+04 -0.54085355752E+02 -0.96943588281E+03  0.14816385797E+04  0.10100000352E+00 0. -1.
       -3    1    3    3    0  502  0.11191611653E+04  0.54085355752E+02  0.69869420714E+03  0.13204622467E+04  0.10100000352E+00 0.  1.
</event>
<event>
 5   0  0.1499888E-06  0.2799523E+04  0.7818609E-02  0.8303417E-01
       -2   -1    0    0    0  501  0.00000000000E+00  0.00000000000E+00  0.18947658099E+04  0.18947658099E+04  0.25500000920E-02 0.  1.
        2   -1    0    0  501    0  0.00000000000E+00  0.00000000000E+00 -0.10340760887E+04  0.10340760887E+04  0.25500000920E-02 0. -1.
    10030    2    1    2    0    0  0.00000000000E+00  0.00000000000E+00  0.86068972123E+03  0.29288418986E+04  0.27995228291E+04 0.  0.
        3    1    3    3  502    0 -0.11261836423E+04  0.70074506817E+03  0.89821525780E+03  0.16019125776E+04  0.10100000352E+00 0.  1.
       -3    1    3    3    0  502  0.11261836423E+04 -0.70074506817E+03 -0.37525536568E+02  0.13269293210E+04  0.10100000352E+00 0. -1.
</event>
<event>
 5   0  0.5551565E-07  0.2797959E+04  0.7818609E-02  0.8303902E-01
        1   -1    0    0  501    0  0.00000000000E+00  0.00000000000E+00  0.19536457731E+04  0.19536457731E+04  0.50400001928E-02 0.  1.
       -1   -1    0    0    0  501  0.00000000000E+00  0.00000000000E+00 -0.10017907751E+04  0.10017907752E+04  0.50400001928E-02 0. -1.
    10030    2    1    2    0    0  0.00000000000E+00  0.00000000000E+00  0.95185499798E+03  0.29554365483E+04  0.27979594804E+04 0.  0.
        3    1    3    3  502    0 -0.19773229589E+03 -0.13763427108E+04  0.31322227606E+03  0.14253159379E+04  0.10100000352E+00 0.  1.
       -3    1    3    3    0  502  0.19773229589E+03  0.13763427108E+04  0.63863272192E+03  0.15301206104E+04  0.10100000352E+00 0. -1.
</event>
<event>
 5   0  0.1394410E-06  0.2798150E+04  0.7818609E-02  0.8303843E-01
        2   -1    0    0  501    0  0.00000000000E+00  0.00000000000E+00  0.18088631590E+04  0.18088631590E+04  0.25500000920E-02 0.  1.
       -2   -1    0    0    0  501  0.00000000000E+00  0.00000000000E+00 -0.10821222893E+04  0.10821222893E+04  0.25500000920E-02 0. -1.
    10030    2    1    2    0    0  0.00000000000E+00  0.00000000000E+00  0.72674086969E+03  0.28909854484E+04  0.27981502052E+04 0.  0.
        4    1    3    3  502    0  0.14337598411E+03 -0.16584994135E+03 -0.10642648528E+04  0.10866113223E+04  0.12699999809E+01 0. -1.
       -4    1    3    3    0  502 -0.14337598411E+03  0.16584994135E+03  0.17910057225E+04  0.18043741261E+04  0.12699999809E+01 0.  1.
</event>
<event>
 5   0  0.5214658E-07  0.2796210E+04  0.7818609E-02  0.8304446E-01
        1   -1    0    0  501    0  0.00000000000E+00  0.00000000000E+00  0.23084693609E+04  0.23084693609E+04  0.50400001928E-02 0. -1.
       -1   -1    0    0    0  501  0.00000000000E+00  0.00000000000E+00 -0.84675024297E+03  0.84675024299E+03  0.50400001928E-02 0.  1.
    10030    2    1    2    0    0  0.00000000000E+00  0.00000000000E+00  0.14617191180E+04  0.31552196039E+04  0.27962095718E+04 0.  0.
        2    1    3    3  502    0 -0.67217836901E+03  0.26517772272E+03  0.20814242009E+04  0.22032861114E+04  0.25500000920E-02 0.  1.
       -2    1    3    3    0  502  0.67217836901E+03 -0.26517772272E+03 -0.61970508295E+03  0.95193349255E+03  0.25500000920E-02 0. -1.
</event>
<event>
 5   0  0.5214658E-07  0.2799325E+04  0.7818609E-02  0.8303478E-01
        1   -1    0    0  501    0  0.00000000000E+00  0.00000000000E+00  0.13585572476E+04  0.13585572476E+04  0.50400001928E-02 0. -1.
       -1   -1    0    0    0  501  0.00000000000E+00  0.00000000000E+00 -0.14420115308E+04  0.14420115308E+04  0.50400001928E-02 0.  1.
    10030    2    1    2    0    0  0.00000000000E+00  0.00000000000E+00 -0.83454283183E+02  0.28005687783E+04  0.27993250731E+04 0.  0.
        2    1    3    3  502    0 -0.32486609273E+03  0.11556935785E+04  0.67823804964E+03  0.13788301119E+04  0.25500000920E-02 0. -1.
       -2    1    3    3    0  502  0.32486609273E+03 -0.11556935785E+04 -0.76169233282E+03  0.14217386664E+04  0.25500000920E-02 0.  1.
</event>
<event>
 5   0  0.5282098E-07  0.2799455E+04  0.7818609E-02  0.8303438E-01
       -1   -1    0    0    0  501  0.00000000000E+00  0.00000000000E+00  0.99839000254E+03  0.99839000255E+03  0.50400001928E-02 0. -1.
        1   -1    0    0  501    0  0.00000000000E+00  0.00000000000E+00 -0.19623964038E+04  0.19623964038E+04  0.50400001928E-02 0.  1.
    10030    2    1    2    0    0  0.00000000000E+00  0.00000000000E+00 -0.96400640127E+03  0.29607864064E+04  0.27994549117E+04 0.  0.
        4    1    3    3  502    0 -0.25214427336E+03 -0.61468394194E+02 -0.19367265901E+04  0.19540385349E+04  0.12699999809E+01 0.  1.
       -4    1    3    3    0  502  0.25214427336E+03  0.61468394194E+02  0.97272018884E+03  0.10067478715E+04  0.12699999809E+01 0. -1.
</event>
<event>
 5   0  0.5551565E-07  0.2781184E+04  0.7818609E-02  0.8309134E-01
        1   -1    0    0  501    0  0.00000000000E+00  0.00000000000E+00  0.14347972962E+04  0.14347972962E+04  0.50400001928E-02 0. -1.
       -1   -1    0    0    0  501  0.00000000000E+00  0.00000000000E+00 -0.13477489378E+04  0.13477489378E+04  0.50400001928E-02 0.  1.
    10030    2    1    2    0    0  0.00000000000E+00  0.00000000000E+00  0.87048358381E+02  0.27825462340E+04  0.27811843030E+04 0.  0.
        3    1    3    3  502    0 -0.74457355283E+02 -0.12023226778E+04  0.73857496413E+03  0.14130168814E+04  0.10100000352E+00 0. -1.
       -3    1    3    3    0  502  0.74457355283E+02  0.12023226778E+04 -0.65152660574E+03  0.13695293526E+04  0.10100000352E+00 0.  1.
</event>
<event>
 5   0  0.5297741E-07  0.2804325E+04  0.7818609E-02  0.8301927E-01
        1   -1    0    0  501    0  0.00000000000E+00  0.00000000000E+00  0.16225708039E+04  0.16225708039E+04  0.50400001928E-02 0. -1.
       -1   -1    0    0    0  501  0.00000000000E+00  0.00000000000E+00 -0.12116939034E+04  0.12116939034E+04  0.50400001928E-02 0.  1.
    10030    2    1    2    0    0  0.00000000000E+00  0.00000000000E+00  0.41087690045E+03  0.28342647073E+04  0.28043246252E+04 0.  0.
        5    1    3    3  502    0 -0.13128678742E+04  0.46010572023E+03  0.28302505592E+02  0.13914533591E+04  0.46999998093E+01 0.  1.
       -5    1    3    3    0  502  0.13128678742E+04 -0.46010572023E+03  0.38257439486E+03  0.14428113482E+04  0.46999998093E+01 0. -1.
</event>
<event>
 5   0  0.1499888E-06  0.2802771E+04  0.7818609E-02  0.8302409E-01
        2   -1    0    0  501    0  0.00000000000E+00  0.00000000000E+00  0.16306015569E+04  0.16306015569E+04  0.25500000920E-02 0. -1.
       -2   -1    0    0    0  501  0.00000000000E+00  0.00000000000E+00 -0.12043904066E+04  0.12043904066E+04  0.25500000920E-02 0.  1.
    10030    2    1    2    0    0  0.00000000000E+00  0.00000000000E+00  0.42621115029E+03  0.28349919636E+04  0.28027706807E+04 0.  0.
        3    1    3    3  502    0 -0.13514837487E+03 -0.81808111993E+03  0.13558541783E+04  0.15892961854E+04  0.10100000352E+00 0. -1.
       -3    1    3    3    0  502  0.13514837487E+03  0.81808111993E+03 -0.92964302798E+03  0.12456957781E+04  0.10100000352E+00 0.  1.
</event>
<event>
 5   0  0.5362952E-07  0.2799978E+04  0.7818609E-02  0.8303275E-01
        1   -1    0    0  501    0  0.00000000000E+00  0.00000000000E+00  0.14926459953E+04  0.14926459953E+04  0.50400001928E-02 0. -1.
       -1   -1    0    0    0  501  0.00000000000E+00  0.00000000000E+00 -0.13130838073E+04  0.13130838073E+04  0.50400001928E-02 0.  1.
    10030    2    1    2    0    0  0.00000000000E+00  0.00000000000E+00  0.17956218797E+03  0.28057298026E+04  0.27999780617E+04 0.  0.
        1    1    3    3  502    0  0.44175250532E+03  0.53417638177E+03 -0.11290561258E+04  0.13248612825E+04  0.50400001928E-02 0.  1.
       -1    1    3    3    0  502 -0.44175250532E+03 -0.53417638177E+03  0.13086183137E+04  0.14808685201E+04  0.50400001928E-02 0. -1.
</event>
<event>
 5   0  0.1461146E-06  0.2797644E+04  0.7818609E-02  0.8304000E-01
       -2   -1    0    0    0  501  0.00000000000E+00  0.00000000000E+00  0.97723221862E+03  0.97723221862E+03  0.25500000920E-02 0.  1.
        2   -1    0    0  501    0  0.00000000000E+00  0.00000000000E+00 -0.20022903133E+04  0.20022903133E+04  0.25500000920E-02 0. -1.
    10030    2    1    2    0    0  0.00000000000E+00  0.00000000000E+00 -0.10250580947E+04  0.29795225319E+04  0.27976437266E+04 0.  0.
        1    1    3    3  502    0  0.10320599945E+04 -0.21289501792E+03 -0.14922414360E+04  0.18268159798E+04  0.50400001928E-02 0. -1.
       -1    1    3    3    0  502 -0.10320599945E+04  0.21289501792E+03  0.46718334132E+03  0.11527065521E+04  0.50400001928E-02 0.  1.
</event>
<event>
 5   0  0.5551565E-07  0.2800312E+04  0.7818609E-02  0.8303172E-01
        1   -1    0    0  501    0  0.00000000000E+00  0.00000000000E+00  0.74143998001E+03  0.74143998002E+03  0.50400001928E-02 0. -1.
       -1   -1    0    0    0  501  0.00000000000E+00  0.00000000000E+00 -0.26440932161E+04  0.26440932161E+04  0.50400001928E-02 0.  1.
    10030    2    1    2    0    0  0.00000000000E+00  0.00000000000E+00 -0.19026532361E+04  0.33855331962E+04  0.28003117122E+04 0.  0.
        3    1    3    3  502    0 -0.38251694462E+03 -0.12979371310E+04 -0.13863534167E+04  0.19372495490E+04  0.10100000352E+00 0. -1.
       -3    1    3    3    0  502  0.38251694462E+03  0.12979371310E+04 -0.51629981941E+03  0.14482836472E+04  0.10100000352E+00 0.  1.
</event>
<event>
 5   0  0.5214658E-07  0.2796026E+04  0.7818609E-02  0.8304503E-01
        1   -1    0    0  501    0  0.00000000000E+00  0.00000000000E+00  0.17410319481E+04  0.17410319482E+04  0.50400001928E-02 0.  1.
       -1   -1    0    0    0  501  0.00000000000E+00  0.00000000000E+00 -0.11225761024E+04  0.11225761024E+04  0.50400001928E-02 0. -1.
    10030    2    1    2    0    0  0.00000000000E+00  0.00000000000E+00  0.61845584572E+03  0.28636080506E+04  0.27960263651E+04 0.  0.
        2    1    3    3  502    0  0.31117698860E+03  0.92709349643E+03  0.13324289038E+04  0.16527856041E+04  0.25500000920E-02 0.  1.
       -2    1    3    3    0  502 -0.31117698860E+03 -0.92709349643E+03 -0.71397305807E+03  0.12108224465E+04  0.25500000920E-02 0. -1.
</event>
<event>
 5   0  0.5297741E-07  0.2798513E+04  0.7818609E-02  0.8303730E-01
       -1   -1    0    0    0  501  0.00000000000E+00  0.00000000000E+00  0.11046738356E+04  0.11046738356E+04  0.50400001928E-02 0. -1.
        1   -1    0    0  501    0  0.00000000000E+00  0.00000000000E+00 -0.17723950223E+04  0.17723950223E+04  0.50400001928E-02 0.  1.
    10030    2    1    2    0    0  0.00000000000E+00  0.00000000000E+00 -0.66772118664E+03  0.28770688579E+04  0.27985127532E+04 0.  0.
        5    1    3    3  502    0  0.30452474746E+03 -0.61247649852E+03  0.92107369928E+03  0.11472844602E+04  0.46999998093E+01 0. -1.
       -5    1    3    3    0  502 -0.30452474746E+03  0.61247649852E+03 -0.15887948859E+04  0.17297843977E+04  0.46999998093E+01 0.  1.
</event>
<event>
 5   0  0.1439207E-06  0.2795662E+04  0.7818609E-02  0.8304616E-01
        2   -1    0    0  501    0  0.00000000000E+00  0.00000000000E+00  0.20750520493E+04  0.20750520493E+04  0.25500000920E-02 0. -1.
       -2   -1    0    0    0  501  0.00000000000E+00  0.00000000000E+00 -0.94163021941E+03  0.94163021941E+03  0.25500000920E-02 0.  1.
    10030    2    1    2    0    0  0.00000000000E+00  0.00000000000E+00  0.11334218299E+04  0.30166822687E+04  0.27956621516E+04 0.  0.
        5    1    3    3  502    0  0.61988002848E+03 -0.57118682213E+03  0.17699474552E+04  0.19604187613E+04  0.46999998093E+01 0. -1.
       -5    1    3    3    0  502 -0.61988002848E+03  0.57118682213E+03 -0.63652562528E+03  0.10562635074E+04  0.46999998093E+01 0.  1.
</event>
<event>
 5   0  0.1439207E-06  0.2801102E+04  0.7818609E-02  0.8302926E-01
       -2   -1    0    0    0  501  0.00000000000E+00  0.00000000000E+00  0.25831494574E+04  0.25831494574E+04  0.25500000920E-02 0. -1.
        2   -1    0    0  501    0  0.00000000000E+00  0.00000000000E+00 -0.75936105018E+03  0.75936105019E+03  0.25500000920E-02 0.  1.
    10030    2    1    2    0    0  0.00000000000E+00  0.00000000000E+00  0.18237884072E+04  0.33425105076E+04  0.28011019865E+04 0.  0.
        5    1    3    3  502    0 -0.13172914424E+04  0.20181408218E+02  0.14789954478E+04  0.19806851486E+04  0.46999998093E+01 0. -1.
       -5    1    3    3    0  502  0.13172914424E+04 -0.20181408218E+02  0.34479295937E+03  0.13618253589E+04  0.46999998093E+01 0.  1.
</event>
<event>
 5   0  0.1439207E-06  0.2782989E+04  0.7818609E-02  0.8308569E-01
       -2   -1    0    0    0  501  0.00000000000E+00  0.00000000000E+00  0.15645740193E+04  0.15645740193E+04  0.25500000920E-02 0.  1.
        2   -1    0    0  501    0  0.00000000000E+00  0.00000000000E+00 -0.12375618427E+04  0.12375618427E+04  0.25500000920E-02 0. -1.
    10030    2    1    2    0    0  0.00000000000E+00  0.00000000000E+00  0.32701217660E+03  0.28021358619E+04  0.27829891169E+04 0.  0.
        5    1    3    3  502    0 -0.19397222582E+03  0.69512792087E+03  0.13613999640E+04  0.15408633952E+04  0.46999998093E+01 0.  1.
       -5    1    3    3    0  502  0.19397222582E+03 -0.69512792087E+03 -0.10343877874E+04  0.12612724667E+04  0.46999998093E+01 0. -1.
</event>
<event>
 5   0  0.5282098E-07  0.2800156E+04  0.7818609E-02  0.8303220E-01
       -1   -1    0    0    0  501  0.00000000000E+00  0.00000000000E+00  0.11367177040E+04  0.11367177040E+04  0.50400001928E-02 0.  1.
        1   -1    0    0  501    0  0.00000000000E+00  0.00000000000E+00 -0.17244551294E+04  0.17244551294E+04  0.50400001928E-02 0. -1.
    10030    2    1    2    0    0  0.00000000000E+00  0.00000000000E+00 -0.58773742541E+03  0.28611728335E+04  0.28001561924E+04 0.  0.
        4    1    3    3  502    0 -0.12930719454E+04 -0.83142414244E+02  0.24803613636E+03  0.13192692124E+04  0.12699999809E+01 0.  1.
       -4    1    3    3    0  502  0.12930719454E+04  0.83142414244E+02 -0.83577356177E+03  0.15419036210E+04  0.12699999809E+01 0. -1.
</event>
<event>
 5   0  0.1377807E-06  0.2796479E+04  0.7818609E-02  0.8304362E-01
        2   -1    0    0  501    0  0.00000000000E+00  0.00000000000E+00  0.19399491809E+04  0.19399491809E+04  0.25500000920E-02 0. -1.
       -2   -1    0    0    0  501  0.00000000000E+00  0.00000000000E+00 -0.10077963099E+04  0.10077963099E+04  0.25500000920E-02 0.  1.
    10030    2    1    2    0    0  0.00000000000E+00  0.00000000000E+00  0.93215287100E+03  0.29477454909E+04  0.27964789475E+04 0.  0.
        2    1    3    3  502    0  0.39005676029E+03  0.10264169048E+04  0.13785800717E+04  0.17624298433E+04  0.25500000920E-02 0. -1.
       -2    1    3    3    0  502 -0.39005676029E+03 -0.10264169048E+04 -0.44642720067E+03  0.11853156475E+04  0.25500000920E-02 0.  1.
</event>
<event>
 5   0  0.1499888E-06  0.2801086E+04  0.7818609E-02  0.8302931E-01
        2   -1    0    0  501    0  0.00000000000E+00  0.00000000000E+00  0.19074534357E+04  0.19074534357E+04  0.25500000920E-02 0. -1.
       -2   -1    0    0    0  501  0.00000000000E+00  0.00000000000E+00 -0.10283451209E+04  0.10283451209E+04  0.25500000920E-02 0.  1.
    10030    2    1    2    0    0  0.00000000000E+00  0.00000000000E+00  0.87910831482E+03  0.29357985565E+04  0.28010858136E+04 0.  0.
        3    1    3    3  502    0 -0.62390721576E+03  0.94070687178E+03  0.13084800498E+04  0.17280942345E+04  0.10100000352E+00 0. -1.
       -3    1    3    3    0  502  0.62390721576E+03 -0.94070687178E+03 -0.42937173494E+03  0.12077043220E+04  0.10100000352E+00 0.  1.
</event>
<event>
 5   0  0.5551565E-07  0.2785783E+04  0.7818609E-02  0.8307696E-01
        1   -1    0    0  501    0  0.00000000000E+00  0.00000000000E+00  0.10965968065E+04  0.10965968065E+04  0.50400001928E-02 0. -1.
       -1   -1    0    0    0  501  0.00000000000E+00  0.00000000000E+00 -0.17692434523E+04  0.17692434523E+04  0.50400001928E-02 0.  1.
    10030    2    1    2    0    0  0.00000000000E+00  0.00000000000E+00 -0.67264664577E+03  0.28658402588E+04  0.27857829920E+04 0.  0.
        3    1    3    3  502    0  0.61172702438E+03  0.12382492897E+04 -0.15036504759E+03  0.13892735201E+04  0.10100000352E+00 0.  1.
       -3    1    3    3    0  502 -0.61172702438E+03 -0.12382492897E+04 -0.52228159818E+03  0.14765667387E+04  0.10100000352E+00 0. -1.
</event>
<event>
 5   0  0.1499888E-06  0.2800988E+04  0.7818609E-02  0.8302962E-01
        2   -1    0    0  501    0  0.00000000000E+00  0.00000000000E+00  0.16394665104E+04  0.16394665104E+04  0.25500000920E-02 0. -1.
       -2   -1    0    0    0  501  0.00000000000E+00  0.00000000000E+00 -0.11963544598E+04  0.11963544598E+04  0.25500000920E-02 0.  1.
    10030    2    1    2    0    0  0.00000000000E+00  0.00000000000E+00  0.44311205063E+03  0.28358209702E+04  0.28009877340E+04 0.  0.
        3    1    3    3  502    0  0.70545613663E+03  0.32813098902E+03 -0.95741902422E+03  0.12336893875E+04  0.10100000352E+00 0.  1.
       -3    1    3    3    0  502 -0.70545613663E+03 -0.32813098902E+03  0.14005310748E+04  0.16021315828E+04  0.10100000352E+00 0. -1.
</event>
<event>
 5   0  0.5282098E-07  0.2796476E+04  0.7818609E-02  0.8304363E-01
       -1   -1    0    0    0  501  0.00000000000E+00  0.00000000000E+00  0.14120521745E+04  0.14120521745E+04  0.50400001928E-02 0.  1.
        1   -1    0    0  501    0  0.00000000000E+00  0.00000000000E+00 -0.13845594554E+04  0.13845594554E+04  0.50400001928E-02 0. -1.
    10030    2    1    2    0    0  0.00000000000E+00  0.00000000000E+00  0.27492719142E+02  0.27966116299E+04  0.27964764900E+04 0.  0.
        4    1    3    3  502    0 -0.13156293757E+04  0.49148222876E+02  0.48469626091E+03  0.14029355938E+04  0.12699999809E+01 0.  1.
       -4    1    3    3    0  502  0.13156293757E+04 -0.49148222876E+02 -0.45720354177E+03  0.13936760361E+04  0.12699999809E+01 0. -1.
</event>
<event>
 5   0  0.1439207E-06  0.2798465E+04  0.7818609E-02  0.8303745E-01
       -2   -1    0    0    0  501  0.00000000000E+00  0.00000000000E+00  0.11399626320E+04  0.11399626320E+04  0.25500000920E-02 0.  1.
        2   -1    0    0  501    0  0.00000000000E+00  0.00000000000E+00 -0.17174696590E+04  0.17174696590E+04  0.25500000920E-02 0. -1.
    10030    2    1    2    0    0  0.00000000000E+00  0.00000000000E+00 -0.57750702696E+03  0.28574322910E+04  0.27984647455E+04 0.  0.
        5    1    3    3  502    0 -0.98134806961E+03  0.13542875391E+03  0.72022011372E+03  0.12247955271E+04  0.46999998093E+01 0.  1.
       -5    1    3    3    0  502  0.98134806961E+03 -0.13542875391E+03 -0.12977271407E+04  0.16326367639E+04  0.46999998093E+01 0. -1.
</event>
<event>
 5   0  0.5551565E-07  0.2792698E+04  0.7818609E-02  0.8305539E-01
        1   -1    0    0  501    0  0.00000000000E+00  0.00000000000E+00  0.20051887860E+04  0.20051887860E+04  0.50400001928E-02 0. -1.
       -1   -1    0    0    0  501  0.00000000000E+00  0.00000000000E+00 -0.97237267549E+03  0.97237267550E+03  0.50400001928E-02 0.  1.
    10030    2    1    2    0    0  0.00000000000E+00  0.00000000000E+00  0.10328161105E+04  0.29775614615E+04  0.27926981825E+04 0.  0.
        3    1    3    3  502    0  0.31171247898E+03 -0.84726115689E+03 -0.61936495083E+03  0.10948192043E+04  0.10100000352E+00 0.  1.
       -3    1    3    3    0  502 -0.31171247898E+03  0.84726115689E+03  0.16521810613E+04  0.18827422572E+04  0.10100000352E+00 0. -1.
</event>
<event>
 5   0  0.1377807E-06  0.2802744E+04  0.7818609E-02  0.8302417E-01
        2   -1    0    0  501    0  0.00000000000E+00  0.00000000000E+00  0.11307628969E+04  0.11307628969E+04  0.25500000920E-02 0. -1.
       -2   -1    0    0    0  501  0.00000000000E+00  0.00000000000E+00 -0.17367423455E+04  0.17367423455E+04  0.25500000920E-02 0.  1.
    10030    2    1    2    0    0  0.00000000000E+00  0.00000000000E+00 -0.60597944853E+03  0.28675052424E+04  0.28027442308E+04 0.  0.
        2    1    3    3  502    0  0.38926636088E+02 -0.88337018011E+02  0.11273571743E+04  0.11314826159E+04  0.25500000920E-02 0. -1.
       -2    1    3    3    0  502 -0.38926636088E+02  0.88337018011E+02 -0.17333366228E+04  0.17360226265E+04  0.25500000920E-02 0.  1.
</event>
<event>
 5   0  0.5297741E-07  0.2805427E+04  0.7818609E-02  0.8301586E-01
        1   -1    0    0  501    0  0.00000000000E+00  0.00000000000E+00  0.17163364220E+04  0.17163364220E+04  0.50400001928E-02 0. -1.
       -1   -1    0    0    0  501  0.00000000000E+00  0.00000000000E+00 -0.11463981245E+04  0.11463981245E+04  0.50400001928E-02 0.  1.
    10030    2    1    2    0    0  0.00000000000E+00  0.00000000000E+00  0.56993829743E+03  0.28627345465E+04  0.28054267805E+04 0.  0.
        5    1    3    3  502    0 -0.90089164657E+03  0.38805554381E+03  0.13081429228E+04  0.16350696806E+04  0.46999998093E+01 0. -1.
       -5    1    3    3    0  502  0.90089164657E+03 -0.38805554381E+03 -0.73820462540E+03  0.12276648659E+04  0.46999998093E+01 0.  1.
</event>
<event>
 5   0  0.5214658E-07  0.2799866E+04  0.7818609E-02  0.8303310E-01
       -1   -1    0    0    0  501  0.00000000000E+00  0.00000000000E+00  0.96399101125E+03  0.96399101126E+03  0.50400001928E-02 0.  1.
        1   -1    0    0  501    0  0.00000000000E+00  0.00000000000E+00 -0.20330190873E+04  0.20330190873E+04  0.50400001928E-02 0. -1.
    10030    2    1    2    0    0  0.00000000000E+00  0.00000000000E+00 -0.10690280761E+04  0.29970100986E+04  0.27998658010E+04 0.  0.
        2    1    3    3  502    0  0.65958334060E+03  0.77049082449E+03  0.49836749782E+03  0.11300780755E+04  0.25500000920E-02 0.  1.
       -2    1    3    3    0  502 -0.65958334060E+03 -0.77049082449E+03 -0.15673955739E+04  0.18669320231E+04  0.25500000920E-02 0. -1.
</event>
<event>
 5   0  0.5297741E-07  0.2799487E+04  0.7818609E-02  0.8303428E-01
       -1   -1    0    0    0  501  0.00000000000E+00  0.00000000000E+00  0.12482912881E+04  0.12482912881E+04  0.50400001928E-02 0. -1.
        1   -1    0    0  501    0  0.00000000000E+00  0.00000000000E+00 -0.15695709124E+04  0.15695709124E+04  0.50400001928E-02 0.  1.
    10030    2    1    2    0    0  0.00000000000E+00  0.00000000000E+00 -0.32127962427E+03  0.28178622005E+04  0.27994868787E+04 0.  0.
        5    1    3    3  502    0  0.64733026527E+03  0.12406880652E+04 -0.19110825855E+03  0.14124049717E+04  0.46999998093E+01 0. -1.
       -5    1    3    3    0  502 -0.64733026527E+03 -0.12406880652E+04 -0.13017136571E+03  0.14054572288E+04  0.46999998093E+01 0.  1.
</event>
<event>
 5   0  0.1439207E-06  0.2787070E+04  0.7818609E-02  0.8307294E-01
       -2   -1    0    0    0  501  0.00000000000E+00  0.00000000000E+00  0.11547205399E+04  0.11547205399E+04  0.25500000920E-02 0. -1.
        2   -1    0    0  501    0  0.00000000000E+00  0.00000000000E+00 -0.16817394693E+04  0.16817394693E+04  0.25500000920E-02 0.  1.
    10030    2    1    2    0    0  0.00000000000E+00  0.00000000000E+00 -0.52701892942E+03  0.28364600092E+04  0.27870695061E+04 0.  0.
        5    1    3    3  502    0 -0.37278508139E+03  0.12692833131E+04 -0.70929947718E+03  0.15010585212E+04  0.46999998093E+01 0.  1.
       -5    1    3    3    0  502  0.37278508139E+03 -0.12692833131E+04  0.18228054777E+03  0.13354014879E+04  0.46999998093E+01 0. -1.
</event>
<event>
 5   0  0.5297741E-07  0.2794980E+04  0.7818609E-02  0.8304829E-01
        1   -1    0    0  501    0  0.00000000000E+00  0.00000000000E+00  0.27194079250E+04  0.27194079250E+04  0.50400001928E-02 0. -1.
       -1   -1    0    0    0  501  0.00000000000E+00  0.00000000000E+00 -0.71816304282E+03  0.71816304283E+03  0.50400001928E-02 0.  1.
    10030    2    1    2    0    0  0.00000000000E+00  0.00000000000E+00  0.20012448822E+04  0.34375709679E+04  0.27949799786E+04 0.  0.
        5    1    3    3  502    0 -0.92606845926E+03 -0.55654931067E+03 -0.89500395380E+02  0.10841505141E+04  0.46999998093E+01 0.  1.
       -5    1    3    3    0  502  0.92606845926E+03  0.55654931067E+03  0.20907452776E+04  0.23534204538E+04  0.46999998093E+01 0. -1.
</event>
<event>
 5   0  0.1461146E-06  0.2801397E+04  0.7818609E-02  0.8302835E-01
        2   -1    0    0  501    0  0.00000000000E+00  0.00000000000E+00  0.23396387984E+04  0.23396387984E+04  0.25500000920E-02 0. -1.
       -2   -1    0    0    0  501  0.00000000000E+00  0.00000000000E+00 -0.83857240869E+03  0.83857240869E+03  0.25500000920E-02 0.  1.
    10030    2    1    2    0    0  0.00000000000E+00  0.00000000000E+00  0.15010663897E+04  0.31782112071E+04  0.28013971818E+04 0.  0.
        1    1    3    3  502    0 -0.16364144491E+03  0.11933896779E+04  0.15615281144E+04  0.19721377989E+04  0.50400001928E-02 0. -1.
       -1    1    3    3    0  502  0.16364144491E+03 -0.11933896779E+04 -0.60461724681E+02  0.12060734082E+04  0.50400001928E-02 0.  1.
</event>
<event>
 5   0  0.1439207E-06  0.2796718E+04  0.7818609E-02  0.8304288E-01
        2   -1    0    0  501    0  0.00000000000E+00  0.00000000000E+00  0.70170212233E+03  0.70170212233E+03  0.25500000920E-02 0. -1.
       -2   -1    0    0    0  501  0.00000000000E+00  0.00000000000E+00 -0.27866628388E+04  0.27866628388E+04  0.25500000920E-02 0.  1.
    10030    2    1    2    0    0  0.00000000000E+00  0.00000000000E+00 -0.20849607165E+04  0.34883649611E+04  0.27967175247E+04 0.  0.
        5    1    3    3  502    0  0.41079150731E+03  0.67568051060E+03 -0.24809941896E+04  0.26039677559E+04  0.46999998093E+01 0.  1.
       -5    1    3    3    0  502 -0.41079150731E+03 -0.67568051060E+03  0.39603347310E+03  0.88439720527E+03  0.46999998093E+01 0. -1.
</event>
<event>
 5   0  0.1439207E-06  0.2801188E+04  0.7818609E-02  0.8302900E-01
       -2   -1    0    0    0  501  0.00000000000E+00  0.00000000000E+00  0.11259101377E+04  0.11259101377E+04  0.25500000920E-02 0.  1.
        2   -1    0    0  501    0  0.00000000000E+00  0.00000000000E+00 -0.17422915974E+04  0.17422915974E+04  0.25500000920E-02 0. -1.
    10030    2    1    2    0    0  0.00000000000E+00  0.00000000000E+00 -0.61638145967E+03  0.28682017351E+04  0.28011881567E+04 0.  0.
        5    1    3    3  502    0 -0.74398548507E+03  0.99201062281E+03  0.35857298035E+03  0.12908122056E+04  0.46999998093E+01 0.  1.
       -5    1    3    3    0  502  0.74398548507E+03 -0.99201062281E+03 -0.97495444002E+03  0.15773895295E+04  0.46999998093E+01 0. -1.
</event>
<event>
 5   0  0.5297741E-07  0.2804194E+04  0.7818609E-02  0.8301968E-01
        1   -1    0    0  501    0  0.00000000000E+00  0.00000000000E+00  0.15597057483E+04  0.15597057483E+04  0.50400001928E-02 0.  1.
       -1   -1    0    0    0  501  0.00000000000E+00  0.00000000000E+00 -0.12604145126E+04  0.12604145126E+04  0.50400001928E-02 0. -1.
    10030    2    1    2    0    0  0.00000000000E+00  0.00000000000E+00  0.29929123572E+03  0.28201202609E+04  0.28041938311E+04 0.  0.
        5    1    3    3  502    0 -0.84009496164E+03 -0.85750478309E+03 -0.57888549133E+03  0.13327432235E+04  0.46999998093E+01 0. -1.
       -5    1    3    3    0  502  0.84009496164E+03  0.85750478309E+03  0.87817672704E+03  0.14873770374E+04  0.46999998093E+01 0.  1.
</event>
<event>
 5   0  0.5297741E-07  0.2795651E+04  0.7818609E-02  0.8304620E-01
       -1   -1    0    0    0  501  0.00000000000E+00  0.00000000000E+00  0.13516392369E+04  0.13516392369E+04  0.50400001928E-02 0.  1.
        1   -1    0    0  501    0  0.00000000000E+00  0.00000000000E+00 -0.14455900378E+04  0.14455900378E+04  0.50400001928E-02 0. -1.
    10030    2    1    2    0    0  0.00000000000E+00  0.00000000000E+00 -0.93950800865E+02  0.27972292747E+04  0.27956510623E+04 0.  0.
        5    1    3    3  502    0  0.23763100952E+03 -0.13602987980E+04 -0.26392217667E+03  0.14059012490E+04  0.46999998093E+01 0.  1.
       -5    1    3    3    0  502 -0.23763100952E+03  0.13602987980E+04  0.16997137580E+03  0.13913280257E+04  0.46999998093E+01 0. -1.
</event>
<event>
 5   0  0.1439207E-06  0.2801146E+04  0.7818609E-02  0.8302913E-01
       -2   -1    0    0    0  501  0.00000000000E+00  0.00000000000E+00  0.12723478336E+04  0.12723478336E+04  0.25500000920E-02 0. -1.
        2   -1    0    0  501    0  0.00000000000E+00  0.00000000000E+00 -0.15417200496E+04  0.15417200496E+04  0.25500000920E-02 0.  1.
    10030    2    1    2    0    0  0.00000000000E+00  0.00000000000E+00 -0.26937221603E+03  0.28140678832E+04  0.28011455979E+04 0.  0.
        5    1    3    3  502    0  0.12467479920E+04  0.60571530092E+03 -0.33638705883E+03  0.14263414474E+04  0.46999998093E+01 0.  1.
       -5    1    3    3    0  502 -0.12467479920E+04 -0.60571530092E+03  0.67014842796E+02  0.13877264358E+04  0.46999998093E+01 0. -1.
</event>
<event>
 5   0  0.5282098E-07  0.2793114E+04  0.7818609E-02  0.8305409E-01
        1   -1    0    0  501    0  0.00000000000E+00  0.00000000000E+00  0.12408736686E+04  0.12408736686E+04  0.50400001928E-02 0.  1.
       -1   -1    0    0    0  501  0.00000000000E+00  0.00000000000E+00 -0.15717726936E+04  0.15717726936E+04  0.50400001928E-02 0. -1.
    10030    2    1    2    0    0  0.00000000000E+00  0.00000000000E+00 -0.33089902496E+03  0.28126463622E+04  0.27931139243E+04 0.  0.
        4    1    3    3  502    0 -0.12697911051E+04  0.18311180150E+01 -0.75089014363E+03  0.14751984356E+04  0.12699999809E+01 0. -1.
       -4    1    3    3    0  502  0.12697911051E+04 -0.18311180150E+01  0.41999111866E+03  0.13374479266E+04  0.12699999809E+01 0.  1.
</event>
<event>
 5   0  0.1461146E-06  0.2799446E+04  0.7818609E-02  0.8303440E-01
       -2   -1    0    0    0  501  0.00000000000E+00  0.00000000000E+00  0.29080417633E+04  0.29080417633E+04  0.25500000920E-02 0.  1.
        2   -1    0    0  501    0  0.00000000000E+00  0.00000000000E+00 -0.67372628235E+03  0.67372628236E+03  0.25500000920E-02 0. -1.
    10030    2    1    2    0    0  0.00000000000E+00  0.00000000000E+00  0.22343154810E+04  0.35817680457E+04  0.27994457781E+04 0.  0.
        1    1    3    3  502    0  0.26524414589E+03  0.67492153316E+03  0.26489561660E+04  0.27464235475E+04  0.50400001928E-02 0.  1.
       -1    1    3    3    0  502 -0.26524414589E+03 -0.67492153316E+03 -0.41464068507E+03  0.83534449815E+03  0.50400001928E-02 0. -1.
</event>
<event>
 5   0  0.5297741E-07  0.2794371E+04  0.7818609E-02  0.8305018E-01
        1   -1    0    0  501    0  0.00000000000E+00  0.00000000000E+00  0.17126954052E+04  0.17126954052E+04  0.50400001928E-02 0.  1.
       -1   -1    0    0    0  501  0.00000000000E+00  0.00000000000E+00 -0.11397981813E+04  0.11397981813E+04  0.50400001928E-02 0. -1.
    10030    2    1    2    0    0  0.00000000000E+00  0.00000000000E+00  0.57289722394E+03  0.28524935865E+04  0.27943708473E+04 0.  0.
        5    1    3    3  502    0  0.12005866579E+04 -0.59823910609E+03 -0.11258711955E+03  0.13461041195E+04  0.46999998093E+01 0. -1.
       -5    1    3    3    0  502 -0.12005866579E+04  0.59823910609E+03  0.68548434349E+03  0.15063894670E+04  0.46999998093E+01 0.  1.
</event>
<event>
 5   0  0.5362952E-07  0.2799844E+04  0.7818609E-02  0.8303317E-01
        1   -1    0    0  501    0  0.00000000000E+00  0.00000000000E+00  0.21284826608E+04  0.21284826608E+04  0.50400001928E-02 0.  1.
       -1   -1    0    0    0  501  0.00000000000E+00  0.00000000000E+00 -0.92074102147E+03  0.92074102149E+03  0.50400001928E-02 0. -1.
    10030    2    1    2    0    0  0.00000000000E+00  0.00000000000E+00  0.12077416393E+04  0.30492236823E+04  0.27998437809E+04 0.  0.
        1    1    3    3  502    0  0.10930208208E+04 -0.12523999686E+03  0.15466561773E+04  0.18980318496E+04  0.50400001928E-02 0.  1.
       -1    1    3    3    0  502 -0.10930208208E+04  0.12523999686E+03 -0.33891453796E+03  0.11511918326E+04  0.50400001928E-02 0. -1.
</event>
<event>
 5   0  0.5362952E-07  0.2798801E+04  0.7818609E-02  0.8303641E-01
       -1   -1    0    0    0  501  0.00000000000E+00  0.00000000000E+00  0.95863955154E+03  0.95863955155E+03  0.50400001928E-02 0.  1.
        1   -1    0    0  501    0  0.00000000000E+00  0.00000000000E+00 -0.20428140989E+04  0.20428140989E+04  0.50400001928E-02 0. -1.
    10030    2    1    2    0    0  0.00000000000E+00  0.00000000000E+00 -0.10841745474E+04  0.30014536505E+04  0.27988014518E+04 0.  0.
        1    1    3    3  502    0 -0.62675984194E+03 -0.11723021651E+04 -0.10110149967E+04  0.16701112506E+04  0.50400001928E-02 0. -1.
       -1    1    3    3    0  502  0.62675984194E+03  0.11723021651E+04 -0.73159550707E+02  0.13313423999E+04  0.50400001928E-02 0.  1.
</event>
<event>
 5   0  0.5282098E-07  0.2824811E+04  0.7818609E-02  0.8295607E-01
       -1   -1    0    0    0  501  0.00000000000E+00  0.00000000000E+00  0.18392454123E+04  0.18392454123E+04  0.50400001928E-02 0.  1.
        1   -1    0    0  501    0  0.00000000000E+00  0.00000000000E+00 -0.10846236425E+04  0.10846236425E+04  0.50400001928E-02 0. -1.
    10030    2    1    2    0    0  0.00000000000E+00  0.00000000000E+00  0.75462176979E+03  0.29238690548E+04  0.28248108316E+04 0.  0.
        4    1    3    3  502    0 -0.13449717633E+04  0.34421452979E+03  0.64613909904E+03  0.15313164385E+04  0.12699999809E+01 0.  1.
       -4    1    3    3    0  502  0.13449717633E+04 -0.34421452979E+03  0.10848267074E+03  0.13925526163E+04  0.12699999809E+01 0. -1.
</event>
<event>
 5   0  0.1394410E-06  0.2801151E+04  0.7818609E-02  0.8302911E-01
       -2   -1    0    0    0  501  0.00000000000E+00  0.00000000000E+00  0.18459447618E+04  0.18459447618E+04  0.25500000920E-02 0.  1.
        2   -1    0    0  501    0  0.00000000000E+00  0.00000000000E+00 -0.10626599328E+04  0.10626599328E+04  0.25500000920E-02 0. -1.
    10030    2    1    2    0    0  0.00000000000E+00  0.00000000000E+00  0.78328482892E+03  0.29086046946E+04  0.28011508610E+04 0.  0.
        4    1    3    3  502    0  0.27306511777E+03  0.93294333609E+03  0.14386179117E+04  0.17362519793E+04  0.12699999809E+01 0.  1.
       -4    1    3    3    0  502 -0.27306511777E+03 -0.93294333609E+03 -0.65533308275E+03  0.11723527153E+04  0.12699999809E+01 0. -1.
</event>
<event>
 5   0  0.1499888E-06  0.2797934E+04  0.7818609E-02  0.8303910E-01
       -2   -1    0    0    0  501  0.00000000000E+00  0.00000000000E+00  0.73287004594E+03  0.73287004595E+03  0.25500000920E-02 0. -1.
        2   -1    0    0  501    0  0.00000000000E+00  0.00000000000E+00 -0.26704712485E+04  0.26704712485E+04  0.25500000920E-02 0.  1.
    10030    2    1    2    0    0  0.00000000000E+00  0.00000000000E+00 -0.19376012026E+04  0.34033412945E+04  0.27979337995E+04 0.  0.
        3    1    3    3  502    0  0.38831371992E+03 -0.35672755987E+03  0.60736552048E+03  0.80432268570E+03  0.10100000352E+00 0. -1.
       -3    1    3    3    0  502 -0.38831371992E+03  0.35672755987E+03 -0.25449667231E+04  0.25990186088E+04  0.10100000352E+00 0.  1.
</event>
<event>
 5   0  0.5282098E-07  0.2803212E+04  0.7818609E-02  0.8302272E-01
        1   -1    0    0  501    0  0.00000000000E+00  0.00000000000E+00  0.13231263936E+04  0.13231263936E+04  0.50400001928E-02 0. -1.
       -1   -1    0    0    0  501  0.00000000000E+00  0.00000000000E+00 -0.14847402474E+04  0.14847402474E+04  0.50400001928E-02 0.  1.
    10030    2    1    2    0    0  0.00000000000E+00  0.00000000000E+00 -0.16161385380E+03  0.28078666409E+04  0.28032117358E+04 0.  0.
        4    1    3    3  502    0  0.17278504476E+03 -0.82180356235E+03 -0.12048475536E+04  0.14686303167E+04  0.12699999809E+01 0.  1.
       -4    1    3    3    0  502 -0.17278504476E+03  0.82180356235E+03  0.10432336998E+04  0.13392363242E+04  0.12699999809E+01 0. -1.
</event>
<event>
 5   0  0.1439207E-06  0.2801624E+04  0.7818609E-02  0.8302764E-01
        2   -1    0    0  501    0  0.00000000000E+00  0.00000000000E+00  0.26216663528E+04  0.26216663528E+04  0.25500000920E-02 0. -1.
       -2   -1    0    0    0  501  0.00000000000E+00  0.00000000000E+00 -0.74848361658E+03  0.74848361658E+03  0.25500000920E-02 0.  1.
    10030    2    1    2    0    0  0.00000000000E+00  0.00000000000E+00  0.18731827362E+04  0.33701499694E+04  0.28016240385E+04 0.  0.
        5    1    3    3  502    0 -0.10369376814E+04  0.90976547047E+03  0.12296202472E+04  0.18479450773E+04  0.46999998093E+01 0. -1.
       -5    1    3    3    0  502  0.10369376814E+04 -0.90976547047E+03  0.64356248899E+03  0.15222048921E+04  0.46999998093E+01 0.  1.
</event>
<event>
 5   0  0.1499888E-06  0.2801446E+04  0.7818609E-02  0.8302820E-01
        2   -1    0    0  501    0  0.00000000000E+00  0.00000000000E+00  0.20595407489E+04  0.20595407489E+04  0.25500000920E-02 0. -1.
       -2   -1    0    0    0  501  0.00000000000E+00  0.00000000000E+00 -0.95265181516E+03  0.95265181516E+03  0.25500000920E-02 0.  1.
    10030    2    1    2    0    0  0.00000000000E+00  0.00000000000E+00  0.11068889337E+04  0.30121925641E+04  0.28014462214E+04 0.  0.
        3    1    3    3  502    0 -0.29194572314E+03  0.11640832626E+04  0.13300708508E+04  0.17914828009E+04  0.10100000352E+00 0. -1.
       -3    1    3    3    0  502  0.29194572314E+03 -0.11640832626E+04 -0.22318191708E+03  0.12207097632E+04  0.10100000352E+00 0.  1.
</event>
<event>
 5   0  0.1394410E-06  0.2804117E+04  0.7818609E-02  0.8301991E-01
        2   -1    0    0  501    0  0.00000000000E+00  0.00000000000E+00  0.22224746220E+04  0.22224746220E+04  0.25500000920E-02 0.  1.
       -2   -1    0    0    0  501  0.00000000000E+00  0.00000000000E+00 -0.88449521761E+03  0.88449521761E+03  0.25500000920E-02 0. -1.
    10030    2    1    2    0    0  0.00000000000E+00  0.00000000000E+00  0.13379794044E+04  0.31069698396E+04  0.28041170977E+04 0.  0.
        4    1    3    3  502    0 -0.83586820472E+03 -0.83135330989E+03 -0.17188344882E+03  0.11913729535E+04  0.12699999809E+01 0. -1.
       -4    1    3    3    0  502  0.83586820472E+03  0.83135330989E+03  0.15098628532E+04  0.19155968860E+04  0.12699999809E+01 0.  1.
</event>
<event>
 5   0  0.1377807E-06  0.2807156E+04  0.7818609E-02  0.8301050E-01
       -2   -1    0    0    0  501  0.00000000000E+00  0.00000000000E+00  0.79051082437E+03  0.79051082437E+03  0.25500000920E-02 0. -1.
        2   -1    0    0  501    0  0.00000000000E+00  0.00000000000E+00 -0.24920992238E+04  0.24920992238E+04  0.25500000920E-02 0.  1.
    10030    2    1    2    0    0  0.00000000000E+00  0.00000000000E+00 -0.17015883994E+04  0.32826100481E+04  0.28071561494E+04 0.  0.
        2    1    3    3  502    0 -0.54255905309E+03 -0.93654888294E+03 -0.18957557729E+04  0.21829759703E+04  0.25500000920E-02 0. -1.
       -2    1    3    3    0  502  0.54255905309E+03  0.93654888294E+03  0.19416737353E+03  0.10996340779E+04  0.25500000920E-02 0.  1.
</event>
<event>
 5   0  0.1377807E-06  0.2800973E+04  0.7818609E-02  0.8302966E-01
       -2   -1    0    0    0  501  0.00000000000E+00  0.00000000000E+00  0.10572638584E+04  0.10572638584E+04  0.25500000920E-02 0.  1.
        2   -1    0    0  501    0  0.00000000000E+00  0.00000000000E+00 -0.18551305359E+04  0.18551305359E+04  0.25500000920E-02 0. -1.
    10030    2    1    2    0    0  0.00000000000E+00  0.00000000000E+00 -0.79786667744E+03  0.29123943943E+04  0.28009730226E+04 0.  0.
        2    1    3    3  502    0 -0.30766519878E+03  0.43707430538E+03  0.94703731595E+03  0.10874610341E+04  0.25500000920E-02 0.  1.
       -2    1    3    3    0  502  0.30766519878E+03 -0.43707430538E+03 -0.17449039934E+04  0.18249333602E+04  0.25500000920E-02 0. -1.
</event>
<event>
 5   0  0.1377807E-06  0.2797471E+04  0.7818609E-02  0.8304054E-01
        2   -1    0    0  501    0  0.00000000000E+00  0.00000000000E+00  0.13325673264E+04  0.13325673264E+04  0.25500000920E-02 0.  1.
       -2   -1    0    0    0  501  0.00000000000E+00  0.00000000000E+00 -0.14681895445E+04  0.14681895445E+04  0.25500000920E-02 0. -1.
    10030    2    1    2    0    0  0.00000000000E+00  0.00000000000E+00 -0.13562221812E+03  0.28007568709E+04  0.27974712981E+04 0.  0.
        2    1    3    3  502    0 -0.95744401608E+03  0.23183603425E+03  0.92633771926E+03  0.13522383521E+04  0.25500000920E-02 0.  1.
       -2    1    3    3    0  502  0.95744401608E+03 -0.23183603425E+03 -0.10619599374E+04  0.14485185188E+04  0.25500000920E-02 0. -1.
</event>
<event>
 5   0  0.1499888E-06  0.2805650E+04  0.7818609E-02  0.8301517E-01
       -2   -1    0    0    0  501  0.00000000000E+00  0.00000000000E+00  0.96768419154E+03  0.96768419154E+03  0.25500000920E-02 0.  1.
        2   -1    0    0  501    0  0.00000000000E+00  0.00000000000E+00 -0.20336361058E+04  0.20336361058E+04  0.25500000920E-02 0. -1.
    10030    2    1    2    0    0  0.00000000000E+00  0.00000000000E+00 -0.10659519143E+04  0.30013202973E+04  0.28056496652E+04 0.  0.
        3    1    3    3  502    0  0.85068474359E+03 -0.10500511206E+04 -0.93558216483E+03  0.16436501715E+04  0.10100000352E+00 0. -1.
       -3    1    3    3    0  502 -0.85068474359E+03  0.10500511206E+04 -0.13036974943E+03  0.13576701259E+04  0.10100000352E+00 0.  1.
</event>
<event>
 5   0  0.1394410E-06  0.2797923E+04  0.7818609E-02  0.8303913E-01
        2   -1    0    0  501    0  0.00000000000E+00  0.00000000000E+00  0.16032656139E+04  0.16032656139E+04  0.25500000920E-02 0.  1.
       -2   -1    0    0    0  501  0.00000000000E+00  0.00000000000E+00 -0.12206922311E+04  0.12206922311E+04  0.25500000920E-02 0. -1.
    10030    2    1    2    0    0  0.00000000000E+00  0.00000000000E+00  0.38257338280E+03  0.28239578450E+04  0.27979234294E+04 0.  0.
        4    1    3    3  502    0  0.47679482955E+03  0.56455074164E+03 -0.10076389957E+04  0.12495554441E+04  0.12699999809E+01 0. -1.
       -4    1    3    3    0  502 -0.47679482955E+03 -0.56455074164E+03  0.13902123785E+04  0.15744024008E+04  0.12699999809E+01 0.  1.
</event>
<event>
 5   0  0.1461146E-06  0.2801113E+04  0.7818609E-02  0.8302923E-01
       -2   -1    0    0    0  501  0.00000000000E+00  0.00000000000E+00  0.14829155963E+04  0.14829155963E+04  0.25500000920E-02 0. -1.
        2   -1    0    0  501    0  0.00000000000E+00  0.00000000000E+00 -0.13227715547E+04  0.13227715547E+04  0.25500000920E-02 0.  1.
    10030    2    1    2    0    0  0.00000000000E+00  0.00000000000E+00  0.16014404164E+03  0.28056871510E+04  0.28011130422E+04 0.  0.
        1    1    3    3  502    0  0.38680276430E+03  0.72191862832E+03  0.12180503595E+04  0.14677975211E+04  0.50400001928E-02 0. -1.
       -1    1    3    3    0  502 -0.38680276430E+03 -0.72191862832E+03 -0.10579063179E+04  0.13378896299E+04  0.50400001928E-02 0.  1.
</event>
<event>
 5   0  0.5362952E-07  0.2805362E+04  0.7818609E-02  0.8301606E-01
        1   -1    0    0  501    0  0.00000000000E+00  0.00000000000E+00  0.12672683014E+04  0.12672683014E+04  0.50400001928E-02 0.  1.
       -1   -1    0    0    0  501  0.00000000000E+00  0.00000000000E+00 -0.15525630825E+04  0.15525630825E+04  0.50400001928E-02 0. -1.
    10030    2    1    2    0    0  0.00000000000E+00  0.00000000000E+00 -0.28529478113E+03  0.28198313839E+04  0.28053619948E+04 0.  0.
        1    1    3    3  502    0 -0.83457030654E+03  0.63349506429E+03 -0.10800292952E+04  0.15047547546E+04  0.50400001928E-02 0. -1.
       -1    1    3    3    0  502  0.83457030654E+03 -0.63349506429E+03  0.79473451407E+03  0.13150766293E+04  0.50400001928E-02 0.  1.
</event>
<event>
 5   0  0.5551565E-07  0.2759434E+04  0.7818609E-02  0.8315974E-01
        1   -1    0    0  501    0  0.00000000000E+00  0.00000000000E+00  0.21491106905E+04  0.21491106905E+04  0.50400001928E-02 0.  1.
       -1   -1    0    0    0  501  0.00000000000E+00  0.00000000000E+00 -0.88577050214E+03  0.88577050215E+03  0.50400001928E-02 0. -1.
    10030    2    1    2    0    0  0.00000000000E+00  0.00000000000E+00  0.12633401884E+04  0.30348811927E+04  0.27594338952E+04 0.  0.
        3    1    3    3  502    0  0.82167981385E+03 -0.13632945057E+03  0.18414100492E+04  0.20210231110E+04  0.10100000352E+00 0.  1.
       -3    1    3    3    0  502 -0.82167981385E+03  0.13632945057E+03 -0.57806986084E+03  0.10138580817E+04  0.10100000352E+00 0. -1.
</event>
<event>
 5   0  0.5362952E-07  0.2800178E+04  0.7818609E-02  0.8303213E-01
       -1   -1    0    0    0  501  0.00000000000E+00  0.00000000000E+00  0.11201138141E+04  0.11201138141E+04  0.50400001928E-02 0. -1.
        1   -1    0    0  501    0  0.00000000000E+00  0.00000000000E+00 -0.17500449896E+04  0.17500449896E+04  0.50400001928E-02 0.  1.
    10030    2    1    2    0    0  0.00000000000E+00  0.00000000000E+00 -0.62993117554E+03  0.28701588037E+04  0.28001782572E+04 0.  0.
        1    1    3    3  502    0  0.59976558684E+03  0.11538641173E+04  0.21677525372E+03  0.13183750115E+04  0.50400001928E-02 0. -1.
       -1    1    3    3    0  502 -0.59976558684E+03 -0.11538641173E+04 -0.84670642926E+03  0.15517837922E+04  0.50400001928E-02 0.  1.
</event>
<event>
 5   0  0.1394410E-06  0.2794797E+04  0.7818609E-02  0.8304886E-01
        2   -1    0    0  501    0  0.00000000000E+00  0.00000000000E+00  0.11502078585E+04  0.11502078585E+04  0.25500000920E-02 0.  1.
       -2   -1    0    0    0  501  0.00000000000E+00  0.00000000000E+00 -0.16977127165E+04  0.16977127165E+04  0.25500000920E-02 0. -1.
    10030    2    1    2    0    0  0.00000000000E+00  0.00000000000E+00 -0.54750485803E+03  0.28479205750E+04  0.27947969572E+04 0.  0.
        4    1    3    3  502    0  0.12461978816E+04  0.61858399163E+03 -0.40687084571E+03  0.14495519352E+04  0.12699999809E+01 0. -1.
       -4    1    3    3    0  502 -0.12461978816E+04 -0.61858399163E+03 -0.14063401232E+03  0.13983686399E+04  0.12699999809E+01 0.  1.
</event>
<event>
 5   0  0.1377807E-06  0.2798536E+04  0.7818609E-02  0.8303723E-01
       -2   -1    0    0    0  501  0.00000000000E+00  0.00000000000E+00  0.12839498914E+04  0.12839498914E+04  0.25500000920E-02 0.  1.
        2   -1    0    0  501    0  0.00000000000E+00  0.00000000000E+00 -0.15249429793E+04  0.15249429793E+04  0.25500000920E-02 0. -1.
    10030    2    1    2    0    0  0.00000000000E+00  0.00000000000E+00 -0.24099308793E+03  0.28088928707E+04  0.27985355975E+04 0.  0.
        2    1    3    3  502    0 -0.56306912641E+03 -0.10463099603E+04  0.62125068933E+03  0.13408071424E+04  0.25500000920E-02 0.  1.
       -2    1    3    3    0  502  0.56306912641E+03  0.10463099603E+04 -0.86224377727E+03  0.14680857283E+04  0.25500000920E-02 0. -1.
</event>
<event>
 5   0  0.1377807E-06  0.2797347E+04  0.7818609E-02  0.8304093E-01
       -2   -1    0    0    0  501  0.00000000000E+00  0.00000000000E+00  0.19417249008E+04  0.19417249008E+04  0.25500000920E-02 0.  1.
        2   -1    0    0  501    0  0.00000000000E+00  0.00000000000E+00 -0.10074996923E+04  0.10074996923E+04  0.25500000920E-02 0. -1.
    10030    2    1    2    0    0  0.00000000000E+00  0.00000000000E+00  0.93422520850E+03  0.29492245931E+04  0.27973467716E+04 0.  0.
        2    1    3    3  502    0  0.54355894833E+03 -0.12325536041E+04  0.86390045569E+03  0.16003026947E+04  0.25500000920E-02 0.  1.
       -2    1    3    3    0  502 -0.54355894833E+03  0.12325536041E+04  0.70324752807E+02  0.13489218984E+04  0.25500000920E-02 0. -1.
</event>
<event>
 5   0  0.1461146E-06  0.2798891E+04  0.7818609E-02  0.8303613E-01
        2   -1    0    0  501    0  0.00000000000E+00  0.00000000000E+00  0.18235127413E+04  0.18235127413E+04  0.25500000920E-02 0. -1.
       -2   -1    0    0    0  501  0.00000000000E+00  0.00000000000E+00 -0.10739972862E+04  0.10739972862E+04  0.25500000920E-02 0.  1.
    10030    2    1    2    0    0  0.00000000000E+00  0.00000000000E+00  0.74951545512E+03  0.28975100275E+04  0.27988910201E+04 0.  0.
        1    1    3    3  502    0  0.25422064533E+03 -0.39506135101E+03 -0.98992634737E+03  0.10957443958E+04  0.50400001928E-02 0.  1.
       -1    1    3    3    0  502 -0.25422064533E+03  0.39506135101E+03  0.17394418025E+04  0.18017656318E+04  0.50400001928E-02 0. -1.
</event>
<event>
 5   0  0.1439207E-06  0.2799971E+04  0.7818609E-02  0.8303277E-01
        2   -1    0    0  501    0  0.00000000000E+00  0.00000000000E+00  0.14404563054E+04  0.14404563054E+04  0.25500000920E-02 0. -1.
       -2   -1    0    0    0  501  0.00000000000E+00  0.00000000000E+00 -0.13606514547E+04  0.13606514547E+04  0.25500000920E-02 0.  1.
    10030    2    1    2    0    0  0.00000000000E+00  0.00000000000E+00  0.79804850707E+02  0.28011077600E+04  0.27999706907E+04 0.  0.
        5    1    3    3  502    0  0.34006220928E+03 -0.10983940209E+03  0.13940509835E+04  0.14391341964E+04  0.46999998093E+01 0. -1.
       -5    1    3    3    0  502 -0.34006220928E+03  0.10983940209E+03 -0.13142461328E+04  0.13619735637E+04  0.46999998093E+01 0.  1.
</event>
<event>
 5   0  0.5214658E-07  0.2803714E+04  0.7818609E-02  0.8302116E-01
       -1   -1    0    0    0  501  0.00000000000E+00  0.00000000000E+00  0.31009929899E+04  0.31009929899E+04  0.50400001928E-02 0. -1.
        1   -1    0    0  501    0  0.00000000000E+00  0.00000000000E+00 -0.63373331269E+03  0.63373331271E+03  0.50400001928E-02 0.  1.
    10030    2    1    2    0    0  0.00000000000E+00  0.00000000000E+00  0.24672596772E+04  0.37347263026E+04  0.28037136517E+04 0.  0.
        2    1    3    3  502    0 -0.12286283762E+04 -0.24467662232E+03  0.39558446920E+03  0.13137280573E+04  0.25500000920E-02 0.  1.
       -2    1    3    3    0  502  0.12286283762E+04  0.24467662232E+03  0.20716752080E+04  0.24209982453E+04  0.25500000920E-02 0. -1.
</event>
<event>
 5   0  0.5551565E-07  0.2803910E+04  0.7818609E-02  0.8302055E-01
        1   -1    0    0  501    0  0.00000000000E+00  0.00000000000E+00  0.19277549449E+04  0.19277549450E+04  0.50400001928E-02 0.  1.
       -1   -1    0    0    0  501  0.00000000000E+00  0.00000000000E+00 -0.10195686223E+04  0.10195686223E+04  0.50400001928E-02 0. -1.
    10030    2    1    2    0    0  0.00000000000E+00  0.00000000000E+00  0.90818632264E+03  0.29473235673E+04  0.28039104503E+04 0.  0.
        3    1    3    3  502    0  0.11301115973E+04 -0.81631163666E+03  0.60986717129E+03  0.15216618834E+04  0.10100000352E+00 0. -1.
       -3    1    3    3    0  502 -0.11301115973E+04  0.81631163666E+03  0.29831915135E+03  0.14256616839E+04  0.10100000352E+00 0.  1.
</event>
<event>
 5   0  0.5362952E-07  0.2805128E+04  0.7818609E-02  0.8301678E-01
       -1   -1    0    0    0  501  0.00000000000E+00  0.00000000000E+00  0.10035597120E+04  0.10035597120E+04  0.50400001928E-02 0. -1.
        1   -1    0    0  501    0  0.00000000000E+00  0.00000000000E+00 -0.19602081610E+04  0.19602081610E+04  0.50400001928E-02 0.  1.
    10030    2    1    2    0    0  0.00000000000E+00  0.00000000000E+00 -0.95664844908E+03  0.29637678730E+04  0.28051281165E+04 0.  0.
        1    1    3    3  502    0  0.21678966139E+03  0.93595345698E+03 -0.15579643720E+04  0.18303714419E+04  0.50400001928E-02 0.  1.
       -1    1    3    3    0  502 -0.21678966139E+03 -0.93595345698E+03  0.60131592290E+03  0.11333964311E+04  0.50400001928E-02 0. -1.
</event>
<event>
 5   0  0.5214658E-07  0.2813760E+04  0.7818609E-02  0.8299009E-01
       -1   -1    0    0    0  501  0.00000000000E+00  0.00000000000E+00  0.14729771159E+04  0.14729771159E+04  0.50400001928E-02 0. -1.
        1   -1    0    0  501    0  0.00000000000E+00  0.00000000000E+00 -0.13437489177E+04  0.13437489177E+04  0.50400001928E-02 0.  1.
    10030    2    1    2    0    0  0.00000000000E+00  0.00000000000E+00  0.12922819822E+03  0.28167260336E+04  0.28137600504E+04 0.  0.
        2    1    3    3  502    0  0.94732807757E+02 -0.13592599025E+04  0.41533982509E+03  0.14244539156E+04  0.25500000920E-02 0. -1.
       -2    1    3    3    0  502 -0.94732807757E+02  0.13592599025E+04 -0.28611162687E+03  0.13922721180E+04  0.25500000920E-02 0.  1.
</event>
<event>
 5   0  0.1499888E-06  0.2802939E+04  0.7818609E-02  0.8302357E-01
        2   -1    0    0  501    0  0.00000000000E+00  0.00000000000E+00  0.24321611552E+04  0.24321611552E+04  0.25500000920E-02 0. -1.
       -2   -1    0    0    0  501  0.00000000000E+00  0.00000000000E+00 -0.80756022309E+03  0.80756022309E+03  0.25500000920E-02 0.  1.
    10030    2    1    2    0    0  0.00000000000E+00  0.00000000000E+00  0.16246009321E+04  0.32397213782E+04  0.28029388898E+04 0.  0.
        3    1    3    3  502    0  0.10540998860E+04 -0.39219608956E+03  0.17787654521E+04  0.21045072787E+04  0.10100000352E+00 0. -1.
       -3    1    3    3    0  502 -0.10540998860E+04  0.39219608956E+03 -0.15416452006E+03  0.11352140995E+04  0.10100000352E+00 0.  1.
</event>
<event>
 5   0  0.5214658E-07  0.2800617E+04  0.7818609E-02  0.8303077E-01
        1   -1    0    0  501    0  0.00000000000E+00  0.00000000000E+00  0.19687957277E+04  0.19687957277E+04  0.50400001928E-02 0. -1.
       -1   -1    0    0    0  501  0.00000000000E+00  0.00000000000E+00 -0.99597102408E+03  0.99597102409E+03  0.50400001928E-02 0.  1.
    10030    2    1    2    0    0  0.00000000000E+00  0.00000000000E+00  0.97282470365E+03  0.29647667518E+04  0.28006167158E+04 0.  0.
        2    1    3    3  502    0 -0.55573106640E+03 -0.12852262368E+04  0.47071062656E+03  0.14772311911E+04  0.25500000920E-02 0. -1.
       -2    1    3    3    0  502  0.55573106640E+03  0.12852262368E+04  0.50211407709E+03  0.14875355607E+04  0.25500000920E-02 0.  1.
</event>
<event>
 5   0  0.1439207E-06  0.2799512E+04  0.7818609E-02  0.8303420E-01
       -2   -1    0    0    0  501  0.00000000000E+00  0.00000000000E+00  0.87192123818E+03  0.87192123818E+03  0.25500000920E-02 0.  1.
        2   -1    0    0  501    0  0.00000000000E+00  0.00000000000E+00 -0.22471257159E+04  0.22471257159E+04  0.25500000920E-02 0. -1.
    10030    2    1    2    0    0  0.00000000000E+00  0.00000000000E+00 -0.13752044777E+04  0.31190469540E+04  0.27995118407E+04 0.  0.
        5    1    3    3  502    0  0.61100323374E+01 -0.11078662227E+04  0.26555029293E+03  0.11392734298E+04  0.46999998093E+01 0.  1.
       -5    1    3    3    0  502 -0.61100323374E+01  0.11078662227E+04 -0.16407547706E+04  0.19797735242E+04  0.46999998093E+01 0. -1.
</event>
<event>
 5   0  0.1394410E-06  0.2782719E+04  0.7818609E-02  0.8308654E-01
       -2   -1    0    0    0  501  0.00000000000E+00  0.00000000000E+00  0.10966332244E+04  0.10966332244E+04  0.25500000920E-02 0.  1.
        2   -1    0    0  501    0  0.00000000000E+00  0.00000000000E+00 -0.17652953714E+04  0.17652953714E+04  0.25500000920E-02 0. -1.
    10030    2    1    2    0    0  0.00000000000E+00  0.00000000000E+00 -0.66866214702E+03  0.28619285958E+04  0.27827192134E+04 0.  0.
        4    1    3    3  502    0 -0.49944691068E+03  0.18806925286E+03  0.98718116079E+03  0.11222056485E+04  0.12699999809E+01 0.  1.
       -4    1    3    3    0  502  0.49944691068E+03 -0.18806925286E+03 -0.16558433078E+04  0.17397229473E+04  0.12699999809E+01 0. -1.
</event>
<event>
 5   0  0.5297741E-07  0.2799360E+04  0.7818609E-02  0.8303467E-01
       -1   -1    0    0    0  501  0.00000000000E+00  0.00000000000E+00  0.12816369400E+04  0.12816369400E+04  0.50400001928E-02 0. -1.
        1   -1    0    0  501    0  0.00000000000E+00  0.00000000000E+00 -0.15285950112E+04  0.15285950112E+04  0.50400001928E-02 0.  1.
    10030    2    1    2    0    0  0.00000000000E+00  0.00000000000E+00 -0.24695807123E+03  0.28102319512E+04  0.27993598072E+04 0.  0.
        5    1    3    3  502    0 -0.15131901368E+03 -0.13415131507E+04  0.24745129324E+03  0.13725192931E+04  0.46999998093E+01 0.  1.
       -5    1    3    3    0  502  0.15131901368E+03  0.13415131507E+04 -0.49440936447E+03  0.14377126581E+04  0.46999998093E+01 0. -1.
</event>
<event>
 5   0  0.5551565E-07  0.2806542E+04  0.7818609E-02  0.8301240E-01
        1   -1    0    0  501    0  0.00000000000E+00  0.00000000000E+00  0.22379035205E+04  0.22379035205E+04  0.50400001928E-02 0. -1.
       -1   -1    0    0    0  501  0.00000000000E+00  0.00000000000E+00 -0.87991724211E+03  0.87991724212E+03  0.50400001928E-02 0.  1.
    10030    2    1    2    0    0  0.00000000000E+00  0.00000000000E+00  0.13579862784E+04  0.31178207626E+04  0.28065422811E+04 0.  0.
        3    1    3    3  502    0 -0.74299267359E+03 -0.11837361120E+04  0.53890990994E+03  0.14978962571E+04  0.10100000352E+00 0.  1.
       -3    1    3    3    0  502  0.74299267359E+03  0.11837361120E+04  0.81907636844E+03  0.16199245055E+04  0.10100000352E+00 0. -1.
</event>
<event>
 5   0  0.5362952E-07  0.2803544E+04  0.7818609E-02  0.8302169E-01
       -1   -1    0    0    0  501  0.00000000000E+00  0.00000000000E+00  0.12424008577E+04  0.12424008577E+04  0.50400001928E-02 0.  1.
        1   -1    0    0  501    0  0.00000000000E+00  0.00000000000E+00 -0.15815866057E+04  0.15815866057E+04  0.50400001928E-02 0. -1.
    10030    2    1    2    0    0  0.00000000000E+00  0.00000000000E+00 -0.33918574806E+03  0.28239874634E+04  0.28035438684E+04 0.  0.
        1    1    3    3  502    0  0.58790334394E+03 -0.36796554860E+03 -0.13966447694E+04  0.15593734635E+04  0.50400001928E-02 0. -1.
       -1    1    3    3    0  502 -0.58790334394E+03  0.36796554860E+03  0.10574590214E+04  0.12646139999E+04  0.50400001928E-02 0.  1.
</event>
<event>
 5   0  0.5297741E-07  0.2795129E+04  0.7818609E-02  0.8304782E-01
        1   -1    0    0  501    0  0.00000000000E+00  0.00000000000E+00  0.10145303473E+04  0.10145303473E+04  0.50400001928E-02 0.  1.
       -1   -1    0    0    0  501  0.00000000000E+00  0.00000000000E+00 -0.19252127135E+04  0.19252127135E+04  0.50400001928E-02 0. -1.
    10030    2    1    2    0    0  0.00000000000E+00  0.00000000000E+00 -0.91068236620E+03  0.29397430609E+04  0.27951291369E+04 0.  0.
        5    1    3    3  502    0  0.23805324269E+03  0.43323228287E+03  0.91950388215E+03  0.10439679289E+04  0.46999998093E+01 0.  1.
       -5    1    3    3    0  502 -0.23805324269E+03 -0.43323228287E+03 -0.18301862484E+04  0.18957751320E+04  0.46999998093E+01 0. -1.
</event>
<event>
 5   0  0.1377807E-06  0.2800337E+04  0.7818609E-02  0.8303164E-01
        2   -1    0    0  501    0  0.00000000000E+00  0.00000000000E+00  0.29518275493E+04  0.29518275493E+04  0.25500000920E-02 0.  1.
       -2   -1    0    0    0  501  0.00000000000E+00  0.00000000000E+00 -0.66415529143E+03  0.66415529143E+03  0.25500000920E-02 0. -1.
    10030    2    1    2    0    0  0.00000000000E+00  0.00000000000E+00  0.22876722579E+04  0.36159828408E+04  0.28003370413E+04 0.  0.
        2    1    3    3  502    0  0.39595561603E+03  0.43503552957E+03 -0.49685320479E+03  0.76999991491E+03  0.25500000920E-02 0. -1.
       -2    1    3    3    0  502 -0.39595561603E+03 -0.43503552957E+03  0.27845254627E+04  0.28459829258E+04  0.25500000920E-02 0.  1.
</event>
<event>
 5   0  0.5214658E-07  0.2793810E+04  0.7818609E-02  0.8305193E-01
       -1   -1    0    0    0  501  0.00000000000E+00  0.00000000000E+00  0.10023742241E+04  0.10023742241E+04  0.50400001928E-02 0. -1.
        1   -1    0    0  501    0  0.00000000000E+00  0.00000000000E+00 -0.19467209466E+04  0.19467209466E+04  0.50400001928E-02 0.  1.
    10030    2    1    2    0    0  0.00000000000E+00  0.00000000000E+00 -0.94434672251E+03  0.29490951708E+04  0.27938095128E+04 0.  0.
        2    1    3    3  502    0 -0.13279859170E+04 -0.40656329418E+03 -0.31382693866E+03  0.14238425669E+04  0.25500000920E-02 0. -1.
       -2    1    3    3    0  502  0.13279859170E+04  0.40656329418E+03 -0.63051978384E+03  0.15252526039E+04  0.25500000920E-02 0.  1.
</event>
<event>
 5   0  0.1439207E-06  0.2795125E+04  0.7818609E-02  0.8304783E-01
        2   -1    0    0  501    0  0.00000000000E+00  0.00000000000E+00  0.15229198541E+04  0.15229198541E+04  0.25500000920E-02 0.  1.
       -2   -1    0    0    0  501  0.00000000000E+00  0.00000000000E+00 -0.12825239325E+04  0.12825239325E+04  0.25500000920E-02 0. -1.
    10030    2    1    2    0    0  0.00000000000E+00  0.00000000000E+00  0.24039592165E+03  0.28054437866E+04  0.27951251565E+04 0.  0.
        5    1    3    3  502    0 -0.40927864657E+03 -0.12454830652E+03  0.14555748249E+04  0.15171491200E+04  0.46999998093E+01 0.  1.
       -5    1    3    3    0  502  0.40927864657E+03  0.12454830652E+03 -0.12151789033E+04  0.12882946667E+04  0.46999998093E+01 0. -1.
</event>
<event>
 5   0  0.5362952E-07  0.2804523E+04  0.7818609E-02  0.8301865E-01
        1   -1    0    0  501    0  0.00000000000E+00  0.00000000000E+00  0.20458230303E+04  0.20458230303E+04  0.50400001928E-02 0. -1.
       -1   -1    0    0    0  501  0.00000000000E+00  0.00000000000E+00 -0.96114759350E+03  0.96114759351E+03  0.50400001928E-02 0.  1.
    10030    2    1    2    0    0  0.00000000000E+00  0.00000000000E+00  0.10846754368E+04  0.30069706238E+04  0.28045234050E+04 0.  0.
        1    1    3    3  502    0  0.13031032661E+04 -0.48674016419E+03  0.35251606500E+03  0.14350127824E+04  0.50400001928E-02 0.  1.
       -1    1    3    3    0  502 -0.13031032661E+04  0.48674016419E+03  0.73215937178E+03  0.15719578414E+04  0.50400001928E-02 0. -1.
</event>
<event>
 5   0  0.1499888E-06  0.2808974E+04  0.7818609E-02  0.8300488E-01
       -2   -1    0    0    0  501  0.00000000000E+00  0.00000000000E+00  0.90114153229E+03  0.90114153230E+03  0.25500000920E-02 0. -1.
        2   -1    0    0  501    0  0.00000000000E+00  0.00000000000E+00 -0.21889831849E+04  0.21889831849E+04  0.25500000920E-02 0.  1.
    10030    2    1    2    0    0  0.00000000000E+00  0.00000000000E+00 -0.12878416526E+04  0.30901247172E+04  0.28089739489E+04 0.  0.
        3    1    3    3  502    0  0.38481105950E+03 -0.10627709170E+04  0.27320219814E+03  0.11628417884E+04  0.10100000352E+00 0. -1.
       -3    1    3    3    0  502 -0.38481105950E+03  0.10627709170E+04 -0.15610438507E+04  0.19272829288E+04  0.10100000352E+00 0.  1.
</event>
<event>
 5   0  0.1439207E-06  0.2795193E+04  0.7818609E-02  0.8304762E-01
       -2   -1    0    0    0  501  0.00000000000E+00  0.00000000000E+00  0.17600036904E+04  0.17600036904E+04  0.25500000920E-02 0. -1.
        2   -1    0    0  501    0  0.00000000000E+00  0.00000000000E+00 -0.11098138771E+04  0.11098138771E+04  0.25500000920E-02 0.  1.
    10030    2    1    2    0    0  0.00000000000E+00  0.00000000000E+00  0.65018981325E+03  0.28698175675E+04  0.27951933882E+04 0.  0.
        5    1    3    3  502    0  0.48403486285E+02  0.97656649321E+03  0.13503689671E+04  0.16671962844E+04  0.46999998093E+01 0. -1.
       -5    1    3    3    0  502 -0.48403486285E+02 -0.97656649321E+03 -0.70017915389E+03  0.12026212832E+04  0.46999998093E+01 0.  1.
</event>
<event>
 5   0  0.1439207E-06  0.2798630E+04  0.7818609E-02  0.8303694E-01
       -2   -1    0    0    0  501  0.00000000000E+00  0.00000000000E+00  0.11042242890E+04  0.11042242890E+04  0.25500000920E-02 0.  1.
        2   -1    0    0  501    0  0.00000000000E+00  0.00000000000E+00 -0.17732650121E+04  0.17732650121E+04  0.25500000920E-02 0. -1.
    10030    2    1    2    0    0  0.00000000000E+00  0.00000000000E+00 -0.66904072307E+03  0.28774893011E+04  0.27986298770E+04 0.  0.
        5    1    3    3  502    0 -0.69827654081E+03 -0.12363234557E+03 -0.15748221627E+04  0.17271253627E+04  0.46999998093E+01 0. -1.
       -5    1    3    3    0  502  0.69827654081E+03  0.12363234557E+03  0.90578143964E+03  0.11503639384E+04  0.46999998093E+01 0.  1.
</event>
<event>
 5   0  0.1499888E-06  0.2799570E+04  0.7818609E-02  0.8303402E-01
        2   -1    0    0  501    0  0.00000000000E+00  0.00000000000E+00  0.12775791973E+04  0.12775791973E+04  0.25500000920E-02 0.  1.
       -2   -1    0    0    0  501  0.00000000000E+00  0.00000000000E+00 -0.15336803449E+04  0.15336803449E+04  0.25500000920E-02 0. -1.
    10030    2    1    2    0    0  0.00000000000E+00  0.00000000000E+00 -0.25610114759E+03  0.28112595421E+04  0.27995700412E+04 0.  0.
        3    1    3    3  502    0 -0.85821474907E+03 -0.27529880694E+03  0.94743780421E+03  0.13076545384E+04  0.10100000352E+00 0.  1.
       -3    1    3    3    0  502  0.85821474907E+03  0.27529880694E+03 -0.12035389518E+04  0.15036050038E+04  0.10100000352E+00 0. -1.
</event>
<event>
 5   0  0.5362952E-07  0.2797373E+04  0.7818609E-02  0.8304084E-01
       -1   -1    0    0    0  501  0.00000000000E+00  0.00000000000E+00  0.12332672417E+04  0.12332672417E+04  0.50400001928E-02 0.  1.
        1   -1    0    0  501    0  0.00000000000E+00  0.00000000000E+00 -0.15862936836E+04  0.15862936836E+04  0.50400001928E-02 0. -1.
    10030    2    1    2    0    0  0.00000000000E+00  0.00000000000E+00 -0.35302644187E+03  0.28195609253E+04  0.27973730790E+04 0.  0.
        1    1    3    3  502    0  0.71146630003E+02  0.59954367787E+03 -0.14481897276E+04  0.15690022154E+04  0.50400001928E-02 0. -1.
       -1    1    3    3    0  502 -0.71146630003E+02 -0.59954367787E+03  0.10951632857E+04  0.12505587100E+04  0.50400001928E-02 0.  1.
</event>
<event>
 5   0  0.5282098E-07  0.2798249E+04  0.7818609E-02  0.8303812E-01
        1   -1    0    0  501    0  0.00000000000E+00  0.00000000000E+00  0.66067470618E+03  0.66067470620E+03  0.50400001928E-02 0. -1.
       -1   -1    0    0    0  501  0.00000000000E+00  0.00000000000E+00 -0.29629539109E+04  0.29629539109E+04  0.50400001928E-02 0.  1.
    10030    2    1    2    0    0  0.00000000000E+00  0.00000000000E+00 -0.23022792047E+04  0.36236286171E+04  0.27982485269E+04 0.  0.
        4    1    3    3  502    0 -0.80644375605E+03  0.10331059706E+04 -0.17853908188E+04  0.22147870027E+04  0.12699999809E+01 0.  1.
       -4    1    3    3    0  502  0.80644375605E+03 -0.10331059706E+04 -0.51688838586E+03  0.14088416144E+04  0.12699999809E+01 0. -1.
</event>
<event>
 5   0  0.5297741E-07  0.2799956E+04  0.7818609E-02  0.8303282E-01
       -1   -1    0    0    0  501  0.00000000000E+00  0.00000000000E+00  0.12781324403E+04  0.12781324403E+04  0.50400001928E-02 0.  1.
        1   -1    0    0  501    0  0.00000000000E+00  0.00000000000E+00 -0.15334394079E+04  0.15334394079E+04  0.50400001928E-02 0. -1.
    10030    2    1    2    0    0  0.00000000000E+00  0.00000000000E+00 -0.25530696754E+03  0.28115718482E+04  0.27999561800E+04 0.  0.
        5    1    3    3  502    0  0.17500947245E+03 -0.44695822325E+03 -0.14482201122E+04  0.15257010035E+04  0.46999998093E+01 0. -1.
       -5    1    3    3    0  502 -0.17500947245E+03  0.44695822325E+03  0.11929131446E+04  0.12858708447E+04  0.46999998093E+01 0.  1.
</event>
<event>
 5   0  0.1377807E-06  0.2797048E+04  0.7818609E-02  0.8304185E-01
        2   -1    0    0  501    0  0.00000000000E+00  0.00000000000E+00  0.15427346127E+04  0.15427346127E+04  0.25500000920E-02 0. -1.
       -2   -1    0    0    0  501  0.00000000000E+00  0.00000000000E+00 -0.12677938375E+04  0.12677938375E+04  0.25500000920E-02 0.  1.
    10030    2    1    2    0    0  0.00000000000E+00  0.00000000000E+00  0.27494077516E+03  0.28105284502E+04  0.27970480402E+04 0.  0.
        2    1    3    3  502    0 -0.72186133656E+03  0.51724652646E+03 -0.94812615909E+03  0.12990654225E+04  0.25500000920E-02 0.  1.
       -2    1    3    3    0  502  0.72186133656E+03 -0.51724652646E+03  0.12230669342E+04  0.15114630277E+04  0.25500000920E-02 0. -1.
</event>
<event>
 5   0  0.5551565E-07  0.2791402E+04  0.7818609E-02  0.8305943E-01
        1   -1    0    0  501    0  0.00000000000E+00  0.00000000000E+00  0.21375203523E+04  0.21375203523E+04  0.50400001928E-02 0.  1.
       -1   -1    0    0    0  501  0.00000000000E+00  0.00000000000E+00 -0.91132750184E+03  0.91132750186E+03  0.50400001928E-02 0. -1.
    10030    2    1    2    0    0  0.00000000000E+00  0.00000000000E+00  0.12261928505E+04  0.30488478542E+04  0.27914018577E+04 0.  0.
        3    1    3    3  502    0  0.42715995287E+03 -0.21433261558E+03  0.20453641325E+04  0.21004567456E+04  0.10100000352E+00 0.  1.
       -3    1    3    3    0  502 -0.42715995287E+03  0.21433261558E+03 -0.81917128199E+03  0.94839110860E+03  0.10100000352E+00 0. -1.
</event>
<event>
 5   0  0.5282098E-07  0.2805691E+04  0.7818609E-02  0.8301504E-01
        1   -1    0    0  501    0  0.00000000000E+00  0.00000000000E+00  0.14821087069E+04  0.14821087069E+04  0.50400001928E-02 0.  1.
       -1   -1    0    0    0  501  0.00000000000E+00  0.00000000000E+00 -0.13278212964E+04  0.13278212964E+04  0.50400001928E-02 0. -1.
    10030    2    1    2    0    0  0.00000000000E+00  0.00000000000E+00  0.15428741051E+03  0.28099300033E+04  0.28056910055E+04 0.  0.
        4    1    3    3  502    0  0.94444373288E+03  0.16829505255E+03 -0.94796354437E+03  0.13486784953E+04  0.12699999809E+01 0. -1.
       -4    1    3    3    0  502 -0.94444373288E+03 -0.16829505255E+03  0.11022509549E+04  0.14612515080E+04  0.12699999809E+01 0.  1.
</event>
<event>
 5   0  0.1394410E-06  0.2802171E+04  0.7818609E-02  0.8302595E-01
        2   -1    0    0  501    0  0.00000000000E+00  0.00000000000E+00  0.64082886154E+03  0.64082886154E+03  0.25500000920E-02 0.  1.
       -2   -1    0    0    0  501  0.00000000000E+00  0.00000000000E+00 -0.30632834821E+04  0.30632834821E+04  0.25500000920E-02 0. -1.
    10030    2    1    2    0    0  0.00000000000E+00  0.00000000000E+00 -0.24224546206E+04  0.37041123437E+04  0.28021709201E+04 0.  0.
        4    1    3    3  502    0  0.32158137189E+03  0.74620948227E+03  0.29755882227E+03  0.86532423737E+03  0.12699999809E+01 0.  1.
       -4    1    3    3    0  502 -0.32158137189E+03 -0.74620948227E+03 -0.27200134428E+04  0.28387881063E+04  0.12699999809E+01 0. -1.
</event>
<event>
 5   0  0.5282098E-07  0.2794143E+04  0.7818609E-02  0.8305089E-01
       -1   -1    0    0    0  501  0.00000000000E+00  0.00000000000E+00  0.11182839033E+04  0.11182839033E+04  0.50400001928E-02 0.  1.
        1   -1    0    0  501    0  0.00000000000E+00  0.00000000000E+00 -0.17453609043E+04  0.17453609043E+04  0.50400001928E-02 0. -1.
    10030    2    1    2    0    0  0.00000000000E+00  0.00000000000E+00 -0.62707700100E+03  0.28636448077E+04  0.27941431637E+04 0.  0.
        4    1    3    3  502    0 -0.44093066329E+03 -0.14491206008E+03  0.10369593194E+04  0.11360922489E+04  0.12699999809E+01 0.  1.
       -4    1    3    3    0  502  0.44093066329E+03  0.14491206008E+03 -0.16640363204E+04  0.17275525588E+04  0.12699999809E+01 0. -1.
</event>
<event>
 5   0  0.5282098E-07  0.2798389E+04  0.7818609E-02  0.8303769E-01
        1   -1    0    0  501    0  0.00000000000E+00  0.00000000000E+00  0.14925744201E+04  0.14925744201E+04  0.50400001928E-02 0.  1.
       -1   -1    0    0    0  501  0.00000000000E+00  0.00000000000E+00 -0.13116570151E+04  0.13116570151E+04  0.50400001928E-02 0. -1.
    10030    2    1    2    0    0  0.00000000000E+00  0.00000000000E+00  0.18091740504E+03  0.28042314352E+04  0.27983893286E+04 0.  0.
        4    1    3    3  502    0 -0.33667760801E+03  0.48706315448E+03  0.13608441602E+04  0.14840757290E+04  0.12699999809E+01 0.  1.
       -4    1    3    3    0  502  0.33667760801E+03 -0.48706315448E+03 -0.11799267551E+04  0.13201557062E+04  0.12699999809E+01 0. -1.
</event>
<event>
 5   0  0.5362952E-07  0.2802624E+04  0.7818609E-02  0.8302454E-01
        1   -1    0    0  501    0  0.00000000000E+00  0.00000000000E+00  0.57630540899E+03  0.57630540901E+03  0.50400001928E-02 0.  1.
       -1   -1    0    0    0  501  0.00000000000E+00  0.00000000000E+00 -0.34073522930E+04  0.34073522930E+04  0.50400001928E-02 0. -1.
    10030    2    1    2    0    0  0.00000000000E+00  0.00000000000E+00 -0.28310468840E+04  0.39836577020E+04  0.28026241681E+04 0.  0.
        1    1    3    3  502    0 -0.24478213659E+03 -0.19303279626E+03  0.52639343903E+03  0.61177610896E+03  0.50400001928E-02 0.  1.
       -1    1    3    3    0  502  0.24478213659E+03  0.19303279626E+03 -0.33574403231E+04  0.33718815931E+04  0.50400001928E-02 0. -1.
</event>
<event>
 5   0  0.1461146E-06  0.2808100E+04  0.7818609E-02  0.8300758E-01
       -2   -1    0    0    0  501  0.00000000000E+00  0.00000000000E+00  0.15639122053E+04  0.15639122053E+04  0.25500000920E-02 0. -1.
        2   -1    0    0  501    0  0.00000000000E+00  0.00000000000E+00 -0.12605285884E+04  0.12605285884E+04  0.25500000920E-02 0.  1.
    10030    2    1    2    0    0  0.00000000000E+00  0.00000000000E+00  0.30338361688E+03  0.28244407937E+04  0.28080997450E+04 0.  0.
        1    1    3    3  502    0 -0.11383709144E+04 -0.37506933231E+03 -0.58385763155E+03  0.13332123149E+04  0.50400001928E-02 0. -1.
       -1    1    3    3    0  502  0.11383709144E+04  0.37506933231E+03  0.88724124843E+03  0.14912284787E+04  0.50400001928E-02 0.  1.
</event>
<event>
 5   0  0.5551565E-07  0.2813713E+04  0.7818609E-02  0.8299024E-01
       -1   -1    0    0    0  501  0.00000000000E+00  0.00000000000E+00  0.12998306680E+04  0.12998306680E+04  0.50400001928E-02 0.  1.
        1   -1    0    0  501    0  0.00000000000E+00  0.00000000000E+00 -0.15226943786E+04  0.15226943786E+04  0.50400001928E-02 0. -1.
    10030    2    1    2    0    0  0.00000000000E+00  0.00000000000E+00 -0.22286371060E+03  0.28225250466E+04  0.28137127439E+04 0.  0.
        3    1    3    3  502    0 -0.47970683377E+03 -0.10285926123E+04  0.72251016210E+03  0.13454153087E+04  0.10100000352E+00 0.  1.
       -3    1    3    3    0  502  0.47970683377E+03  0.10285926123E+04 -0.94537387269E+03  0.14771097379E+04  0.10100000352E+00 0. -1.
</event>
<event>
 5   0  0.1377807E-06  0.2799346E+04  0.7818609E-02  0.8303471E-01
        2   -1    0    0  501    0  0.00000000000E+00  0.00000000000E+00  0.21553053840E+04  0.21553053840E+04  0.25500000920E-02 0. -1.
       -2   -1    0    0    0  501  0.00000000000E+00  0.00000000000E+00 -0.90895926571E+03  0.90895926571E+03  0.25500000920E-02 0.  1.
    10030    2    1    2    0    0  0.00000000000E+00  0.00000000000E+00  0.12463461183E+04  0.30642646497E+04  0.27993462088E+04 0.  0.
        2    1    3    3  502    0  0.61479022423E+03  0.55956081527E+03 -0.60945175707E+03  0.10307796903E+04  0.25500000920E-02 0.  1.
       -2    1    3    3    0  502 -0.61479022423E+03 -0.55956081527E+03  0.18557978754E+04  0.20334849594E+04  0.25500000920E-02 0. -1.
</event>
<event>
 5   0  0.1499888E-06  0.2804713E+04  0.7818609E-02  0.8301807E-01
        2   -1    0    0  501    0  0.00000000000E+00  0.00000000000E+00  0.15060925129E+04  0.15060925129E+04  0.25500000920E-02 0. -1.
       -2   -1    0    0    0  501  0.00000000000E+00  0.00000000000E+00 -0.13057657844E+04  0.13057657844E+04  0.25500000920E-02 0.  1.
    10030    2    1    2    0    0  0.00000000000E+00  0.00000000000E+00  0.20032672851E+03  0.28118582974E+04  0.28047132271E+04 0.  0.
        3    1    3    3  502    0 -0.84399004104E+03 -0.36190819863E+03  0.11627253246E+04  0.14816298202E+04  0.10100000352E+00 0. -1.
       -3    1    3    3    0  502  0.84399004104E+03  0.36190819863E+03 -0.96239859604E+03  0.13302284772E+04  0.10100000352E+00 0.  1.
</event>
<event>
 5   0  0.5297741E-07  0.2803276E+04  0.7818609E-02  0.8302252E-01
        1   -1    0    0  501    0  0.00000000000E+00  0.00000000000E+00  0.16158556991E+04  0.16158556991E+04  0.50400001928E-02 0. -1.
       -1   -1    0    0    0  501  0.00000000000E+00  0.00000000000E+00 -0.12158198191E+04  0.12158198191E+04  0.50400001928E-02 0.  1.
    10030    2    1    2    0    0  0.00000000000E+00  0.00000000000E+00  0.40003587995E+03  0.28316755182E+04  0.28032762146E+04 0.  0.
        5    1    3    3  502    0  0.73943612942E+03 -0.65507000040E+03 -0.80438163993E+03  0.12739444288E+04  0.46999998093E+01 0.  1.
       -5    1    3    3    0  502 -0.73943612942E+03  0.65507000040E+03  0.12044175199E+04  0.15577310895E+04  0.46999998093E+01 0. -1.
</event>
<event>
 5   0  0.1394410E-06  0.2800236E+04  0.7818609E-02  0.8303195E-01
       -2   -1    0    0    0  501  0.00000000000E+00  0.00000000000E+00  0.11082157395E+04  0.11082157395E+04  0.25500000920E-02 0. -1.
        2   -1    0    0  501    0  0.00000000000E+00  0.00000000000E+00 -0.17689062862E+04  0.17689062862E+04  0.25500000920E-02 0.  1.
    10030    2    1    2    0    0  0.00000000000E+00  0.00000000000E+00 -0.66069054671E+03  0.28771220257E+04  0.28002355530E+04 0.  0.
        4    1    3    3  502    0 -0.11841409176E+04  0.44357975364E+02  0.43590002205E+03  0.12626035739E+04  0.12699999809E+01 0. -1.
       -4    1    3    3    0  502  0.11841409176E+04 -0.44357975364E+02 -0.10965905688E+04  0.16145184518E+04  0.12699999809E+01 0.  1.
</event>
<event>
 5   0  0.1394410E-06  0.2817023E+04  0.7818609E-02  0.8298003E-01
       -2   -1    0    0    0  501  0.00000000000E+00  0.00000000000E+00  0.15606049334E+04  0.15606049334E+04  0.25500000920E-02 0.  1.
        2   -1    0    0  501    0  0.00000000000E+00  0.00000000000E+00 -0.12712410972E+04  0.12712410972E+04  0.25500000920E-02 0. -1.
    10030    2    1    2    0    0  0.00000000000E+00  0.00000000000E+00  0.28936383618E+03  0.28318460306E+04  0.28170233424E+04 0.  0.
        4    1    3    3  502    0 -0.93976989009E+03  0.63737593631E+03  0.98242636797E+03  0.15015254616E+04  0.12699999809E+01 0.  1.
       -4    1    3    3    0  502  0.93976989009E+03 -0.63737593631E+03 -0.69306253180E+03  0.13303205690E+04  0.12699999809E+01 0. -1.
</event>
<event>
 5   0  0.1377807E-06  0.2802679E+04  0.7818609E-02  0.8302437E-01
        2   -1    0    0  501    0  0.00000000000E+00  0.00000000000E+00  0.13291493253E+04  0.13291493253E+04  0.25500000920E-02 0.  1.
       -2   -1    0    0    0  501  0.00000000000E+00  0.00000000000E+00 -0.14774505919E+04  0.14774505919E+04  0.25500000920E-02 0. -1.
    10030    2    1    2    0    0  0.00000000000E+00  0.00000000000E+00 -0.14830126661E+03  0.28065999171E+04  0.28026790450E+04 0.  0.
        2    1    3    3  502    0 -0.31817820168E+02 -0.12991962668E+04  0.45082426026E+03  0.13755601866E+04  0.25500000920E-02 0.  1.
       -2    1    3    3    0  502  0.31817820168E+02  0.12991962668E+04 -0.59912552688E+03  0.14310397305E+04  0.25500000920E-02 0. -1.
</event>
<event>
 5   0  0.5297741E-07  0.2798955E+04  0.7818609E-02  0.8303593E-01
        1   -1    0    0  501    0  0.00000000000E+00  0.00000000000E+00  0.24784276967E+04  0.24784276967E+04  0.50400001928E-02 0. -1.
       -1   -1    0    0    0  501  0.00000000000E+00  0.00000000000E+00 -0.79023351928E+03  0.79023351930E+03  0.50400001928E-02 0.  1.
    10030    2    1    2    0    0  0.00000000000E+00  0.00000000000E+00  0.16881941774E+04  0.32686612160E+04  0.27989545485E+04 0.  0.
        5    1    3    3  502    0 -0.18446593680E+03 -0.54081623991E+03  0.23359800765E+04  0.24048565227E+04  0.46999998093E+01 0. -1.
       -5    1    3    3    0  502  0.18446593680E+03  0.54081623991E+03 -0.64778589903E+03  0.86380469330E+03  0.46999998093E+01 0.  1.
</event>
<event>
 5   0  0.1499888E-06  0.2799727E+04  0.7818609E-02  0.8303353E-01
        2   -1    0    0  501    0  0.00000000000E+00  0.00000000000E+00  0.15775429417E+04  0.15775429417E+04  0.25500000920E-02 0.  1.
       -2   -1    0    0    0  501  0.00000000000E+00  0.00000000000E+00 -0.12421964543E+04  0.12421964543E+04  0.25500000920E-02 0. -1.
    10030    2    1    2    0    0  0.00000000000E+00  0.00000000000E+00  0.33534648739E+03  0.28197393959E+04  0.27997273071E+04 0.  0.
        3    1    3    3  502    0  0.21824723027E+03 -0.55168778985E+03 -0.11093120044E+04  0.12580001607E+04  0.10100000352E+00 0. -1.
       -3    1    3    3    0  502 -0.21824723027E+03  0.55168778985E+03  0.14446584918E+04  0.15617392353E+04  0.10100000352E+00 0.  1.
</event>
<event>
 5   0  0.4710000E-07  0.2801968E+04  0.7818609E-02  0.8302658E-01
       -3   -1    0    0    0  501  0.00000000000E+00  0.00000000000E+00  0.71145907444E+03  0.71145908160E+03  0.10100000352E+00 0.  1.
        3   -1    0    0  501    0  0.00000000000E+00  0.00000000000E+00 -0.27587757092E+04  0.27587757111E+04  0.10100000352E+00 0. -1.
    10030    2    1    2    0    0  0.00000000000E+00  0.00000000000E+00 -0.20473166348E+04  0.34702347927E+04  0.28019679001E+04 0.  0.
        1    1    3    3  502    0 -0.84625145066E+03 -0.10207076712E+04 -0.46321815329E+03  0.14044773851E+04  0.50400001928E-02 0.  1.
       -1    1    3    3    0  502  0.84625145066E+03  0.10207076712E+04 -0.15840984815E+04  0.20657574076E+04  0.50400001928E-02 0. -1.
</event>
<event>
 5   0  0.5551565E-07  0.2789157E+04  0.7818609E-02  0.8306643E-01
       -1   -1    0    0    0  501  0.00000000000E+00  0.00000000000E+00  0.10991956465E+04  0.10991956465E+04  0.50400001928E-02 0.  1.
        1   -1    0    0  501    0  0.00000000000E+00  0.00000000000E+00 -0.17693383902E+04  0.17693383902E+04  0.50400001928E-02 0. -1.
    10030    2    1    2    0    0  0.00000000000E+00  0.00000000000E+00 -0.67014274366E+03  0.28685340367E+04  0.27891569018E+04 0.  0.
        3    1    3    3  502    0 -0.80084986503E+03 -0.94425503988E+03  0.32496466346E+03  0.12800703611E+04  0.10100000352E+00 0.  1.
       -3    1    3    3    0  502  0.80084986503E+03  0.94425503988E+03 -0.99510740712E+03  0.15884636756E+04  0.10100000352E+00 0. -1.
</event>
<event>
 5   0  0.4710000E-07  0.2798382E+04  0.7818609E-02  0.8303771E-01
        3   -1    0    0  501    0  0.00000000000E+00  0.00000000000E+00  0.13183475309E+04  0.13183475348E+04  0.10100000352E+00 0.  1.
       -3   -1    0    0    0  501  0.00000000000E+00  0.00000000000E+00 -0.14849915643E+04  0.14849915677E+04  0.10100000352E+00 0. -1.
    10030    2    1    2    0    0  0.00000000000E+00  0.00000000000E+00 -0.16664403339E+03  0.28033391025E+04  0.27983816555E+04 0.  0.
        5    1    3    3  502    0  0.72611552034E+03  0.45228536501E+03  0.10258463285E+04  0.13357352208E+04  0.46999998093E+01 0.  1.
       -5    1    3    3    0  502 -0.72611552034E+03 -0.45228536501E+03 -0.11924903619E+04  0.14676038817E+04  0.46999998093E+01 0. -1.
</event>
<event>
 5   0  0.1394410E-06  0.2801775E+04  0.7818609E-02  0.8302717E-01
       -2   -1    0    0    0  501  0.00000000000E+00  0.00000000000E+00  0.95853749824E+03  0.95853749824E+03  0.25500000920E-02 0.  1.
        2   -1    0    0  501    0  0.00000000000E+00  0.00000000000E+00 -0.20473751209E+04  0.20473751209E+04  0.25500000920E-02 0. -1.
    10030    2    1    2    0    0  0.00000000000E+00  0.00000000000E+00 -0.10888376226E+04  0.30059126191E+04  0.28017750276E+04 0.  0.
        4    1    3    3  502    0 -0.35645237052E+02  0.53090973769E+02 -0.20458078300E+04  0.20468073980E+04  0.12699999809E+01 0. -1.
       -4    1    3    3    0  502  0.35645237052E+02 -0.53090973769E+02  0.95697020737E+03  0.95910522108E+03  0.12699999809E+01 0.  1.
</event>
<event>
 5   0  0.5282098E-07  0.2779628E+04  0.7818609E-02  0.8309621E-01
        1   -1    0    0  501    0  0.00000000000E+00  0.00000000000E+00  0.18237969357E+04  0.18237969357E+04  0.50400001928E-02 0. -1.
       -1   -1    0    0    0  501  0.00000000000E+00  0.00000000000E+00 -0.10590999171E+04  0.10590999171E+04  0.50400001928E-02 0.  1.
    10030    2    1    2    0    0  0.00000000000E+00  0.00000000000E+00  0.76469701857E+03  0.28828968528E+04  0.27796281646E+04 0.  0.
        4    1    3    3  502    0 -0.10057128739E+04 -0.67052232006E+03 -0.32908256571E+03  0.12527392045E+04  0.12699999809E+01 0. -1.
       -4    1    3    3    0  502  0.10057128739E+04  0.67052232006E+03  0.10937795843E+04  0.16301576483E+04  0.12699999809E+01 0.  1.
</event>
<event>
 5   0  0.5551565E-07  0.2797353E+04  0.7818609E-02  0.8304090E-01
        1   -1    0    0  501    0  0.00000000000E+00  0.00000000000E+00  0.11209281846E+04  0.11209281846E+04  0.50400001928E-02 0. -1.
       -1   -1    0    0    0  501  0.00000000000E+00  0.00000000000E+00 -0.17452470561E+04  0.17452470561E+04  0.50400001928E-02 0.  1.
    10030    2    1    2    0    0  0.00000000000E+00  0.00000000000E+00 -0.62431887142E+03  0.28661752407E+04  0.27973534738E+04 0.  0.
        3    1    3    3  502    0 -0.43139183905E+03  0.85094520358E+02 -0.16725894479E+04  0.17294205583E+04  0.10100000352E+00 0.  1.
       -3    1    3    3    0  502  0.43139183905E+03 -0.85094520358E+02  0.10482705765E+04  0.11367546824E+04  0.10100000352E+00 0. -1.
</event>
<event>
 5   0  0.1377807E-06  0.2796184E+04  0.7818609E-02  0.8304454E-01
       -2   -1    0    0    0  501  0.00000000000E+00  0.00000000000E+00  0.12478787493E+04  0.12478787493E+04  0.25500000920E-02 0.  1.
        2   -1    0    0  501    0  0.00000000000E+00  0.00000000000E+00 -0.15663868414E+04  0.15663868415E+04  0.25500000920E-02 0. -1.
    10030    2    1    2    0    0  0.00000000000E+00  0.00000000000E+00 -0.31850809211E+03  0.28142655908E+04  0.27961837226E+04 0.  0.
        2    1    3    3  502    0 -0.90977308699E+03 -0.60410073094E+03  0.71933775757E+03  0.13076970492E+04  0.25500000920E-02 0.  1.
       -2    1    3    3    0  502  0.90977308699E+03  0.60410073094E+03 -0.10378458497E+04  0.15065685416E+04  0.25500000920E-02 0. -1.
</event>
<event>
 5   0  0.5551565E-07  0.2803430E+04  0.7818609E-02  0.8302204E-01
        1   -1    0    0  501    0  0.00000000000E+00  0.00000000000E+00  0.27675522042E+04  0.27675522042E+04  0.50400001928E-02 0.  1.
       -1   -1    0    0    0  501  0.00000000000E+00  0.00000000000E+00 -0.70994306160E+03  0.70994306162E+03  0.50400001928E-02 0. -1.
    10030    2    1    2    0    0  0.00000000000E+00  0.00000000000E+00  0.20576091426E+04  0.34774952658E+04  0.28034296745E+04 0.  0.
        3    1    3    3  502    0  0.73511513127E+03 -0.64237833090E+03  0.22765204390E+04  0.24770122114E+04  0.10100000352E+00 0.  1.
       -3    1    3    3    0  502 -0.73511513127E+03  0.64237833090E+03 -0.21891129639E+03  0.10004830544E+04  0.10100000352E+00 0. -1.
</event>
<event>
 5   0  0.1394410E-06  0.2802077E+04  0.7818609E-02  0.8302624E-01
        2   -1    0    0  501    0  0.00000000000E+00  0.00000000000E+00  0.93806676247E+03  0.93806676248E+03  0.25500000920E-02 0. -1.
       -2   -1    0    0    0  501  0.00000000000E+00  0.00000000000E+00 -0.20925051661E+04  0.20925051661E+04  0.25500000920E-02 0.  1.
    10030    2    1    2    0    0  0.00000000000E+00  0.00000000000E+00 -0.11544384036E+04  0.30305719285E+04  0.28020774769E+04 0.  0.
        4    1    3    3  502    0  0.68460323349E+03  0.55206601499E+03 -0.17567721866E+04  0.19646141098E+04  0.12699999809E+01 0.  1.
       -4    1    3    3    0  502 -0.68460323349E+03 -0.55206601499E+03  0.60233378298E+03  0.10659578187E+04  0.12699999809E+01 0. -1.
</event>
<event>
 5   0  0.1461146E-06  0.2798968E+04  0.7818609E-02  0.8303589E-01
       -2   -1    0    0    0  501  0.00000000000E+00  0.00000000000E+00  0.17768301941E+04  0.17768301941E+04  0.25500000920E-02 0. -1.
        2   -1    0    0  501    0  0.00000000000E+00  0.00000000000E+00 -0.11022752485E+04  0.11022752485E+04  0.25500000920E-02 0.  1.
    10030    2    1    2    0    0  0.00000000000E+00  0.00000000000E+00  0.67455494558E+03  0.28791054426E+04  0.27989683412E+04 0.  0.
        1    1    3    3  502    0  0.82290543184E+03  0.89152585840E+03 -0.38023536669E+03  0.12714443126E+04  0.50400001928E-02 0.  1.
       -1    1    3    3    0  502 -0.82290543184E+03 -0.89152585840E+03  0.10547903123E+04  0.16076611300E+04  0.50400001928E-02 0. -1.
</event>
<event>
 5   0  0.1461146E-06  0.2723831E+04  0.7818609E-02  0.8327314E-01
        2   -1    0    0  501    0  0.00000000000E+00  0.00000000000E+00  0.13473700954E+04  0.13473700954E+04  0.25500000920E-02 0.  1.
       -2   -1    0    0    0  501  0.00000000000E+00  0.00000000000E+00 -0.13766181929E+04  0.13766181929E+04  0.25500000920E-02 0. -1.
    10030    2    1    2    0    0  0.00000000000E+00  0.00000000000E+00 -0.29248097559E+02  0.27239882883E+04  0.27238312620E+04 0.  0.
        1    1    3    3  502    0 -0.72393887901E+03  0.12964835963E+03  0.11317046497E+04  0.13496857456E+04  0.50400001928E-02 0.  1.
       -1    1    3    3    0  502  0.72393887901E+03 -0.12964835963E+03 -0.11609527472E+04  0.13743025428E+04  0.50400001928E-02 0. -1.
</event>
<event>
 5   0  0.1499888E-06  0.2797557E+04  0.7818609E-02  0.8304027E-01
        2   -1    0    0  501    0  0.00000000000E+00  0.00000000000E+00  0.12863862230E+04  0.12863862230E+04  0.25500000920E-02 0. -1.
       -2   -1    0    0    0  501  0.00000000000E+00  0.00000000000E+00 -0.15209903787E+04  0.15209903787E+04  0.25500000920E-02 0.  1.
    10030    2    1    2    0    0  0.00000000000E+00  0.00000000000E+00 -0.23460415567E+03  0.28073766016E+04  0.27975568401E+04 0.  0.
        3    1    3    3  502    0 -0.44622562436E+03  0.12669593796E+03 -0.14415597856E+04  0.15143525990E+04  0.10100000352E+00 0.  1.
       -3    1    3    3    0  502  0.44622562436E+03 -0.12669593796E+03  0.12069556299E+04  0.12930240026E+04  0.10100000352E+00 0. -1.
</event>
<event>
 5   0  0.1439207E-06  0.2797902E+04  0.7818609E-02  0.8303920E-01
        2   -1    0    0  501    0  0.00000000000E+00  0.00000000000E+00  0.12949108650E+04  0.12949108650E+04  0.25500000920E-02 0. -1.
       -2   -1    0    0    0  501  0.00000000000E+00  0.00000000000E+00 -0.15113498279E+04  0.15113498279E+04  0.25500000920E-02 0.  1.
    10030    2    1    2    0    0  0.00000000000E+00  0.00000000000E+00 -0.21643896296E+03  0.28062606929E+04  0.27979015801E+04 0.  0.
        5    1    3    3  502    0 -0.79235341138E+03  0.61315236920E+03 -0.10874875616E+04  0.14786585282E+04  0.46999998093E+01 0.  1.
       -5    1    3    3    0  502  0.79235341138E+03 -0.61315236920E+03  0.87104859866E+03  0.13276021647E+04  0.46999998093E+01 0. -1.
</event>
<event>
 5   0  0.5551565E-07  0.2788306E+04  0.7818609E-02  0.8306908E-01
       -1   -1    0    0    0  501  0.00000000000E+00  0.00000000000E+00  0.14357528440E+04  0.14357528440E+04  0.50400001928E-02 0.  1.
        1   -1    0    0  501    0  0.00000000000E+00  0.00000000000E+00 -0.13537585089E+04  0.13537585089E+04  0.50400001928E-02 0. -1.
    10030    2    1    2    0    0  0.00000000000E+00  0.00000000000E+00  0.81994335116E+02  0.27895113528E+04  0.27883060300E+04 0.  0.
        3    1    3    3  502    0 -0.56442880295E+03  0.45169497860E+03 -0.11515980017E+04  0.13597007741E+04  0.10100000352E+00 0. -1.
       -3    1    3    3    0  502  0.56442880295E+03 -0.45169497860E+03  0.12335923369E+04  0.14298105787E+04  0.10100000352E+00 0.  1.
</event>
<event>
 5   0  0.5282098E-07  0.2800353E+04  0.7818609E-02  0.8303159E-01
        1   -1    0    0  501    0  0.00000000000E+00  0.00000000000E+00  0.23413946324E+04  0.23413946324E+04  0.50400001928E-02 0. -1.
       -1   -1    0    0    0  501  0.00000000000E+00  0.00000000000E+00 -0.83731884448E+03  0.83731884449E+03  0.50400001928E-02 0.  1.
    10030    2    1    2    0    0  0.00000000000E+00  0.00000000000E+00  0.15040757879E+04  0.31787134769E+04  0.28003527264E+04 0.  0.
        4    1    3    3  502    0 -0.28531562497E+03  0.14600015529E+03 -0.79512042464E+03  0.85728592300E+03  0.12699999809E+01 0.  1.
       -4    1    3    3    0  502  0.28531562497E+03 -0.14600015529E+03  0.22991962126E+04  0.23214275539E+04  0.12699999809E+01 0. -1.
</event>
<event>
 5   0  0.1394410E-06  0.2799836E+04  0.7818609E-02  0.8303319E-01
        2   -1    0    0  501    0  0.00000000000E+00  0.00000000000E+00  0.17156378626E+04  0.17156378626E+04  0.25500000920E-02 0.  1.
       -2   -1    0    0    0  501  0.00000000000E+00  0.00000000000E+00 -0.11422981503E+04  0.11422981503E+04  0.25500000920E-02 0. -1.
    10030    2    1    2    0    0  0.00000000000E+00  0.00000000000E+00  0.57333971222E+03  0.28579360129E+04  0.27998356788E+04 0.  0.
        4    1    3    3  502    0 -0.74050759712E+03  0.98702482960E+03 -0.38826126245E+03  0.12935679095E+04  0.12699999809E+01 0. -1.
       -4    1    3    3    0  502  0.74050759712E+03 -0.98702482960E+03  0.96160097467E+03  0.15643681034E+04  0.12699999809E+01 0.  1.
</event>
<event>
 5   0  0.5551565E-07  0.2794698E+04  0.7818609E-02  0.8304916E-01
        1   -1    0    0  501    0  0.00000000000E+00  0.00000000000E+00  0.12243874067E+04  0.12243874067E+04  0.50400001928E-02 0. -1.
       -1   -1    0    0    0  501  0.00000000000E+00  0.00000000000E+00 -0.15947441951E+04  0.15947441951E+04  0.50400001928E-02 0.  1.
    10030    2    1    2    0    0  0.00000000000E+00  0.00000000000E+00 -0.37035678842E+03  0.28191316018E+04  0.27946983446E+04 0.  0.
        3    1    3    3  502    0 -0.17114235399E+03 -0.40832390161E+03 -0.15221208680E+04  0.15852034762E+04  0.10100000352E+00 0.  1.
       -3    1    3    3    0  502  0.17114235399E+03  0.40832390161E+03  0.11517640796E+04  0.12339281256E+04  0.10100000352E+00 0. -1.
</event>
<event>
 5   0  0.5214658E-07  0.2801851E+04  0.7818609E-02  0.8302694E-01
        1   -1    0    0  501    0  0.00000000000E+00  0.00000000000E+00  0.11419274055E+04  0.11419274055E+04  0.50400001928E-02 0.  1.
       -1   -1    0    0    0  501  0.00000000000E+00  0.00000000000E+00 -0.17186668115E+04  0.17186668115E+04  0.50400001928E-02 0. -1.
    10030    2    1    2    0    0  0.00000000000E+00  0.00000000000E+00 -0.57673940599E+03  0.28605942169E+04  0.28018513400E+04 0.  0.
        2    1    3    3  502    0  0.38436428877E+03 -0.12264889644E+04  0.28061299665E+03  0.13155815217E+04  0.25500000920E-02 0.  1.
       -2    1    3    3    0  502 -0.38436428877E+03  0.12264889644E+04 -0.85735240264E+03  0.15450126953E+04  0.25500000920E-02 0. -1.
</event>
<event>
 5   0  0.5297741E-07  0.2802848E+04  0.7818609E-02  0.8302385E-01
       -1   -1    0    0    0  501  0.00000000000E+00  0.00000000000E+00  0.12610795299E+04  0.12610795299E+04  0.50400001928E-02 0. -1.
        1   -1    0    0  501    0  0.00000000000E+00  0.00000000000E+00 -0.15573875302E+04  0.15573875302E+04  0.50400001928E-02 0.  1.
    10030    2    1    2    0    0  0.00000000000E+00  0.00000000000E+00 -0.29630800026E+03  0.28184670601E+04  0.28028482189E+04 0.  0.
        5    1    3    3  502    0  0.10114705099E+04  0.78446078047E+03  0.42556554315E+03  0.13489178737E+04  0.46999998093E+01 0. -1.
       -5    1    3    3    0  502 -0.10114705099E+04 -0.78446078047E+03 -0.72187354341E+03  0.14695491864E+04  0.46999998093E+01 0.  1.
</event>
<event>
 5   0  0.5551565E-07  0.2851168E+04  0.7818609E-02  0.8287557E-01
       -1   -1    0    0    0  501  0.00000000000E+00  0.00000000000E+00  0.13037017282E+04  0.13037017282E+04  0.50400001928E-02 0.  1.
        1   -1    0    0  501    0  0.00000000000E+00  0.00000000000E+00 -0.15588605862E+04  0.15588605862E+04  0.50400001928E-02 0. -1.
    10030    2    1    2    0    0  0.00000000000E+00  0.00000000000E+00 -0.25515885799E+03  0.28625623145E+04  0.28511676488E+04 0.  0.
        3    1    3    3  502    0  0.97764505905E+03  0.87500241497E+03 -0.68736500141E+03  0.14811784980E+04  0.10100000352E+00 0. -1.
       -3    1    3    3    0  502 -0.97764505905E+03 -0.87500241497E+03  0.43220614342E+03  0.13813838164E+04  0.10100000352E+00 0.  1.
</event>
<event>
 5   0  0.5297741E-07  0.2798863E+04  0.7818609E-02  0.8303621E-01
        1   -1    0    0  501    0  0.00000000000E+00  0.00000000000E+00  0.20255867406E+04  0.20255867406E+04  0.50400001928E-02 0. -1.
       -1   -1    0    0    0  501  0.00000000000E+00  0.00000000000E+00 -0.96683545636E+03  0.96683545638E+03  0.50400001928E-02 0.  1.
    10030    2    1    2    0    0  0.00000000000E+00  0.00000000000E+00  0.10587512842E+04  0.29924221970E+04  0.27988633984E+04 0.  0.
        5    1    3    3  502    0 -0.57722657475E+03  0.97811037021E+03  0.14035352964E+04  0.18054982230E+04  0.46999998093E+01 0. -1.
       -5    1    3    3    0  502  0.57722657475E+03 -0.97811037021E+03 -0.34478401221E+03  0.11869239740E+04  0.46999998093E+01 0.  1.
</event>
<event>
 5   0  0.5214658E-07  0.2801960E+04  0.7818609E-02  0.8302660E-01
       -1   -1    0    0    0  501  0.00000000000E+00  0.00000000000E+00  0.12087639995E+04  0.12087639995E+04  0.50400001928E-02 0. -1.
        1   -1    0    0  501    0  0.00000000000E+00  0.00000000000E+00 -0.16237614880E+04  0.16237614880E+04  0.50400001928E-02 0.  1.
    10030    2    1    2    0    0  0.00000000000E+00  0.00000000000E+00 -0.41499748850E+03  0.28325254874E+04  0.28019596217E+04 0.  0.
        2    1    3    3  502    0  0.65511202329E+03  0.62876528593E+03 -0.12860142000E+04  0.15742776345E+04  0.25500000920E-02 0.  1.
       -2    1    3    3    0  502 -0.65511202329E+03 -0.62876528593E+03  0.87101671145E+03  0.12582478530E+04  0.25500000920E-02 0. -1.
</event>
<event>
 5   0  0.5214658E-07  0.2830765E+04  0.7818609E-02  0.8293780E-01
        1   -1    0    0  501    0  0.00000000000E+00  0.00000000000E+00  0.14527227465E+04  0.14527227465E+04  0.50400001928E-02 0. -1.
       -1   -1    0    0    0  501  0.00000000000E+00  0.00000000000E+00 -0.13790015701E+04  0.13790015701E+04  0.50400001928E-02 0.  1.
    10030    2    1    2    0    0  0.00000000000E+00  0.00000000000E+00  0.73721176336E+02  0.28317243166E+04  0.28307645246E+04 0.  0.
        2    1    3    3  502    0 -0.12402156142E+04 -0.44738178174E+03  0.55183773888E+03  0.14292690854E+04  0.25500000920E-02 0.  1.
       -2    1    3    3    0  502  0.12402156142E+04  0.44738178174E+03 -0.47811656254E+03  0.14024552313E+04  0.25500000920E-02 0. -1.
</event>
<event>
 5   0  0.1439207E-06  0.2793772E+04  0.7818609E-02  0.8305204E-01
        2   -1    0    0  501    0  0.00000000000E+00  0.00000000000E+00  0.13853478547E+04  0.13853478547E+04  0.25500000920E-02 0. -1.
       -2   -1    0    0    0  501  0.00000000000E+00  0.00000000000E+00 -0.14085203384E+04  0.14085203384E+04  0.25500000920E-02 0.  1.
    10030    2    1    2    0    0  0.00000000000E+00  0.00000000000E+00 -0.23172483637E+02  0.27938681931E+04  0.27937720946E+04 0.  0.
        5    1    3    3  502    0 -0.13741795767E+04  0.20283767363E+03  0.13591767326E+03  0.13957106916E+04  0.46999998093E+01 0. -1.
       -5    1    3    3    0  502  0.13741795767E+04 -0.20283767363E+03 -0.15909015690E+03  0.13981575015E+04  0.46999998093E+01 0.  1.
</event>
<event>
 5   0  0.5551565E-07  0.2801299E+04  0.7818609E-02  0.8302865E-01
        1   -1    0    0  501    0  0.00000000000E+00  0.00000000000E+00  0.13286721118E+04  0.13286721119E+04  0.50400001928E-02 0. -1.
       -1   -1    0    0    0  501  0.00000000000E+00  0.00000000000E+00 -0.14765262563E+04  0.14765262563E+04  0.50400001928E-02 0.  1.
    10030    2    1    2    0    0  0.00000000000E+00  0.00000000000E+00 -0.14785414444E+03  0.28051983682E+04  0.28012991694E+04 0.  0.
        3    1    3    3  502    0 -0.90899064422E+03  0.23164270415E+03  0.96766346655E+03  0.13476998658E+04  0.10100000352E+00 0. -1.
       -3    1    3    3    0  502  0.90899064422E+03 -0.23164270415E+03 -0.11155176110E+04  0.14574985023E+04  0.10100000352E+00 0.  1.
</event>
<event>
 5   0  0.1439207E-06  0.2814728E+04  0.7818609E-02  0.8298710E-01
        2   -1    0    0  501    0  0.00000000000E+00  0.00000000000E+00  0.18203529245E+04  0.18203529245E+04  0.25500000920E-02 0.  1.
       -2   -1    0    0    0  501  0.00000000000E+00  0.00000000000E+00 -0.10880713064E+04  0.10880713064E+04  0.25500000920E-02 0. -1.
    10030    2    1    2    0    0  0.00000000000E+00  0.00000000000E+00  0.73228161809E+03  0.29084242309E+04  0.28147282530E+04 0.  0.
        5    1    3    3  502    0  0.39870735948E+03  0.10997730290E+03 -0.10238478956E+04  0.11042414451E+04  0.46999998093E+01 0. -1.
       -5    1    3    3    0  502 -0.39870735948E+03 -0.10997730290E+03  0.17561295137E+04  0.18041827858E+04  0.46999998093E+01 0.  1.
</event>
<event>
 5   0  0.5551565E-07  0.2802317E+04  0.7818609E-02  0.8302550E-01
       -1   -1    0    0    0  501  0.00000000000E+00  0.00000000000E+00  0.78499274717E+03  0.78499274719E+03  0.50400001928E-02 0.  1.
        1   -1    0    0  501    0  0.00000000000E+00  0.00000000000E+00 -0.25009714741E+04  0.25009714741E+04  0.50400001928E-02 0. -1.
    10030    2    1    2    0    0  0.00000000000E+00  0.00000000000E+00 -0.17159787269E+04  0.32859642213E+04  0.28023165190E+04 0.  0.
        3    1    3    3  502    0  0.13290742021E+04  0.41082234541E+03 -0.66166840155E+03  0.15404604240E+04  0.10100000352E+00 0. -1.
       -3    1    3    3    0  502 -0.13290742021E+04 -0.41082234541E+03 -0.10543103254E+04  0.17455037973E+04  0.10100000352E+00 0.  1.
</event>
<event>
 5   0  0.1394410E-06  0.2788117E+04  0.7818609E-02  0.8306967E-01
       -2   -1    0    0    0  501  0.00000000000E+00  0.00000000000E+00  0.28120981336E+04  0.28120981336E+04  0.25500000920E-02 0.  1.
        2   -1    0    0  501    0  0.00000000000E+00  0.00000000000E+00 -0.69108494453E+03  0.69108494454E+03  0.25500000920E-02 0. -1.
    10030    2    1    2    0    0  0.00000000000E+00  0.00000000000E+00  0.21210131891E+04  0.35031830782E+04  0.27881166996E+04 0.  0.
        4    1    3    3  502    0  0.98063852862E+03 -0.31809196029E+03  0.22395560366E+04  0.24654507241E+04  0.12699999809E+01 0.  1.
       -4    1    3    3    0  502 -0.98063852862E+03  0.31809196029E+03 -0.11854284754E+03  0.10377323540E+04  0.12699999809E+01 0. -1.
</event>
<event>
 5   0  0.5282098E-07  0.2799882E+04  0.7818609E-02  0.8303305E-01
       -1   -1    0    0    0  501  0.00000000000E+00  0.00000000000E+00  0.97728140673E+03  0.97728140674E+03  0.50400001928E-02 0.  1.
        1   -1    0    0  501    0  0.00000000000E+00  0.00000000000E+00 -0.20053940231E+04  0.20053940231E+04  0.50400001928E-02 0. -1.
    10030    2    1    2    0    0  0.00000000000E+00  0.00000000000E+00 -0.10281126164E+04  0.29826754299E+04  0.27998816346E+04 0.  0.
        4    1    3    3  502    0 -0.89906812271E+03  0.10677241308E+04 -0.39994445600E+03  0.14520039565E+04  0.12699999809E+01 0.  1.
       -4    1    3    3    0  502  0.89906812271E+03 -0.10677241308E+04 -0.62816816038E+03  0.15306714734E+04  0.12699999809E+01 0. -1.
</event>
<event>
 5   0  0.1394410E-06  0.2806844E+04  0.7818609E-02  0.8301147E-01
       -2   -1    0    0    0  501  0.00000000000E+00  0.00000000000E+00  0.14943194776E+04  0.14943194776E+04  0.25500000920E-02 0. -1.
        2   -1    0    0  501    0  0.00000000000E+00  0.00000000000E+00 -0.13180533707E+04  0.13180533707E+04  0.25500000920E-02 0.  1.
    10030    2    1    2    0    0  0.00000000000E+00  0.00000000000E+00  0.17626610684E+03  0.28123728483E+04  0.28068436539E+04 0.  0.
        4    1    3    3  502    0 -0.88059811848E+03 -0.11278806102E+03  0.11772042834E+04  0.14744442108E+04  0.12699999809E+01 0. -1.
       -4    1    3    3    0  502  0.88059811848E+03  0.11278806102E+03 -0.10009381765E+04  0.13379286375E+04  0.12699999809E+01 0.  1.
</event>
<event>
 5   0  0.1377807E-06  0.2798114E+04  0.7818609E-02  0.8303854E-01
       -2   -1    0    0    0  501  0.00000000000E+00  0.00000000000E+00  0.11197749981E+04  0.11197749981E+04  0.25500000920E-02 0.  1.
        2   -1    0    0  501    0  0.00000000000E+00  0.00000000000E+00 -0.17479946869E+04  0.17479946869E+04  0.25500000920E-02 0. -1.
    10030    2    1    2    0    0  0.00000000000E+00  0.00000000000E+00 -0.62821968873E+03  0.28677696850E+04  0.27981141844E+04 0.  0.
        2    1    3    3  502    0 -0.13106222544E+04 -0.48876796965E+03 -0.28630658562E+03  0.14277942019E+04  0.25500000920E-02 0. -1.
       -2    1    3    3    0  502  0.13106222544E+04  0.48876796965E+03 -0.34191310311E+03  0.14399754831E+04  0.25500000920E-02 0.  1.
</event>
<event>
 5   0  0.5362952E-07  0.2796588E+04  0.7818609E-02  0.8304329E-01
       -1   -1    0    0    0  501  0.00000000000E+00  0.00000000000E+00  0.10950818621E+04  0.10950818621E+04  0.50400001928E-02 0.  1.
        1   -1    0    0  501    0  0.00000000000E+00  0.00000000000E+00 -0.17854607422E+04  0.17854607422E+04  0.50400001928E-02 0. -1.
    10030    2    1    2    0    0  0.00000000000E+00  0.00000000000E+00 -0.69037888006E+03  0.28805426043E+04  0.27965876881E+04 0.  0.
        1    1    3    3  502    0  0.10300437030E+04 -0.68792927003E+03  0.32312557267E+03  0.12800964208E+04  0.50400001928E-02 0.  1.
       -1    1    3    3    0  502 -0.10300437030E+04  0.68792927003E+03 -0.10135044527E+04  0.16004461835E+04  0.50400001928E-02 0. -1.
</event>
<event>
 5   0  0.4710000E-07  0.2803964E+04  0.7818609E-02  0.8302039E-01
        3   -1    0    0  501    0  0.00000000000E+00  0.00000000000E+00  0.12036107709E+04  0.12036107751E+04  0.10100000352E+00 0. -1.
       -3   -1    0    0    0  501  0.00000000000E+00  0.00000000000E+00 -0.16330476761E+04  0.16330476792E+04  0.10100000352E+00 0.  1.
    10030    2    1    2    0    0  0.00000000000E+00  0.00000000000E+00 -0.42943690517E+03  0.28366584543E+04  0.28039641815E+04 0.  0.
        5    1    3    3  502    0  0.80747804047E+03  0.34972071712E+03  0.88943156126E+03  0.12511738320E+04  0.46999998093E+01 0. -1.
       -5    1    3    3    0  502 -0.80747804047E+03 -0.34972071712E+03 -0.13188684664E+04  0.15854846223E+04  0.46999998093E+01 0.  1.
</event>
<event>
 5   0  0.5362952E-07  0.2808176E+04  0.7818609E-02  0.8300735E-01
       -1   -1    0    0    0  501  0.00000000000E+00  0.00000000000E+00  0.10128429073E+04  0.10128429073E+04  0.50400001928E-02 0. -1.
        1   -1    0    0  501    0  0.00000000000E+00  0.00000000000E+00 -0.19464647851E+04  0.19464647852E+04  0.50400001928E-02 0.  1.
    10030    2    1    2    0    0  0.00000000000E+00  0.00000000000E+00 -0.93362187788E+03  0.29593076924E+04  0.28081759574E+04 0.  0.
        1    1    3    3  502    0 -0.15897581426E+03  0.10785804747E+04  0.46559743786E+03  0.11854915116E+04  0.50400001928E-02 0. -1.
       -1    1    3    3    0  502  0.15897581426E+03 -0.10785804747E+04 -0.13992193157E+04  0.17738161808E+04  0.50400001928E-02 0.  1.
</event>
<event>
 5   0  0.1439207E-06  0.2797396E+04  0.7818609E-02  0.8304077E-01
       -2   -1    0    0    0  501  0.00000000000E+00  0.00000000000E+00  0.20822118249E+04  0.20822118249E+04  0.25500000920E-02 0. -1.
        2   -1    0    0  501    0  0.00000000000E+00  0.00000000000E+00 -0.93955674667E+03  0.93955674667E+03  0.25500000920E-02 0.  1.
    10030    2    1    2    0    0  0.00000000000E+00  0.00000000000E+00  0.11426550783E+04  0.30217685716E+04  0.27973960521E+04 0.  0.
        5    1    3    3  502    0  0.43502827544E+03 -0.32879651405E+03 -0.81999387020E+03  0.98476839168E+03  0.46999998093E+01 0.  1.
       -5    1    3    3    0  502 -0.43502827544E+03  0.32879651405E+03  0.19626489485E+04  0.20370001799E+04  0.46999998093E+01 0. -1.
</event>
<event>
 5   0  0.1499888E-06  0.2799935E+04  0.7818609E-02  0.8303289E-01
        2   -1    0    0  501    0  0.00000000000E+00  0.00000000000E+00  0.12641007793E+04  0.12641007793E+04  0.25500000920E-02 0. -1.
       -2   -1    0    0    0  501  0.00000000000E+00  0.00000000000E+00 -0.15504368551E+04  0.15504368551E+04  0.25500000920E-02 0.  1.
    10030    2    1    2    0    0  0.00000000000E+00  0.00000000000E+00 -0.28633607579E+03  0.28145376344E+04  0.27999345970E+04 0.  0.
        3    1    3    3  502    0  0.14212095895E+03  0.13897328470E+04 -0.51298416083E+02  0.13979224909E+04  0.10100000352E+00 0. -1.
       -3    1    3    3    0  502 -0.14212095895E+03 -0.13897328470E+04 -0.23503765970E+03  0.14166151435E+04  0.10100000352E+00 0.  1.
</event>
<event>
 5   0  0.1439207E-06  0.2796572E+04  0.7818609E-02  0.8304334E-01
       -2   -1    0    0    0  501  0.00000000000E+00  0.00000000000E+00  0.16646003369E+04  0.16646003369E+04  0.25500000920E-02 0.  1.
        2   -1    0    0  501    0  0.00000000000E+00  0.00000000000E+00 -0.11745781446E+04  0.11745781446E+04  0.25500000920E-02 0. -1.
    10030    2    1    2    0    0  0.00000000000E+00  0.00000000000E+00  0.49002219226E+03  0.28391784815E+04  0.27965715977E+04 0.  0.
        5    1    3    3  502    0 -0.34906899956E+03  0.11862411862E+04  0.90776914919E+03  0.15339766089E+04  0.46999998093E+01 0.  1.
       -5    1    3    3    0  502  0.34906899956E+03 -0.11862411862E+04 -0.41774695694E+03  0.13052018726E+04  0.46999998093E+01 0. -1.
</event>
<event>
 5   0  0.5214658E-07  0.2795987E+04  0.7818609E-02  0.8304515E-01
        1   -1    0    0  501    0  0.00000000000E+00  0.00000000000E+00  0.22876643147E+04  0.22876643147E+04  0.50400001928E-02 0. -1.
       -1   -1    0    0    0  501  0.00000000000E+00  0.00000000000E+00 -0.85431523018E+03  0.85431523020E+03  0.50400001928E-02 0.  1.
    10030    2    1    2    0    0  0.00000000000E+00  0.00000000000E+00  0.14333490845E+04  0.31419795449E+04  0.27959874575E+04 0.  0.
        2    1    3    3  502    0 -0.85932153080E+03 -0.86043142136E+03  0.14916607288E+04  0.19245330483E+04  0.25500000920E-02 0. -1.
       -2    1    3    3    0  502  0.85932153080E+03  0.86043142136E+03 -0.58311644304E+02  0.12174464966E+04  0.25500000920E-02 0.  1.
</event>
<event>
 5   0  0.1394410E-06  0.2791487E+04  0.7818609E-02  0.8305916E-01
       -2   -1    0    0    0  501  0.00000000000E+00  0.00000000000E+00  0.12958639766E+04  0.12958639766E+04  0.25500000920E-02 0.  1.
        2   -1    0    0  501    0  0.00000000000E+00  0.00000000000E+00 -0.15033210800E+04  0.15033210800E+04  0.25500000920E-02 0. -1.
    10030    2    1    2    0    0  0.00000000000E+00  0.00000000000E+00 -0.20745710343E+03  0.27991850566E+04  0.27914867958E+04 0.  0.
        4    1    3    3  502    0  0.90307190846E+03  0.10621456947E+04 -0.37170273374E+02  0.13946596684E+04  0.12699999809E+01 0.  1.
       -4    1    3    3    0  502 -0.90307190846E+03 -0.10621456947E+04 -0.17028683005E+03  0.14045253882E+04  0.12699999809E+01 0. -1.
</event>
<event>
 5   0  0.5362952E-07  0.2798208E+04  0.7818609E-02  0.8303825E-01
       -1   -1    0    0    0  501  0.00000000000E+00  0.00000000000E+00  0.88281518885E+03  0.88281518886E+03  0.50400001928E-02 0.  1.
        1   -1    0    0  501    0  0.00000000000E+00  0.00000000000E+00 -0.22173287019E+04  0.22173287019E+04  0.50400001928E-02 0. -1.
    10030    2    1    2    0    0  0.00000000000E+00  0.00000000000E+00 -0.13345135130E+04  0.31001438907E+04  0.27982076097E+04 0.  0.
        1    1    3    3  502    0  0.40962621684E+01  0.10587158034E+03 -0.22128777346E+04  0.22154127018E+04  0.50400001928E-02 0. -1.
       -1    1    3    3    0  502 -0.40962621684E+01 -0.10587158034E+03  0.87836422160E+03  0.88473118894E+03  0.50400001928E-02 0.  1.
</event>
<event>
 5   0  0.1499888E-06  0.2770090E+04  0.7818609E-02  0.8312615E-01
       -2   -1    0    0    0  501  0.00000000000E+00  0.00000000000E+00  0.12177331135E+04  0.12177331135E+04  0.25500000920E-02 0. -1.
        2   -1    0    0  501    0  0.00000000000E+00  0.00000000000E+00 -0.15753447881E+04  0.15753447882E+04  0.25500000920E-02 0.  1.
    10030    2    1    2    0    0  0.00000000000E+00  0.00000000000E+00 -0.35761167469E+03  0.27930779016E+04  0.27700899001E+04 0.  0.
        3    1    3    3  502    0 -0.47163677267E+03 -0.17489859533E+03 -0.14799873061E+04  0.15631356948E+04  0.10100000352E+00 0.  1.
       -3    1    3    3    0  502  0.47163677267E+03  0.17489859533E+03  0.11223756314E+04  0.12299422068E+04  0.10100000352E+00 0. -1.
</event>
<event>
 5   0  0.5362952E-07  0.2784912E+04  0.7818609E-02  0.8307968E-01
       -1   -1    0    0    0  501  0.00000000000E+00  0.00000000000E+00  0.11486358601E+04  0.11486358601E+04  0.50400001928E-02 0.  1.
        1   -1    0    0  501    0  0.00000000000E+00  0.00000000000E+00 -0.16880316502E+04  0.16880316502E+04  0.50400001928E-02 0. -1.
    10030    2    1    2    0    0  0.00000000000E+00  0.00000000000E+00 -0.53939579015E+03  0.28366675103E+04  0.27849119817E+04 0.  0.
        1    1    3    3  502    0 -0.56876009643E+01  0.12282675667E+04 -0.93783025855E+03  0.15453799398E+04  0.50400001928E-02 0. -1.
       -1    1    3    3    0  502  0.56876009643E+01 -0.12282675667E+04  0.39843446840E+03  0.12912875706E+04  0.50400001928E-02 0.  1.
</event>
<event>
 5   0  0.1439207E-06  0.2800415E+04  0.7818609E-02  0.8303140E-01
       -2   -1    0    0    0  501  0.00000000000E+00  0.00000000000E+00  0.12104461087E+04  0.12104461087E+04  0.25500000920E-02 0.  1.
        2   -1    0    0  501    0  0.00000000000E+00  0.00000000000E+00 -0.16197173793E+04  0.16197173793E+04  0.25500000920E-02 0. -1.
    10030    2    1    2    0    0  0.00000000000E+00  0.00000000000E+00 -0.40927127059E+03  0.28301634881E+04  0.28004146829E+04 0.  0.
        5    1    3    3  502    0  0.15903112514E+03  0.10862576547E+04 -0.10829547745E+04  0.15420958871E+04  0.46999998093E+01 0. -1.
       -5    1    3    3    0  502 -0.15903112514E+03 -0.10862576547E+04  0.67368350396E+03  0.12880676010E+04  0.46999998093E+01 0.  1.
</event>
<event>
 5   0  0.5282098E-07  0.2802405E+04  0.7818609E-02  0.8302522E-01
        1   -1    0    0  501    0  0.00000000000E+00  0.00000000000E+00  0.16036980568E+04  0.16036980568E+04  0.50400001928E-02 0. -1.
       -1   -1    0    0    0  501  0.00000000000E+00  0.00000000000E+00 -0.12242757121E+04  0.12242757121E+04  0.50400001928E-02 0.  1.
    10030    2    1    2    0    0  0.00000000000E+00  0.00000000000E+00  0.37942234473E+03  0.28279737689E+04  0.28024050959E+04 0.  0.
        4    1    3    3  502    0 -0.10442703645E+04 -0.22677570351E+03 -0.72489086088E+03  0.12912769598E+04  0.12699999809E+01 0.  1.
       -4    1    3    3    0  502  0.10442703645E+04  0.22677570351E+03  0.11043132056E+04  0.15366968090E+04  0.12699999809E+01 0. -1.
</event>
<event>
 5   0  0.1377807E-06  0.2797132E+04  0.7818609E-02  0.8304159E-01
       -2   -1    0    0    0  501  0.00000000000E+00  0.00000000000E+00  0.93778622524E+03  0.93778622524E+03  0.25500000920E-02 0.  1.
        2   -1    0    0  501    0  0.00000000000E+00  0.00000000000E+00 -0.20857496759E+04  0.20857496759E+04  0.25500000920E-02 0. -1.
    10030    2    1    2    0    0  0.00000000000E+00  0.00000000000E+00 -0.11479634507E+04  0.30235359011E+04  0.27971323282E+04 0.  0.
        2    1    3    3  502    0  0.48398882511E+03 -0.12547169177E+04 -0.98902320111E+03  0.16693491602E+04  0.25500000920E-02 0.  1.
       -2    1    3    3    0  502 -0.48398882511E+03  0.12547169177E+04 -0.15894024956E+03  0.13541867409E+04  0.25500000920E-02 0. -1.
</event>
<event>
 5   0  0.1499888E-06  0.2801853E+04  0.7818609E-02  0.8302693E-01
        2   -1    0    0  501    0  0.00000000000E+00  0.00000000000E+00  0.16030086535E+04  0.16030086535E+04  0.25500000920E-02 0.  1.
       -2   -1    0    0    0  501  0.00000000000E+00  0.00000000000E+00 -0.12243199294E+04  0.12243199294E+04  0.25500000920E-02 0. -1.
    10030    2    1    2    0    0  0.00000000000E+00  0.00000000000E+00  0.37868872413E+03  0.28273285829E+04  0.28018532734E+04 0.  0.
        3    1    3    3  502    0 -0.11714180455E+04  0.45476039430E+03  0.81430430180E+03  0.14973706154E+04  0.10100000352E+00 0.  1.
       -3    1    3    3    0  502  0.11714180455E+04 -0.45476039430E+03 -0.43561557767E+03  0.13299579675E+04  0.10100000352E+00 0. -1.
</event>
<event>
 5   0  0.5297741E-07  0.2800154E+04  0.7818609E-02  0.8303221E-01
        1   -1    0    0  501    0  0.00000000000E+00  0.00000000000E+00  0.12507684777E+04  0.12507684778E+04  0.50400001928E-02 0.  1.
       -1   -1    0    0    0  501  0.00000000000E+00  0.00000000000E+00 -0.15672090076E+04  0.15672090076E+04  0.50400001928E-02 0. -1.
    10030    2    1    2    0    0  0.00000000000E+00  0.00000000000E+00 -0.31644052983E+03  0.28179774853E+04  0.28001540134E+04 0.  0.
        5    1    3    3  502    0 -0.21938200218E+03 -0.83513449417E+03 -0.12673312334E+04  0.15335346854E+04  0.46999998093E+01 0. -1.
       -5    1    3    3    0  502  0.21938200218E+03  0.83513449417E+03  0.95089070354E+03  0.12844427999E+04  0.46999998093E+01 0.  1.
</event>
<event>
 5   0  0.5214658E-07  0.2825709E+04  0.7818609E-02  0.8295331E-01
       -1   -1    0    0    0  501  0.00000000000E+00  0.00000000000E+00  0.11278399017E+04  0.11278399017E+04  0.50400001928E-02 0. -1.
        1   -1    0    0  501    0  0.00000000000E+00  0.00000000000E+00 -0.17698949071E+04  0.17698949071E+04  0.50400001928E-02 0.  1.
    10030    2    1    2    0    0  0.00000000000E+00  0.00000000000E+00 -0.64205500540E+03  0.28977348089E+04  0.28257091840E+04 0.  0.
        2    1    3    3  502    0 -0.47601500200E+03  0.19199155088E+03 -0.16709031024E+04  0.17479611596E+04  0.25500000920E-02 0.  1.
       -2    1    3    3    0  502  0.47601500200E+03 -0.19199155088E+03  0.10288480970E+04  0.11497736493E+04  0.25500000920E-02 0. -1.
</event>
<event>
 5   0  0.1394410E-06  0.2799243E+04  0.7818609E-02  0.8303504E-01
       -2   -1    0    0    0  501  0.00000000000E+00  0.00000000000E+00  0.11916048061E+04  0.11916048061E+04  0.25500000920E-02 0.  1.
        2   -1    0    0  501    0  0.00000000000E+00  0.00000000000E+00 -0.16439510044E+04  0.16439510044E+04  0.25500000920E-02 0. -1.
    10030    2    1    2    0    0  0.00000000000E+00  0.00000000000E+00 -0.45234619832E+03  0.28355558106E+04  0.27992426961E+04 0.  0.
        4    1    3    3  502    0 -0.31201284378E+03  0.74530169248E+03  0.93150495925E+03  0.12330976156E+04  0.12699999809E+01 0.  1.
       -4    1    3    3    0  502  0.31201284378E+03 -0.74530169248E+03 -0.13838511576E+04  0.16024581950E+04  0.12699999809E+01 0. -1.
</event>
<event>
 5   0  0.1377807E-06  0.2801416E+04  0.7818609E-02  0.8302829E-01
        2   -1    0    0  501    0  0.00000000000E+00  0.00000000000E+00  0.15882318250E+04  0.15882318250E+04  0.25500000920E-02 0.  1.
       -2   -1    0    0    0  501  0.00000000000E+00  0.00000000000E+00 -0.12353248736E+04  0.12353248736E+04  0.25500000920E-02 0. -1.
    10030    2    1    2    0    0  0.00000000000E+00  0.00000000000E+00  0.35290695144E+03  0.28235566986E+04  0.28014155554E+04 0.  0.
        2    1    3    3  502    0 -0.13908470990E+04 -0.57542091601E+02  0.19610166290E+02  0.13921750262E+04  0.25500000920E-02 0.  1.
       -2    1    3    3    0  502  0.13908470990E+04  0.57542091601E+02  0.33329678515E+03  0.14313816724E+04  0.25500000920E-02 0. -1.
</event>
<event>
 5   0  0.5214658E-07  0.2793389E+04  0.7818609E-02  0.8305324E-01
       -1   -1    0    0    0  501  0.00000000000E+00  0.00000000000E+00  0.88182789192E+03  0.88182789194E+03  0.50400001928E-02 0. -1.
        1   -1    0    0  501    0  0.00000000000E+00  0.00000000000E+00 -0.22121733897E+04  0.22121733897E+04  0.50400001928E-02 0.  1.
    10030    2    1    2    0    0  0.00000000000E+00  0.00000000000E+00 -0.13303454978E+04  0.30940012816E+04  0.27933894801E+04 0.  0.
        2    1    3    3  502    0  0.12873351154E+03 -0.10104136785E+04  0.39330901337E+03  0.10918791594E+04  0.25500000920E-02 0. -1.
       -2    1    3    3    0  502 -0.12873351154E+03  0.10104136785E+04 -0.17236545111E+04  0.20021221223E+04  0.25500000920E-02 0.  1.
</event>
<event>
 5   0  0.1377807E-06  0.2801546E+04  0.7818609E-02  0.8302788E-01
        2   -1    0    0  501    0  0.00000000000E+00  0.00000000000E+00  0.17584654747E+04  0.17584654747E+04  0.25500000920E-02 0. -1.
       -2   -1    0    0    0  501  0.00000000000E+00  0.00000000000E+00 -0.11158395276E+04  0.11158395276E+04  0.25500000920E-02 0.  1.
    10030    2    1    2    0    0  0.00000000000E+00  0.00000000000E+00  0.64262594706E+03  0.28743050023E+04  0.28015462050E+04 0.  0.
        2    1    3    3  502    0  0.62504688453E+03  0.60875994211E+03  0.14456259407E+04  0.16885220269E+04  0.25500000920E-02 0. -1.
       -2    1    3    3    0  502 -0.62504688453E+03 -0.60875994211E+03 -0.80299999362E+03  0.11857829754E+04  0.25500000920E-02 0.  1.
</event>
<event>
 5   0  0.1439207E-06  0.2803464E+04  0.7818609E-02  0.8302194E-01
        2   -1    0    0  501    0  0.00000000000E+00  0.00000000000E+00  0.23005691583E+04  0.23005691584E+04  0.25500000920E-02 0.  1.
       -2   -1    0    0    0  501  0.00000000000E+00  0.00000000000E+00 -0.85407219804E+03  0.85407219805E+03  0.25500000920E-02 0. -1.
    10030    2    1    2    0    0  0.00000000000E+00  0.00000000000E+00  0.14464969603E+04  0.31546413564E+04  0.28034636847E+04 0.  0.
        5    1    3    3  502    0  0.26002791123E+03  0.12532826060E+03  0.22667538199E+04  0.22850638192E+04  0.46999998093E+01 0.  1.
       -5    1    3    3    0  502 -0.26002791123E+03 -0.12532826060E+03 -0.82025685961E+03  0.86957753724E+03  0.46999998093E+01 0. -1.
</event>
<event>
 5   0  0.1394410E-06  0.2798572E+04  0.7818609E-02  0.8303712E-01
       -2   -1    0    0    0  501  0.00000000000E+00  0.00000000000E+00  0.20395568709E+04  0.20395568709E+04  0.25500000920E-02 0. -1.
        2   -1    0    0  501    0  0.00000000000E+00  0.00000000000E+00 -0.96001333060E+03  0.96001333061E+03  0.25500000920E-02 0.  1.
    10030    2    1    2    0    0  0.00000000000E+00  0.00000000000E+00  0.10795435403E+04  0.29995702015E+04  0.27985723393E+04 0.  0.
        4    1    3    3  502    0 -0.54434377013E+03 -0.67448741532E+02 -0.83998389222E+03  0.10032118544E+04  0.12699999809E+01 0.  1.
       -4    1    3    3    0  502  0.54434377013E+03  0.67448741532E+02  0.19195274325E+04  0.19963583471E+04  0.12699999809E+01 0. -1.
</event>
<event>
 5   0  0.1377807E-06  0.2827169E+04  0.7818609E-02  0.8294883E-01
       -2   -1    0    0    0  501  0.00000000000E+00  0.00000000000E+00  0.12054296303E+04  0.12054296303E+04  0.25500000920E-02 0.  1.
        2   -1    0    0  501    0  0.00000000000E+00  0.00000000000E+00 -0.16576839868E+04  0.16576839868E+04  0.25500000920E-02 0. -1.
    10030    2    1    2    0    0  0.00000000000E+00  0.00000000000E+00 -0.45225435649E+03  0.28631136171E+04  0.28271691816E+04 0.  0.
        2    1    3    3  502    0 -0.42183246104E+03 -0.86181219076E+03 -0.12773801019E+04  0.15976115930E+04  0.25500000920E-02 0. -1.
       -2    1    3    3    0  502  0.42183246104E+03  0.86181219076E+03  0.82512574541E+03  0.12655020241E+04  0.25500000920E-02 0.  1.
</event>
<event>
 5   0  0.4710000E-07  0.2805691E+04  0.7818609E-02  0.8301504E-01
        4   -1    0    0  501    0  0.00000000000E+00  0.00000000000E+00  0.10780046366E+04  0.10780053847E+04  0.12699999809E+01 0.  1.
       -4   -1    0    0    0  501  0.00000000000E+00  0.00000000000E+00 -0.18255706395E+04  0.18255710813E+04  0.12699999809E+01 0. -1.
    10030    2    1    2    0    0  0.00000000000E+00  0.00000000000E+00 -0.74756600290E+03  0.29035764660E+04  0.28056908891E+04 0.  0.
        4    1    3    3  502    0 -0.13539305163E+04  0.34284001848E+03 -0.23763871709E+03  0.14167360001E+04  0.12699999809E+01 0.  1.
       -4    1    3    3    0  502  0.13539305163E+04 -0.34284001848E+03 -0.50992728581E+03  0.14868404659E+04  0.12699999809E+01 0. -1.
</event>
<event>
 5   0  0.5362952E-07  0.2794561E+04  0.7818609E-02  0.8304959E-01
        1   -1    0    0  501    0  0.00000000000E+00  0.00000000000E+00  0.21191039533E+04  0.21191039534E+04  0.50400001928E-02 0. -1.
       -1   -1    0    0    0  501  0.00000000000E+00  0.00000000000E+00 -0.92132944887E+03  0.92132944888E+03  0.50400001928E-02 0.  1.
    10030    2    1    2    0    0  0.00000000000E+00  0.00000000000E+00  0.11977745045E+04  0.30404334022E+04  0.27945610585E+04 0.  0.
        1    1    3    3  502    0  0.19582200197E+02  0.61237923804E+02  0.21174938228E+04  0.21184696446E+04  0.50400001928E-02 0. -1.
       -1    1    3    3    0  502 -0.19582200197E+02 -0.61237923804E+02 -0.91971931827E+03  0.92196375759E+03  0.50400001928E-02 0.  1.
</event>
<event>
 5   0  0.1499888E-06  0.2798482E+04  0.7818609E-02  0.8303740E-01
        2   -1    0    0  501    0  0.00000000000E+00  0.00000000000E+00  0.15621161514E+04  0.15621161514E+04  0.25500000920E-02 0. -1.
       -2   -1    0    0    0  501  0.00000000000E+00  0.00000000000E+00 -0.12533477619E+04  0.12533477619E+04  0.25500000920E-02 0.  1.
    10030    2    1    2    0    0  0.00000000000E+00  0.00000000000E+00  0.30876838945E+03  0.28154639133E+04  0.27984815755E+04 0.  0.
        3    1    3    3  502    0  0.29785994291E+03 -0.71551420306E+03  0.13264403581E+04  0.15362698833E+04  0.10100000352E+00 0. -1.
       -3    1    3    3    0  502 -0.29785994291E+03  0.71551420306E+03 -0.10176719687E+04  0.12791940300E+04  0.10100000352E+00 0.  1.
</event>
<event>
 5   0  0.5362952E-07  0.2799254E+04  0.7818609E-02  0.8303500E-01
        1   -1    0    0  501    0  0.00000000000E+00  0.00000000000E+00  0.14075202668E+04  0.14075202668E+04  0.50400001928E-02 0. -1.
       -1   -1    0    0    0  501  0.00000000000E+00  0.00000000000E+00 -0.13917779619E+04  0.13917779619E+04  0.50400001928E-02 0.  1.
    10030    2    1    2    0    0  0.00000000000E+00  0.00000000000E+00  0.15742304918E+02  0.27992982287E+04  0.27992539636E+04 0.  0.
        1    1    3    3  502    0 -0.19576839661E+03  0.78409613971E+03 -0.11348733358E+04  0.13932227065E+04  0.50400001928E-02 0.  1.
       -1    1    3    3    0  502  0.19576839661E+03 -0.78409613971E+03  0.11506156407E+04  0.14060755222E+04  0.50400001928E-02 0. -1.
</event>
<event>
 5   0  0.1377807E-06  0.2784864E+04  0.7818609E-02  0.8307983E-01
        2   -1    0    0  501    0  0.00000000000E+00  0.00000000000E+00  0.11134934716E+04  0.11134934716E+04  0.25500000920E-02 0. -1.
       -2   -1    0    0    0  501  0.00000000000E+00  0.00000000000E+00 -0.17412472401E+04  0.17412472401E+04  0.25500000920E-02 0.  1.
    10030    2    1    2    0    0  0.00000000000E+00  0.00000000000E+00 -0.62775376855E+03  0.28547407117E+04  0.27848644019E+04 0.  0.
        2    1    3    3  502    0  0.74743734585E+03  0.23826483936E+03  0.86539481425E+03  0.11680500435E+04  0.25500000920E-02 0. -1.
       -2    1    3    3    0  502 -0.74743734585E+03 -0.23826483936E+03 -0.14931485828E+04  0.16866906681E+04  0.25500000920E-02 0.  1.
</event>
<event>
 5   0  0.1439207E-06  0.2801145E+04  0.7818609E-02  0.8302913E-01
       -2   -1    0    0    0  501  0.00000000000E+00  0.00000000000E+00  0.11370982477E+04  0.11370982477E+04  0.25500000920E-02 0. -1.
        2   -1    0    0  501    0  0.00000000000E+00  0.00000000000E+00 -0.17250951438E+04  0.17250951438E+04  0.25500000920E-02 0.  1.
    10030    2    1    2    0    0  0.00000000000E+00  0.00000000000E+00 -0.58799689617E+03  0.28621933915E+04  0.28011445269E+04 0.  0.
        5    1    3    3  502    0 -0.10162488762E+04 -0.80532559621E+03  0.24694437360E+03  0.13199676920E+04  0.46999998093E+01 0. -1.
       -5    1    3    3    0  502  0.10162488762E+04  0.80532559621E+03 -0.83494126977E+03  0.15422256995E+04  0.46999998093E+01 0.  1.
</event>
<event>
 5   0  0.5551565E-07  0.2799330E+04  0.7818609E-02  0.8303476E-01
        1   -1    0    0  501    0  0.00000000000E+00  0.00000000000E+00  0.71671106227E+03  0.71671106229E+03  0.50400001928E-02 0. -1.
       -1   -1    0    0    0  501  0.00000000000E+00  0.00000000000E+00 -0.27334060263E+04  0.27334060263E+04  0.50400001928E-02 0.  1.
    10030    2    1    2    0    0  0.00000000000E+00  0.00000000000E+00 -0.20166949640E+04  0.34501170886E+04  0.27993301604E+04 0.  0.
        3    1    3    3  502    0 -0.84304152842E+03 -0.44028890284E+03  0.25726496011E+03  0.98527082901E+03  0.10100000352E+00 0. -1.
       -3    1    3    3    0  502  0.84304152842E+03  0.44028890284E+03 -0.22739599242E+04  0.24648462596E+04  0.10100000352E+00 0.  1.
</event>
<event>
 5   0  0.5362952E-07  0.2804571E+04  0.7818609E-02  0.8301851E-01
        1   -1    0    0  501    0  0.00000000000E+00  0.00000000000E+00  0.28884044168E+04  0.28884044168E+04  0.50400001928E-02 0. -1.
       -1   -1    0    0    0  501  0.00000000000E+00  0.00000000000E+00 -0.68079268611E+03  0.68079268613E+03  0.50400001928E-02 0.  1.
    10030    2    1    2    0    0  0.00000000000E+00  0.00000000000E+00  0.22076117307E+04  0.35691971030E+04  0.28045709843E+04 0.  0.
        1    1    3    3  502    0  0.10849678905E+04  0.21132292547E+03  0.56518629561E+01  0.11053708182E+04  0.50400001928E-02 0.  1.
       -1    1    3    3    0  502 -0.10849678905E+04 -0.21132292547E+03  0.22019598678E+04  0.24638262848E+04  0.50400001928E-02 0. -1.
</event>
<event>
 5   0  0.5297741E-07  0.2801500E+04  0.7818609E-02  0.8302803E-01
        1   -1    0    0  501    0  0.00000000000E+00  0.00000000000E+00  0.14172126277E+04  0.14172126277E+04  0.50400001928E-02 0.  1.
       -1   -1    0    0    0  501  0.00000000000E+00  0.00000000000E+00 -0.13844789543E+04  0.13844789543E+04  0.50400001928E-02 0. -1.
    10030    2    1    2    0    0  0.00000000000E+00  0.00000000000E+00  0.32733673424E+02  0.28016915820E+04  0.28015003529E+04 0.  0.
        5    1    3    3  502    0 -0.41297007343E+03  0.10504011458E+04  0.84599691856E+03  0.14105388066E+04  0.46999998093E+01 0.  1.
       -5    1    3    3    0  502  0.41297007343E+03 -0.10504011458E+04 -0.81326324514E+03  0.13911527754E+04  0.46999998093E+01 0. -1.
</event>
<event>
 5   0  0.4710000E-07  0.2792639E+04  0.7818609E-02  0.8305557E-01
        3   -1    0    0  501    0  0.00000000000E+00  0.00000000000E+00  0.13814535291E+04  0.13814535328E+04  0.10100000352E+00 0.  1.
       -3   -1    0    0    0  501  0.00000000000E+00  0.00000000000E+00 -0.14113451312E+04  0.14113451348E+04  0.10100000352E+00 0. -1.
    10030    2    1    2    0    0  0.00000000000E+00  0.00000000000E+00 -0.29891602102E+02  0.27927986676E+04  0.27926386967E+04 0.  0.
        1    1    3    3  502    0 -0.70159807338E+03  0.69186603776E+03  0.97444865572E+03  0.13858097465E+04  0.50400001928E-02 0.  1.
       -1    1    3    3    0  502  0.70159807338E+03 -0.69186603776E+03 -0.10043402578E+04  0.14069889212E+04  0.50400001928E-02 0. -1.
</event>
<event>
 5   0  0.5551565E-07  0.2796912E+04  0.7818609E-02  0.8304228E-01
        1   -1    0    0  501    0  0.00000000000E+00  0.00000000000E+00  0.25597621636E+04  0.25597621636E+04  0.50400001928E-02 0.  1.
       -1   -1    0    0    0  501  0.00000000000E+00  0.00000000000E+00 -0.76400812951E+03  0.76400812952E+03  0.50400001928E-02 0. -1.
    10030    2    1    2    0    0  0.00000000000E+00  0.00000000000E+00  0.17957540341E+04  0.33237702931E+04  0.27969119419E+04 0.  0.
        3    1    3    3  502    0  0.84770619507E+03  0.61794617408E+03 -0.20110370182E+03  0.10681320032E+04  0.10100000352E+00 0. -1.
       -3    1    3    3    0  502 -0.84770619507E+03 -0.61794617408E+03  0.19968577359E+04  0.22556382899E+04  0.10100000352E+00 0.  1.
</event>
<event>
 5   0  0.1439207E-06  0.2790830E+04  0.7818609E-02  0.8306121E-01
        2   -1    0    0  501    0  0.00000000000E+00  0.00000000000E+00  0.12421020070E+04  0.12421020070E+04  0.25500000920E-02 0. -1.
       -2   -1    0    0    0  501  0.00000000000E+00  0.00000000000E+00 -0.15676512306E+04  0.15676512306E+04  0.25500000920E-02 0.  1.
    10030    2    1    2    0    0  0.00000000000E+00  0.00000000000E+00 -0.32554922362E+03  0.28097532376E+04  0.27908297976E+04 0.  0.
        5    1    3    3  502    0 -0.12477781729E+04  0.58635857953E+03 -0.37962752287E+03  0.14300020625E+04  0.46999998093E+01 0.  1.
       -5    1    3    3    0  502  0.12477781729E+04 -0.58635857953E+03  0.54078299247E+02  0.13797511751E+04  0.46999998093E+01 0. -1.
</event>
<event>
 5   0  0.4710000E-07  0.2797854E+04  0.7818609E-02  0.8303935E-01
        3   -1    0    0  501    0  0.00000000000E+00  0.00000000000E+00  0.98638903677E+03  0.98638904195E+03  0.10100000352E+00 0. -1.
       -3   -1    0    0    0  501  0.00000000000E+00  0.00000000000E+00 -0.19840003002E+04  0.19840003028E+04  0.10100000352E+00 0.  1.
    10030    2    1    2    0    0  0.00000000000E+00  0.00000000000E+00 -0.99761126343E+03  0.29703893447E+04  0.27978535748E+04 0.  0.
        1    1    3    3  502    0  0.12136682965E+04  0.69526069601E+03 -0.47241327977E+03  0.14763307476E+04  0.50400001928E-02 0. -1.
       -1    1    3    3    0  502 -0.12136682965E+04 -0.69526069601E+03 -0.52519798365E+03  0.14940585971E+04  0.50400001928E-02 0.  1.
</event>
<event>
 5   0  0.1439207E-06  0.2812795E+04  0.7818609E-02  0.8299307E-01
        2   -1    0    0  501    0  0.00000000000E+00  0.00000000000E+00  0.20737200915E+04  0.20737200915E+04  0.25500000920E-02 0.  1.
       -2   -1    0    0    0  501  0.00000000000E+00  0.00000000000E+00 -0.95381899943E+03  0.95381899944E+03  0.25500000920E-02 0. -1.
    10030    2    1    2    0    0  0.00000000000E+00  0.00000000000E+00  0.11199010921E+04  0.30275390910E+04  0.28127947830E+04 0.  0.
        5    1    3    3  502    0  0.17564795819E+03  0.28303705553E+03  0.20306377234E+04  0.20577837189E+04  0.46999998093E+01 0.  1.
       -5    1    3    3    0  502 -0.17564795819E+03 -0.28303705553E+03 -0.91073663132E+03  0.96975537207E+03  0.46999998093E+01 0. -1.
</event>
<event>
 5   0  0.5362952E-07  0.2800154E+04  0.7818609E-02  0.8303220E-01
        1   -1    0    0  501    0  0.00000000000E+00  0.00000000000E+00  0.15222535676E+04  0.15222535676E+04  0.50400001928E-02 0.  1.
       -1   -1    0    0    0  501  0.00000000000E+00  0.00000000000E+00 -0.12877067351E+04  0.12877067351E+04  0.50400001928E-02 0. -1.
    10030    2    1    2    0    0  0.00000000000E+00  0.00000000000E+00  0.23454683254E+03  0.28099603027E+04  0.28001544040E+04 0.  0.
        1    1    3    3  502    0  0.48351750596E+03 -0.49508695442E+03 -0.11040819567E+04  0.13030338591E+04  0.50400001928E-02 0. -1.
       -1    1    3    3    0  502 -0.48351750596E+03  0.49508695442E+03  0.13386287892E+04  0.15069264436E+04  0.50400001928E-02 0.  1.
</event>
<event>
 5   0  0.5297741E-07  0.2842345E+04  0.7818609E-02  0.8290241E-01
       -1   -1    0    0    0  501  0.00000000000E+00  0.00000000000E+00  0.15773728480E+04  0.15773728481E+04  0.50400001928E-02 0.  1.
        1   -1    0    0  501    0  0.00000000000E+00  0.00000000000E+00 -0.12804396014E+04  0.12804396014E+04  0.50400001928E-02 0. -1.
    10030    2    1    2    0    0  0.00000000000E+00  0.00000000000E+00  0.29693324662E+03  0.28578124495E+04  0.28423445681E+04 0.  0.
        5    1    3    3  502    0  0.13488993864E+04  0.42327878830E+03  0.29421785297E+03  0.14440501107E+04  0.46999998093E+01 0.  1.
       -5    1    3    3    0  502 -0.13488993864E+04 -0.42327878830E+03  0.27153936525E+01  0.14137623388E+04  0.46999998093E+01 0. -1.
</event>
<event>
 5   0  0.1499888E-06  0.2807443E+04  0.7818609E-02  0.8300961E-01
       -2   -1    0    0    0  501  0.00000000000E+00  0.00000000000E+00  0.10601125664E+04  0.10601125664E+04  0.25500000920E-02 0.  1.
        2   -1    0    0  501    0  0.00000000000E+00  0.00000000000E+00 -0.18587022537E+04  0.18587022537E+04  0.25500000920E-02 0. -1.
    10030    2    1    2    0    0  0.00000000000E+00  0.00000000000E+00 -0.79858968732E+03  0.29188148201E+04  0.28074426914E+04 0.  0.
        3    1    3    3  502    0  0.60453700163E+03  0.83205960251E+03  0.59392797015E+03  0.11876609838E+04  0.10100000352E+00 0.  1.
       -3    1    3    3    0  502 -0.60453700163E+03 -0.83205960251E+03 -0.13925176575E+04  0.17311538363E+04  0.10100000352E+00 0. -1.
</event>
<event>
 5   0  0.1439207E-06  0.2793963E+04  0.7818609E-02  0.8305145E-01
        2   -1    0    0  501    0  0.00000000000E+00  0.00000000000E+00  0.17920152695E+04  0.17920152695E+04  0.25500000920E-02 0. -1.
       -2   -1    0    0    0  501  0.00000000000E+00  0.00000000000E+00 -0.10890292222E+04  0.10890292222E+04  0.25500000920E-02 0.  1.
    10030    2    1    2    0    0  0.00000000000E+00  0.00000000000E+00  0.70298604735E+03  0.28810444917E+04  0.27939627736E+04 0.  0.
        5    1    3    3  502    0  0.18531367351E+03 -0.63630316860E+03 -0.91659690252E+03  0.11311033780E+04  0.46999998093E+01 0.  1.
       -5    1    3    3    0  502 -0.18531367351E+03  0.63630316860E+03  0.16195829499E+04  0.17499411137E+04  0.46999998093E+01 0. -1.
</event>
<event>
 5   0  0.4710000E-07  0.2798222E+04  0.7818609E-02  0.8303820E-01
       -3   -1    0    0    0  501  0.00000000000E+00  0.00000000000E+00  0.13588974982E+04  0.13588975019E+04  0.10100000352E+00 0. -1.
        3   -1    0    0  501    0  0.00000000000E+00  0.00000000000E+00 -0.14405147564E+04  0.14405147599E+04  0.10100000352E+00 0.  1.
    10030    2    1    2    0    0  0.00000000000E+00  0.00000000000E+00 -0.81617258191E+02  0.27994122618E+04  0.27982222276E+04 0.  0.
        5    1    3    3  502    0 -0.13246576782E+03  0.72999755815E+03 -0.12275028788E+04  0.14343043687E+04  0.46999998093E+01 0.  1.
       -5    1    3    3    0  502  0.13246576782E+03 -0.72999755815E+03  0.11458856206E+04  0.13651078932E+04  0.46999998093E+01 0. -1.
</event>
<event>
 5   0  0.1394410E-06  0.2800063E+04  0.7818609E-02  0.8303249E-01
        2   -1    0    0  501    0  0.00000000000E+00  0.00000000000E+00  0.17806705982E+04  0.17806705982E+04  0.25500000920E-02 0. -1.
       -2   -1    0    0    0  501  0.00000000000E+00  0.00000000000E+00 -0.11007584914E+04  0.11007584914E+04  0.25500000920E-02 0.  1.
    10030    2    1    2    0    0  0.00000000000E+00  0.00000000000E+00  0.67991210674E+03  0.28814290896E+04  0.28000630574E+04 0.  0.
        4    1    3    3  502    0  0.40012796391E+03  0.12269909693E+04 -0.21847060254E+03  0.13089462339E+04  0.12699999809E+01 0. -1.
       -4    1    3    3    0  502 -0.40012796391E+03 -0.12269909693E+04  0.89838270928E+03  0.15724828557E+04  0.12699999809E+01 0.  1.
</event>
<event>
 5   0  0.5551565E-07  0.2778069E+04  0.7818609E-02  0.8310109E-01
       -1   -1    0    0    0  501  0.00000000000E+00  0.00000000000E+00  0.11233281152E+04  0.11233281153E+04  0.50400001928E-02 0. -1.
        1   -1    0    0  501    0  0.00000000000E+00  0.00000000000E+00 -0.17175901553E+04  0.17175901553E+04  0.50400001928E-02 0.  1.
    10030    2    1    2    0    0  0.00000000000E+00  0.00000000000E+00 -0.59426204001E+03  0.28409182705E+04  0.27780693381E+04 0.  0.
        3    1    3    3  502    0  0.24250084002E+03 -0.18209050977E+03 -0.16833245257E+04  0.17104224859E+04  0.10100000352E+00 0.  1.
       -3    1    3    3    0  502 -0.24250084002E+03  0.18209050977E+03  0.10890624857E+04  0.11304957846E+04  0.10100000352E+00 0. -1.
</event>
<event>
 5   0  0.5282098E-07  0.2799571E+04  0.7818609E-02  0.8303402E-01
       -1   -1    0    0    0  501  0.00000000000E+00  0.00000000000E+00  0.12148500128E+04  0.12148500128E+04  0.50400001928E-02 0. -1.
        1   -1    0    0  501    0  0.00000000000E+00  0.00000000000E+00 -0.16128729880E+04  0.16128729880E+04  0.50400001928E-02 0.  1.
    10030    2    1    2    0    0  0.00000000000E+00  0.00000000000E+00 -0.39802297514E+03  0.28277230008E+04  0.27995705172E+04 0.  0.
        4    1    3    3  502    0 -0.79710208552E+03 -0.11347820407E+04 -0.65828493245E+01  0.13867757430E+04  0.12699999809E+01 0.  1.
       -4    1    3    3    0  502  0.79710208552E+03  0.11347820407E+04 -0.39144012581E+03  0.14409472578E+04  0.12699999809E+01 0. -1.
</event>
<event>
 5   0  0.5282098E-07  0.2799311E+04  0.7818609E-02  0.8303482E-01
       -1   -1    0    0    0  501  0.00000000000E+00  0.00000000000E+00  0.13307831558E+04  0.13307831558E+04  0.50400001928E-02 0. -1.
        1   -1    0    0  501    0  0.00000000000E+00  0.00000000000E+00 -0.14720919629E+04  0.14720919629E+04  0.50400001928E-02 0.  1.
    10030    2    1    2    0    0  0.00000000000E+00  0.00000000000E+00 -0.14130880709E+03  0.28028751187E+04  0.27993107637E+04 0.  0.
        4    1    3    3  502    0 -0.71588085974E+02 -0.35093795612E+03  0.12841210102E+04  0.13331356588E+04  0.12699999809E+01 0. -1.
       -4    1    3    3    0  502  0.71588085974E+02  0.35093795612E+03 -0.14254298173E+04  0.14697394599E+04  0.12699999809E+01 0.  1.
</event>
<event>
 5   0  0.5282098E-07  0.2795000E+04  0.7818609E-02  0.8304822E-01
       -1   -1    0    0    0  501  0.00000000000E+00  0.00000000000E+00  0.65722106829E+03  0.65722106831E+03  0.50400001928E-02 0.  1.
        1   -1    0    0  501    0  0.00000000000E+00  0.00000000000E+00 -0.29716117830E+04  0.29716117830E+04  0.50400001928E-02 0. -1.
    10030    2    1    2    0    0  0.00000000000E+00  0.00000000000E+00 -0.23143907147E+04  0.36288328513E+04  0.27949997285E+04 0.  0.
        4    1    3    3  502    0  0.35170970425E+03  0.77303758268E+03  0.28372752894E+03  0.89542712930E+03  0.12699999809E+01 0.  1.
       -4    1    3    3    0  502 -0.35170970425E+03 -0.77303758268E+03 -0.25981182437E+04  0.27334057220E+04  0.12699999809E+01 0. -1.
</event>
<event>
 5   0  0.5362952E-07  0.2800328E+04  0.7818609E-02  0.8303167E-01
        1   -1    0    0  501    0  0.00000000000E+00  0.00000000000E+00  0.22517855066E+04  0.22517855066E+04  0.50400001928E-02 0.  1.
       -1   -1    0    0    0  501  0.00000000000E+00  0.00000000000E+00 -0.87062437704E+03  0.87062437706E+03  0.50400001928E-02 0. -1.
    10030    2    1    2    0    0  0.00000000000E+00  0.00000000000E+00  0.13811611296E+04  0.31224098837E+04  0.28003280907E+04 0.  0.
        1    1    3    3  502    0 -0.68571403043E+03 -0.11394136782E+04  0.20201521015E+03  0.13450938282E+04  0.50400001928E-02 0.  1.
       -1    1    3    3    0  502  0.68571403043E+03  0.11394136782E+04  0.11791459194E+04  0.17773160554E+04  0.50400001928E-02 0. -1.
</event>
<event>
 5   0  0.5297741E-07  0.2806301E+04  0.7818609E-02  0.8301315E-01
       -1   -1    0    0    0  501  0.00000000000E+00  0.00000000000E+00  0.10580944451E+04  0.10580944451E+04  0.50400001928E-02 0. -1.
        1   -1    0    0  501    0  0.00000000000E+00  0.00000000000E+00 -0.18607333973E+04  0.18607333973E+04  0.50400001928E-02 0.  1.
    10030    2    1    2    0    0  0.00000000000E+00  0.00000000000E+00 -0.80263895225E+03  0.29188278424E+04  0.28063012465E+04 0.  0.
        5    1    3    3  502    0  0.13322936469E+04 -0.32539552739E+03 -0.70972377854E+03  0.15442210148E+04  0.46999998093E+01 0.  1.
       -5    1    3    3    0  502 -0.13322936469E+04  0.32539552739E+03 -0.92915173703E+02  0.13746068276E+04  0.46999998093E+01 0. -1.
</event>
<event>
 5   0  0.1394410E-06  0.2798559E+04  0.7818609E-02  0.8303716E-01
       -2   -1    0    0    0  501  0.00000000000E+00  0.00000000000E+00  0.96003232232E+03  0.96003232232E+03  0.25500000920E-02 0. -1.
        2   -1    0    0  501    0  0.00000000000E+00  0.00000000000E+00 -0.20394969938E+04  0.20394969938E+04  0.25500000920E-02 0.  1.
    10030    2    1    2    0    0  0.00000000000E+00  0.00000000000E+00 -0.10794646715E+04  0.29995293161E+04  0.27985589401E+04 0.  0.
        4    1    3    3  502    0  0.77128730003E+03 -0.10412332765E+04 -0.11057978835E+04  0.17034792066E+04  0.12699999809E+01 0.  1.
       -4    1    3    3    0  502 -0.77128730003E+03  0.10412332765E+04  0.26333212067E+02  0.12960501095E+04  0.12699999809E+01 0. -1.
</event>
<event>
 5   0  0.5297741E-07  0.2807480E+04  0.7818609E-02  0.8300950E-01
        1   -1    0    0  501    0  0.00000000000E+00  0.00000000000E+00  0.10192841383E+04  0.10192841383E+04  0.50400001928E-02 0.  1.
       -1   -1    0    0    0  501  0.00000000000E+00  0.00000000000E+00 -0.19332058510E+04  0.19332058510E+04  0.50400001928E-02 0. -1.
    10030    2    1    2    0    0  0.00000000000E+00  0.00000000000E+00 -0.91392171266E+03  0.29524899893E+04  0.28074800516E+04 0.  0.
        5    1    3    3  502    0 -0.66351385294E+03 -0.11656887868E+04 -0.21593751847E+02  0.13414802872E+04  0.46999998093E+01 0.  1.
       -5    1    3    3    0  502  0.66351385294E+03  0.11656887868E+04 -0.89232796081E+03  0.16110097021E+04  0.46999998093E+01 0. -1.
</event>
<event>
 5   0  0.1394410E-06  0.2796891E+04  0.7818609E-02  0.8304234E-01
       -2   -1    0    0    0  501  0.00000000000E+00  0.00000000000E+00  0.97872773725E+03  0.97872773725E+03  0.25500000920E-02 0.  1.
        2   -1    0    0  501    0  0.00000000000E+00  0.00000000000E+00 -0.19981550802E+04  0.19981550802E+04  0.25500000920E-02 0. -1.
    10030    2    1    2    0    0  0.00000000000E+00  0.00000000000E+00 -0.10194273429E+04  0.29768828174E+04  0.27968909884E+04 0.  0.
        4    1    3    3  502    0  0.24898060060E+03 -0.13396887586E+04 -0.84442030214E+03  0.16030609998E+04  0.12699999809E+01 0. -1.
       -4    1    3    3    0  502 -0.24898060060E+03  0.13396887586E+04 -0.17500704081E+03  0.13738218177E+04  0.12699999809E+01 0.  1.
</event>
<event>
 5   0  0.5362952E-07  0.2805341E+04  0.7818609E-02  0.8301612E-01
        1   -1    0    0  501    0  0.00000000000E+00  0.00000000000E+00  0.99248435584E+03  0.99248435585E+03  0.50400001928E-02 0. -1.
       -1   -1    0    0    0  501  0.00000000000E+00  0.00000000000E+00 -0.19823830795E+04  0.19823830796E+04  0.50400001928E-02 0.  1.
    10030    2    1    2    0    0  0.00000000000E+00  0.00000000000E+00 -0.98989872371E+03  0.29748674354E+04  0.28053407592E+04 0.  0.
        1    1    3    3  502    0 -0.93156940202E+03 -0.68940753064E+03  0.34297815549E+03  0.12086100733E+04  0.50400001928E-02 0. -1.
       -1    1    3    3    0  502  0.93156940202E+03  0.68940753064E+03 -0.13328768792E+04  0.17662573621E+04  0.50400001928E-02 0.  1.
</event>
<event>
 5   0  0.1461146E-06  0.2801994E+04  0.7818609E-02  0.8302650E-01
        2   -1    0    0  501    0  0.00000000000E+00  0.00000000000E+00  0.98170916335E+03  0.98170916335E+03  0.25500000920E-02 0. -1.
       -2   -1    0    0    0  501  0.00000000000E+00  0.00000000000E+00 -0.19993625433E+04  0.19993625433E+04  0.25500000920E-02 0.  1.
    10030    2    1    2    0    0  0.00000000000E+00  0.00000000000E+00 -0.10176533799E+04  0.29810717066E+04  0.28019939540E+04 0.  0.
        1    1    3    3  502    0  0.68667442667E+03 -0.78998560654E+03  0.48192138348E+03  0.11523225445E+04  0.50400001928E-02 0. -1.
       -1    1    3    3    0  502 -0.68667442667E+03  0.78998560654E+03 -0.14995747634E+04  0.18287491621E+04  0.50400001928E-02 0.  1.
</event>
<event>
 5   0  0.5551565E-07  0.2800715E+04  0.7818609E-02  0.8303047E-01
       -1   -1    0    0    0  501  0.00000000000E+00  0.00000000000E+00  0.15613037323E+04  0.15613037323E+04  0.50400001928E-02 0. -1.
        1   -1    0    0  501    0  0.00000000000E+00  0.00000000000E+00 -0.12560019304E+04  0.12560019304E+04  0.50400001928E-02 0.  1.
    10030    2    1    2    0    0  0.00000000000E+00  0.00000000000E+00  0.30530180187E+03  0.28173056627E+04  0.28007145529E+04 0.  0.
        3    1    3    3  502    0 -0.13793921009E+04 -0.16413834209E+03  0.33072081894E+03  0.14279496608E+04  0.10100000352E+00 0.  1.
       -3    1    3    3    0  502  0.13793921009E+04  0.16413834209E+03 -0.25419017074E+02  0.13893560019E+04  0.10100000352E+00 0. -1.
</event>
<event>
 5   0  0.1377807E-06  0.2799945E+04  0.7818609E-02  0.8303285E-01
        2   -1    0    0  501    0  0.00000000000E+00  0.00000000000E+00  0.11361498369E+04  0.11361498369E+04  0.25500000920E-02 0.  1.
       -2   -1    0    0    0  501  0.00000000000E+00  0.00000000000E+00 -0.17250567331E+04  0.17250567332E+04  0.25500000920E-02 0. -1.
    10030    2    1    2    0    0  0.00000000000E+00  0.00000000000E+00 -0.58890689624E+03  0.28612065701E+04  0.27999449466E+04 0.  0.
        2    1    3    3  502    0  0.84290887980E+03 -0.48561252789E+03  0.73435551761E+03  0.12188490198E+04  0.25500000920E-02 0.  1.
       -2    1    3    3    0  502 -0.84290887980E+03  0.48561252789E+03 -0.13232624139E+04  0.16423575502E+04  0.25500000920E-02 0. -1.
</event>
<event>
 5   0  0.5362952E-07  0.2795969E+04  0.7818609E-02  0.8304521E-01
        1   -1    0    0  501    0  0.00000000000E+00  0.00000000000E+00  0.17004638168E+04  0.17004638168E+04  0.50400001928E-02 0. -1.
       -1   -1    0    0    0  501  0.00000000000E+00  0.00000000000E+00 -0.11493099849E+04  0.11493099849E+04  0.50400001928E-02 0.  1.
    10030    2    1    2    0    0  0.00000000000E+00  0.00000000000E+00  0.55115383196E+03  0.28497738017E+04  0.27959685575E+04 0.  0.
        1    1    3    3  502    0  0.78992710120E+03 -0.79019715239E+02 -0.89727612964E+03  0.11980540027E+04  0.50400001928E-02 0.  1.
       -1    1    3    3    0  502 -0.78992710120E+03  0.79019715239E+02  0.14484299616E+04  0.16517197990E+04  0.50400001928E-02 0. -1.
</event>
<event>
 5   0  0.5551565E-07  0.2799021E+04  0.7818609E-02  0.8303573E-01
       -1   -1    0    0    0  501  0.00000000000E+00  0.00000000000E+00  0.12579580490E+04  0.12579580490E+04  0.50400001928E-02 0.  1.
        1   -1    0    0  501    0  0.00000000000E+00  0.00000000000E+00 -0.15569906961E+04  0.15569906961E+04  0.50400001928E-02 0. -1.
    10030    2    1    2    0    0  0.00000000000E+00  0.00000000000E+00 -0.29903264715E+03  0.28149487451E+04  0.27990205276E+04 0.  0.
        3    1    3    3  502    0 -0.13687079220E+04  0.16701159140E+03 -0.39040961226E+03  0.14330645216E+04  0.10100000352E+00 0. -1.
       -3    1    3    3    0  502  0.13687079220E+04 -0.16701159140E+03  0.91376965104E+02  0.13818842236E+04  0.10100000352E+00 0.  1.
</event>
<event>
 5   0  0.5362952E-07  0.2808127E+04  0.7818609E-02  0.8300750E-01
        1   -1    0    0  501    0  0.00000000000E+00  0.00000000000E+00  0.20509347452E+04  0.20509347452E+04  0.50400001928E-02 0. -1.
       -1   -1    0    0    0  501  0.00000000000E+00  0.00000000000E+00 -0.96121765661E+03  0.96121765662E+03  0.50400001928E-02 0.  1.
    10030    2    1    2    0    0  0.00000000000E+00  0.00000000000E+00  0.10897170886E+04  0.30121524019E+04  0.28081272690E+04 0.  0.
        1    1    3    3  502    0  0.10162223781E+04  0.59934645072E+03 -0.27167843513E+03  0.12106747135E+04  0.50400001928E-02 0. -1.
       -1    1    3    3    0  502 -0.10162223781E+04 -0.59934645072E+03  0.13613955238E+04  0.18014776884E+04  0.50400001928E-02 0.  1.
</event>
<event>
 5   0  0.1439207E-06  0.2754260E+04  0.7818609E-02  0.8317611E-01
        2   -1    0    0  501    0  0.00000000000E+00  0.00000000000E+00  0.20210115443E+04  0.20210115443E+04  0.25500000920E-02 0. -1.
       -2   -1    0    0    0  501  0.00000000000E+00  0.00000000000E+00 -0.93838503601E+03  0.93838503601E+03  0.25500000920E-02 0.  1.
    10030    2    1    2    0    0  0.00000000000E+00  0.00000000000E+00  0.10826265083E+04  0.29593965803E+04  0.27542599665E+04 0.  0.
        5    1    3    3  502    0 -0.51069553864E+03 -0.79787022093E+02 -0.83019144682E+03  0.97796514787E+03  0.46999998093E+01 0.  1.
       -5    1    3    3    0  502  0.51069553864E+03  0.79787022093E+02  0.19128179551E+04  0.19814314324E+04  0.46999998093E+01 0. -1.
</event>
<event>
 5   0  0.1499888E-06  0.2799566E+04  0.7818609E-02  0.8303403E-01
       -2   -1    0    0    0  501  0.00000000000E+00  0.00000000000E+00  0.10710394006E+04  0.10710394006E+04  0.25500000920E-02 0.  1.
        2   -1    0    0  501    0  0.00000000000E+00  0.00000000000E+00 -0.18294301713E+04  0.18294301713E+04  0.25500000920E-02 0. -1.
    10030    2    1    2    0    0  0.00000000000E+00  0.00000000000E+00 -0.75839077074E+03  0.29004695719E+04  0.27995655335E+04 0.  0.
        3    1    3    3  502    0 -0.82900649915E+03  0.71635172763E+03  0.52339956983E+03  0.12142317296E+04  0.10100000352E+00 0.  1.
       -3    1    3    3    0  502  0.82900649915E+03 -0.71635172763E+03 -0.12817903406E+04  0.16862378423E+04  0.10100000352E+00 0. -1.
</event>
<event>
 5   0  0.1461146E-06  0.2799766E+04  0.7818609E-02  0.8303341E-01
       -2   -1    0    0    0  501  0.00000000000E+00  0.00000000000E+00  0.10988386329E+04  0.10988386329E+04  0.25500000920E-02 0.  1.
        2   -1    0    0  501    0  0.00000000000E+00  0.00000000000E+00 -0.17834029148E+04  0.17834029148E+04  0.25500000920E-02 0. -1.
    10030    2    1    2    0    0  0.00000000000E+00  0.00000000000E+00 -0.68456428195E+03  0.28822415477E+04  0.27997657194E+04 0.  0.
        1    1    3    3  502    0 -0.91406870111E+02 -0.65293630931E+03  0.92900109518E+03  0.11391769287E+04  0.50400001928E-02 0.  1.
       -1    1    3    3    0  502  0.91406870111E+02  0.65293630931E+03 -0.16135653771E+04  0.17430646191E+04  0.50400001928E-02 0. -1.
</event>
<event>
 5   0  0.5214658E-07  0.2801783E+04  0.7818609E-02  0.8302715E-01
       -1   -1    0    0    0  501  0.00000000000E+00  0.00000000000E+00  0.12038273994E+04  0.12038273994E+04  0.50400001928E-02 0.  1.
        1   -1    0    0  501    0  0.00000000000E+00  0.00000000000E+00 -0.16302142836E+04  0.16302142836E+04  0.50400001928E-02 0. -1.
    10030    2    1    2    0    0  0.00000000000E+00  0.00000000000E+00 -0.42638688424E+03  0.28340416830E+04  0.28017827335E+04 0.  0.
        2    1    3    3  502    0 -0.59358834301E+03  0.10962222741E+04 -0.85964981752E+03  0.15142814151E+04  0.25500000920E-02 0. -1.
       -2    1    3    3    0  502  0.59358834301E+03 -0.10962222741E+04  0.43326293328E+03  0.13197602679E+04  0.25500000920E-02 0.  1.
</event>
<event>
 5   0  0.5362952E-07  0.2801317E+04  0.7818609E-02  0.8302860E-01
        1   -1    0    0  501    0  0.00000000000E+00  0.00000000000E+00  0.84863957420E+03  0.84863957421E+03  0.50400001928E-02 0.  1.
       -1   -1    0    0    0  501  0.00000000000E+00  0.00000000000E+00 -0.23117519381E+04  0.23117519381E+04  0.50400001928E-02 0. -1.
    10030    2    1    2    0    0  0.00000000000E+00  0.00000000000E+00 -0.14631123639E+04  0.31603915123E+04  0.28013169620E+04 0.  0.
        1    1    3    3  502    0 -0.46324916042E+03  0.62043401958E+03 -0.20483445279E+04  0.21898067180E+04  0.50400001928E-02 0. -1.
       -1    1    3    3    0  502  0.46324916042E+03 -0.62043401958E+03  0.58523216395E+03  0.97058479435E+03  0.50400001928E-02 0.  1.
</event>
<event>
 5   0  0.1439207E-06  0.2804529E+04  0.7818609E-02  0.8301864E-01
       -2   -1    0    0    0  501  0.00000000000E+00  0.00000000000E+00  0.13094535451E+04  0.13094535451E+04  0.25500000920E-02 0.  1.
        2   -1    0    0  501    0  0.00000000000E+00  0.00000000000E+00 -0.15016540729E+04  0.15016540729E+04  0.25500000920E-02 0. -1.
    10030    2    1    2    0    0  0.00000000000E+00  0.00000000000E+00 -0.19220052777E+03  0.28111076180E+04  0.28045293717E+04 0.  0.
        5    1    3    3  502    0  0.25516553931E+03 -0.41188070920E+02  0.12853625991E+04  0.13111006868E+04  0.46999998093E+01 0.  1.
       -5    1    3    3    0  502 -0.25516553931E+03  0.41188070920E+02 -0.14775631269E+04  0.15000069312E+04  0.46999998093E+01 0. -1.
</event>
<event>
 5   0  0.5297741E-07  0.2804209E+04  0.7818609E-02  0.8301963E-01
       -1   -1    0    0    0  501  0.00000000000E+00  0.00000000000E+00  0.13548518093E+04  0.13548518093E+04  0.50400001928E-02 0.  1.
        1   -1    0    0  501    0  0.00000000000E+00  0.00000000000E+00 -0.14510049589E+04  0.14510049589E+04  0.50400001928E-02 0. -1.
    10030    2    1    2    0    0  0.00000000000E+00  0.00000000000E+00 -0.96153149606E+02  0.28058567682E+04  0.28042087611E+04 0.  0.
        5    1    3    3  502    0  0.11516127540E+04 -0.63961968475E+03 -0.52851428210E+03  0.14193923745E+04  0.46999998093E+01 0.  1.
       -5    1    3    3    0  502 -0.11516127540E+04  0.63961968475E+03  0.43236113250E+03  0.13864643938E+04  0.46999998093E+01 0. -1.
</event>
<event>
 5   0  0.5282098E-07  0.2803059E+04  0.7818609E-02  0.8302319E-01
        1   -1    0    0  501    0  0.00000000000E+00  0.00000000000E+00  0.28130486156E+04  0.28130486156E+04  0.50400001928E-02 0.  1.
       -1   -1    0    0    0  501  0.00000000000E+00  0.00000000000E+00 -0.69827635498E+03  0.69827635500E+03  0.50400001928E-02 0. -1.
    10030    2    1    2    0    0  0.00000000000E+00  0.00000000000E+00  0.21147722606E+04  0.35113249706E+04  0.28030592814E+04 0.  0.
        4    1    3    3  502    0 -0.40924947758E+03  0.13339090887E+04  0.12230291586E+04  0.18554246219E+04  0.12699999809E+01 0. -1.
       -4    1    3    3    0  502  0.40924947758E+03 -0.13339090887E+04  0.89174310195E+03  0.16559003486E+04  0.12699999809E+01 0.  1.
</event>
<event>
 5   0  0.1439207E-06  0.2800594E+04  0.7818609E-02  0.8303084E-01
       -2   -1    0    0    0  501  0.00000000000E+00  0.00000000000E+00  0.13624123556E+04  0.13624123556E+04  0.25500000920E-02 0.  1.
        2   -1    0    0  501    0  0.00000000000E+00  0.00000000000E+00 -0.14392353923E+04  0.14392353924E+04  0.25500000920E-02 0. -1.
    10030    2    1    2    0    0  0.00000000000E+00  0.00000000000E+00 -0.76823036736E+02  0.28016477480E+04  0.28005942806E+04 0.  0.
        5    1    3    3  502    0 -0.56157287024E+02 -0.55971906070E+03 -0.13212241486E+04  0.14359994459E+04  0.46999998093E+01 0. -1.
       -5    1    3    3    0  502  0.56157287024E+02  0.55971906070E+03  0.12444011118E+04  0.13656483021E+04  0.46999998093E+01 0.  1.
</event>
<event>
 5   0  0.4710000E-07  0.2838440E+04  0.7818609E-02  0.8291433E-01
       -3   -1    0    0    0  501  0.00000000000E+00  0.00000000000E+00  0.15355638584E+04  0.15355638617E+04  0.10100000352E+00 0. -1.
        3   -1    0    0  501    0  0.00000000000E+00  0.00000000000E+00 -0.13116915111E+04  0.13116915150E+04  0.10100000352E+00 0.  1.
    10030    2    1    2    0    0  0.00000000000E+00  0.00000000000E+00  0.22387234727E+03  0.28472553767E+04  0.28384404789E+04 0.  0.
        4    1    3    3  502    0 -0.35460435612E+02  0.12329668518E+04  0.81605608643E+03  0.14789908212E+04  0.12699999809E+01 0. -1.
       -4    1    3    3    0  502  0.35460435612E+02 -0.12329668518E+04 -0.59218373916E+03  0.13682645555E+04  0.12699999809E+01 0.  1.
</event>
<event>
 5   0  0.1439207E-06  0.2797687E+04  0.7818609E-02  0.8303987E-01
        2   -1    0    0  501    0  0.00000000000E+00  0.00000000000E+00  0.20774476202E+04  0.20774476202E+04  0.25500000920E-02 0. -1.
       -2   -1    0    0    0  501  0.00000000000E+00  0.00000000000E+00 -0.94190742734E+03  0.94190742735E+03  0.25500000920E-02 0.  1.
    10030    2    1    2    0    0  0.00000000000E+00  0.00000000000E+00  0.11355401929E+04  0.30193550476E+04  0.27976871472E+04 0.  0.
        5    1    3    3  502    0 -0.13793014291E+03 -0.17667963102E+03  0.20579322782E+04  0.20701081537E+04  0.46999998093E+01 0. -1.
       -5    1    3    3    0  502  0.13793014291E+03  0.17667963102E+03 -0.92239208535E+03  0.94924689384E+03  0.46999998093E+01 0.  1.
</event>
<event>
 5   0  0.1394410E-06  0.2804133E+04  0.7818609E-02  0.8301986E-01
        2   -1    0    0  501    0  0.00000000000E+00  0.00000000000E+00  0.15148479752E+04  0.15148479752E+04  0.25500000920E-02 0. -1.
       -2   -1    0    0    0  501  0.00000000000E+00  0.00000000000E+00 -0.12976820792E+04  0.12976820792E+04  0.25500000920E-02 0.  1.
    10030    2    1    2    0    0  0.00000000000E+00  0.00000000000E+00  0.21716589599E+03  0.28125300544E+04  0.28041334277E+04 0.  0.
        4    1    3    3  502    0  0.11232000011E+03  0.13676466620E+04  0.39704852894E+03  0.14285385265E+04  0.12699999809E+01 0. -1.
       -4    1    3    3    0  502 -0.11232000011E+03 -0.13676466620E+04 -0.17988263295E+03  0.13839915278E+04  0.12699999809E+01 0.  1.
</event>
<event>
 5   0  0.1461146E-06  0.2800136E+04  0.7818609E-02  0.8303226E-01
        2   -1    0    0  501    0  0.00000000000E+00  0.00000000000E+00  0.22796484883E+04  0.22796484883E+04  0.25500000920E-02 0. -1.
       -2   -1    0    0    0  501  0.00000000000E+00  0.00000000000E+00 -0.85986526877E+03  0.85986526878E+03  0.25500000920E-02 0.  1.
    10030    2    1    2    0    0  0.00000000000E+00  0.00000000000E+00  0.14197832196E+04  0.31395137571E+04  0.28001361111E+04 0.  0.
        1    1    3    3  502    0 -0.38027143509E+03 -0.80563811574E+03  0.19208562691E+04  0.21173917787E+04  0.50400001928E-02 0. -1.
       -1    1    3    3    0  502  0.38027143509E+03  0.80563811574E+03 -0.50107304951E+03  0.10221219785E+04  0.50400001928E-02 0.  1.
</event>
<event>
 5   0  0.1461146E-06  0.2802271E+04  0.7818609E-02  0.8302564E-01
        2   -1    0    0  501    0  0.00000000000E+00  0.00000000000E+00  0.13793495730E+04  0.13793495730E+04  0.25500000920E-02 0. -1.
       -2   -1    0    0    0  501  0.00000000000E+00  0.00000000000E+00 -0.14232659706E+04  0.14232659706E+04  0.25500000920E-02 0.  1.
    10030    2    1    2    0    0  0.00000000000E+00  0.00000000000E+00 -0.43916397540E+02  0.28026155436E+04  0.28022714421E+04 0.  0.
        1    1    3    3  502    0 -0.35625647046E+03  0.35529742589E+03  0.12858821440E+04  0.13808141880E+04  0.50400001928E-02 0. -1.
       -1    1    3    3    0  502  0.35625647046E+03 -0.35529742589E+03 -0.13297985415E+04  0.14218013556E+04  0.50400001928E-02 0.  1.
</event>
<event>
 5   0  0.5214658E-07  0.2802602E+04  0.7818609E-02  0.8302461E-01
       -1   -1    0    0    0  501  0.00000000000E+00  0.00000000000E+00  0.11575850777E+04  0.11575850777E+04  0.50400001928E-02 0. -1.
        1   -1    0    0  501    0  0.00000000000E+00  0.00000000000E+00 -0.16963283243E+04  0.16963283243E+04  0.50400001928E-02 0.  1.
    10030    2    1    2    0    0  0.00000000000E+00  0.00000000000E+00 -0.53874324664E+03  0.28539134020E+04  0.28026019019E+04 0.  0.
        2    1    3    3  502    0 -0.52793565097E+03 -0.12829187581E+04 -0.47059455008E+03  0.14649422589E+04  0.25500000920E-02 0. -1.
       -2    1    3    3    0  502  0.52793565097E+03  0.12829187581E+04 -0.68148696557E+02  0.13889711431E+04  0.25500000920E-02 0.  1.
</event>
<event>
 5   0  0.1461146E-06  0.2772899E+04  0.7818609E-02  0.8311732E-01
       -2   -1    0    0    0  501  0.00000000000E+00  0.00000000000E+00  0.13804172502E+04  0.13804172502E+04  0.25500000920E-02 0.  1.
        2   -1    0    0  501    0  0.00000000000E+00  0.00000000000E+00 -0.13925084874E+04  0.13925084874E+04  0.25500000920E-02 0. -1.
    10030    2    1    2    0    0  0.00000000000E+00  0.00000000000E+00 -0.12091237177E+02  0.27729257376E+04  0.27728993758E+04 0.  0.
        1    1    3    3  502    0  0.19184289518E+03  0.12418766275E+04 -0.59186812400E+03  0.13890173255E+04  0.50400001928E-02 0. -1.
       -1    1    3    3    0  502 -0.19184289518E+03 -0.12418766275E+04  0.57977688682E+03  0.13839084121E+04  0.50400001928E-02 0.  1.
</event>
<event>
 5   0  0.5297741E-07  0.2803982E+04  0.7818609E-02  0.8302033E-01
        1   -1    0    0  501    0  0.00000000000E+00  0.00000000000E+00  0.26089274647E+04  0.26089274647E+04  0.50400001928E-02 0. -1.
       -1   -1    0    0    0  501  0.00000000000E+00  0.00000000000E+00 -0.75340500878E+03  0.75340500879E+03  0.50400001928E-02 0.  1.
    10030    2    1    2    0    0  0.00000000000E+00  0.00000000000E+00  0.18555224559E+04  0.33623324735E+04  0.28039821822E+04 0.  0.
        5    1    3    3  502    0 -0.75134329963E+03 -0.10962211578E+04  0.14631409563E+04  0.19766186098E+04  0.46999998093E+01 0. -1.
       -5    1    3    3    0  502  0.75134329963E+03  0.10962211578E+04  0.39238149965E+03  0.13857138637E+04  0.46999998093E+01 0.  1.
</event>
<event>
 5   0  0.5551565E-07  0.2803002E+04  0.7818609E-02  0.8302337E-01
       -1   -1    0    0    0  501  0.00000000000E+00  0.00000000000E+00  0.14633308805E+04  0.14633308805E+04  0.50400001928E-02 0. -1.
        1   -1    0    0  501    0  0.00000000000E+00  0.00000000000E+00 -0.13422835350E+04  0.13422835350E+04  0.50400001928E-02 0.  1.
    10030    2    1    2    0    0  0.00000000000E+00  0.00000000000E+00  0.12104734553E+03  0.28056144155E+04  0.28030019245E+04 0.  0.
        3    1    3    3  502    0  0.22613450247E+03  0.13810127812E+04  0.13722290718E+03  0.14061163719E+04  0.10100000352E+00 0.  1.
       -3    1    3    3    0  502 -0.22613450247E+03 -0.13810127812E+04 -0.16175561647E+02  0.13994980436E+04  0.10100000352E+00 0. -1.
</event>
<event>
 5   0  0.1394410E-06  0.2796521E+04  0.7818609E-02  0.8304349E-01
       -2   -1    0    0    0  501  0.00000000000E+00  0.00000000000E+00  0.14202030041E+04  0.14202030041E+04  0.25500000920E-02 0. -1.
        2   -1    0    0  501    0  0.00000000000E+00  0.00000000000E+00 -0.13766568017E+04  0.13766568017E+04  0.25500000920E-02 0.  1.
    10030    2    1    2    0    0  0.00000000000E+00  0.00000000000E+00  0.43546202433E+02  0.27968598058E+04  0.27965207851E+04 0.  0.
        4    1    3    3  502    0  0.47509161042E+03  0.13145888636E+04 -0.13932680999E+02  0.13978739754E+04  0.12699999809E+01 0.  1.
       -4    1    3    3    0  502 -0.47509161042E+03 -0.13145888636E+04  0.57478883432E+02  0.13989858304E+04  0.12699999809E+01 0. -1.
</event>
<event>
 5   0  0.5362952E-07  0.2793678E+04  0.7818609E-02  0.8305234E-01
       -1   -1    0    0    0  501  0.00000000000E+00  0.00000000000E+00  0.12421355392E+04  0.12421355392E+04  0.50400001928E-02 0.  1.
        1   -1    0    0  501    0  0.00000000000E+00  0.00000000000E+00 -0.15708097098E+04  0.15708097098E+04  0.50400001928E-02 0. -1.
    10030    2    1    2    0    0  0.00000000000E+00  0.00000000000E+00 -0.32867417065E+03  0.28129452490E+04  0.27936775518E+04 0.  0.
        1    1    3    3  502    0 -0.92725174574E+03  0.45839965798E+02  0.88653793938E+03  0.12836847824E+04  0.50400001928E-02 0.  1.
       -1    1    3    3    0  502  0.92725174574E+03 -0.45839965798E+02 -0.12152121100E+04  0.15292604666E+04  0.50400001928E-02 0. -1.
</event>
<event>
 5   0  0.1499888E-06  0.2803613E+04  0.7818609E-02  0.8302147E-01
       -2   -1    0    0    0  501  0.00000000000E+00  0.00000000000E+00  0.98774483024E+03  0.98774483024E+03  0.25500000920E-02 0.  1.
        2   -1    0    0  501    0  0.00000000000E+00  0.00000000000E+00 -0.19894431207E+04  0.19894431207E+04  0.25500000920E-02 0. -1.
    10030    2    1    2    0    0  0.00000000000E+00  0.00000000000E+00 -0.10016982905E+04  0.29771879509E+04  0.28036134951E+04 0.  0.
        3    1    3    3  502    0 -0.13108347080E+03  0.48149937395E+03 -0.18919272457E+04  0.19566331380E+04  0.10100000352E+00 0. -1.
       -3    1    3    3    0  502  0.13108347080E+03 -0.48149937395E+03  0.89022895521E+03  0.10205548130E+04  0.10100000352E+00 0.  1.
</event>
<event>
 5   0  0.1499888E-06  0.2800513E+04  0.7818609E-02  0.8303109E-01
        2   -1    0    0  501    0  0.00000000000E+00  0.00000000000E+00  0.14494889593E+04  0.14494889593E+04  0.25500000920E-02 0.  1.
       -2   -1    0    0    0  501  0.00000000000E+00  0.00000000000E+00 -0.13526966258E+04  0.13526966259E+04  0.25500000920E-02 0. -1.
    10030    2    1    2    0    0  0.00000000000E+00  0.00000000000E+00  0.96792333447E+02  0.28021855851E+04  0.28005133990E+04 0.  0.
        3    1    3    3  502    0  0.84507787477E+03 -0.33398412047E+03 -0.10176116421E+04  0.13642710404E+04  0.10100000352E+00 0. -1.
       -3    1    3    3    0  502 -0.84507787477E+03  0.33398412047E+03  0.11144039756E+04  0.14379145448E+04  0.10100000352E+00 0.  1.
</event>
<event>
 5   0  0.1499888E-06  0.2799092E+04  0.7818609E-02  0.8303550E-01
       -2   -1    0    0    0  501  0.00000000000E+00  0.00000000000E+00  0.94799920116E+03  0.94799920117E+03  0.25500000920E-02 0. -1.
        2   -1    0    0  501    0  0.00000000000E+00  0.00000000000E+00 -0.20661712493E+04  0.20661712493E+04  0.25500000920E-02 0.  1.
    10030    2    1    2    0    0  0.00000000000E+00  0.00000000000E+00 -0.11181720481E+04  0.30141704504E+04  0.27990917768E+04 0.  0.
        3    1    3    3  502    0 -0.77041405133E+03  0.83391478089E+03  0.32219777849E+03  0.11801538421E+04  0.10100000352E+00 0. -1.
       -3    1    3    3    0  502  0.77041405133E+03 -0.83391478089E+03 -0.14403698266E+04  0.18340166084E+04  0.10100000352E+00 0.  1.
</event>
<event>
 5   0  0.5214658E-07  0.2803742E+04  0.7818609E-02  0.8302108E-01
        1   -1    0    0  501    0  0.00000000000E+00  0.00000000000E+00  0.15974118421E+04  0.15974118421E+04  0.50400001928E-02 0.  1.
       -1   -1    0    0    0  501  0.00000000000E+00  0.00000000000E+00 -0.12302665396E+04  0.12302665396E+04  0.50400001928E-02 0. -1.
    10030    2    1    2    0    0  0.00000000000E+00  0.00000000000E+00  0.36714530247E+03  0.28276783817E+04  0.28037420276E+04 0.  0.
        2    1    3    3  502    0 -0.26815489766E+03  0.13503382563E+04  0.45025760882E+03  0.14484655225E+04  0.25500000920E-02 0. -1.
       -2    1    3    3    0  502  0.26815489766E+03 -0.13503382563E+04 -0.83112306347E+02  0.13792128592E+04  0.25500000920E-02 0.  1.
</event>
<event>
 5   0  0.1439207E-06  0.2806679E+04  0.7818609E-02  0.8301198E-01
       -2   -1    0    0    0  501  0.00000000000E+00  0.00000000000E+00  0.15428196123E+04  0.15428196123E+04  0.25500000920E-02 0. -1.
        2   -1    0    0  501    0  0.00000000000E+00  0.00000000000E+00 -0.12764695428E+04  0.12764695428E+04  0.25500000920E-02 0.  1.
    10030    2    1    2    0    0  0.00000000000E+00  0.00000000000E+00  0.26635006950E+03  0.28192891552E+04  0.28066793513E+04 0.  0.
        5    1    3    3  502    0  0.73281506808E+03  0.64309598557E+03 -0.88069102812E+03  0.13138603989E+04  0.46999998093E+01 0.  1.
       -5    1    3    3    0  502 -0.73281506808E+03 -0.64309598557E+03  0.11470410976E+04  0.15054287563E+04  0.46999998093E+01 0. -1.
</event>
<event>
 5   0  0.1439207E-06  0.2798827E+04  0.7818609E-02  0.8303633E-01
       -2   -1    0    0    0  501  0.00000000000E+00  0.00000000000E+00  0.10157614062E+04  0.10157614062E+04  0.25500000920E-02 0. -1.
        2   -1    0    0  501    0  0.00000000000E+00  0.00000000000E+00 -0.19279710651E+04  0.19279710651E+04  0.25500000920E-02 0.  1.
    10030    2    1    2    0    0  0.00000000000E+00  0.00000000000E+00 -0.91220965886E+03  0.29437324713E+04  0.27988273261E+04 0.  0.
        5    1    3    3  502    0  0.12641227581E+03  0.13349515520E+04 -0.35052681578E+02  0.13413897607E+04  0.46999998093E+01 0. -1.
       -5    1    3    3    0  502 -0.12641227581E+03 -0.13349515520E+04 -0.87715697728E+03  0.16023427107E+04  0.46999998093E+01 0.  1.
</event>
<event>
 5   0  0.1394410E-06  0.2795104E+04  0.7818609E-02  0.8304790E-01
        2   -1    0    0  501    0  0.00000000000E+00  0.00000000000E+00  0.19611045717E+04  0.19611045717E+04  0.25500000920E-02 0. -1.
       -2   -1    0    0    0  501  0.00000000000E+00  0.00000000000E+00 -0.99594492225E+03  0.99594492225E+03  0.25500000920E-02 0.  1.
    10030    2    1    2    0    0  0.00000000000E+00  0.00000000000E+00  0.96515964941E+03  0.29570494939E+04  0.27951043917E+04 0.  0.
        4    1    3    3  502    0  0.52208319581E+03  0.11746787523E+04 -0.97561937926E+02  0.12891706555E+04  0.12699999809E+01 0.  1.
       -4    1    3    3    0  502 -0.52208319581E+03 -0.11746787523E+04  0.10627215873E+04  0.16678788384E+04  0.12699999809E+01 0. -1.
</event>
<event>
 5   0  0.1394410E-06  0.2796931E+04  0.7818609E-02  0.8304222E-01
        2   -1    0    0  501    0  0.00000000000E+00  0.00000000000E+00  0.18732123851E+04  0.18732123851E+04  0.25500000920E-02 0. -1.
       -2   -1    0    0    0  501  0.00000000000E+00  0.00000000000E+00 -0.10440387152E+04  0.10440387152E+04  0.25500000920E-02 0.  1.
    10030    2    1    2    0    0  0.00000000000E+00  0.00000000000E+00  0.82917366992E+03  0.29172511002E+04  0.27969313554E+04 0.  0.
        4    1    3    3  502    0  0.61945904865E+03  0.11848940925E+04 -0.12924946067E+02  0.13371133798E+04  0.12699999809E+01 0.  1.
       -4    1    3    3    0  502 -0.61945904865E+03 -0.11848940925E+04  0.84209861598E+03  0.15801377204E+04  0.12699999809E+01 0. -1.
</event>
<event>
 5   0  0.5282098E-07  0.2866240E+04  0.7818609E-02  0.8282994E-01
        1   -1    0    0  501    0  0.00000000000E+00  0.00000000000E+00  0.14745672346E+04  0.14745672346E+04  0.50400001928E-02 0.  1.
       -1   -1    0    0    0  501  0.00000000000E+00  0.00000000000E+00 -0.13928375799E+04  0.13928375799E+04  0.50400001928E-02 0. -1.
    10030    2    1    2    0    0  0.00000000000E+00  0.00000000000E+00  0.81729654650E+02  0.28674048145E+04  0.28662398075E+04 0.  0.
        4    1    3    3  502    0 -0.11065033848E+04  0.71325680616E+03 -0.52570981590E+03  0.14175533272E+04  0.12699999809E+01 0. -1.
       -4    1    3    3    0  502  0.11065033848E+04 -0.71325680616E+03  0.60743947055E+03  0.14498514873E+04  0.12699999809E+01 0.  1.
</event>
<event>
 5   0  0.1499888E-06  0.2796373E+04  0.7818609E-02  0.8304395E-01
       -2   -1    0    0    0  501  0.00000000000E+00  0.00000000000E+00  0.74051090312E+03  0.74051090313E+03  0.25500000920E-02 0. -1.
        2   -1    0    0  501    0  0.00000000000E+00  0.00000000000E+00 -0.26399685361E+04  0.26399685361E+04  0.25500000920E-02 0.  1.
    10030    2    1    2    0    0  0.00000000000E+00  0.00000000000E+00 -0.18994576330E+04  0.33804794392E+04  0.27963729972E+04 0.  0.
        3    1    3    3  502    0 -0.25585293029E+02 -0.19743331620E+03  0.72328904528E+03  0.75018769304E+03  0.10100000352E+00 0. -1.
       -3    1    3    3    0  502  0.25585293029E+02  0.19743331620E+03 -0.26227466783E+04  0.26302917462E+04  0.10100000352E+00 0.  1.
</event>
<event>
 5   0  0.5282098E-07  0.2804395E+04  0.7818609E-02  0.8301905E-01
        1   -1    0    0  501    0  0.00000000000E+00  0.00000000000E+00  0.13449641668E+04  0.13449641668E+04  0.50400001928E-02 0.  1.
       -1   -1    0    0    0  501  0.00000000000E+00  0.00000000000E+00 -0.14618659889E+04  0.14618659889E+04  0.50400001928E-02 0. -1.
    10030    2    1    2    0    0  0.00000000000E+00  0.00000000000E+00 -0.11690182215E+03  0.28068301558E+04  0.28043946739E+04 0.  0.
        4    1    3    3  502    0  0.43213165390E+03 -0.69624880821E+03  0.10803665713E+04  0.13559844065E+04  0.12699999809E+01 0.  1.
       -4    1    3    3    0  502 -0.43213165390E+03  0.69624880821E+03 -0.11972683935E+04  0.14508457493E+04  0.12699999809E+01 0. -1.
</event>
<event>
 5   0  0.1461146E-06  0.2794482E+04  0.7818609E-02  0.8304984E-01
        2   -1    0    0  501    0  0.00000000000E+00  0.00000000000E+00  0.12495344911E+04  0.12495344912E+04  0.25500000920E-02 0.  1.
       -2   -1    0    0    0  501  0.00000000000E+00  0.00000000000E+00 -0.15624073702E+04  0.15624073702E+04  0.25500000920E-02 0. -1.
    10030    2    1    2    0    0  0.00000000000E+00  0.00000000000E+00 -0.31287287908E+03  0.28119418614E+04  0.27944816323E+04 0.  0.
        1    1    3    3  502    0  0.69518298690E+03 -0.63146847031E+02 -0.13743770503E+04  0.15414860317E+04  0.50400001928E-02 0. -1.
       -1    1    3    3    0  502 -0.69518298690E+03  0.63146847031E+02  0.10615041712E+04  0.12704558297E+04  0.50400001928E-02 0.  1.
</event>
<event>
 5   0  0.1377807E-06  0.2799570E+04  0.7818609E-02  0.8303402E-01
       -2   -1    0    0    0  501  0.00000000000E+00  0.00000000000E+00  0.95195490166E+03  0.95195490167E+03  0.25500000920E-02 0. -1.
        2   -1    0    0  501    0  0.00000000000E+00  0.00000000000E+00 -0.20582885967E+04  0.20582885967E+04  0.25500000920E-02 0.  1.
    10030    2    1    2    0    0  0.00000000000E+00  0.00000000000E+00 -0.11063336950E+04  0.30102434984E+04  0.27995699089E+04 0.  0.
        2    1    3    3  502    0  0.42663426077E+03 -0.13296457338E+04 -0.44878789291E+03  0.14667600836E+04  0.25500000920E-02 0. -1.
       -2    1    3    3    0  502 -0.42663426077E+03  0.13296457338E+04 -0.65754580210E+03  0.15434834148E+04  0.25500000920E-02 0.  1.
</event>
<event>
 5   0  0.5282098E-07  0.2798635E+04  0.7818609E-02  0.8303692E-01
        1   -1    0    0  501    0  0.00000000000E+00  0.00000000000E+00  0.18464796928E+04  0.18464796928E+04  0.50400001928E-02 0.  1.
       -1   -1    0    0    0  501  0.00000000000E+00  0.00000000000E+00 -0.10604445026E+04  0.10604445026E+04  0.50400001928E-02 0. -1.
    10030    2    1    2    0    0  0.00000000000E+00  0.00000000000E+00  0.78603519019E+03  0.29069241954E+04  0.27986348382E+04 0.  0.
        4    1    3    3  502    0 -0.13808562064E+04 -0.87907691311E+02  0.17614194171E+03  0.13948187056E+04  0.12699999809E+01 0. -1.
       -4    1    3    3    0  502  0.13808562064E+04  0.87907691311E+02  0.60989324848E+03  0.15121054898E+04  0.12699999809E+01 0.  1.
</event>
<event>
 5   0  0.5214658E-07  0.2801190E+04  0.7818609E-02  0.8302899E-01
        1   -1    0    0  501    0  0.00000000000E+00  0.00000000000E+00  0.10637136401E+04  0.10637136401E+04  0.50400001928E-02 0. -1.
       -1   -1    0    0    0  501  0.00000000000E+00  0.00000000000E+00 -0.18441681687E+04  0.18441681687E+04  0.50400001928E-02 0.  1.
    10030    2    1    2    0    0  0.00000000000E+00  0.00000000000E+00 -0.78045452861E+03  0.29078818089E+04  0.28011903440E+04 0.  0.
        2    1    3    3  502    0 -0.12095865133E+04  0.70520498560E+03 -0.35347791449E+03  0.14440776437E+04  0.25500000920E-02 0. -1.
       -2    1    3    3    0  502  0.12095865133E+04 -0.70520498560E+03 -0.42697661412E+03  0.14638041652E+04  0.25500000920E-02 0.  1.
</event>
<event>
 5   0  0.1394410E-06  0.2815075E+04  0.7818609E-02  0.8298603E-01
        2   -1    0    0  501    0  0.00000000000E+00  0.00000000000E+00  0.22518500932E+04  0.22518500932E+04  0.25500000920E-02 0. -1.
       -2   -1    0    0    0  501  0.00000000000E+00  0.00000000000E+00 -0.87979315485E+03  0.87979315485E+03  0.25500000920E-02 0.  1.
    10030    2    1    2    0    0  0.00000000000E+00  0.00000000000E+00  0.13720569384E+04  0.31316432481E+04  0.28150753438E+04 0.  0.
        4    1    3    3  502    0 -0.60102463072E+03  0.11544111072E+04  0.12822719896E+04  0.18270519093E+04  0.12699999809E+01 0. -1.
       -4    1    3    3    0  502  0.60102463072E+03 -0.11544111072E+04  0.89784948795E+02  0.13045913388E+04  0.12699999809E+01 0.  1.
</event>
<event>
 5   0  0.1394410E-06  0.2755535E+04  0.7818609E-02  0.8317207E-01
        2   -1    0    0  501    0  0.00000000000E+00  0.00000000000E+00  0.14418209691E+04  0.14418209691E+04  0.25500000920E-02 0. -1.
       -2   -1    0    0    0  501  0.00000000000E+00  0.00000000000E+00 -0.13165594598E+04  0.13165594598E+04  0.25500000920E-02 0.  1.
    10030    2    1    2    0    0  0.00000000000E+00  0.00000000000E+00  0.12526150924E+03  0.27583804289E+04  0.27555348201E+04 0.  0.
        4    1    3    3  502    0 -0.91386985476E+03 -0.53359537306E+03  0.94578856890E+03  0.14192955166E+04  0.12699999809E+01 0. -1.
       -4    1    3    3    0  502  0.91386985476E+03  0.53359537306E+03 -0.82052705967E+03  0.13390849122E+04  0.12699999809E+01 0.  1.
</event>
<event>
 5   0  0.5282098E-07  0.2798934E+04  0.7818609E-02  0.8303599E-01
        1   -1    0    0  501    0  0.00000000000E+00  0.00000000000E+00  0.14455328066E+04  0.14455328066E+04  0.50400001928E-02 0.  1.
       -1   -1    0    0    0  501  0.00000000000E+00  0.00000000000E+00 -0.13548694559E+04  0.13548694559E+04  0.50400001928E-02 0. -1.
    10030    2    1    2    0    0  0.00000000000E+00  0.00000000000E+00  0.90663350679E+02  0.28004022625E+04  0.27989342594E+04 0.  0.
        4    1    3    3  502    0  0.13810870236E+04 -0.22596281140E+03  0.52123118665E+02  0.14004210050E+04  0.12699999809E+01 0.  1.
       -4    1    3    3    0  502 -0.13810870236E+04  0.22596281140E+03  0.38540232014E+02  0.13999812575E+04  0.12699999809E+01 0. -1.
</event>
<event>
 5   0  0.5214658E-07  0.2788629E+04  0.7818609E-02  0.8306807E-01
        1   -1    0    0  501    0  0.00000000000E+00  0.00000000000E+00  0.19461344230E+04  0.19461344231E+04  0.50400001928E-02 0. -1.
       -1   -1    0    0    0  501  0.00000000000E+00  0.00000000000E+00 -0.99896152546E+03  0.99896152547E+03  0.50400001928E-02 0.  1.
    10030    2    1    2    0    0  0.00000000000E+00  0.00000000000E+00  0.94717289759E+03  0.29450959485E+04  0.27886293494E+04 0.  0.
        2    1    3    3  502    0 -0.42363671342E+03  0.86970392843E+03 -0.58687531650E+03  0.11314926536E+04  0.25500000920E-02 0.  1.
       -2    1    3    3    0  502  0.42363671342E+03 -0.86970392843E+03  0.15340482141E+04  0.18136032949E+04  0.25500000920E-02 0. -1.
</event>
<event>
 5   0  0.1439207E-06  0.2804942E+04  0.7818609E-02  0.8301736E-01
       -2   -1    0    0    0  501  0.00000000000E+00  0.00000000000E+00  0.12011863216E+04  0.12011863216E+04  0.25500000920E-02 0. -1.
        2   -1    0    0  501    0  0.00000000000E+00  0.00000000000E+00 -0.16374856714E+04  0.16374856714E+04  0.25500000920E-02 0.  1.
    10030    2    1    2    0    0  0.00000000000E+00  0.00000000000E+00 -0.43629934978E+03  0.28386719930E+04  0.28049423454E+04 0.  0.
        5    1    3    3  502    0 -0.78081958346E+01  0.55156470918E+03 -0.15230808449E+04  0.16199018324E+04  0.46999998093E+01 0.  1.
       -5    1    3    3    0  502  0.78081958346E+01 -0.55156470918E+03  0.10867814951E+04  0.12187701607E+04  0.46999998093E+01 0. -1.
</event>
<event>
 5   0  0.4710000E-07  0.2800441E+04  0.7818609E-02  0.8303131E-01
       -4   -1    0    0    0  501  0.00000000000E+00  0.00000000000E+00  0.15149191670E+04  0.15149196994E+04  0.12699999809E+01 0. -1.
        4   -1    0    0  501    0  0.00000000000E+00  0.00000000000E+00 -0.12942050714E+04  0.12942056945E+04  0.12699999809E+01 0.  1.
    10030    2    1    2    0    0  0.00000000000E+00  0.00000000000E+00  0.22071409560E+03  0.28091253939E+04  0.28004411736E+04 0.  0.
        1    1    3    3  502    0  0.10070173489E+03 -0.70064336696E+03  0.13222324966E+04  0.14997802313E+04  0.50400001928E-02 0. -1.
       -1    1    3    3    0  502 -0.10070173489E+03  0.70064336696E+03 -0.11015184010E+04  0.13093451626E+04  0.50400001928E-02 0.  1.
</event>
<event>
 5   0  0.5297741E-07  0.2800552E+04  0.7818609E-02  0.8303097E-01
       -1   -1    0    0    0  501  0.00000000000E+00  0.00000000000E+00  0.12362443031E+04  0.12362443031E+04  0.50400001928E-02 0.  1.
        1   -1    0    0  501    0  0.00000000000E+00  0.00000000000E+00 -0.15860727163E+04  0.15860727163E+04  0.50400001928E-02 0. -1.
    10030    2    1    2    0    0  0.00000000000E+00  0.00000000000E+00 -0.34982841317E+03  0.28223170194E+04  0.28005523454E+04 0.  0.
        5    1    3    3  502    0 -0.89204209026E+03 -0.94567499248E+03 -0.69925668418E+03  0.14761511720E+04  0.46999998093E+01 0. -1.
       -5    1    3    3    0  502  0.89204209026E+03  0.94567499248E+03  0.34942827101E+03  0.13461658474E+04  0.46999998093E+01 0.  1.
</event>
<event>
 5   0  0.1377807E-06  0.2802700E+04  0.7818609E-02  0.8302431E-01
       -2   -1    0    0    0  501  0.00000000000E+00  0.00000000000E+00  0.11692656962E+04  0.11692656962E+04  0.25500000920E-02 0.  1.
        2   -1    0    0  501    0  0.00000000000E+00  0.00000000000E+00 -0.16795003526E+04  0.16795003526E+04  0.25500000920E-02 0. -1.
    10030    2    1    2    0    0  0.00000000000E+00  0.00000000000E+00 -0.51023465642E+03  0.28487660488E+04  0.28027002330E+04 0.  0.
        2    1    3    3  502    0  0.23808621551E+03  0.13008801960E+04  0.21597407344E+03  0.13400071384E+04  0.25500000920E-02 0.  1.
       -2    1    3    3    0  502 -0.23808621551E+03 -0.13008801960E+04 -0.72620872985E+03  0.15087589104E+04  0.25500000920E-02 0. -1.
</event>
<event>
 5   0  0.5282098E-07  0.2800841E+04  0.7818609E-02  0.8303007E-01
       -1   -1    0    0    0  501  0.00000000000E+00  0.00000000000E+00  0.12149803689E+04  0.12149803689E+04  0.50400001928E-02 0. -1.
        1   -1    0    0  501    0  0.00000000000E+00  0.00000000000E+00 -0.16141635571E+04  0.16141635571E+04  0.50400001928E-02 0.  1.
    10030    2    1    2    0    0  0.00000000000E+00  0.00000000000E+00 -0.39918318819E+03  0.28291439260E+04  0.28008406124E+04 0.  0.
        4    1    3    3  502    0  0.49505859390E+03  0.20934690945E+03 -0.15058207193E+04  0.15988767281E+04  0.12699999809E+01 0.  1.
       -4    1    3    3    0  502 -0.49505859390E+03 -0.20934690945E+03  0.11066375312E+04  0.12302671979E+04  0.12699999809E+01 0. -1.
</event>
<event>
 5   0  0.1499888E-06  0.2795993E+04  0.7818609E-02  0.8304513E-01
        2   -1    0    0  501    0  0.00000000000E+00  0.00000000000E+00  0.16469293049E+04  0.16469293049E+04  0.25500000920E-02 0. -1.
       -2   -1    0    0    0  501  0.00000000000E+00  0.00000000000E+00 -0.11866901024E+04  0.11866901024E+04  0.25500000920E-02 0.  1.
    10030    2    1    2    0    0  0.00000000000E+00  0.00000000000E+00  0.46023920254E+03  0.28336194073E+04  0.27959933516E+04 0.  0.
        3    1    3    3  502    0  0.89731536389E+03 -0.10712167780E+04  0.27208269359E+03  0.14236253897E+04  0.10100000352E+00 0.  1.
       -3    1    3    3    0  502 -0.89731536389E+03  0.10712167780E+04  0.18815650895E+03  0.14099940177E+04  0.10100000352E+00 0. -1.
</event>
<event>
 5   0  0.5214658E-07  0.2795631E+04  0.7818609E-02  0.8304626E-01
       -1   -1    0    0    0  501  0.00000000000E+00  0.00000000000E+00  0.13433494266E+04  0.13433494266E+04  0.50400001928E-02 0. -1.
        1   -1    0    0  501    0  0.00000000000E+00  0.00000000000E+00 -0.14544902516E+04  0.14544902516E+04  0.50400001928E-02 0.  1.
    10030    2    1    2    0    0  0.00000000000E+00  0.00000000000E+00 -0.11114082497E+03  0.27978396782E+04  0.27956313387E+04 0.  0.
        2    1    3    3  502    0 -0.26762633002E+02  0.10194366141E+04  0.90117711219E+03  0.13609141914E+04  0.25500000920E-02 0. -1.
       -2    1    3    3    0  502  0.26762633002E+02 -0.10194366141E+04 -0.10123179372E+04  0.14369254868E+04  0.25500000920E-02 0.  1.
</event>
<event>
 5   0  0.1377807E-06  0.2788251E+04  0.7818609E-02  0.8306925E-01
       -2   -1    0    0    0  501  0.00000000000E+00  0.00000000000E+00  0.68710386447E+03  0.68710386448E+03  0.25500000920E-02 0.  1.
        2   -1    0    0  501    0  0.00000000000E+00  0.00000000000E+00 -0.28286645015E+04  0.28286645015E+04  0.25500000920E-02 0. -1.
    10030    2    1    2    0    0  0.00000000000E+00  0.00000000000E+00 -0.21415606371E+04  0.35157683660E+04  0.27882512873E+04 0.  0.
        2    1    3    3  502    0  0.19264129843E+03 -0.91355613012E+03 -0.23762404770E+04  0.25530793716E+04  0.25500000920E-02 0. -1.
       -2    1    3    3    0  502 -0.19264129843E+03  0.91355613012E+03  0.23467983998E+03  0.96268899445E+03  0.25500000920E-02 0.  1.
</event>
<event>
 5   0  0.5551565E-07  0.2844016E+04  0.7818609E-02  0.8289732E-01
       -1   -1    0    0    0  501  0.00000000000E+00  0.00000000000E+00  0.10484961897E+04  0.10484961898E+04  0.50400001928E-02 0.  1.
        1   -1    0    0  501    0  0.00000000000E+00  0.00000000000E+00 -0.19285784339E+04  0.19285784339E+04  0.50400001928E-02 0. -1.
    10030    2    1    2    0    0  0.00000000000E+00  0.00000000000E+00 -0.88008224413E+03  0.29770746236E+04  0.28440162725E+04 0.  0.
        3    1    3    3  502    0  0.12120332239E+04 -0.70317189527E+03 -0.69350994673E+03  0.15634677184E+04  0.10100000352E+00 0. -1.
       -3    1    3    3    0  502 -0.12120332239E+04  0.70317189527E+03 -0.18657229741E+03  0.14136069052E+04  0.10100000352E+00 0.  1.
</event>
<event>
 5   0  0.1377807E-06  0.2782229E+04  0.7818609E-02  0.8308807E-01
       -2   -1    0    0    0  501  0.00000000000E+00  0.00000000000E+00  0.13894119935E+04  0.13894119935E+04  0.25500000920E-02 0.  1.
        2   -1    0    0  501    0  0.00000000000E+00  0.00000000000E+00 -0.13928195905E+04  0.13928195905E+04  0.25500000920E-02 0. -1.
    10030    2    1    2    0    0  0.00000000000E+00  0.00000000000E+00 -0.34075970236E+01  0.27822315841E+04  0.27822294973E+04 0.  0.
        2    1    3    3  502    0 -0.88095498097E+03  0.73743758873E+03  0.78271018092E+03  0.13901550644E+04  0.25500000920E-02 0.  1.
       -2    1    3    3    0  502  0.88095498097E+03 -0.73743758873E+03 -0.78611777794E+03  0.13920765197E+04  0.25500000920E-02 0. -1.
</event>
<event>
 5   0  0.5297741E-07  0.2804903E+04  0.7818609E-02  0.8301748E-01
       -1   -1    0    0    0  501  0.00000000000E+00  0.00000000000E+00  0.10536912890E+04  0.10536912890E+04  0.50400001928E-02 0.  1.
        1   -1    0    0  501    0  0.00000000000E+00  0.00000000000E+00 -0.18666472057E+04  0.18666472057E+04  0.50400001928E-02 0. -1.
    10030    2    1    2    0    0  0.00000000000E+00  0.00000000000E+00 -0.81295591666E+03  0.29203384947E+04  0.28049027793E+04 0.  0.
        5    1    3    3  502    0  0.44379341690E+02  0.60100091939E+03 -0.17249584841E+04  0.18272042833E+04  0.46999998093E+01 0. -1.
       -5    1    3    3    0  502 -0.44379341690E+02 -0.60100091939E+03  0.91200256746E+03  0.10931342114E+04  0.46999998093E+01 0.  1.
</event>
<event>
 5   0  0.5282098E-07  0.2799146E+04  0.7818609E-02  0.8303534E-01
       -1   -1    0    0    0  501  0.00000000000E+00  0.00000000000E+00  0.13340405445E+04  0.13340405445E+04  0.50400001928E-02 0.  1.
        1   -1    0    0  501    0  0.00000000000E+00  0.00000000000E+00 -0.14683241176E+04  0.14683241176E+04  0.50400001928E-02 0. -1.
    10030    2    1    2    0    0  0.00000000000E+00  0.00000000000E+00 -0.13428357318E+03  0.28023646621E+04  0.27991455163E+04 0.  0.
        4    1    3    3  502    0 -0.10167526870E+04 -0.56408477858E+03  0.71274357903E+03  0.13638118222E+04  0.12699999809E+01 0.  1.
       -4    1    3    3    0  502  0.10167526870E+04  0.56408477858E+03 -0.84702715221E+03  0.14385528400E+04  0.12699999809E+01 0. -1.
</event>
<event>
 5   0  0.1499888E-06  0.2795186E+04  0.7818609E-02  0.8304764E-01
       -2   -1    0    0    0  501  0.00000000000E+00  0.00000000000E+00  0.94837588896E+03  0.94837588896E+03  0.25500000920E-02 0.  1.
        2   -1    0    0  501    0  0.00000000000E+00  0.00000000000E+00 -0.20595910225E+04  0.20595910225E+04  0.25500000920E-02 0. -1.
    10030    2    1    2    0    0  0.00000000000E+00  0.00000000000E+00 -0.11112151335E+04  0.30079669115E+04  0.27951861955E+04 0.  0.
        3    1    3    3  502    0 -0.11722582131E+04  0.48539399466E+03  0.75068856047E+02  0.12709964562E+04  0.10100000352E+00 0.  1.
       -3    1    3    3    0  502  0.11722582131E+04 -0.48539399466E+03 -0.11862839896E+04  0.17369704553E+04  0.10100000352E+00 0. -1.
</event>
<event>
 5   0  0.5551565E-07  0.2843345E+04  0.7818609E-02  0.8289937E-01
        1   -1    0    0  501    0  0.00000000000E+00  0.00000000000E+00  0.18912563794E+04  0.18912563794E+04  0.50400001928E-02 0.  1.
       -1   -1    0    0    0  501  0.00000000000E+00  0.00000000000E+00 -0.10686822088E+04  0.10686822088E+04  0.50400001928E-02 0. -1.
    10030    2    1    2    0    0  0.00000000000E+00  0.00000000000E+00  0.82257417064E+03  0.29599385882E+04  0.28433445412E+04 0.  0.
        3    1    3    3  502    0  0.11680394590E+04 -0.77813727731E+03  0.64715761259E+03  0.15455182903E+04  0.10100000352E+00 0. -1.
       -3    1    3    3    0  502 -0.11680394590E+04  0.77813727731E+03  0.17541655805E+03  0.14144202979E+04  0.10100000352E+00 0.  1.
</event>
<event>
 5   0  0.5214658E-07  0.2797482E+04  0.7818609E-02  0.8304050E-01
        1   -1    0    0  501    0  0.00000000000E+00  0.00000000000E+00  0.15317150269E+04  0.15317150269E+04  0.50400001928E-02 0.  1.
       -1   -1    0    0    0  501  0.00000000000E+00  0.00000000000E+00 -0.12773110795E+04  0.12773110795E+04  0.50400001928E-02 0. -1.
    10030    2    1    2    0    0  0.00000000000E+00  0.00000000000E+00  0.25440394737E+03  0.28090261064E+04  0.27974821354E+04 0.  0.
        2    1    3    3  502    0 -0.58346555612E+03 -0.12637294336E+04  0.26572936799E+03  0.14170590085E+04  0.25500000920E-02 0.  1.
       -2    1    3    3    0  502  0.58346555612E+03  0.12637294336E+04 -0.11325420621E+02  0.13919670979E+04  0.25500000920E-02 0. -1.
</event>
<event>
 5   0  0.5214658E-07  0.2798616E+04  0.7818609E-02  0.8303698E-01
        1   -1    0    0  501    0  0.00000000000E+00  0.00000000000E+00  0.16878323903E+04  0.16878323903E+04  0.50400001928E-02 0. -1.
       -1   -1    0    0    0  501  0.00000000000E+00  0.00000000000E+00 -0.11601052590E+04  0.11601052590E+04  0.50400001928E-02 0.  1.
    10030    2    1    2    0    0  0.00000000000E+00  0.00000000000E+00  0.52772713137E+03  0.28479376493E+04  0.27986162526E+04 0.  0.
        2    1    3    3  502    0 -0.57661645279E+03 -0.41642350412E+03  0.14901603255E+04  0.16512034593E+04  0.25500000920E-02 0. -1.
       -2    1    3    3    0  502  0.57661645279E+03  0.41642350412E+03 -0.96243319411E+03  0.11967341900E+04  0.25500000920E-02 0.  1.
</event>
<event>
 5   0  0.1394410E-06  0.2799226E+04  0.7818609E-02  0.8303509E-01
        2   -1    0    0  501    0  0.00000000000E+00  0.00000000000E+00  0.17170000212E+04  0.17170000212E+04  0.25500000920E-02 0.  1.
       -2   -1    0    0    0  501  0.00000000000E+00  0.00000000000E+00 -0.11408947142E+04  0.11408947142E+04  0.25500000920E-02 0. -1.
    10030    2    1    2    0    0  0.00000000000E+00  0.00000000000E+00  0.57610530699E+03  0.28578947353E+04  0.27992257847E+04 0.  0.
        4    1    3    3  502    0  0.43243163163E+03 -0.84017867911E+03 -0.76606825146E+03  0.12164536603E+04  0.12699999809E+01 0. -1.
       -4    1    3    3    0  502 -0.43243163163E+03  0.84017867911E+03  0.13421735585E+04  0.16414410750E+04  0.12699999809E+01 0.  1.
</event>
<event>
 5   0  0.5362952E-07  0.2792630E+04  0.7818609E-02  0.8305560E-01
        1   -1    0    0  501    0  0.00000000000E+00  0.00000000000E+00  0.16056715633E+04  0.16056715633E+04  0.50400001928E-02 0. -1.
       -1   -1    0    0    0  501  0.00000000000E+00  0.00000000000E+00 -0.12142552825E+04  0.12142552825E+04  0.50400001928E-02 0.  1.
    10030    2    1    2    0    0  0.00000000000E+00  0.00000000000E+00  0.39141628080E+03  0.28199268458E+04  0.27926297125E+04 0.  0.
        1    1    3    3  502    0 -0.10317188634E+04 -0.46612252562E+03 -0.62958187904E+03  0.12954101144E+04  0.50400001928E-02 0.  1.
       -1    1    3    3    0  502  0.10317188634E+04  0.46612252562E+03  0.10209981598E+04  0.15245167314E+04  0.50400001928E-02 0. -1.
</event>
<event>
 5   0  0.5362952E-07  0.2798986E+04  0.7818609E-02  0.8303583E-01
        1   -1    0    0  501    0  0.00000000000E+00  0.00000000000E+00  0.15881056711E+04  0.15881056712E+04  0.50400001928E-02 0. -1.
       -1   -1    0    0    0  501  0.00000000000E+00  0.00000000000E+00 -0.12332810112E+04  0.12332810112E+04  0.50400001928E-02 0.  1.
    10030    2    1    2    0    0  0.00000000000E+00  0.00000000000E+00  0.35482465995E+03  0.28213866824E+04  0.27989859364E+04 0.  0.
        1    1    3    3  502    0 -0.61554660647E+03 -0.65731655144E+02  0.14425917497E+04  0.15698054757E+04  0.50400001928E-02 0. -1.
       -1    1    3    3    0  502  0.61554660647E+03  0.65731655144E+02 -0.10877670898E+04  0.12515812066E+04  0.50400001928E-02 0.  1.
</event>
<event>
 5   0  0.1439207E-06  0.2805894E+04  0.7818609E-02  0.8301441E-01
       -2   -1    0    0    0  501  0.00000000000E+00  0.00000000000E+00  0.13032904281E+04  0.13032904281E+04  0.25500000920E-02 0. -1.
        2   -1    0    0  501    0  0.00000000000E+00  0.00000000000E+00 -0.15102236192E+04  0.15102236192E+04  0.25500000920E-02 0.  1.
    10030    2    1    2    0    0  0.00000000000E+00  0.00000000000E+00 -0.20693319111E+03  0.28135140473E+04  0.28058937879E+04 0.  0.
        5    1    3    3  502    0  0.46758234716E+03 -0.62267584410E+03  0.10666986409E+04  0.13206916895E+04  0.46999998093E+01 0. -1.
       -5    1    3    3    0  502 -0.46758234716E+03  0.62267584410E+03 -0.12736318321E+04  0.14928223578E+04  0.46999998093E+01 0.  1.
</event>
<event>
 5   0  0.1461146E-06  0.2796660E+04  0.7818609E-02  0.8304306E-01
       -2   -1    0    0    0  501  0.00000000000E+00  0.00000000000E+00  0.57533342779E+03  0.57533342780E+03  0.25500000920E-02 0. -1.
        2   -1    0    0  501    0  0.00000000000E+00  0.00000000000E+00 -0.33985983691E+04  0.33985983691E+04  0.25500000920E-02 0.  1.
    10030    2    1    2    0    0  0.00000000000E+00  0.00000000000E+00 -0.28232649413E+04  0.39739317969E+04  0.27966603293E+04 0.  0.
        1    1    3    3  502    0  0.12630840520E+04 -0.59008723231E+03 -0.12576504741E+04  0.18775699665E+04  0.50400001928E-02 0. -1.
       -1    1    3    3    0  502 -0.12630840520E+04  0.59008723231E+03 -0.15656144672E+04  0.20963618304E+04  0.50400001928E-02 0.  1.
</event>
<event>
 5   0  0.1461146E-06  0.2795344E+04  0.7818609E-02  0.8304715E-01
       -2   -1    0    0    0  501  0.00000000000E+00  0.00000000000E+00  0.12779545885E+04  0.12779545885E+04  0.25500000920E-02 0.  1.
        2   -1    0    0  501    0  0.00000000000E+00  0.00000000000E+00 -0.15286045141E+04  0.15286045141E+04  0.25500000920E-02 0. -1.
    10030    2    1    2    0    0  0.00000000000E+00  0.00000000000E+00 -0.25064992563E+03  0.28065591026E+04  0.27953440953E+04 0.  0.
        1    1    3    3  502    0  0.61944390254E+03  0.56894597757E+03  0.99543171665E+03  0.13031863168E+04  0.50400001928E-02 0.  1.
       -1    1    3    3    0  502 -0.61944390254E+03 -0.56894597757E+03 -0.12460816423E+04  0.15033727858E+04  0.50400001928E-02 0. -1.
</event>
<event>
 5   0  0.5551565E-07  0.2815653E+04  0.7818609E-02  0.8298425E-01
        1   -1    0    0  501    0  0.00000000000E+00  0.00000000000E+00  0.12707303721E+04  0.12707303721E+04  0.50400001928E-02 0.  1.
       -1   -1    0    0    0  501  0.00000000000E+00  0.00000000000E+00 -0.15597140614E+04  0.15597140614E+04  0.50400001928E-02 0. -1.
    10030    2    1    2    0    0  0.00000000000E+00  0.00000000000E+00 -0.28898368928E+03  0.28304444336E+04  0.28156534088E+04 0.  0.
        3    1    3    3  502    0 -0.85241103510E+03 -0.46443490225E+03 -0.11694910849E+04  0.15198729417E+04  0.10100000352E+00 0. -1.
       -3    1    3    3    0  502  0.85241103510E+03  0.46443490225E+03  0.88050739562E+03  0.13105714918E+04  0.10100000352E+00 0.  1.
</event>
<event>
 5   0  0.1439207E-06  0.2799809E+04  0.7818609E-02  0.8303328E-01
       -2   -1    0    0    0  501  0.00000000000E+00  0.00000000000E+00  0.12060409401E+04  0.12060409401E+04  0.25500000920E-02 0. -1.
        2   -1    0    0  501    0  0.00000000000E+00  0.00000000000E+00 -0.16249305369E+04  0.16249305369E+04  0.25500000920E-02 0.  1.
    10030    2    1    2    0    0  0.00000000000E+00  0.00000000000E+00 -0.41888959680E+03  0.28309714771E+04  0.27998091024E+04 0.  0.
        5    1    3    3  502    0  0.67370396950E+03 -0.93130670845E+02  0.10277589415E+04  0.12324207448E+04  0.46999998093E+01 0. -1.
       -5    1    3    3    0  502 -0.67370396950E+03  0.93130670845E+02 -0.14466485383E+04  0.15985507323E+04  0.46999998093E+01 0.  1.
</event>
<event>
 5   0  0.1377807E-06  0.2807804E+04  0.7818609E-02  0.8300850E-01
       -2   -1    0    0    0  501  0.00000000000E+00  0.00000000000E+00  0.27973192791E+04  0.27973192791E+04  0.25500000920E-02 0. -1.
        2   -1    0    0  501    0  0.00000000000E+00  0.00000000000E+00 -0.70458191743E+03  0.70458191744E+03  0.25500000920E-02 0.  1.
    10030    2    1    2    0    0  0.00000000000E+00  0.00000000000E+00  0.20927373617E+04  0.35019011966E+04  0.28078038260E+04 0.  0.
        2    1    3    3  502    0  0.33996670120E+03  0.12974278074E+04  0.15636863136E+04  0.20600997939E+04  0.25500000920E-02 0.  1.
       -2    1    3    3    0  502 -0.33996670120E+03 -0.12974278074E+04  0.52905104807E+03  0.14418014027E+04  0.25500000920E-02 0. -1.
</event>
<event>
 5   0  0.5297741E-07  0.2804178E+04  0.7818609E-02  0.8301972E-01
       -1   -1    0    0    0  501  0.00000000000E+00  0.00000000000E+00  0.12688397302E+04  0.12688397302E+04  0.50400001928E-02 0.  1.
        1   -1    0    0  501    0  0.00000000000E+00  0.00000000000E+00 -0.15493318212E+04  0.15493318212E+04  0.50400001928E-02 0. -1.
    10030    2    1    2    0    0  0.00000000000E+00  0.00000000000E+00 -0.28049209092E+03  0.28181715514E+04  0.28041781470E+04 0.  0.
        5    1    3    3  502    0 -0.27939943817E+03 -0.12993493947E+04 -0.58908279650E+03  0.14537584141E+04  0.46999998093E+01 0. -1.
       -5    1    3    3    0  502  0.27939943817E+03  0.12993493947E+04  0.30859070558E+03  0.13644131373E+04  0.46999998093E+01 0.  1.
</event>
<event>
 5   0  0.1461146E-06  0.2799321E+04  0.7818609E-02  0.8303479E-01
       -2   -1    0    0    0  501  0.00000000000E+00  0.00000000000E+00  0.22565916444E+04  0.22565916444E+04  0.25500000920E-02 0.  1.
        2   -1    0    0  501    0  0.00000000000E+00  0.00000000000E+00 -0.86814503506E+03  0.86814503506E+03  0.25500000920E-02 0. -1.
    10030    2    1    2    0    0  0.00000000000E+00  0.00000000000E+00  0.13884466093E+04  0.31247366794E+04  0.27993205120E+04 0.  0.
        1    1    3    3  502    0  0.74974875174E+03 -0.32081689840E+02 -0.62460237072E+03  0.97636086929E+03  0.50400001928E-02 0. -1.
       -1    1    3    3    0  502 -0.74974875174E+03  0.32081689840E+02  0.20130489800E+04  0.21483758101E+04  0.50400001928E-02 0.  1.
</event>
<event>
 5   0  0.1394410E-06  0.2806828E+04  0.7818609E-02  0.8301152E-01
       -2   -1    0    0    0  501  0.00000000000E+00  0.00000000000E+00  0.96841859100E+03  0.96841859100E+03  0.25500000920E-02 0.  1.
        2   -1    0    0  501    0  0.00000000000E+00  0.00000000000E+00 -0.20338005199E+04  0.20338005199E+04  0.25500000920E-02 0. -1.
    10030    2    1    2    0    0  0.00000000000E+00  0.00000000000E+00 -0.10653819289E+04  0.30022191109E+04  0.28068275571E+04 0.  0.
        4    1    3    3  502    0 -0.35704866433E+02 -0.31020413195E+03  0.93079097820E+03  0.98177130685E+03  0.12699999809E+01 0.  1.
       -4    1    3    3    0  502  0.35704866433E+02  0.31020413195E+03 -0.19961729071E+04  0.20204478041E+04  0.12699999809E+01 0. -1.
</event>
<event>
 5   0  0.1461146E-06  0.2761672E+04  0.7818609E-02  0.8315267E-01
       -2   -1    0    0    0  501  0.00000000000E+00  0.00000000000E+00  0.90431841542E+03  0.90431841543E+03  0.25500000920E-02 0.  1.
        2   -1    0    0  501    0  0.00000000000E+00  0.00000000000E+00 -0.21084481258E+04  0.21084481258E+04  0.25500000920E-02 0. -1.
    10030    2    1    2    0    0  0.00000000000E+00  0.00000000000E+00 -0.12041297104E+04  0.30127665412E+04  0.27616722964E+04 0.  0.
        1    1    3    3  502    0 -0.76328468434E+03  0.26783438728E+03  0.61877756744E+03  0.10184421664E+04  0.50400001928E-02 0.  1.
       -1    1    3    3    0  502  0.76328468434E+03 -0.26783438728E+03 -0.18229072778E+04  0.19943243748E+04  0.50400001928E-02 0. -1.
</event>
<event>
 5   0  0.1377807E-06  0.2803724E+04  0.7818609E-02  0.8302113E-01
       -2   -1    0    0    0  501  0.00000000000E+00  0.00000000000E+00  0.95744630709E+03  0.95744630709E+03  0.25500000920E-02 0. -1.
        2   -1    0    0  501    0  0.00000000000E+00  0.00000000000E+00 -0.20525616899E+04  0.20525616899E+04  0.25500000920E-02 0.  1.
    10030    2    1    2    0    0  0.00000000000E+00  0.00000000000E+00 -0.10951153828E+04  0.30100079970E+04  0.28037243874E+04 0.  0.
        2    1    3    3  502    0  0.13779495734E+04  0.25720474171E+03 -0.56671142138E+03  0.15119725994E+04  0.25500000920E-02 0.  1.
       -2    1    3    3    0  502 -0.13779495734E+04 -0.25720474171E+03 -0.52840396143E+03  0.14980353976E+04  0.25500000920E-02 0. -1.
</event>
<event>
 5   0  0.5214658E-07  0.2799766E+04  0.7818609E-02  0.8303341E-01
        1   -1    0    0  501    0  0.00000000000E+00  0.00000000000E+00  0.20789763549E+04  0.20789763549E+04  0.50400001928E-02 0.  1.
       -1   -1    0    0    0  501  0.00000000000E+00  0.00000000000E+00 -0.94261388888E+03  0.94261388890E+03  0.50400001928E-02 0. -1.
    10030    2    1    2    0    0  0.00000000000E+00  0.00000000000E+00  0.11363624660E+04  0.30215902438E+04  0.27997656951E+04 0.  0.
        2    1    3    3  502    0 -0.69780359210E+03 -0.10686700483E+04  0.11887959773E+04  0.17441964915E+04  0.25500000920E-02 0.  1.
       -2    1    3    3    0  502  0.69780359210E+03  0.10686700483E+04 -0.52433511279E+02  0.12773937523E+04  0.25500000920E-02 0. -1.
</event>
<event>
 5   0  0.5214658E-07  0.2801945E+04  0.7818609E-02  0.8302665E-01
        1   -1    0    0  501    0  0.00000000000E+00  0.00000000000E+00  0.13314441105E+04  0.13314441105E+04  0.50400001928E-02 0. -1.
       -1   -1    0    0    0  501  0.00000000000E+00  0.00000000000E+00 -0.14741313938E+04  0.14741313938E+04  0.50400001928E-02 0.  1.
    10030    2    1    2    0    0  0.00000000000E+00  0.00000000000E+00 -0.14268728332E+03  0.28055755043E+04  0.28019447263E+04 0.  0.
        2    1    3    3  502    0 -0.13394295235E+03 -0.23765288243E+03  0.13045927227E+04  0.13328097310E+04  0.25500000920E-02 0. -1.
       -2    1    3    3    0  502  0.13394295235E+03  0.23765288243E+03 -0.14472800060E+04  0.14727657732E+04  0.25500000920E-02 0.  1.
</event>
<event>
 5   0  0.1461146E-06  0.2795804E+04  0.7818609E-02  0.8304572E-01
       -2   -1    0    0    0  501  0.00000000000E+00  0.00000000000E+00  0.99504403689E+03  0.99504403689E+03  0.25500000920E-02 0.  1.
        2   -1    0    0  501    0  0.00000000000E+00  0.00000000000E+00 -0.19638630151E+04  0.19638630151E+04  0.25500000920E-02 0. -1.
    10030    2    1    2    0    0  0.00000000000E+00  0.00000000000E+00 -0.96881897820E+03  0.29589070520E+04  0.27958041294E+04 0.  0.
        1    1    3    3  502    0 -0.78788824183E+03  0.22782930845E+03  0.71364466257E+03  0.10871811164E+04  0.50400001928E-02 0.  1.
       -1    1    3    3    0  502  0.78788824183E+03 -0.22782930845E+03 -0.16824636408E+04  0.18717259356E+04  0.50400001928E-02 0. -1.
</event>
<event>
 5   0  0.5362952E-07  0.2798534E+04  0.7818609E-02  0.8303724E-01
       -1   -1    0    0    0  501  0.00000000000E+00  0.00000000000E+00  0.95275762916E+03  0.95275762918E+03  0.50400001928E-02 0.  1.
        1   -1    0    0  501    0  0.00000000000E+00  0.00000000000E+00 -0.20550330527E+04  0.20550330527E+04  0.50400001928E-02 0. -1.
    10030    2    1    2    0    0  0.00000000000E+00  0.00000000000E+00 -0.11022754235E+04  0.30077906819E+04  0.27985342015E+04 0.  0.
        1    1    3    3  502    0 -0.10363233815E+04  0.90944219814E+03 -0.29477062322E+03  0.14099436099E+04  0.50400001928E-02 0.  1.
       -1    1    3    3    0  502  0.10363233815E+04 -0.90944219814E+03 -0.80750480032E+03  0.15978470720E+04  0.50400001928E-02 0. -1.
</event>
<event>
 5   0  0.5297741E-07  0.2802513E+04  0.7818609E-02  0.8302489E-01
       -1   -1    0    0    0  501  0.00000000000E+00  0.00000000000E+00  0.14724638426E+04  0.14724638426E+04  0.50400001928E-02 0.  1.
        1   -1    0    0  501    0  0.00000000000E+00  0.00000000000E+00 -0.13334925305E+04  0.13334925305E+04  0.50400001928E-02 0. -1.
    10030    2    1    2    0    0  0.00000000000E+00  0.00000000000E+00  0.13897131217E+03  0.28059563731E+04  0.28025128264E+04 0.  0.
        5    1    3    3  502    0  0.18092100803E+03  0.37260333335E+03 -0.12707897320E+04  0.13365980279E+04  0.46999998093E+01 0. -1.
       -5    1    3    3    0  502 -0.18092100803E+03 -0.37260333335E+03  0.14097610441E+04  0.14693583453E+04  0.46999998093E+01 0.  1.
</event>
<event>
 5   0  0.1461146E-06  0.2794731E+04  0.7818609E-02  0.8304906E-01
       -2   -1    0    0    0  501  0.00000000000E+00  0.00000000000E+00  0.12993263854E+04  0.12993263854E+04  0.25500000920E-02 0.  1.
        2   -1    0    0  501    0  0.00000000000E+00  0.00000000000E+00 -0.15028021116E+04  0.15028021116E+04  0.25500000920E-02 0. -1.
    10030    2    1    2    0    0  0.00000000000E+00  0.00000000000E+00 -0.20347572621E+03  0.28021284971E+04  0.27947310681E+04 0.  0.
        1    1    3    3  502    0  0.29425436799E+03  0.17311827519E+03 -0.14603428885E+04  0.14997189478E+04  0.50400001928E-02 0. -1.
       -1    1    3    3    0  502 -0.29425436799E+03 -0.17311827519E+03  0.12568671623E+04  0.13024095493E+04  0.50400001928E-02 0.  1.
</event>
<event>
 5   0  0.5282098E-07  0.2802321E+04  0.7818609E-02  0.8302548E-01
       -1   -1    0    0    0  501  0.00000000000E+00  0.00000000000E+00  0.12827992077E+04  0.12827992077E+04  0.50400001928E-02 0.  1.
        1   -1    0    0  501    0  0.00000000000E+00  0.00000000000E+00 -0.15304423495E+04  0.15304423495E+04  0.50400001928E-02 0. -1.
    10030    2    1    2    0    0  0.00000000000E+00  0.00000000000E+00 -0.24764314184E+03  0.28132415572E+04  0.28023206336E+04 0.  0.
        4    1    3    3  502    0 -0.50998792746E+03  0.10960845556E+04  0.58728883988E+03  0.13440233753E+04  0.12699999809E+01 0.  1.
       -4    1    3    3    0  502  0.50998792746E+03 -0.10960845556E+04 -0.83493198172E+03  0.14692181819E+04  0.12699999809E+01 0. -1.
</event>
<event>
 5   0  0.1377807E-06  0.2798255E+04  0.7818609E-02  0.8303810E-01
        2   -1    0    0  501    0  0.00000000000E+00  0.00000000000E+00  0.24980759438E+04  0.24980759438E+04  0.25500000920E-02 0. -1.
       -2   -1    0    0    0  501  0.00000000000E+00  0.00000000000E+00 -0.78362628921E+03  0.78362628921E+03  0.25500000920E-02 0.  1.
    10030    2    1    2    0    0  0.00000000000E+00  0.00000000000E+00  0.17144496546E+04  0.32817022331E+04  0.27982551578E+04 0.  0.
        2    1    3    3  502    0 -0.23449332886E+03 -0.11876508323E+04  0.34566903762E+02  0.12110724551E+04  0.25500000920E-02 0.  1.
       -2    1    3    3    0  502  0.23449332886E+03  0.11876508323E+04  0.16798827509E+04  0.20706297780E+04  0.25500000920E-02 0. -1.
</event>
<event>
 5   0  0.5282098E-07  0.2768149E+04  0.7818609E-02  0.8313226E-01
        1   -1    0    0  501    0  0.00000000000E+00  0.00000000000E+00  0.12966108191E+04  0.12966108191E+04  0.50400001928E-02 0.  1.
       -1   -1    0    0    0  501  0.00000000000E+00  0.00000000000E+00 -0.14774383180E+04  0.14774383180E+04  0.50400001928E-02 0. -1.
    10030    2    1    2    0    0  0.00000000000E+00  0.00000000000E+00 -0.18082749892E+03  0.27740491371E+04  0.27681492067E+04 0.  0.
        4    1    3    3  502    0  0.10320797203E+04 -0.89108174630E+03  0.14767559487E+03  0.13715046197E+04  0.12699999809E+01 0.  1.
       -4    1    3    3    0  502 -0.10320797203E+04  0.89108174630E+03 -0.32850309380E+03  0.14025445174E+04  0.12699999809E+01 0. -1.
</event>
<event>
 5   0  0.5362952E-07  0.2799926E+04  0.7818609E-02  0.8303291E-01
       -1   -1    0    0    0  501  0.00000000000E+00  0.00000000000E+00  0.10192691026E+04  0.10192691026E+04  0.50400001928E-02 0. -1.
        1   -1    0    0  501    0  0.00000000000E+00  0.00000000000E+00 -0.19228443414E+04  0.19228443414E+04  0.50400001928E-02 0.  1.
    10030    2    1    2    0    0  0.00000000000E+00  0.00000000000E+00 -0.90357523879E+03  0.29421134440E+04  0.27999255893E+04 0.  0.
        1    1    3    3  502    0 -0.61226736543E+03  0.10659033903E+04  0.25221678105E+03  0.12548444799E+04  0.50400001928E-02 0. -1.
       -1    1    3    3    0  502  0.61226736543E+03 -0.10659033903E+04 -0.11557920198E+04  0.16872689641E+04  0.50400001928E-02 0.  1.
</event>
<event>
 5   0  0.1439207E-06  0.2799178E+04  0.7818609E-02  0.8303524E-01
        2   -1    0    0  501    0  0.00000000000E+00  0.00000000000E+00  0.25288931129E+04  0.25288931129E+04  0.25500000920E-02 0. -1.
       -2   -1    0    0    0  501  0.00000000000E+00  0.00000000000E+00 -0.77458749832E+03  0.77458749832E+03  0.25500000920E-02 0.  1.
    10030    2    1    2    0    0  0.00000000000E+00  0.00000000000E+00  0.17543056146E+04  0.33034806113E+04  0.27991777292E+04 0.  0.
        5    1    3    3  502    0  0.79230585663E+03 -0.11467876336E+04  0.10262294022E+04  0.17309070810E+04  0.46999998093E+01 0. -1.
       -5    1    3    3    0  502 -0.79230585663E+03  0.11467876336E+04  0.72807621238E+03  0.15725735303E+04  0.46999998093E+01 0.  1.
</event>
<event>
 5   0  0.5551565E-07  0.2772031E+04  0.7818609E-02  0.8312005E-01
        1   -1    0    0  501    0  0.00000000000E+00  0.00000000000E+00  0.19253413226E+04  0.19253413227E+04  0.50400001928E-02 0.  1.
       -1   -1    0    0    0  501  0.00000000000E+00  0.00000000000E+00 -0.99776509421E+03  0.99776509422E+03  0.50400001928E-02 0. -1.
    10030    2    1    2    0    0  0.00000000000E+00  0.00000000000E+00  0.92757622844E+03  0.29231064169E+04  0.27720305671E+04 0.  0.
        3    1    3    3  502    0  0.98138525247E+03  0.81087381623E+03 -0.11417508614E+03  0.12781507423E+04  0.10100000352E+00 0. -1.
       -3    1    3    3    0  502 -0.98138525247E+03 -0.81087381623E+03  0.10417513146E+04  0.16449556746E+04  0.10100000352E+00 0.  1.
</event>
<event>
 5   0  0.5297741E-07  0.2798356E+04  0.7818609E-02  0.8303779E-01
        1   -1    0    0  501    0  0.00000000000E+00  0.00000000000E+00  0.19623822063E+04  0.19623822063E+04  0.50400001928E-02 0. -1.
       -1   -1    0    0    0  501  0.00000000000E+00  0.00000000000E+00 -0.99761374645E+03  0.99761374646E+03  0.50400001928E-02 0.  1.
    10030    2    1    2    0    0  0.00000000000E+00  0.00000000000E+00  0.96476845988E+03  0.29599959528E+04  0.27983562781E+04 0.  0.
        5    1    3    3  502    0 -0.36363277216E+03  0.13161229263E+04  0.80542462166E+03  0.15852883843E+04  0.46999998093E+01 0. -1.
       -5    1    3    3    0  502  0.36363277216E+03 -0.13161229263E+04  0.15934383822E+03  0.13747075685E+04  0.46999998093E+01 0.  1.
</event>
<event>
 5   0  0.1377807E-06  0.2807780E+04  0.7818609E-02  0.8300857E-01
        2   -1    0    0  501    0  0.00000000000E+00  0.00000000000E+00  0.69047039564E+03  0.69047039564E+03  0.25500000920E-02 0. -1.
       -2   -1    0    0    0  501  0.00000000000E+00  0.00000000000E+00 -0.28544407078E+04  0.28544407078E+04  0.25500000920E-02 0.  1.
    10030    2    1    2    0    0  0.00000000000E+00  0.00000000000E+00 -0.21639703122E+04  0.35449111035E+04  0.28077797669E+04 0.  0.
        2    1    3    3  502    0 -0.25390058792E+03  0.12063509297E+04 -0.23396340516E+03  0.12547856188E+04  0.25500000920E-02 0. -1.
       -2    1    3    3    0  502  0.25390058792E+03 -0.12063509297E+04 -0.19300069070E+04  0.22901254846E+04  0.25500000920E-02 0.  1.
</event>
<event>
 5   0  0.1394410E-06  0.2794619E+04  0.7818609E-02  0.8304941E-01
       -2   -1    0    0    0  501  0.00000000000E+00  0.00000000000E+00  0.14803153032E+04  0.14803153032E+04  0.25500000920E-02 0. -1.
        2   -1    0    0  501    0  0.00000000000E+00  0.00000000000E+00 -0.13189578337E+04  0.13189578337E+04  0.25500000920E-02 0.  1.
    10030    2    1    2    0    0  0.00000000000E+00  0.00000000000E+00  0.16135746947E+03  0.27992731368E+04  0.27946187328E+04 0.  0.
        4    1    3    3  502    0 -0.12544111469E+02  0.12040243021E+04  0.79083058731E+03  0.14405715899E+04  0.12699999809E+01 0.  1.
       -4    1    3    3    0  502  0.12544111469E+02 -0.12040243021E+04 -0.62947311784E+03  0.13587015470E+04  0.12699999809E+01 0. -1.
</event>
<event>
 5   0  0.5551565E-07  0.2800092E+04  0.7818609E-02  0.8303240E-01
        1   -1    0    0  501    0  0.00000000000E+00  0.00000000000E+00  0.11658408337E+04  0.11658408337E+04  0.50400001928E-02 0. -1.
       -1   -1    0    0    0  501  0.00000000000E+00  0.00000000000E+00 -0.16813007278E+04  0.16813007278E+04  0.50400001928E-02 0.  1.
    10030    2    1    2    0    0  0.00000000000E+00  0.00000000000E+00 -0.51545989408E+03  0.28471415615E+04  0.28000921715E+04 0.  0.
        3    1    3    3  502    0  0.12237322051E+04  0.45543398492E+03  0.25591994912E+03  0.13305771886E+04  0.10100000352E+00 0. -1.
       -3    1    3    3    0  502 -0.12237322051E+04 -0.45543398492E+03 -0.77137984320E+03  0.15165643729E+04  0.10100000352E+00 0.  1.
</event>
<event>
 5   0  0.1377807E-06  0.2807790E+04  0.7818609E-02  0.8300854E-01
       -2   -1    0    0    0  501  0.00000000000E+00  0.00000000000E+00  0.10174937541E+04  0.10174937541E+04  0.25500000920E-02 0.  1.
        2   -1    0    0  501    0  0.00000000000E+00  0.00000000000E+00 -0.19370355909E+04  0.19370355909E+04  0.25500000920E-02 0. -1.
    10030    2    1    2    0    0  0.00000000000E+00  0.00000000000E+00 -0.91954183682E+03  0.29545293450E+04  0.28077903164E+04 0.  0.
        2    1    3    3  502    0 -0.73348343566E+03 -0.10448903004E+04 -0.10743563655E+04  0.16685428644E+04  0.25500000920E-02 0. -1.
       -2    1    3    3    0  502  0.73348343566E+03  0.10448903004E+04  0.15481452864E+03  0.12859864807E+04  0.25500000920E-02 0.  1.
</event>
<event>
 5   0  0.1394410E-06  0.2796574E+04  0.7818609E-02  0.8304333E-01
       -2   -1    0    0    0  501  0.00000000000E+00  0.00000000000E+00  0.13701866808E+04  0.13701866808E+04  0.25500000920E-02 0.  1.
        2   -1    0    0  501    0  0.00000000000E+00  0.00000000000E+00 -0.14269637528E+04  0.14269637528E+04  0.25500000920E-02 0. -1.
    10030    2    1    2    0    0  0.00000000000E+00  0.00000000000E+00 -0.56777071994E+02  0.27971504337E+04  0.27965741386E+04 0.  0.
        4    1    3    3  502    0  0.42872580485E+03  0.10363370926E+04 -0.86366824398E+03  0.14155298774E+04  0.12699999809E+01 0. -1.
       -4    1    3    3    0  502 -0.42872580485E+03 -0.10363370926E+04  0.80689117198E+03  0.13816205563E+04  0.12699999809E+01 0.  1.
</event>
<event>
 5   0  0.1499888E-06  0.2805614E+04  0.7818609E-02  0.8301528E-01
       -2   -1    0    0    0  501  0.00000000000E+00  0.00000000000E+00  0.19292878325E+04  0.19292878325E+04  0.25500000920E-02 0. -1.
        2   -1    0    0  501    0  0.00000000000E+00  0.00000000000E+00 -0.10199969462E+04  0.10199969462E+04  0.25500000920E-02 0.  1.
    10030    2    1    2    0    0  0.00000000000E+00  0.00000000000E+00  0.90929088628E+03  0.29492847787E+04  0.28056141556E+04 0.  0.
        3    1    3    3  502    0  0.32584918156E+03 -0.12704298494E+04 -0.68533205540E+02  0.13133417308E+04  0.10100000352E+00 0.  1.
       -3    1    3    3    0  502 -0.32584918156E+03  0.12704298494E+04  0.97782409182E+03  0.16359430479E+04  0.10100000352E+00 0. -1.
</event>
<event>
 5   0  0.5297741E-07  0.2799733E+04  0.7818609E-02  0.8303351E-01
       -1   -1    0    0    0  501  0.00000000000E+00  0.00000000000E+00  0.12380872810E+04  0.12380872810E+04  0.50400001928E-02 0. -1.
        1   -1    0    0  501    0  0.00000000000E+00  0.00000000000E+00 -0.15827853625E+04  0.15827853626E+04  0.50400001928E-02 0.  1.
    10030    2    1    2    0    0  0.00000000000E+00  0.00000000000E+00 -0.34469808158E+03  0.28208726435E+04  0.27997331486E+04 0.  0.
        5    1    3    3  502    0  0.57469228419E+03 -0.11106938880E+04  0.46144125507E+03  0.13329899686E+04  0.46999998093E+01 0. -1.
       -5    1    3    3    0  502 -0.57469228419E+03  0.11106938880E+04 -0.80613933665E+03  0.14878826750E+04  0.46999998093E+01 0.  1.
</event>
<event>
 5   0  0.1377807E-06  0.2802671E+04  0.7818609E-02  0.8302440E-01
       -2   -1    0    0    0  501  0.00000000000E+00  0.00000000000E+00  0.15563704542E+04  0.15563704542E+04  0.25500000920E-02 0.  1.
        2   -1    0    0  501    0  0.00000000000E+00  0.00000000000E+00 -0.12617440577E+04  0.12617440577E+04  0.25500000920E-02 0. -1.
    10030    2    1    2    0    0  0.00000000000E+00  0.00000000000E+00  0.29462639653E+03  0.28181145118E+04  0.28026709918E+04 0.  0.
        2    1    3    3  502    0 -0.97643140490E+03  0.92857456366E+03 -0.23960862762E+03  0.13686056054E+04  0.25500000920E-02 0. -1.
       -2    1    3    3    0  502  0.97643140490E+03 -0.92857456366E+03  0.53423502415E+03  0.14495089064E+04  0.25500000920E-02 0.  1.
</event>
<event>
 5   0  0.4710000E-07  0.2799253E+04  0.7818609E-02  0.8303500E-01
        3   -1    0    0  501    0  0.00000000000E+00  0.00000000000E+00  0.12258519998E+04  0.12258520039E+04  0.10100000352E+00 0.  1.
       -3   -1    0    0    0  501  0.00000000000E+00  0.00000000000E+00 -0.15980352723E+04  0.15980352755E+04  0.10100000352E+00 0. -1.
    10030    2    1    2    0    0  0.00000000000E+00  0.00000000000E+00 -0.37218327252E+03  0.28238872794E+04  0.27992532894E+04 0.  0.
        4    1    3    3  502    0 -0.98841552062E+02 -0.53179692153E+03  0.11161500619E+04  0.12403105223E+04  0.12699999809E+01 0.  1.
       -4    1    3    3    0  502  0.98841552062E+02  0.53179692153E+03 -0.14883333345E+04  0.15835767571E+04  0.12699999809E+01 0. -1.
</event>
<event>
 5   0  0.5282098E-07  0.2801968E+04  0.7818609E-02  0.8302657E-01
        1   -1    0    0  501    0  0.00000000000E+00  0.00000000000E+00  0.15591752397E+04  0.15591752397E+04  0.50400001928E-02 0. -1.
       -1   -1    0    0    0  501  0.00000000000E+00  0.00000000000E+00 -0.12588430091E+04  0.12588430091E+04  0.50400001928E-02 0.  1.
    10030    2    1    2    0    0  0.00000000000E+00  0.00000000000E+00  0.30033223062E+03  0.28180182488E+04  0.28019684870E+04 0.  0.
        4    1    3    3  502    0  0.69540633237E+03  0.10202350371E+04 -0.51565754632E+03  0.13380485103E+04  0.12699999809E+01 0. -1.
       -4    1    3    3    0  502 -0.69540633237E+03 -0.10202350371E+04  0.81598977694E+03  0.14799697385E+04  0.12699999809E+01 0.  1.
</event>
<event>
 5   0  0.1377807E-06  0.2801150E+04  0.7818609E-02  0.8302912E-01
       -2   -1    0    0    0  501  0.00000000000E+00  0.00000000000E+00  0.13107490212E+04  0.13107490212E+04  0.25500000920E-02 0.  1.
        2   -1    0    0  501    0  0.00000000000E+00  0.00000000000E+00 -0.14965563046E+04  0.14965563046E+04  0.25500000920E-02 0. -1.
    10030    2    1    2    0    0  0.00000000000E+00  0.00000000000E+00 -0.18580728340E+03  0.28073053259E+04  0.28011495580E+04 0.  0.
        2    1    3    3  502    0  0.11406969104E+04  0.79286442503E+03  0.85775213705E+02  0.13918264350E+04  0.25500000920E-02 0.  1.
       -2    1    3    3    0  502 -0.11406969104E+04 -0.79286442503E+03 -0.27158249711E+03  0.14154788909E+04  0.25500000920E-02 0. -1.
</event>
<event>
 5   0  0.5297741E-07  0.2794305E+04  0.7818609E-02  0.8305039E-01
       -1   -1    0    0    0  501  0.00000000000E+00  0.00000000000E+00  0.11911801246E+04  0.11911801246E+04  0.50400001928E-02 0. -1.
        1   -1    0    0  501    0  0.00000000000E+00  0.00000000000E+00 -0.16387399230E+04  0.16387399230E+04  0.50400001928E-02 0.  1.
    10030    2    1    2    0    0  0.00000000000E+00  0.00000000000E+00 -0.44755979842E+03  0.28299200476E+04  0.27943045114E+04 0.  0.
        5    1    3    3  502    0  0.13038352797E+04  0.14517270946E+03  0.26291876431E+03  0.13379872641E+04  0.46999998093E+01 0. -1.
       -5    1    3    3    0  502 -0.13038352797E+04 -0.14517270946E+03 -0.71047856273E+03  0.14919327835E+04  0.46999998093E+01 0.  1.
</event>
<event>
 5   0  0.5297741E-07  0.2801473E+04  0.7818609E-02  0.8302811E-01
       -1   -1    0    0    0  501  0.00000000000E+00  0.00000000000E+00  0.10813116126E+04  0.10813116126E+04  0.50400001928E-02 0. -1.
        1   -1    0    0  501    0  0.00000000000E+00  0.00000000000E+00 -0.18145210932E+04  0.18145210932E+04  0.50400001928E-02 0.  1.
    10030    2    1    2    0    0  0.00000000000E+00  0.00000000000E+00 -0.73320948066E+03  0.28958327058E+04  0.28014729907E+04 0.  0.
        5    1    3    3  502    0  0.35359030621E+03 -0.51813485279E+03 -0.16612068922E+04  0.17757027508E+04  0.46999998093E+01 0.  1.
       -5    1    3    3    0  502 -0.35359030621E+03  0.51813485279E+03  0.92799741156E+03  0.11201299550E+04  0.46999998093E+01 0. -1.
</event>
<event>
 5   0  0.5551565E-07  0.2786079E+04  0.7818609E-02  0.8307603E-01
       -1   -1    0    0    0  501  0.00000000000E+00  0.00000000000E+00  0.87386059664E+03  0.87386059666E+03  0.50400001928E-02 0.  1.
        1   -1    0    0  501    0  0.00000000000E+00  0.00000000000E+00 -0.22206742215E+04  0.22206742215E+04  0.50400001928E-02 0. -1.
    10030    2    1    2    0    0  0.00000000000E+00  0.00000000000E+00 -0.13468136249E+04  0.30945348182E+04  0.27860794678E+04 0.  0.
        3    1    3    3  502    0 -0.55444819506E+03 -0.58900493961E+03 -0.19330847261E+04  0.20955085751E+04  0.10100000352E+00 0. -1.
       -3    1    3    3    0  502  0.55444819506E+03  0.58900493961E+03  0.58627110127E+03  0.99902624303E+03  0.10100000352E+00 0.  1.
</event>
<event>
 5   0  0.5214658E-07  0.2797978E+04  0.7818609E-02  0.8303896E-01
       -1   -1    0    0    0  501  0.00000000000E+00  0.00000000000E+00  0.19860473885E+04  0.19860473885E+04  0.50400001928E-02 0.  1.
        1   -1    0    0  501    0  0.00000000000E+00  0.00000000000E+00 -0.98546008061E+03  0.98546008063E+03  0.50400001928E-02 0. -1.
    10030    2    1    2    0    0  0.00000000000E+00  0.00000000000E+00  0.10005873079E+04  0.29715074692E+04  0.27979781412E+04 0.  0.
        2    1    3    3  502    0  0.53444279557E+03  0.45416136425E+03 -0.78526719583E+03  0.10528704647E+04  0.25500000920E-02 0. -1.
       -2    1    3    3    0  502 -0.53444279557E+03 -0.45416136425E+03  0.17858545037E+04  0.19186370045E+04  0.25500000920E-02 0.  1.
</event>
<event>
 5   0  0.1439207E-06  0.2800808E+04  0.7818609E-02  0.8303018E-01
        2   -1    0    0  501    0  0.00000000000E+00  0.00000000000E+00  0.17126879396E+04  0.17126879396E+04  0.25500000920E-02 0. -1.
       -2   -1    0    0    0  501  0.00000000000E+00  0.00000000000E+00 -0.11450604079E+04  0.11450604079E+04  0.25500000920E-02 0.  1.
    10030    2    1    2    0    0  0.00000000000E+00  0.00000000000E+00  0.56762753166E+03  0.28577483475E+04  0.28008078483E+04 0.  0.
        5    1    3    3  502    0 -0.38991429137E+03  0.37115505230E+03 -0.10352641550E+04  0.11668689678E+04  0.46999998093E+01 0.  1.
       -5    1    3    3    0  502  0.38991429137E+03 -0.37115505230E+03  0.16028916867E+04  0.16908793797E+04  0.46999998093E+01 0. -1.
</event>
<event>
 5   0  0.5282098E-07  0.2794856E+04  0.7818609E-02  0.8304867E-01
        1   -1    0    0  501    0  0.00000000000E+00  0.00000000000E+00  0.17998192899E+04  0.17998192899E+04  0.50400001928E-02 0.  1.
       -1   -1    0    0    0  501  0.00000000000E+00  0.00000000000E+00 -0.10850005027E+04  0.10850005027E+04  0.50400001928E-02 0. -1.
    10030    2    1    2    0    0  0.00000000000E+00  0.00000000000E+00  0.71481878715E+03  0.28848197926E+04  0.27948558706E+04 0.  0.
        4    1    3    3  502    0 -0.33731371714E+03  0.10618345181E+04  0.12280840864E+04  0.16581511463E+04  0.12699999809E+01 0.  1.
       -4    1    3    3    0  502  0.33731371714E+03 -0.10618345181E+04 -0.51326529928E+03  0.12266686464E+04  0.12699999809E+01 0. -1.
</event>
<event>
 5   0  0.5297741E-07  0.2792306E+04  0.7818609E-02  0.8305661E-01
       -1   -1    0    0    0  501  0.00000000000E+00  0.00000000000E+00  0.12844228364E+04  0.12844228364E+04  0.50400001928E-02 0.  1.
        1   -1    0    0  501    0  0.00000000000E+00  0.00000000000E+00 -0.15176027118E+04  0.15176027118E+04  0.50400001928E-02 0. -1.
    10030    2    1    2    0    0  0.00000000000E+00  0.00000000000E+00 -0.23317987540E+03  0.28020255482E+04  0.27923062723E+04 0.  0.
        5    1    3    3  502    0  0.51354269292E+03  0.51162973945E+03  0.10807650244E+04  0.13013708986E+04  0.46999998093E+01 0.  1.
       -5    1    3    3    0  502 -0.51354269292E+03 -0.51162973945E+03 -0.13139448998E+04  0.15006546496E+04  0.46999998093E+01 0. -1.
</event>
<event>
 5   0  0.1377807E-06  0.2783228E+04  0.7818609E-02  0.8308494E-01
        2   -1    0    0  501    0  0.00000000000E+00  0.00000000000E+00  0.18827081431E+04  0.18827081431E+04  0.25500000920E-02 0.  1.
       -2   -1    0    0    0  501  0.00000000000E+00  0.00000000000E+00 -0.10286192729E+04  0.10286192729E+04  0.25500000920E-02 0. -1.
    10030    2    1    2    0    0  0.00000000000E+00  0.00000000000E+00  0.85408887016E+03  0.29113274160E+04  0.27832282560E+04 0.  0.
        2    1    3    3  502    0 -0.35083124082E+03  0.14604653012E+03 -0.97329320939E+03  0.10448501423E+04  0.25500000920E-02 0. -1.
       -2    1    3    3    0  502  0.35083124082E+03 -0.14604653012E+03  0.18273820796E+04  0.18664772737E+04  0.25500000920E-02 0.  1.
</event>
<event>
 5   0  0.5214658E-07  0.2804620E+04  0.7818609E-02  0.8301835E-01
        1   -1    0    0  501    0  0.00000000000E+00  0.00000000000E+00  0.22635281189E+04  0.22635281189E+04  0.50400001928E-02 0.  1.
       -1   -1    0    0    0  501  0.00000000000E+00  0.00000000000E+00 -0.86876480228E+03  0.86876480229E+03  0.50400001928E-02 0. -1.
    10030    2    1    2    0    0  0.00000000000E+00  0.00000000000E+00  0.13947633166E+04  0.31322929212E+04  0.28046201587E+04 0.  0.
        2    1    3    3  502    0  0.68400157000E+02 -0.93265067090E+02  0.22581921662E+04  0.22611520988E+04  0.25500000920E-02 0.  1.
       -2    1    3    3    0  502 -0.68400157000E+02  0.93265067090E+02 -0.86342884958E+03  0.87114082244E+03  0.25500000920E-02 0. -1.
</event>
<event>
 5   0  0.1439207E-06  0.2798710E+04  0.7818609E-02  0.8303669E-01
        2   -1    0    0  501    0  0.00000000000E+00  0.00000000000E+00  0.23897886318E+04  0.23897886318E+04  0.25500000920E-02 0.  1.
       -2   -1    0    0    0  501  0.00000000000E+00  0.00000000000E+00 -0.81940057555E+03  0.81940057555E+03  0.25500000920E-02 0. -1.
    10030    2    1    2    0    0  0.00000000000E+00  0.00000000000E+00  0.15703880563E+04  0.32091892074E+04  0.27987098316E+04 0.  0.
        5    1    3    3  502    0  0.13474355328E+04 -0.29755302209E+03  0.10517831522E+04  0.17350476089E+04  0.46999998093E+01 0.  1.
       -5    1    3    3    0  502 -0.13474355328E+04  0.29755302209E+03  0.51860490412E+03  0.14741415985E+04  0.46999998093E+01 0. -1.
</event>
<event>
 5   0  0.5362952E-07  0.2797452E+04  0.7818609E-02  0.8304060E-01
       -1   -1    0    0    0  501  0.00000000000E+00  0.00000000000E+00  0.12873274738E+04  0.12873274739E+04  0.50400001928E-02 0.  1.
        1   -1    0    0  501    0  0.00000000000E+00  0.00000000000E+00 -0.15197644925E+04  0.15197644925E+04  0.50400001928E-02 0. -1.
    10030    2    1    2    0    0  0.00000000000E+00  0.00000000000E+00 -0.23243701867E+03  0.28070919664E+04  0.27974521158E+04 0.  0.
        1    1    3    3  502    0 -0.63149590804E+03 -0.58177049414E+03  0.99175603301E+03  0.13118018215E+04  0.50400001928E-02 0.  1.
       -1    1    3    3    0  502  0.63149590804E+03  0.58177049414E+03 -0.12241930517E+04  0.14952901449E+04  0.50400001928E-02 0. -1.
</event>
<event>
 5   0  0.1499888E-06  0.2805889E+04  0.7818609E-02  0.8301442E-01
        2   -1    0    0  501    0  0.00000000000E+00  0.00000000000E+00  0.25146389502E+04  0.25146389502E+04  0.25500000920E-02 0.  1.
       -2   -1    0    0    0  501  0.00000000000E+00  0.00000000000E+00 -0.78271800517E+03  0.78271800517E+03  0.25500000920E-02 0. -1.
    10030    2    1    2    0    0  0.00000000000E+00  0.00000000000E+00  0.17319209451E+04  0.32973569554E+04  0.28058889378E+04 0.  0.
        3    1    3    3  502    0  0.13043136946E+04 -0.41981626552E+03  0.51190243464E+03  0.14627111894E+04  0.10100000352E+00 0. -1.
       -3    1    3    3    0  502 -0.13043136946E+04  0.41981626552E+03  0.12200185104E+04  0.18346457660E+04  0.10100000352E+00 0.  1.
</event>
<event>
 5   0  0.1439207E-06  0.2804140E+04  0.7818609E-02  0.8301984E-01
        2   -1    0    0  501    0  0.00000000000E+00  0.00000000000E+00  0.13187458961E+04  0.13187458961E+04  0.25500000920E-02 0. -1.
       -2   -1    0    0    0  501  0.00000000000E+00  0.00000000000E+00 -0.14906589710E+04  0.14906589710E+04  0.25500000920E-02 0.  1.
    10030    2    1    2    0    0  0.00000000000E+00  0.00000000000E+00 -0.17191307488E+03  0.28094048670E+04  0.28041400824E+04 0.  0.
        5    1    3    3  502    0 -0.10889375895E+04 -0.85648960816E+03 -0.30181124402E+03  0.14179110126E+04  0.46999998093E+01 0.  1.
       -5    1    3    3    0  502  0.10889375895E+04  0.85648960816E+03  0.12989816914E+03  0.13914938544E+04  0.46999998093E+01 0. -1.
</event>
<event>
 5   0  0.5362952E-07  0.2798355E+04  0.7818609E-02  0.8303779E-01
        1   -1    0    0  501    0  0.00000000000E+00  0.00000000000E+00  0.14863951803E+04  0.14863951803E+04  0.50400001928E-02 0.  1.
       -1   -1    0    0    0  501  0.00000000000E+00  0.00000000000E+00 -0.13170772642E+04  0.13170772642E+04  0.50400001928E-02 0. -1.
    10030    2    1    2    0    0  0.00000000000E+00  0.00000000000E+00  0.16931791605E+03  0.28034724445E+04  0.27983547292E+04 0.  0.
        1    1    3    3  502    0 -0.64450753371E+03  0.11185095495E+04  0.62531593702E+03  0.14343896243E+04  0.50400001928E-02 0.  1.
       -1    1    3    3    0  502  0.64450753371E+03 -0.11185095495E+04 -0.45599802097E+03  0.13690828202E+04  0.50400001928E-02 0. -1.
</event>
<event>
 5   0  0.1377807E-06  0.2803275E+04  0.7818609E-02  0.8302252E-01
        2   -1    0    0  501    0  0.00000000000E+00  0.00000000000E+00  0.13406394775E+04  0.13406394775E+04  0.25500000920E-02 0. -1.
       -2   -1    0    0    0  501  0.00000000000E+00  0.00000000000E+00 -0.14654104814E+04  0.14654104814E+04  0.25500000920E-02 0.  1.
    10030    2    1    2    0    0  0.00000000000E+00  0.00000000000E+00 -0.12477100392E+03  0.28060499590E+04  0.28032746153E+04 0.  0.
        2    1    3    3  502    0 -0.89055794123E+02 -0.25996585665E+03  0.13134111096E+04  0.13418501868E+04  0.25500000920E-02 0. -1.
       -2    1    3    3    0  502  0.89055794123E+02  0.25996585665E+03 -0.14381821135E+04  0.14641997721E+04  0.25500000920E-02 0.  1.
</event>
<event>
 5   0  0.1439207E-06  0.2787514E+04  0.7818609E-02  0.8307155E-01
       -2   -1    0    0    0  501  0.00000000000E+00  0.00000000000E+00  0.15835429375E+04  0.15835429375E+04  0.25500000920E-02 0. -1.
        2   -1    0    0  501    0  0.00000000000E+00  0.00000000000E+00 -0.12267171039E+04  0.12267171039E+04  0.25500000920E-02 0.  1.
    10030    2    1    2    0    0  0.00000000000E+00  0.00000000000E+00  0.35682583368E+03  0.28102600414E+04  0.27875144528E+04 0.  0.
        5    1    3    3  502    0 -0.40736203571E+03  0.74649212037E+03  0.12916618560E+04  0.15464820575E+04  0.46999998093E+01 0. -1.
       -5    1    3    3    0  502  0.40736203571E+03 -0.74649212037E+03 -0.93483602233E+03  0.12637779839E+04  0.46999998093E+01 0.  1.
</event>
<event>
 5   0  0.5214658E-07  0.2795868E+04  0.7818609E-02  0.8304552E-01
        1   -1    0    0  501    0  0.00000000000E+00  0.00000000000E+00  0.14350728171E+04  0.14350728171E+04  0.50400001928E-02 0. -1.
       -1   -1    0    0    0  501  0.00000000000E+00  0.00000000000E+00 -0.13617567965E+04  0.13617567965E+04  0.50400001928E-02 0.  1.
    10030    2    1    2    0    0  0.00000000000E+00  0.00000000000E+00  0.73316020657E+02  0.27968296136E+04  0.27958684963E+04 0.  0.
        2    1    3    3  502    0 -0.71215068551E+03  0.11170472684E+04  0.48320474723E+03  0.14101205716E+04  0.25500000920E-02 0. -1.
       -2    1    3    3    0  502  0.71215068551E+03 -0.11170472684E+04 -0.40988872657E+03  0.13867090419E+04  0.25500000920E-02 0.  1.
</event>
<event>
 5   0  0.1439207E-06  0.2810178E+04  0.7818609E-02  0.8300115E-01
        2   -1    0    0  501    0  0.00000000000E+00  0.00000000000E+00  0.13114800994E+04  0.13114800994E+04  0.25500000920E-02 0.  1.
       -2   -1    0    0    0  501  0.00000000000E+00  0.00000000000E+00 -0.15053793413E+04  0.15053793413E+04  0.25500000920E-02 0. -1.
    10030    2    1    2    0    0  0.00000000000E+00  0.00000000000E+00 -0.19389924187E+03  0.28168594407E+04  0.28101779646E+04 0.  0.
        5    1    3    3  502    0  0.42289442747E+03 -0.82638960762E+03  0.96030621061E+03  0.13356532441E+04  0.46999998093E+01 0.  1.
       -5    1    3    3    0  502 -0.42289442747E+03  0.82638960762E+03 -0.11542054525E+04  0.14812061966E+04  0.46999998093E+01 0. -1.
</event>
<event>
 5   0  0.5282098E-07  0.2818394E+04  0.7818609E-02  0.8297580E-01
        1   -1    0    0  501    0  0.00000000000E+00  0.00000000000E+00  0.15821781996E+04  0.15821781996E+04  0.50400001928E-02 0. -1.
       -1   -1    0    0    0  501  0.00000000000E+00  0.00000000000E+00 -0.12551282457E+04  0.12551282457E+04  0.50400001928E-02 0.  1.
    10030    2    1    2    0    0  0.00000000000E+00  0.00000000000E+00  0.32704995390E+03  0.28373064453E+04  0.28183942578E+04 0.  0.
        4    1    3    3  502    0  0.92907124529E+03 -0.99600809462E+03 -0.20032723388E+03  0.13767127939E+04  0.12699999809E+01 0.  1.
       -4    1    3    3    0  502 -0.92907124529E+03  0.99600809462E+03  0.52737718778E+03  0.14605936514E+04  0.12699999809E+01 0. -1.
</event>
<event>
 5   0  0.5297741E-07  0.2795826E+04  0.7818609E-02  0.8304565E-01
        1   -1    0    0  501    0  0.00000000000E+00  0.00000000000E+00  0.12639203961E+04  0.12639203961E+04  0.50400001928E-02 0. -1.
       -1   -1    0    0    0  501  0.00000000000E+00  0.00000000000E+00 -0.15461104632E+04  0.15461104632E+04  0.50400001928E-02 0.  1.
    10030    2    1    2    0    0  0.00000000000E+00  0.00000000000E+00 -0.28219006712E+03  0.28100308593E+04  0.27958258522E+04 0.  0.
        5    1    3    3  502    0  0.11626509233E+04 -0.75209659071E+03 -0.33372475944E+03  0.14243597707E+04  0.46999998093E+01 0. -1.
       -5    1    3    3    0  502 -0.11626509233E+04  0.75209659071E+03  0.51534692313E+02  0.13856710886E+04  0.46999998093E+01 0.  1.
</event>
<event>
 5   0  0.5297741E-07  0.2794158E+04  0.7818609E-02  0.8305084E-01
       -1   -1    0    0    0  501  0.00000000000E+00  0.00000000000E+00  0.11843066337E+04  0.11843066338E+04  0.50400001928E-02 0. -1.
        1   -1    0    0  501    0  0.00000000000E+00  0.00000000000E+00 -0.16480777065E+04  0.16480777065E+04  0.50400001928E-02 0.  1.
    10030    2    1    2    0    0  0.00000000000E+00  0.00000000000E+00 -0.46377107273E+03  0.28323843402E+04  0.27941577341E+04 0.  0.
        5    1    3    3  502    0 -0.45454189203E+03  0.27658887831E+03  0.10775679532E+04  0.12017838919E+04  0.46999998093E+01 0. -1.
       -5    1    3    3    0  502  0.45454189203E+03 -0.27658887831E+03 -0.15413390259E+04  0.16306004483E+04  0.46999998093E+01 0.  1.
</event>
<event>
 5   0  0.4710000E-07  0.2799131E+04  0.7818609E-02  0.8303538E-01
        3   -1    0    0  501    0  0.00000000000E+00  0.00000000000E+00  0.15380607239E+04  0.15380607272E+04  0.10100000352E+00 0. -1.
       -3   -1    0    0    0  501  0.00000000000E+00  0.00000000000E+00 -0.12735408938E+04  0.12735408978E+04  0.10100000352E+00 0.  1.
    10030    2    1    2    0    0  0.00000000000E+00  0.00000000000E+00  0.26451983013E+03  0.28116016250E+04  0.27991307503E+04 0.  0.
        3    1    3    3  502    0 -0.52235510895E+03 -0.28793365796E+03  0.14040060312E+04  0.15254486544E+04  0.10100000352E+00 0. -1.
       -3    1    3    3    0  502  0.52235510895E+03  0.28793365796E+03 -0.11394862011E+04  0.12861529706E+04  0.10100000352E+00 0.  1.
</event>
<event>
 5   0  0.1499888E-06  0.2784169E+04  0.7818609E-02  0.8308200E-01
       -2   -1    0    0    0  501  0.00000000000E+00  0.00000000000E+00  0.14259880157E+04  0.14259880157E+04  0.25500000920E-02 0. -1.
        2   -1    0    0  501    0  0.00000000000E+00  0.00000000000E+00 -0.13589866586E+04  0.13589866586E+04  0.25500000920E-02 0.  1.
    10030    2    1    2    0    0  0.00000000000E+00  0.00000000000E+00  0.67001357047E+02  0.27849746743E+04  0.27841685930E+04 0.  0.
        3    1    3    3  502    0  0.12261910587E+03  0.83904320001E+03 -0.10708433014E+04  0.13659188566E+04  0.10100000352E+00 0.  1.
       -3    1    3    3    0  502 -0.12261910587E+03 -0.83904320001E+03  0.11378446584E+04  0.14190558176E+04  0.10100000352E+00 0. -1.
</event>
<event>
 5   0  0.5297741E-07  0.2801405E+04  0.7818609E-02  0.8302832E-01
        1   -1    0    0  501    0  0.00000000000E+00  0.00000000000E+00  0.17118946518E+04  0.17118946519E+04  0.50400001928E-02 0. -1.
       -1   -1    0    0    0  501  0.00000000000E+00  0.00000000000E+00 -0.11460794174E+04  0.11460794174E+04  0.50400001928E-02 0.  1.
    10030    2    1    2    0    0  0.00000000000E+00  0.00000000000E+00  0.56581523443E+03  0.28579740693E+04  0.28014048085E+04 0.  0.
        5    1    3    3  502    0  0.54734259062E+03  0.12886357711E+04  0.23987682591E+03  0.14204678960E+04  0.46999998093E+01 0. -1.
       -5    1    3    3    0  502 -0.54734259062E+03 -0.12886357711E+04  0.32593840852E+03  0.14375061733E+04  0.46999998093E+01 0.  1.
</event>
<event>
 5   0  0.5297741E-07  0.2795611E+04  0.7818609E-02  0.8304632E-01
        1   -1    0    0  501    0  0.00000000000E+00  0.00000000000E+00  0.15033099420E+04  0.15033099420E+04  0.50400001928E-02 0.  1.
       -1   -1    0    0    0  501  0.00000000000E+00  0.00000000000E+00 -0.12997051495E+04  0.12997051496E+04  0.50400001928E-02 0. -1.
    10030    2    1    2    0    0  0.00000000000E+00  0.00000000000E+00  0.20360479244E+03  0.28030150915E+04  0.27956106116E+04 0.  0.
        5    1    3    3  502    0  0.72028873959E+02 -0.13133147769E+04 -0.37258256726E+03  0.13670492754E+04  0.46999998093E+01 0. -1.
       -5    1    3    3    0  502 -0.72028873959E+02  0.13133147769E+04  0.57618735969E+03  0.14359658162E+04  0.46999998093E+01 0.  1.
</event>
<event>
 5   0  0.1499888E-06  0.2791194E+04  0.7818609E-02  0.8306008E-01
       -2   -1    0    0    0  501  0.00000000000E+00  0.00000000000E+00  0.92526671031E+03  0.92526671031E+03  0.25500000920E-02 0.  1.
        2   -1    0    0  501    0  0.00000000000E+00  0.00000000000E+00 -0.21050046332E+04  0.21050046332E+04  0.25500000920E-02 0. -1.
    10030    2    1    2    0    0  0.00000000000E+00  0.00000000000E+00 -0.11797379229E+04  0.30302713435E+04  0.27911938035E+04 0.  0.
        3    1    3    3  502    0  0.77293646794E+03  0.88361231385E+03  0.22941465787E+03  0.11961741512E+04  0.10100000352E+00 0.  1.
       -3    1    3    3    0  502 -0.77293646794E+03 -0.88361231385E+03 -0.14091525808E+04  0.18340971923E+04  0.10100000352E+00 0. -1.
</event>
<event>
 5   0  0.1461146E-06  0.2802287E+04  0.7818609E-02  0.8302559E-01
        2   -1    0    0  501    0  0.00000000000E+00  0.00000000000E+00  0.94998048523E+03  0.94998048523E+03  0.25500000920E-02 0. -1.
       -2   -1    0    0    0  501  0.00000000000E+00  0.00000000000E+00 -0.20665726315E+04  0.20665726316E+04  0.25500000920E-02 0.  1.
    10030    2    1    2    0    0  0.00000000000E+00  0.00000000000E+00 -0.11165921463E+04  0.30165531168E+04  0.28022874023E+04 0.  0.
        1    1    3    3  502    0  0.11399027039E+02  0.58628768728E+03  0.81153618412E+03  0.10012263322E+04  0.50400001928E-02 0. -1.
       -1    1    3    3    0  502 -0.11399027039E+02 -0.58628768728E+03 -0.19281283304E+04  0.20153267846E+04  0.50400001928E-02 0.  1.
</event>
<event>
 5   0  0.1394410E-06  0.2803938E+04  0.7818609E-02  0.8302047E-01
        2   -1    0    0  501    0  0.00000000000E+00  0.00000000000E+00  0.11041931932E+04  0.11041931932E+04  0.25500000920E-02 0. -1.
       -2   -1    0    0    0  501  0.00000000000E+00  0.00000000000E+00 -0.17800480506E+04  0.17800480506E+04  0.25500000920E-02 0.  1.
    10030    2    1    2    0    0  0.00000000000E+00  0.00000000000E+00 -0.67585485747E+03  0.28842412438E+04  0.28039379030E+04 0.  0.
        4    1    3    3  502    0 -0.29555139629E+03 -0.13282712456E+04  0.91682121649E+01  0.13607868308E+04  0.12699999809E+01 0. -1.
       -4    1    3    3    0  502  0.29555139629E+03  0.13282712456E+04 -0.68502306964E+03  0.15234544130E+04  0.12699999809E+01 0.  1.
</event>
<event>
 5   0  0.5214658E-07  0.2794075E+04  0.7818609E-02  0.8305110E-01
       -1   -1    0    0    0  501  0.00000000000E+00  0.00000000000E+00  0.99208949395E+03  0.99208949397E+03  0.50400001928E-02 0.  1.
        1   -1    0    0  501    0  0.00000000000E+00  0.00000000000E+00 -0.19672761236E+04  0.19672761236E+04  0.50400001928E-02 0. -1.
    10030    2    1    2    0    0  0.00000000000E+00  0.00000000000E+00 -0.97518662964E+03  0.29593656176E+04  0.27940751414E+04 0.  0.
        2    1    3    3  502    0  0.95160611590E+03 -0.91246882905E+03 -0.97705749561E+03  0.16409737699E+04  0.25500000920E-02 0. -1.
       -2    1    3    3    0  502 -0.95160611590E+03  0.91246882905E+03  0.18708659694E+01  0.13183918477E+04  0.25500000920E-02 0.  1.
</event>
<event>
 5   0  0.1439207E-06  0.2799664E+04  0.7818609E-02  0.8303373E-01
        2   -1    0    0  501    0  0.00000000000E+00  0.00000000000E+00  0.19316371459E+04  0.19316371459E+04  0.25500000920E-02 0. -1.
       -2   -1    0    0    0  501  0.00000000000E+00  0.00000000000E+00 -0.10144398355E+04  0.10144398355E+04  0.25500000920E-02 0.  1.
    10030    2    1    2    0    0  0.00000000000E+00  0.00000000000E+00  0.91719731033E+03  0.29460769814E+04  0.27996640288E+04 0.  0.
        5    1    3    3  502    0  0.87583737557E+03  0.16849450943E+03  0.15939218930E+04  0.18264968106E+04  0.46999998093E+01 0. -1.
       -5    1    3    3    0  502 -0.87583737557E+03 -0.16849450943E+03 -0.67672458264E+03  0.11195801708E+04  0.46999998093E+01 0.  1.
</event>
<event>
 5   0  0.5282098E-07  0.2793505E+04  0.7818609E-02  0.8305287E-01
       -1   -1    0    0    0  501  0.00000000000E+00  0.00000000000E+00  0.14184226159E+04  0.14184226159E+04  0.50400001928E-02 0.  1.
        1   -1    0    0  501    0  0.00000000000E+00  0.00000000000E+00 -0.13754139378E+04  0.13754139378E+04  0.50400001928E-02 0. -1.
    10030    2    1    2    0    0  0.00000000000E+00  0.00000000000E+00  0.43008678081E+02  0.27938365537E+04  0.27935054935E+04 0.  0.
        4    1    3    3  502    0  0.12514696138E+04  0.54233265956E+03 -0.27955577788E+03  0.13922837188E+04  0.12699999809E+01 0. -1.
       -4    1    3    3    0  502 -0.12514696138E+04 -0.54233265956E+03  0.32256445596E+03  0.14015528349E+04  0.12699999809E+01 0.  1.
</event>
<event>
 5   0  0.1461146E-06  0.2804949E+04  0.7818609E-02  0.8301734E-01
        2   -1    0    0  501    0  0.00000000000E+00  0.00000000000E+00  0.18093369093E+04  0.18093369093E+04  0.25500000920E-02 0. -1.
       -2   -1    0    0    0  501  0.00000000000E+00  0.00000000000E+00 -0.10871026128E+04  0.10871026128E+04  0.25500000920E-02 0.  1.
    10030    2    1    2    0    0  0.00000000000E+00  0.00000000000E+00  0.72223429644E+03  0.28964395221E+04  0.28049491129E+04 0.  0.
        1    1    3    3  502    0 -0.54044420264E+03 -0.12920846090E+04  0.28543038198E+03  0.14293470803E+04  0.50400001928E-02 0. -1.
       -1    1    3    3    0  502  0.54044420264E+03  0.12920846090E+04  0.43680391446E+03  0.14670924418E+04  0.50400001928E-02 0.  1.
</event>
<event>
 5   0  0.4710000E-07  0.2799950E+04  0.7818609E-02  0.8303284E-01
       -4   -1    0    0    0  501  0.00000000000E+00  0.00000000000E+00  0.13983891377E+04  0.13983897144E+04  0.12699999809E+01 0. -1.
        4   -1    0    0  501    0  0.00000000000E+00  0.00000000000E+00 -0.14015612974E+04  0.14015618728E+04  0.12699999809E+01 0.  1.
    10030    2    1    2    0    0  0.00000000000E+00  0.00000000000E+00 -0.31721596946E+01  0.27999515872E+04  0.27999497903E+04 0.  0.
        4    1    3    3  502    0 -0.13476807171E+04 -0.15634987009E+03  0.34372486720E+03  0.13995845792E+04  0.12699999809E+01 0. -1.
       -4    1    3    3    0  502  0.13476807171E+04  0.15634987009E+03 -0.34689702690E+03  0.14003670080E+04  0.12699999809E+01 0.  1.
</event>
<event>
 5   0  0.1377807E-06  0.2799826E+04  0.7818609E-02  0.8303322E-01
        2   -1    0    0  501    0  0.00000000000E+00  0.00000000000E+00  0.31528440270E+04  0.31528440270E+04  0.25500000920E-02 0. -1.
       -2   -1    0    0    0  501  0.00000000000E+00  0.00000000000E+00 -0.62158362354E+03  0.62158362355E+03  0.25500000920E-02 0.  1.
    10030    2    1    2    0    0  0.00000000000E+00  0.00000000000E+00  0.25312604035E+04  0.37744276506E+04  0.27998258623E+04 0.  0.
        2    1    3    3  502    0 -0.97454028391E+03 -0.98606589486E+03  0.15273878643E+04  0.20627574753E+04  0.25500000920E-02 0. -1.
       -2    1    3    3    0  502  0.97454028391E+03  0.98606589486E+03  0.10038725392E+04  0.17116701753E+04  0.25500000920E-02 0.  1.
</event>
<event>
 5   0  0.5362952E-07  0.2800507E+04  0.7818609E-02  0.8303111E-01
        1   -1    0    0  501    0  0.00000000000E+00  0.00000000000E+00  0.14360434825E+04  0.14360434825E+04  0.50400001928E-02 0.  1.
       -1   -1    0    0    0  501  0.00000000000E+00  0.00000000000E+00 -0.13653553405E+04  0.13653553405E+04  0.50400001928E-02 0. -1.
    10030    2    1    2    0    0  0.00000000000E+00  0.00000000000E+00  0.70688142029E+02  0.28013988230E+04  0.28005068384E+04 0.  0.
        1    1    3    3  502    0 -0.27422453669E+03  0.50588125173E+03 -0.12416183187E+04  0.13684776164E+04  0.50400001928E-02 0. -1.
       -1    1    3    3    0  502  0.27422453669E+03 -0.50588125173E+03  0.13123064607E+04  0.14329212066E+04  0.50400001928E-02 0.  1.
</event>
<event>
 5   0  0.5282098E-07  0.2798706E+04  0.7818609E-02  0.8303670E-01
       -1   -1    0    0    0  501  0.00000000000E+00  0.00000000000E+00  0.13293636522E+04  0.13293636522E+04  0.50400001928E-02 0.  1.
        1   -1    0    0  501    0  0.00000000000E+00  0.00000000000E+00 -0.14730271612E+04  0.14730271612E+04  0.50400001928E-02 0. -1.
    10030    2    1    2    0    0  0.00000000000E+00  0.00000000000E+00 -0.14366350908E+03  0.28023908134E+04  0.27987059630E+04 0.  0.
        4    1    3    3  502    0 -0.28335654488E+03  0.75227891092E+03 -0.12187535883E+04  0.14599919223E+04  0.12699999809E+01 0. -1.
       -4    1    3    3    0  502  0.28335654488E+03 -0.75227891092E+03  0.10750900792E+04  0.13423988911E+04  0.12699999809E+01 0.  1.
</event>
<event>
 5   0  0.1377807E-06  0.2800752E+04  0.7818609E-02  0.8303035E-01
       -2   -1    0    0    0  501  0.00000000000E+00  0.00000000000E+00  0.10416771573E+04  0.10416771573E+04  0.25500000920E-02 0.  1.
        2   -1    0    0  501    0  0.00000000000E+00  0.00000000000E+00 -0.18825921458E+04  0.18825921458E+04  0.25500000920E-02 0. -1.
    10030    2    1    2    0    0  0.00000000000E+00  0.00000000000E+00 -0.84091498848E+03  0.29242693031E+04  0.28007522096E+04 0.  0.
        2    1    3    3  502    0 -0.70764731307E+03  0.32238865357E+03 -0.16364452888E+04  0.18118091365E+04  0.25500000920E-02 0. -1.
       -2    1    3    3    0  502  0.70764731307E+03 -0.32238865357E+03  0.79553030034E+03  0.11124601667E+04  0.25500000920E-02 0.  1.
</event>
<event>
 5   0  0.1439207E-06  0.2802754E+04  0.7818609E-02  0.8302414E-01
        2   -1    0    0  501    0  0.00000000000E+00  0.00000000000E+00  0.26703219617E+04  0.26703219618E+04  0.25500000920E-02 0.  1.
       -2   -1    0    0    0  501  0.00000000000E+00  0.00000000000E+00 -0.73543845692E+03  0.73543845692E+03  0.25500000920E-02 0. -1.
    10030    2    1    2    0    0  0.00000000000E+00  0.00000000000E+00  0.19348835048E+04  0.34057604187E+04  0.28027539764E+04 0.  0.
        5    1    3    3  502    0  0.10344048933E+04 -0.47694517599E+03 -0.24497935973E+02  0.11393385902E+04  0.46999998093E+01 0. -1.
       -5    1    3    3    0  502 -0.10344048933E+04  0.47694517599E+03  0.19593814408E+04  0.22664218285E+04  0.46999998093E+01 0.  1.
</event>
<event>
 5   0  0.5282098E-07  0.2736357E+04  0.7818609E-02  0.8323304E-01
       -1   -1    0    0    0  501  0.00000000000E+00  0.00000000000E+00  0.10468538233E+04  0.10468538233E+04  0.50400001928E-02 0. -1.
        1   -1    0    0  501    0  0.00000000000E+00  0.00000000000E+00 -0.17881320747E+04  0.17881320748E+04  0.50400001928E-02 0.  1.
    10030    2    1    2    0    0  0.00000000000E+00  0.00000000000E+00 -0.74127825144E+03  0.28349858981E+04  0.27363573590E+04 0.  0.
        4    1    3    3  502    0 -0.10408236419E+04  0.48560282891E+02 -0.12893005317E+04  0.16577000418E+04  0.12699999809E+01 0.  1.
       -4    1    3    3    0  502  0.10408236419E+04 -0.48560282891E+02  0.54802228029E+03  0.11772858562E+04  0.12699999809E+01 0. -1.
</event>
<event>
 5   0  0.5214658E-07  0.2734475E+04  0.7818609E-02  0.8323905E-01
       -1   -1    0    0    0  501  0.00000000000E+00  0.00000000000E+00  0.68489883712E+03  0.68489883714E+03  0.50400001928E-02 0. -1.
        1   -1    0    0  501    0  0.00000000000E+00  0.00000000000E+00 -0.27293636262E+04  0.27293636262E+04  0.50400001928E-02 0.  1.
    10030    2    1    2    0    0  0.00000000000E+00  0.00000000000E+00 -0.20444647890E+04  0.34142624633E+04  0.27344747018E+04 0.  0.
        2    1    3    3  502    0  0.12534851130E+04 -0.26507834738E+03 -0.16182295521E+04  0.20640151023E+04  0.25500000920E-02 0.  1.
       -2    1    3    3    0  502 -0.12534851130E+04  0.26507834738E+03 -0.42623523689E+03  0.13502473611E+04  0.25500000920E-02 0. -1.
</event>
<event>
 5   0  0.1394410E-06  0.2798602E+04  0.7818609E-02  0.8303703E-01
        2   -1    0    0  501    0  0.00000000000E+00  0.00000000000E+00  0.11752428935E+04  0.11752428935E+04  0.25500000920E-02 0. -1.
       -2   -1    0    0    0  501  0.00000000000E+00  0.00000000000E+00 -0.16660752251E+04  0.16660752251E+04  0.25500000920E-02 0.  1.
    10030    2    1    2    0    0  0.00000000000E+00  0.00000000000E+00 -0.49083233163E+03  0.28413181186E+04  0.27986018426E+04 0.  0.
        4    1    3    3  502    0  0.12192485347E+04  0.66903590333E+03 -0.88573815437E+02  0.13935648399E+04  0.12699999809E+01 0. -1.
       -4    1    3    3    0  502 -0.12192485347E+04 -0.66903590333E+03 -0.40225851619E+03  0.14477532787E+04  0.12699999809E+01 0.  1.
</event>
<event>
 5   0  0.4710000E-07  0.2798608E+04  0.7818609E-02  0.8303701E-01
        3   -1    0    0  501    0  0.00000000000E+00  0.00000000000E+00  0.27532973578E+04  0.27532973597E+04  0.10100000352E+00 0. -1.
       -3   -1    0    0    0  501  0.00000000000E+00  0.00000000000E+00 -0.71116625435E+03  0.71116626152E+03  0.10100000352E+00 0.  1.
    10030    2    1    2    0    0  0.00000000000E+00  0.00000000000E+00  0.20421311035E+04  0.34644636212E+04  0.27986083575E+04 0.  0.
        2    1    3    3  502    0 -0.11292315365E+04  0.79254499634E+03  0.13107522638E+04  0.19029878957E+04  0.25500000920E-02 0. -1.
       -2    1    3    3    0  502  0.11292315365E+04 -0.79254499634E+03  0.73137883967E+03  0.15614757255E+04  0.25500000920E-02 0.  1.
</event>
<event>
 5   0  0.1394410E-06  0.2800281E+04  0.7818609E-02  0.8303181E-01
       -2   -1    0    0    0  501  0.00000000000E+00  0.00000000000E+00  0.94446605301E+03  0.94446605301E+03  0.25500000920E-02 0.  1.
        2   -1    0    0  501    0  0.00000000000E+00  0.00000000000E+00 -0.20756625202E+04  0.20756625202E+04  0.25500000920E-02 0. -1.
    10030    2    1    2    0    0  0.00000000000E+00  0.00000000000E+00 -0.11311964672E+04  0.30201285732E+04  0.28002805487E+04 0.  0.
        4    1    3    3  502    0  0.76879313435E+03 -0.10698081642E+03  0.69117906037E+03  0.10393353092E+04  0.12699999809E+01 0.  1.
       -4    1    3    3    0  502 -0.76879313435E+03  0.10698081642E+03 -0.18223755276E+04  0.19807932641E+04  0.12699999809E+01 0. -1.
</event>
<event>
 5   0  0.1394410E-06  0.2802935E+04  0.7818609E-02  0.8302358E-01
        2   -1    0    0  501    0  0.00000000000E+00  0.00000000000E+00  0.20815666190E+04  0.20815666190E+04  0.25500000920E-02 0. -1.
       -2   -1    0    0    0  501  0.00000000000E+00  0.00000000000E+00 -0.94357358059E+03  0.94357358059E+03  0.25500000920E-02 0.  1.
    10030    2    1    2    0    0  0.00000000000E+00  0.00000000000E+00  0.11379930384E+04  0.30251401996E+04  0.28029350816E+04 0.  0.
        4    1    3    3  502    0 -0.82986933743E+03 -0.17668743585E+03 -0.63487177721E+03  0.10597005962E+04  0.12699999809E+01 0.  1.
       -4    1    3    3    0  502  0.82986933743E+03  0.17668743585E+03  0.17728648156E+04  0.19654396034E+04  0.12699999809E+01 0. -1.
</event>
<event>
 5   0  0.1439207E-06  0.2799102E+04  0.7818609E-02  0.8303547E-01
        2   -1    0    0  501    0  0.00000000000E+00  0.00000000000E+00  0.19397564796E+04  0.19397564796E+04  0.25500000920E-02 0. -1.
       -2   -1    0    0    0  501  0.00000000000E+00  0.00000000000E+00 -0.10097882189E+04  0.10097882189E+04  0.25500000920E-02 0.  1.
    10030    2    1    2    0    0  0.00000000000E+00  0.00000000000E+00  0.92996826077E+03  0.29495446985E+04  0.27991021708E+04 0.  0.
        5    1    3    3  502    0 -0.84460670782E+03 -0.10156230223E+04  0.95230129665E+03  0.16284196216E+04  0.46999998093E+01 0.  1.
       -5    1    3    3    0  502  0.84460670782E+03  0.10156230223E+04 -0.22333035879E+02  0.13211250769E+04  0.46999998093E+01 0. -1.
</event>
<event>
 5   0  0.5214658E-07  0.2801221E+04  0.7818609E-02  0.8302889E-01
        1   -1    0    0  501    0  0.00000000000E+00  0.00000000000E+00  0.12757854531E+04  0.12757854531E+04  0.50400001928E-02 0.  1.
       -1   -1    0    0    0  501  0.00000000000E+00  0.00000000000E+00 -0.15376484511E+04  0.15376484511E+04  0.50400001928E-02 0. -1.
    10030    2    1    2    0    0  0.00000000000E+00  0.00000000000E+00 -0.26186299807E+03  0.28134339042E+04  0.28012208238E+04 0.  0.
        2    1    3    3  502    0  0.10877716808E+04  0.20878346100E+03  0.73005263923E+03  0.13265800463E+04  0.25500000920E-02 0. -1.
       -2    1    3    3    0  502 -0.10877716808E+04 -0.20878346100E+03 -0.99191563730E+03  0.14868538579E+04  0.25500000920E-02 0.  1.
</event>
<event>
 5   0  0.5362952E-07  0.2785080E+04  0.7818609E-02  0.8307915E-01
        1   -1    0    0  501    0  0.00000000000E+00  0.00000000000E+00  0.29202806713E+04  0.29202806713E+04  0.50400001928E-02 0.  1.
       -1   -1    0    0    0  501  0.00000000000E+00  0.00000000000E+00 -0.66403468360E+03  0.66403468362E+03  0.50400001928E-02 0. -1.
    10030    2    1    2    0    0  0.00000000000E+00  0.00000000000E+00  0.22562459877E+04  0.35843153549E+04  0.27850800000E+04 0.  0.
        1    1    3    3  502    0 -0.31066605549E+03  0.23084286727E+03  0.28496669155E+04  0.28758308985E+04  0.50400001928E-02 0.  1.
       -1    1    3    3    0  502  0.31066605549E+03 -0.23084286727E+03 -0.59342092781E+03  0.70848445642E+03  0.50400001928E-02 0. -1.
</event>
<event>
 5   0  0.5297741E-07  0.2802853E+04  0.7818609E-02  0.8302383E-01
        1   -1    0    0  501    0  0.00000000000E+00  0.00000000000E+00  0.98869838560E+03  0.98869838561E+03  0.50400001928E-02 0.  1.
       -1   -1    0    0    0  501  0.00000000000E+00  0.00000000000E+00 -0.19864466384E+04  0.19864466384E+04  0.50400001928E-02 0. -1.
    10030    2    1    2    0    0  0.00000000000E+00  0.00000000000E+00 -0.99774825279E+03  0.29751450240E+04  0.28028532494E+04 0.  0.
        5    1    3    3  502    0 -0.10142237269E+04  0.48248688000E+03 -0.13885679370E+04  0.17859413101E+04  0.46999998093E+01 0. -1.
       -5    1    3    3    0  502  0.10142237269E+04 -0.48248688000E+03  0.39081968418E+03  0.11892037139E+04  0.46999998093E+01 0.  1.
</event>
<event>
 5   0  0.1461146E-06  0.2797767E+04  0.7818609E-02  0.8303962E-01
       -2   -1    0    0    0  501  0.00000000000E+00  0.00000000000E+00  0.10384006132E+04  0.10384006132E+04  0.25500000920E-02 0. -1.
        2   -1    0    0  501    0  0.00000000000E+00  0.00000000000E+00 -0.18845090359E+04  0.18845090359E+04  0.25500000920E-02 0.  1.
    10030    2    1    2    0    0  0.00000000000E+00  0.00000000000E+00 -0.84610842269E+03  0.29229096490E+04  0.27977672086E+04 0.  0.
        1    1    3    3  502    0  0.10981568331E+04  0.15902532732E+03  0.46689204448E+03  0.12038378903E+04  0.50400001928E-02 0. -1.
       -1    1    3    3    0  502 -0.10981568331E+04 -0.15902532732E+03 -0.13130004672E+04  0.17190717587E+04  0.50400001928E-02 0.  1.
</event>
<event>
 5   0  0.1439207E-06  0.2817670E+04  0.7818609E-02  0.8297804E-01
       -2   -1    0    0    0  501  0.00000000000E+00  0.00000000000E+00  0.10731873104E+04  0.10731873104E+04  0.25500000920E-02 0.  1.
        2   -1    0    0  501    0  0.00000000000E+00  0.00000000000E+00 -0.18494587390E+04  0.18494587390E+04  0.25500000920E-02 0. -1.
    10030    2    1    2    0    0  0.00000000000E+00  0.00000000000E+00 -0.77627142852E+03  0.29226460494E+04  0.28176697108E+04 0.  0.
        5    1    3    3  502    0 -0.16902826649E+03 -0.50046216312E+03 -0.17428421135E+04  0.18211407563E+04  0.46999998093E+01 0. -1.
       -5    1    3    3    0  502  0.16902826649E+03  0.50046216312E+03  0.96657068501E+03  0.11015052931E+04  0.46999998093E+01 0.  1.
</event>
<event>
 5   0  0.1394410E-06  0.2800176E+04  0.7818609E-02  0.8303214E-01
        2   -1    0    0  501    0  0.00000000000E+00  0.00000000000E+00  0.17211858053E+04  0.17211858053E+04  0.25500000920E-02 0.  1.
       -2   -1    0    0    0  501  0.00000000000E+00  0.00000000000E+00 -0.11388927147E+04  0.11388927147E+04  0.25500000920E-02 0. -1.
    10030    2    1    2    0    0  0.00000000000E+00  0.00000000000E+00  0.58229309064E+03  0.28600785200E+04  0.28001756904E+04 0.  0.
        4    1    3    3  502    0  0.36792347704E+03  0.66674093865E+03 -0.90886283758E+03  0.11857252779E+04  0.12699999809E+01 0. -1.
       -4    1    3    3    0  502 -0.36792347704E+03 -0.66674093865E+03  0.14911559282E+04  0.16743532421E+04  0.12699999809E+01 0.  1.
</event>
<event>
 5   0  0.5297741E-07  0.2797374E+04  0.7818609E-02  0.8304084E-01
       -1   -1    0    0    0  501  0.00000000000E+00  0.00000000000E+00  0.96001556789E+03  0.96001556791E+03  0.50400001928E-02 0.  1.
        1   -1    0    0  501    0  0.00000000000E+00  0.00000000000E+00 -0.20378054827E+04  0.20378054827E+04  0.50400001928E-02 0. -1.
    10030    2    1    2    0    0  0.00000000000E+00  0.00000000000E+00 -0.10777899148E+04  0.29978210506E+04  0.27973737596E+04 0.  0.
        5    1    3    3  502    0  0.12001480419E+04 -0.90811110153E+02  0.22469319657E+03  0.12243819269E+04  0.46999998093E+01 0.  1.
       -5    1    3    3    0  502 -0.12001480419E+04  0.90811110153E+02 -0.13024831114E+04  0.17734391238E+04  0.46999998093E+01 0. -1.
</event>
<event>
 5   0  0.5362952E-07  0.2804580E+04  0.7818609E-02  0.8301848E-01
       -1   -1    0    0    0  501  0.00000000000E+00  0.00000000000E+00  0.15154032743E+04  0.15154032743E+04  0.50400001928E-02 0. -1.
        1   -1    0    0  501    0  0.00000000000E+00  0.00000000000E+00 -0.12976195523E+04  0.12976195523E+04  0.50400001928E-02 0.  1.
    10030    2    1    2    0    0  0.00000000000E+00  0.00000000000E+00  0.21778372205E+03  0.28130228266E+04  0.28045797677E+04 0.  0.
        1    1    3    3  502    0 -0.12888692890E+04  0.11968151805E+02  0.66290388187E+03  0.14494029244E+04  0.50400001928E-02 0. -1.
       -1    1    3    3    0  502  0.12888692890E+04 -0.11968151805E+02 -0.44512015981E+03  0.13636199021E+04  0.50400001928E-02 0.  1.
</event>
<event>
 5   0  0.5214658E-07  0.2798965E+04  0.7818609E-02  0.8303590E-01
        1   -1    0    0  501    0  0.00000000000E+00  0.00000000000E+00  0.10696771437E+04  0.10696771437E+04  0.50400001928E-02 0. -1.
       -1   -1    0    0    0  501  0.00000000000E+00  0.00000000000E+00 -0.18309747391E+04  0.18309747391E+04  0.50400001928E-02 0.  1.
    10030    2    1    2    0    0  0.00000000000E+00  0.00000000000E+00 -0.76129759540E+03  0.29006518828E+04  0.27989654011E+04 0.  0.
        2    1    3    3  502    0  0.22980774354E+03 -0.10575002033E+04  0.53896406704E+03  0.12089667260E+04  0.25500000920E-02 0. -1.
       -2    1    3    3    0  502 -0.22980774354E+03  0.10575002033E+04 -0.13002616624E+04  0.16916851568E+04  0.25500000920E-02 0.  1.
</event>
<event>
 5   0  0.5214658E-07  0.2800163E+04  0.7818609E-02  0.8303218E-01
        1   -1    0    0  501    0  0.00000000000E+00  0.00000000000E+00  0.18919540981E+04  0.18919540981E+04  0.50400001928E-02 0. -1.
       -1   -1    0    0    0  501  0.00000000000E+00  0.00000000000E+00 -0.10360867721E+04  0.10360867721E+04  0.50400001928E-02 0.  1.
    10030    2    1    2    0    0  0.00000000000E+00  0.00000000000E+00  0.85586732601E+03  0.29280408703E+04  0.28001632914E+04 0.  0.
        2    1    3    3  502    0 -0.27770470074E+03  0.10923833201E+04  0.12964094196E+04  0.17178761894E+04  0.25500000920E-02 0. -1.
       -2    1    3    3    0  502  0.27770470074E+03 -0.10923833201E+04 -0.44054209358E+03  0.12101646809E+04  0.25500000920E-02 0.  1.
</event>
<event>
 5   0  0.5297741E-07  0.2802728E+04  0.7818609E-02  0.8302422E-01
        1   -1    0    0  501    0  0.00000000000E+00  0.00000000000E+00  0.15555662518E+04  0.15555662518E+04  0.50400001928E-02 0.  1.
       -1   -1    0    0    0  501  0.00000000000E+00  0.00000000000E+00 -0.12624473149E+04  0.12624473150E+04  0.50400001928E-02 0. -1.
    10030    2    1    2    0    0  0.00000000000E+00  0.00000000000E+00  0.29311893688E+03  0.28180135668E+04  0.28027275557E+04 0.  0.
        5    1    3    3  502    0 -0.11833326971E+04 -0.63368857399E+03 -0.25807906943E+03  0.13669178384E+04  0.46999998093E+01 0.  1.
       -5    1    3    3    0  502  0.11833326971E+04  0.63368857399E+03  0.55119800632E+03  0.14510957284E+04  0.46999998093E+01 0. -1.
</event>
<event>
 5   0  0.1461146E-06  0.2800703E+04  0.7818609E-02  0.8303050E-01
        2   -1    0    0  501    0  0.00000000000E+00  0.00000000000E+00  0.19302045163E+04  0.19302045163E+04  0.25500000920E-02 0. -1.
       -2   -1    0    0    0  501  0.00000000000E+00  0.00000000000E+00 -0.10159463850E+04  0.10159463850E+04  0.25500000920E-02 0.  1.
    10030    2    1    2    0    0  0.00000000000E+00  0.00000000000E+00  0.91425813128E+03  0.29461509013E+04  0.28007029837E+04 0.  0.
        1    1    3    3  502    0  0.74093896758E+03  0.10456408579E+04  0.10509158741E+04  0.16573411031E+04  0.50400001928E-02 0. -1.
       -1    1    3    3    0  502 -0.74093896758E+03 -0.10456408579E+04 -0.13665774285E+03  0.12888097983E+04  0.50400001928E-02 0.  1.
</event>
<event>
 5   0  0.5282098E-07  0.2745542E+04  0.7818609E-02  0.8320378E-01
        1   -1    0    0  501    0  0.00000000000E+00  0.00000000000E+00  0.21121316355E+04  0.21121316355E+04  0.50400001928E-02 0. -1.
       -1   -1    0    0    0  501  0.00000000000E+00  0.00000000000E+00 -0.89222688091E+03  0.89222688093E+03  0.50400001928E-02 0.  1.
    10030    2    1    2    0    0  0.00000000000E+00  0.00000000000E+00  0.12199047546E+04  0.30043585165E+04  0.27455422935E+04 0.  0.
        4    1    3    3  502    0  0.10565150447E+04 -0.87118777852E+03  0.71551844666E+03  0.15450438329E+04  0.12699999809E+01 0.  1.
       -4    1    3    3    0  502 -0.10565150447E+04  0.87118777852E+03  0.50438630797E+03  0.14593146836E+04  0.12699999809E+01 0. -1.
</event>
<event>
 5   0  0.5362952E-07  0.2800637E+04  0.7818609E-02  0.8303071E-01
       -1   -1    0    0    0  501  0.00000000000E+00  0.00000000000E+00  0.14569576049E+04  0.14569576049E+04  0.50400001928E-02 0.  1.
        1   -1    0    0  501    0  0.00000000000E+00  0.00000000000E+00 -0.13458810343E+04  0.13458810343E+04  0.50400001928E-02 0. -1.
    10030    2    1    2    0    0  0.00000000000E+00  0.00000000000E+00  0.11107657058E+03  0.28028386393E+04  0.28006367907E+04 0.  0.
        1    1    3    3  502    0 -0.10454833954E+04 -0.71200860837E+03  0.65675997379E+03  0.14252457513E+04  0.50400001928E-02 0.  1.
       -1    1    3    3    0  502  0.10454833954E+04  0.71200860837E+03 -0.54568340321E+03  0.13775928880E+04  0.50400001928E-02 0. -1.
</event>
<event>
 5   0  0.1394410E-06  0.2806792E+04  0.7818609E-02  0.8301163E-01
        2   -1    0    0  501    0  0.00000000000E+00  0.00000000000E+00  0.15311190003E+04  0.15311190003E+04  0.25500000920E-02 0.  1.
       -2   -1    0    0    0  501  0.00000000000E+00  0.00000000000E+00 -0.12863272673E+04  0.12863272673E+04  0.25500000920E-02 0. -1.
    10030    2    1    2    0    0  0.00000000000E+00  0.00000000000E+00  0.24479173301E+03  0.28174462676E+04  0.28067918481E+04 0.  0.
        4    1    3    3  502    0  0.43389853975E+03 -0.64906869159E+03 -0.10482042597E+04  0.13070164085E+04  0.12699999809E+01 0. -1.
       -4    1    3    3    0  502 -0.43389853975E+03  0.64906869159E+03  0.12929959927E+04  0.15104298591E+04  0.12699999809E+01 0.  1.
</event>
<event>
 5   0  0.5297741E-07  0.2801079E+04  0.7818609E-02  0.8302934E-01
        1   -1    0    0  501    0  0.00000000000E+00  0.00000000000E+00  0.18470332568E+04  0.18470332568E+04  0.50400001928E-02 0.  1.
       -1   -1    0    0    0  501  0.00000000000E+00  0.00000000000E+00 -0.10619789642E+04  0.10619789642E+04  0.50400001928E-02 0. -1.
    10030    2    1    2    0    0  0.00000000000E+00  0.00000000000E+00  0.78505429254E+03  0.29090122210E+04  0.28010786958E+04 0.  0.
        5    1    3    3  502    0 -0.13424523024E+04  0.10288151028E+03 -0.79825908932E+01  0.13464206628E+04  0.46999998093E+01 0. -1.
       -5    1    3    3    0  502  0.13424523024E+04 -0.10288151028E+03  0.79303688343E+03  0.15625915582E+04  0.46999998093E+01 0.  1.
</event>
<event>
 5   0  0.5297741E-07  0.2813929E+04  0.7818609E-02  0.8298957E-01
       -1   -1    0    0    0  501  0.00000000000E+00  0.00000000000E+00  0.19822076939E+04  0.19822076939E+04  0.50400001928E-02 0. -1.
        1   -1    0    0  501    0  0.00000000000E+00  0.00000000000E+00 -0.99865897897E+03  0.99865897898E+03  0.50400001928E-02 0.  1.
    10030    2    1    2    0    0  0.00000000000E+00  0.00000000000E+00  0.98354871488E+03  0.29808666728E+04  0.28139292896E+04 0.  0.
        5    1    3    3  502    0 -0.68288467911E+03 -0.12299054995E+04  0.51612499728E+03  0.14984679261E+04  0.46999998093E+01 0. -1.
       -5    1    3    3    0  502  0.68288467911E+03  0.12299054995E+04  0.46742371760E+03  0.14823987468E+04  0.46999998093E+01 0.  1.
</event>
<event>
 5   0  0.5282098E-07  0.2796514E+04  0.7818609E-02  0.8304351E-01
       -1   -1    0    0    0  501  0.00000000000E+00  0.00000000000E+00  0.16257456926E+04  0.16257456926E+04  0.50400001928E-02 0. -1.
        1   -1    0    0  501    0  0.00000000000E+00  0.00000000000E+00 -0.12026007570E+04  0.12026007570E+04  0.50400001928E-02 0.  1.
    10030    2    1    2    0    0  0.00000000000E+00  0.00000000000E+00  0.42314493558E+03  0.28283464497E+04  0.27965142594E+04 0.  0.
        4    1    3    3  502    0  0.11465533822E+04  0.79351077124E+03  0.10609059612E+03  0.13983922303E+04  0.12699999809E+01 0.  1.
       -4    1    3    3    0  502 -0.11465533822E+04 -0.79351077124E+03  0.31705433946E+03  0.14299542193E+04  0.12699999809E+01 0. -1.
</event>
<event>
 5   0  0.1461146E-06  0.2800698E+04  0.7818609E-02  0.8303052E-01
        2   -1    0    0  501    0  0.00000000000E+00  0.00000000000E+00  0.21718185167E+04  0.21718185167E+04  0.25500000920E-02 0. -1.
       -2   -1    0    0    0  501  0.00000000000E+00  0.00000000000E+00 -0.90291980412E+03  0.90291980413E+03  0.25500000920E-02 0.  1.
    10030    2    1    2    0    0  0.00000000000E+00  0.00000000000E+00  0.12688987126E+04  0.30747383208E+04  0.28006984484E+04 0.  0.
        1    1    3    3  502    0 -0.56054375436E+03 -0.52447695391E+03 -0.65134111652E+03  0.10067425817E+04  0.50400001928E-02 0.  1.
       -1    1    3    3    0  502  0.56054375436E+03  0.52447695391E+03  0.19202398291E+04  0.20679957391E+04  0.50400001928E-02 0. -1.
</event>
<event>
 5   0  0.5282098E-07  0.2797549E+04  0.7818609E-02  0.8304030E-01
        1   -1    0    0  501    0  0.00000000000E+00  0.00000000000E+00  0.19197160033E+04  0.19197160033E+04  0.50400001928E-02 0.  1.
       -1   -1    0    0    0  501  0.00000000000E+00  0.00000000000E+00 -0.10191978650E+04  0.10191978650E+04  0.50400001928E-02 0. -1.
    10030    2    1    2    0    0  0.00000000000E+00  0.00000000000E+00  0.90051813830E+03  0.29389138683E+04  0.27975492503E+04 0.  0.
        4    1    3    3  502    0 -0.15164953329E+03  0.46881227202E+03 -0.92500929288E+03  0.10480583630E+04  0.12699999809E+01 0. -1.
       -4    1    3    3    0  502  0.15164953329E+03 -0.46881227202E+03  0.18255274312E+04  0.18908555054E+04  0.12699999809E+01 0.  1.
</event>
<event>
 5   0  0.1461146E-06  0.2797697E+04  0.7818609E-02  0.8303984E-01
       -2   -1    0    0    0  501  0.00000000000E+00  0.00000000000E+00  0.13613591190E+04  0.13613591190E+04  0.25500000920E-02 0. -1.
        2   -1    0    0  501    0  0.00000000000E+00  0.00000000000E+00 -0.14373704953E+04  0.14373704953E+04  0.25500000920E-02 0.  1.
    10030    2    1    2    0    0  0.00000000000E+00  0.00000000000E+00 -0.76011376258E+02  0.27987296143E+04  0.27976972182E+04 0.  0.
        1    1    3    3  502    0 -0.74647130746E+03  0.63409949887E+03  0.96109998674E+03  0.13722298539E+04  0.50400001928E-02 0. -1.
       -1    1    3    3    0  502  0.74647130746E+03 -0.63409949887E+03 -0.10371113630E+04  0.14264997605E+04  0.50400001928E-02 0.  1.
</event>
<event>
 5   0  0.1499888E-06  0.2782758E+04  0.7818609E-02  0.8308641E-01
        2   -1    0    0  501    0  0.00000000000E+00  0.00000000000E+00  0.19257581780E+04  0.19257581780E+04  0.25500000920E-02 0. -1.
       -2   -1    0    0    0  501  0.00000000000E+00  0.00000000000E+00 -0.10052849024E+04  0.10052849024E+04  0.25500000920E-02 0.  1.
    10030    2    1    2    0    0  0.00000000000E+00  0.00000000000E+00  0.92047327562E+03  0.29310430804E+04  0.27827580721E+04 0.  0.
        3    1    3    3  502    0 -0.47308486059E+03  0.48405299712E+03 -0.82019789023E+03  0.10634101648E+04  0.10100000352E+00 0.  1.
       -3    1    3    3    0  502  0.47308486059E+03 -0.48405299712E+03  0.17406711659E+04  0.18676329155E+04  0.10100000352E+00 0. -1.
</event>
<event>
 5   0  0.1499888E-06  0.2798481E+04  0.7818609E-02  0.8303740E-01
        2   -1    0    0  501    0  0.00000000000E+00  0.00000000000E+00  0.70580060144E+03  0.70580060145E+03  0.25500000920E-02 0.  1.
       -2   -1    0    0    0  501  0.00000000000E+00  0.00000000000E+00 -0.27739761422E+04  0.27739761422E+04  0.25500000920E-02 0. -1.
    10030    2    1    2    0    0  0.00000000000E+00  0.00000000000E+00 -0.20681755407E+04  0.34797767436E+04  0.27984810377E+04 0.  0.
        3    1    3    3  502    0  0.12644378599E+03  0.33165049422E+01  0.69867714890E+03  0.71003436453E+03  0.10100000352E+00 0.  1.
       -3    1    3    3    0  502 -0.12644378599E+03 -0.33165049422E+01 -0.27668526896E+04  0.27697423791E+04  0.10100000352E+00 0. -1.
</event>
<event>
 5   0  0.5362952E-07  0.2806125E+04  0.7818609E-02  0.8301369E-01
        1   -1    0    0  501    0  0.00000000000E+00  0.00000000000E+00  0.14974377851E+04  0.14974377851E+04  0.50400001928E-02 0.  1.
       -1   -1    0    0    0  501  0.00000000000E+00  0.00000000000E+00 -0.13146354255E+04  0.13146354255E+04  0.50400001928E-02 0. -1.
    10030    2    1    2    0    0  0.00000000000E+00  0.00000000000E+00  0.18280235962E+03  0.28120732106E+04  0.28061252714E+04 0.  0.
        1    1    3    3  502    0 -0.43692042338E+02  0.13828673163E+04 -0.14223189643E+03  0.13908489930E+04  0.50400001928E-02 0.  1.
       -1    1    3    3    0  502  0.43692042338E+02 -0.13828673163E+04  0.32503425604E+03  0.14212242176E+04  0.50400001928E-02 0. -1.
</event>
<event>
 5   0  0.5297741E-07  0.2801348E+04  0.7818609E-02  0.8302850E-01
        1   -1    0    0  501    0  0.00000000000E+00  0.00000000000E+00  0.12130563659E+04  0.12130563659E+04  0.50400001928E-02 0.  1.
       -1   -1    0    0    0  501  0.00000000000E+00  0.00000000000E+00 -0.16173094390E+04  0.16173094390E+04  0.50400001928E-02 0. -1.
    10030    2    1    2    0    0  0.00000000000E+00  0.00000000000E+00 -0.40425307309E+03  0.28303658048E+04  0.28013478974E+04 0.  0.
        5    1    3    3  502    0  0.67397210137E+02  0.11986351917E+04  0.52687128902E+03  0.13110622228E+04  0.46999998093E+01 0.  1.
       -5    1    3    3    0  502 -0.67397210137E+02 -0.11986351917E+04 -0.93112436211E+03  0.15193035821E+04  0.46999998093E+01 0. -1.
</event>
<event>
 5   0  0.1499888E-06  0.2803848E+04  0.7818609E-02  0.8302075E-01
       -2   -1    0    0    0  501  0.00000000000E+00  0.00000000000E+00  0.69118734408E+03  0.69118734409E+03  0.25500000920E-02 0.  1.
        2   -1    0    0  501    0  0.00000000000E+00  0.00000000000E+00 -0.28435002761E+04  0.28435002761E+04  0.25500000920E-02 0. -1.
    10030    2    1    2    0    0  0.00000000000E+00  0.00000000000E+00 -0.21523129320E+04  0.35346876202E+04  0.28038483581E+04 0.  0.
        3    1    3    3  502    0  0.65003519679E+03  0.14094880898E+02 -0.26419330445E+04  0.27207636142E+04  0.10100000352E+00 0. -1.
       -3    1    3    3    0  502 -0.65003519679E+03 -0.14094880898E+02  0.48962011247E+03  0.81392400596E+03  0.10100000352E+00 0.  1.
</event>
<event>
 5   0  0.5297741E-07  0.2801596E+04  0.7818609E-02  0.8302773E-01
       -1   -1    0    0    0  501  0.00000000000E+00  0.00000000000E+00  0.12817214929E+04  0.12817214929E+04  0.50400001928E-02 0.  1.
        1   -1    0    0  501    0  0.00000000000E+00  0.00000000000E+00 -0.15309371167E+04  0.15309371168E+04  0.50400001928E-02 0. -1.
    10030    2    1    2    0    0  0.00000000000E+00  0.00000000000E+00 -0.24921562389E+03  0.28126586096E+04  0.28015959786E+04 0.  0.
        5    1    3    3  502    0 -0.35700614564E+03  0.31750762302E+03  0.11973865602E+04  0.12891939898E+04  0.46999998093E+01 0.  1.
       -5    1    3    3    0  502  0.35700614564E+03 -0.31750762302E+03 -0.14466021841E+04  0.15234646198E+04  0.46999998093E+01 0. -1.
</event>
<event>
 5   0  0.1377807E-06  0.2793366E+04  0.7818609E-02  0.8305331E-01
        2   -1    0    0  501    0  0.00000000000E+00  0.00000000000E+00  0.18110888759E+04  0.18110888759E+04  0.25500000920E-02 0. -1.
       -2   -1    0    0    0  501  0.00000000000E+00  0.00000000000E+00 -0.10770994338E+04  0.10770994338E+04  0.25500000920E-02 0.  1.
    10030    2    1    2    0    0  0.00000000000E+00  0.00000000000E+00  0.73398944213E+03  0.28881883097E+04  0.27933655707E+04 0.  0.
        2    1    3    3  502    0  0.87931822436E+03 -0.10428445416E+04  0.56815276978E+02  0.13652667334E+04  0.25500000920E-02 0.  1.
       -2    1    3    3    0  502 -0.87931822436E+03  0.10428445416E+04  0.67717416515E+03  0.15229215763E+04  0.25500000920E-02 0. -1.
</event>
<event>
 5   0  0.5551565E-07  0.2800128E+04  0.7818609E-02  0.8303229E-01
       -1   -1    0    0    0  501  0.00000000000E+00  0.00000000000E+00  0.80646934678E+03  0.80646934679E+03  0.50400001928E-02 0.  1.
        1   -1    0    0  501    0  0.00000000000E+00  0.00000000000E+00 -0.24305690379E+04  0.24305690379E+04  0.50400001928E-02 0. -1.
    10030    2    1    2    0    0  0.00000000000E+00  0.00000000000E+00 -0.16240996911E+04  0.32370383847E+04  0.28001281573E+04 0.  0.
        3    1    3    3  502    0 -0.50921793594E+03 -0.63915884842E+03 -0.21262467197E+04  0.22778832417E+04  0.10100000352E+00 0. -1.
       -3    1    3    3    0  502  0.50921793594E+03  0.63915884842E+03  0.50214702855E+03  0.95915514297E+03  0.10100000352E+00 0.  1.
</event>
<event>
 5   0  0.5362952E-07  0.2791531E+04  0.7818609E-02  0.8305903E-01
       -1   -1    0    0    0  501  0.00000000000E+00  0.00000000000E+00  0.12179126729E+04  0.12179126729E+04  0.50400001928E-02 0.  1.
        1   -1    0    0  501    0  0.00000000000E+00  0.00000000000E+00 -0.15995898087E+04  0.15995898087E+04  0.50400001928E-02 0. -1.
    10030    2    1    2    0    0  0.00000000000E+00  0.00000000000E+00 -0.38167713574E+03  0.28175024816E+04  0.27915305476E+04 0.  0.
        1    1    3    3  502    0  0.83542796394E+03  0.29851628666E+03  0.89673436108E+03  0.12614215674E+04  0.50400001928E-02 0.  1.
       -1    1    3    3    0  502 -0.83542796394E+03 -0.29851628666E+03 -0.12784114968E+04  0.15560809142E+04  0.50400001928E-02 0. -1.
</event>
<event>
 5   0  0.5282098E-07  0.2800036E+04  0.7818609E-02  0.8303257E-01
       -1   -1    0    0    0  501  0.00000000000E+00  0.00000000000E+00  0.19560778380E+04  0.19560778380E+04  0.50400001928E-02 0. -1.
        1   -1    0    0  501    0  0.00000000000E+00  0.00000000000E+00 -0.10020308333E+04  0.10020308333E+04  0.50400001928E-02 0.  1.
    10030    2    1    2    0    0  0.00000000000E+00  0.00000000000E+00  0.95404700471E+03  0.29581086713E+04  0.28000359326E+04 0.  0.
        4    1    3    3  502    0  0.13385574919E+04  0.29374733766E+03  0.17445498760E+03  0.13814701637E+04  0.12699999809E+01 0.  1.
       -4    1    3    3    0  502 -0.13385574919E+04 -0.29374733766E+03  0.77959201711E+03  0.15766385076E+04  0.12699999809E+01 0. -1.
</event>
<event>
 5   0  0.1394410E-06  0.2810504E+04  0.7818609E-02  0.8300015E-01
        2   -1    0    0  501    0  0.00000000000E+00  0.00000000000E+00  0.10869543180E+04  0.10869543180E+04  0.25500000920E-02 0. -1.
       -2   -1    0    0    0  501  0.00000000000E+00  0.00000000000E+00 -0.18167586357E+04  0.18167586357E+04  0.25500000920E-02 0.  1.
    10030    2    1    2    0    0  0.00000000000E+00  0.00000000000E+00 -0.72980431772E+03  0.29037129536E+04  0.28105043275E+04 0.  0.
        4    1    3    3  502    0 -0.12524349549E+04  0.27115083000E+03 -0.96075766095E+03  0.16016157420E+04  0.12699999809E+01 0.  1.
       -4    1    3    3    0  502  0.12524349549E+04 -0.27115083000E+03  0.23095334323E+03  0.13020972117E+04  0.12699999809E+01 0. -1.
</event>
<event>
 5   0  0.5551565E-07  0.2739509E+04  0.7818609E-02  0.8322298E-01
        1   -1    0    0  501    0  0.00000000000E+00  0.00000000000E+00  0.12801758261E+04  0.12801758261E+04  0.50400001928E-02 0.  1.
       -1   -1    0    0    0  501  0.00000000000E+00  0.00000000000E+00 -0.14656011272E+04  0.14656011272E+04  0.50400001928E-02 0. -1.
    10030    2    1    2    0    0  0.00000000000E+00  0.00000000000E+00 -0.18542530109E+03  0.27457769533E+04  0.27395088128E+04 0.  0.
        3    1    3    3  502    0  0.17975736539E+03 -0.67476536045E+03 -0.12738001999E+04  0.14526486022E+04  0.10100000352E+00 0. -1.
       -3    1    3    3    0  502 -0.17975736539E+03  0.67476536045E+03  0.10883748988E+04  0.12931283512E+04  0.10100000352E+00 0.  1.
</event>
<event>
 5   0  0.5297741E-07  0.2799276E+04  0.7818609E-02  0.8303493E-01
       -1   -1    0    0    0  501  0.00000000000E+00  0.00000000000E+00  0.11688578448E+04  0.11688578449E+04  0.50400001928E-02 0. -1.
        1   -1    0    0  501    0  0.00000000000E+00  0.00000000000E+00 -0.16759837939E+04  0.16759837939E+04  0.50400001928E-02 0.  1.
    10030    2    1    2    0    0  0.00000000000E+00  0.00000000000E+00 -0.50712594905E+03  0.28448416388E+04  0.27992761960E+04 0.  0.
        5    1    3    3  502    0  0.11491121110E+04 -0.72080909249E+02 -0.10623248295E+04  0.15665919809E+04  0.46999998093E+01 0.  1.
       -5    1    3    3    0  502 -0.11491121110E+04  0.72080909249E+02  0.55519888045E+03  0.12782496579E+04  0.46999998093E+01 0. -1.
</event>
<event>
 5   0  0.5282098E-07  0.2846776E+04  0.7818609E-02  0.8288892E-01
       -1   -1    0    0    0  501  0.00000000000E+00  0.00000000000E+00  0.11418636970E+04  0.11418636971E+04  0.50400001928E-02 0. -1.
        1   -1    0    0  501    0  0.00000000000E+00  0.00000000000E+00 -0.17743213714E+04  0.17743213714E+04  0.50400001928E-02 0.  1.
    10030    2    1    2    0    0  0.00000000000E+00  0.00000000000E+00 -0.63245767439E+03  0.29161850685E+04  0.28467758331E+04 0.  0.
        4    1    3    3  502    0 -0.59035970947E+03 -0.46523804289E+02 -0.16421375185E+04  0.17456535434E+04  0.12699999809E+01 0.  1.
       -4    1    3    3    0  502  0.59035970947E+03  0.46523804289E+02  0.10096798441E+04  0.11705315252E+04  0.12699999809E+01 0. -1.
</event>
<event>
 5   0  0.1377807E-06  0.2801589E+04  0.7818609E-02  0.8302775E-01
       -2   -1    0    0    0  501  0.00000000000E+00  0.00000000000E+00  0.12024469341E+04  0.12024469342E+04  0.25500000920E-02 0. -1.
        2   -1    0    0  501    0  0.00000000000E+00  0.00000000000E+00 -0.16318597720E+04  0.16318597720E+04  0.25500000920E-02 0.  1.
    10030    2    1    2    0    0  0.00000000000E+00  0.00000000000E+00 -0.42941283781E+03  0.28343067061E+04  0.28015886777E+04 0.  0.
        2    1    3    3  502    0 -0.85073957491E+02  0.61260547073E+03 -0.14862463958E+04  0.16097985557E+04  0.25500000920E-02 0.  1.
       -2    1    3    3    0  502  0.85073957491E+02 -0.61260547073E+03  0.10568335580E+04  0.12245081504E+04  0.25500000920E-02 0. -1.
</event>
<event>
 5   0  0.1394410E-06  0.2779579E+04  0.7818609E-02  0.8309637E-01
        2   -1    0    0  501    0  0.00000000000E+00  0.00000000000E+00  0.78460737786E+03  0.78460737786E+03  0.25500000920E-02 0. -1.
       -2   -1    0    0    0  501  0.00000000000E+00  0.00000000000E+00 -0.24617590648E+04  0.24617590648E+04  0.25500000920E-02 0.  1.
    10030    2    1    2    0    0  0.00000000000E+00  0.00000000000E+00 -0.16771516870E+04  0.32463664427E+04  0.27795786190E+04 0.  0.
        4    1    3    3  502    0  0.96586307986E+03  0.97216084955E+03 -0.56836989241E+03  0.14835882697E+04  0.12699999809E+01 0. -1.
       -4    1    3    3    0  502 -0.96586307986E+03 -0.97216084955E+03 -0.11087817946E+04  0.17627781730E+04  0.12699999809E+01 0.  1.
</event>
<event>
 5   0  0.1394410E-06  0.2789659E+04  0.7818609E-02  0.8306486E-01
        2   -1    0    0  501    0  0.00000000000E+00  0.00000000000E+00  0.17860645368E+04  0.17860645368E+04  0.25500000920E-02 0.  1.
       -2   -1    0    0    0  501  0.00000000000E+00  0.00000000000E+00 -0.10892939604E+04  0.10892939604E+04  0.25500000920E-02 0. -1.
    10030    2    1    2    0    0  0.00000000000E+00  0.00000000000E+00  0.69677057641E+03  0.28753584972E+04  0.27896589848E+04 0.  0.
        4    1    3    3  502    0 -0.12986034388E+04 -0.44882025594E+03  0.10071797562E+03  0.13776633249E+04  0.12699999809E+01 0. -1.
       -4    1    3    3    0  502  0.12986034388E+04  0.44882025594E+03  0.59605260079E+03  0.14976951723E+04  0.12699999809E+01 0.  1.
</event>
<event>
 5   0  0.5282098E-07  0.2778790E+04  0.7818609E-02  0.8309884E-01
        1   -1    0    0  501    0  0.00000000000E+00  0.00000000000E+00  0.13942887949E+04  0.13942887949E+04  0.50400001928E-02 0.  1.
       -1   -1    0    0    0  501  0.00000000000E+00  0.00000000000E+00 -0.13845182749E+04  0.13845182750E+04  0.50400001928E-02 0. -1.
    10030    2    1    2    0    0  0.00000000000E+00  0.00000000000E+00  0.97705199550E+01  0.27788070699E+04  0.27787898928E+04 0.  0.
        4    1    3    3  502    0  0.37314658345E+03  0.55397614439E+03  0.12232066926E+04  0.13936872558E+04  0.12699999809E+01 0.  1.
       -4    1    3    3    0  502 -0.37314658345E+03 -0.55397614439E+03 -0.12134361726E+04  0.13851198141E+04  0.12699999809E+01 0. -1.
</event>
<event>
 5   0  0.1377807E-06  0.2806970E+04  0.7818609E-02  0.8301108E-01
        2   -1    0    0  501    0  0.00000000000E+00  0.00000000000E+00  0.12972621942E+04  0.12972621942E+04  0.25500000920E-02 0.  1.
       -2   -1    0    0    0  501  0.00000000000E+00  0.00000000000E+00 -0.15184053076E+04  0.15184053076E+04  0.25500000920E-02 0. -1.
    10030    2    1    2    0    0  0.00000000000E+00  0.00000000000E+00 -0.22114311344E+03  0.28156675018E+04  0.28069697547E+04 0.  0.
        2    1    3    3  502    0  0.63042445295E+03  0.50620973740E+03  0.10401913492E+04  0.13174525920E+04  0.25500000920E-02 0.  1.
       -2    1    3    3    0  502 -0.63042445295E+03 -0.50620973740E+03 -0.12613344627E+04  0.14982149098E+04  0.25500000920E-02 0. -1.
</event>
<event>
 5   0  0.1394410E-06  0.2799451E+04  0.7818609E-02  0.8303439E-01
       -2   -1    0    0    0  501  0.00000000000E+00  0.00000000000E+00  0.11416039478E+04  0.11416039478E+04  0.25500000920E-02 0. -1.
        2   -1    0    0  501    0  0.00000000000E+00  0.00000000000E+00 -0.17162088798E+04  0.17162088798E+04  0.25500000920E-02 0.  1.
    10030    2    1    2    0    0  0.00000000000E+00  0.00000000000E+00 -0.57460493197E+03  0.28578128276E+04  0.27994505407E+04 0.  0.
        4    1    3    3  502    0 -0.34339900190E+03  0.68064577984E+03 -0.14856697688E+04  0.16698556306E+04  0.12699999809E+01 0.  1.
       -4    1    3    3    0  502  0.34339900190E+03 -0.68064577984E+03  0.91106483685E+03  0.11879571970E+04  0.12699999809E+01 0. -1.
</event>
<event>
 5   0  0.1439207E-06  0.2793985E+04  0.7818609E-02  0.8305138E-01
        2   -1    0    0  501    0  0.00000000000E+00  0.00000000000E+00  0.80432676818E+03  0.80432676818E+03  0.25500000920E-02 0.  1.
       -2   -1    0    0    0  501  0.00000000000E+00  0.00000000000E+00 -0.24263615502E+04  0.24263615502E+04  0.25500000920E-02 0. -1.
    10030    2    1    2    0    0  0.00000000000E+00  0.00000000000E+00 -0.16220347820E+04  0.32306883183E+04  0.27939846414E+04 0.  0.
        5    1    3    3  502    0  0.91031264593E+03 -0.10595128478E+04 -0.79004825102E+03  0.16048161630E+04  0.46999998093E+01 0. -1.
       -5    1    3    3    0  502 -0.91031264593E+03  0.10595128478E+04 -0.83198653097E+03  0.16258721554E+04  0.46999998093E+01 0.  1.
</event>
<event>
 5   0  0.5214658E-07  0.2799005E+04  0.7818609E-02  0.8303577E-01
       -1   -1    0    0    0  501  0.00000000000E+00  0.00000000000E+00  0.10663217977E+04  0.10663217977E+04  0.50400001928E-02 0. -1.
        1   -1    0    0  501    0  0.00000000000E+00  0.00000000000E+00 -0.18367875788E+04  0.18367875788E+04  0.50400001928E-02 0.  1.
    10030    2    1    2    0    0  0.00000000000E+00  0.00000000000E+00 -0.77046578109E+03  0.29031093765E+04  0.27990045610E+04 0.  0.
        2    1    3    3  502    0  0.35589862209E+01  0.93195835595E+03  0.69765256772E+03  0.11641641417E+04  0.25500000920E-02 0. -1.
       -2    1    3    3    0  502 -0.35589862209E+01 -0.93195835595E+03 -0.14681183488E+04  0.17389452348E+04  0.25500000920E-02 0.  1.
</event>
<event>
 5   0  0.1439207E-06  0.2800361E+04  0.7818609E-02  0.8303156E-01
        2   -1    0    0  501    0  0.00000000000E+00  0.00000000000E+00  0.17735387099E+04  0.17735387099E+04  0.25500000920E-02 0. -1.
       -2   -1    0    0    0  501  0.00000000000E+00  0.00000000000E+00 -0.11054200111E+04  0.11054200111E+04  0.25500000920E-02 0.  1.
    10030    2    1    2    0    0  0.00000000000E+00  0.00000000000E+00  0.66811869877E+03  0.28789587211E+04  0.28003608199E+04 0.  0.
        5    1    3    3  502    0 -0.55468740414E+03 -0.12687542393E+04  0.12070718426E+03  0.13899668163E+04  0.46999998093E+01 0. -1.
       -5    1    3    3    0  502  0.55468740414E+03  0.12687542393E+04  0.54741151450E+03  0.14889919047E+04  0.46999998093E+01 0.  1.
</event>
<event>
 5   0  0.5297741E-07  0.2802000E+04  0.7818609E-02  0.8302648E-01
       -1   -1    0    0    0  501  0.00000000000E+00  0.00000000000E+00  0.17742437047E+04  0.17742437048E+04  0.50400001928E-02 0.  1.
        1   -1    0    0  501    0  0.00000000000E+00  0.00000000000E+00 -0.11062749425E+04  0.11062749425E+04  0.50400001928E-02 0. -1.
    10030    2    1    2    0    0  0.00000000000E+00  0.00000000000E+00  0.66796876225E+03  0.28805186473E+04  0.28020002516E+04 0.  0.
        5    1    3    3  502    0 -0.12636448556E+04  0.37435696403E+03  0.82252518545E+03  0.15535479485E+04  0.46999998093E+01 0.  1.
       -5    1    3    3    0  502  0.12636448556E+04 -0.37435696403E+03 -0.15455642320E+03  0.13269706988E+04  0.46999998093E+01 0. -1.
</event>
<event>
 5   0  0.5214658E-07  0.2801052E+04  0.7818609E-02  0.8302942E-01
        1   -1    0    0  501    0  0.00000000000E+00  0.00000000000E+00  0.10292206591E+04  0.10292206591E+04  0.50400001928E-02 0. -1.
       -1   -1    0    0    0  501  0.00000000000E+00  0.00000000000E+00 -0.19057846707E+04  0.19057846708E+04  0.50400001928E-02 0.  1.
    10030    2    1    2    0    0  0.00000000000E+00  0.00000000000E+00 -0.87656401167E+03  0.29350053298E+04  0.28010519131E+04 0.  0.
        2    1    3    3  502    0  0.78001808954E+03 -0.11133244539E+04 -0.79137394133E+03  0.15729565393E+04  0.25500000920E-02 0. -1.
       -2    1    3    3    0  502 -0.78001808954E+03  0.11133244539E+04 -0.85190070340E+02  0.13620487905E+04  0.25500000920E-02 0.  1.
</event>
<event>
 5   0  0.1461146E-06  0.2802036E+04  0.7818609E-02  0.8302636E-01
       -2   -1    0    0    0  501  0.00000000000E+00  0.00000000000E+00  0.11054699271E+04  0.11054699271E+04  0.25500000920E-02 0.  1.
        2   -1    0    0  501    0  0.00000000000E+00  0.00000000000E+00 -0.17755813815E+04  0.17755813815E+04  0.25500000920E-02 0. -1.
    10030    2    1    2    0    0  0.00000000000E+00  0.00000000000E+00 -0.67011145440E+03  0.28810513087E+04  0.28020362742E+04 0.  0.
        1    1    3    3  502    0  0.12881283307E+04 -0.46366264450E+03 -0.64109687820E+03  0.15117085868E+04  0.50400001928E-02 0. -1.
       -1    1    3    3    0  502 -0.12881283307E+04  0.46366264450E+03 -0.29014576200E+02  0.13693427219E+04  0.50400001928E-02 0.  1.
</event>
<event>
 5   0  0.5282098E-07  0.2807879E+04  0.7818609E-02  0.8300826E-01
        1   -1    0    0  501    0  0.00000000000E+00  0.00000000000E+00  0.15239466880E+04  0.15239466881E+04  0.50400001928E-02 0.  1.
       -1   -1    0    0    0  501  0.00000000000E+00  0.00000000000E+00 -0.12933826587E+04  0.12933826588E+04  0.50400001928E-02 0. -1.
    10030    2    1    2    0    0  0.00000000000E+00  0.00000000000E+00  0.23056402930E+03  0.28173293468E+04  0.28078790709E+04 0.  0.
        4    1    3    3  502    0 -0.58354532720E+02  0.12787789464E+04  0.69373231614E+03  0.14560037722E+04  0.12699999809E+01 0.  1.
       -4    1    3    3    0  502  0.58354532720E+02 -0.12787789464E+04 -0.46316828684E+03  0.13613255746E+04  0.12699999809E+01 0. -1.
</event>
<event>
 5   0  0.1499888E-06  0.2804574E+04  0.7818609E-02  0.8301850E-01
        2   -1    0    0  501    0  0.00000000000E+00  0.00000000000E+00  0.29958980324E+04  0.29958980324E+04  0.25500000920E-02 0.  1.
       -2   -1    0    0    0  501  0.00000000000E+00  0.00000000000E+00 -0.65636727174E+03  0.65636727174E+03  0.25500000920E-02 0. -1.
    10030    2    1    2    0    0  0.00000000000E+00  0.00000000000E+00  0.23395307606E+04  0.36522653041E+04  0.28045744190E+04 0.  0.
        3    1    3    3  502    0 -0.12964088240E+04 -0.34048745381E+03  0.17063850331E+04  0.21698749818E+04  0.10100000352E+00 0.  1.
       -3    1    3    3    0  502  0.12964088240E+04  0.34048745381E+03  0.63314572748E+03  0.14823903223E+04  0.10100000352E+00 0. -1.
</event>
<event>
 5   0  0.5297741E-07  0.2803677E+04  0.7818609E-02  0.8302128E-01
       -1   -1    0    0    0  501  0.00000000000E+00  0.00000000000E+00  0.57439397345E+03  0.57439397347E+03  0.50400001928E-02 0. -1.
        1   -1    0    0  501    0  0.00000000000E+00  0.00000000000E+00 -0.34212598931E+04  0.34212598931E+04  0.50400001928E-02 0.  1.
    10030    2    1    2    0    0  0.00000000000E+00  0.00000000000E+00 -0.28468659196E+04  0.39956538666E+04  0.28036769174E+04 0.  0.
        5    1    3    3  502    0 -0.11563919202E+04  0.78856219158E+03 -0.13125241272E+04  0.19188054298E+04  0.46999998093E+01 0.  1.
       -5    1    3    3    0  502  0.11563919202E+04 -0.78856219158E+03 -0.15343417925E+04  0.20768484367E+04  0.46999998093E+01 0. -1.
</event>
<event>
 5   0  0.5551565E-07  0.2798639E+04  0.7818609E-02  0.8303691E-01
       -1   -1    0    0    0  501  0.00000000000E+00  0.00000000000E+00  0.17686092442E+04  0.17686092442E+04  0.50400001928E-02 0. -1.
        1   -1    0    0  501    0  0.00000000000E+00  0.00000000000E+00 -0.11071385247E+04  0.11071385247E+04  0.50400001928E-02 0.  1.
    10030    2    1    2    0    0  0.00000000000E+00  0.00000000000E+00  0.66147071945E+03  0.28757477689E+04  0.27986392618E+04 0.  0.
        3    1    3    3  502    0 -0.10678785914E+04  0.89469860389E+03  0.46567428612E+03  0.14689121242E+04  0.10100000352E+00 0. -1.
       -3    1    3    3    0  502  0.10678785914E+04 -0.89469860389E+03  0.19579643333E+03  0.14068356447E+04  0.10100000352E+00 0.  1.
</event>
<event>
 5   0  0.4710000E-07  0.2796922E+04  0.7818609E-02  0.8304225E-01
        3   -1    0    0  501    0  0.00000000000E+00  0.00000000000E+00  0.17705261793E+04  0.17705261821E+04  0.10100000352E+00 0. -1.
       -3   -1    0    0    0  501  0.00000000000E+00  0.00000000000E+00 -0.11045831658E+04  0.11045831704E+04  0.10100000352E+00 0.  1.
    10030    2    1    2    0    0  0.00000000000E+00  0.00000000000E+00  0.66594301346E+03  0.28751093526E+04  0.27969221820E+04 0.  0.
        3    1    3    3  502    0 -0.64963020955E+03  0.11156564250E+04 -0.21962920878E+03  0.13095593409E+04  0.10100000352E+00 0.  1.
       -3    1    3    3    0  502  0.64963020955E+03 -0.11156564250E+04  0.88557222224E+03  0.15655500116E+04  0.10100000352E+00 0. -1.
</event>
<event>
 5   0  0.1377807E-06  0.2793361E+04  0.7818609E-02  0.8305332E-01
        2   -1    0    0  501    0  0.00000000000E+00  0.00000000000E+00  0.16590742910E+04  0.16590742910E+04  0.25500000920E-02 0. -1.
       -2   -1    0    0    0  501  0.00000000000E+00  0.00000000000E+00 -0.11757861526E+04  0.11757861526E+04  0.25500000920E-02 0.  1.
    10030    2    1    2    0    0  0.00000000000E+00  0.00000000000E+00  0.48328813842E+03  0.28348604436E+04  0.27933611134E+04 0.  0.
        2    1    3    3  502    0  0.31006133874E+03  0.14629456240E+03  0.16157073532E+04  0.16516810782E+04  0.25500000920E-02 0. -1.
       -2    1    3    3    0  502 -0.31006133874E+03 -0.14629456240E+03 -0.11324192148E+04  0.11831793654E+04  0.25500000920E-02 0.  1.
</event>
<event>
 5   0  0.1439207E-06  0.2802213E+04  0.7818609E-02  0.8302582E-01
        2   -1    0    0  501    0  0.00000000000E+00  0.00000000000E+00  0.16753450620E+04  0.16753450620E+04  0.25500000920E-02 0. -1.
       -2   -1    0    0    0  501  0.00000000000E+00  0.00000000000E+00 -0.11717579390E+04  0.11717579390E+04  0.25500000920E-02 0.  1.
    10030    2    1    2    0    0  0.00000000000E+00  0.00000000000E+00  0.50358712301E+03  0.28471030011E+04  0.28022126094E+04 0.  0.
        5    1    3    3  502    0 -0.17709425603E+02  0.13956997112E+04  0.12825008994E+03  0.14016994982E+04  0.46999998093E+01 0.  1.
       -5    1    3    3    0  502  0.17709425603E+02 -0.13956997112E+04  0.37533703307E+03  0.14454035029E+04  0.46999998093E+01 0. -1.
</event>
<event>
 5   0  0.5282098E-07  0.2799608E+04  0.7818609E-02  0.8303390E-01
        1   -1    0    0  501    0  0.00000000000E+00  0.00000000000E+00  0.14140154733E+04  0.14140154733E+04  0.50400001928E-02 0.  1.
       -1   -1    0    0    0  501  0.00000000000E+00  0.00000000000E+00 -0.13857356138E+04  0.13857356139E+04  0.50400001928E-02 0. -1.
    10030    2    1    2    0    0  0.00000000000E+00  0.00000000000E+00  0.28279859492E+02  0.27997510872E+04  0.27996082583E+04 0.  0.
        4    1    3    3  502    0  0.11638807846E+04  0.67876374087E+03  0.39377922571E+03  0.14037102223E+04  0.12699999809E+01 0.  1.
       -4    1    3    3    0  502 -0.11638807846E+04 -0.67876374087E+03 -0.36549936622E+03  0.13960408649E+04  0.12699999809E+01 0. -1.
</event>
<event>
 5   0  0.1394410E-06  0.2799289E+04  0.7818609E-02  0.8303489E-01
        2   -1    0    0  501    0  0.00000000000E+00  0.00000000000E+00  0.14503441540E+04  0.14503441540E+04  0.25500000920E-02 0. -1.
       -2   -1    0    0    0  501  0.00000000000E+00  0.00000000000E+00 -0.13507172650E+04  0.13507172650E+04  0.25500000920E-02 0.  1.
    10030    2    1    2    0    0  0.00000000000E+00  0.00000000000E+00  0.99626889014E+02  0.28010614190E+04  0.27992891162E+04 0.  0.
        4    1    3    3  502    0 -0.39416233418E+03 -0.82322104238E+03  0.11115914953E+04  0.14382955523E+04  0.12699999809E+01 0. -1.
       -4    1    3    3    0  502  0.39416233418E+03  0.82322104238E+03 -0.10119646063E+04  0.13627658668E+04  0.12699999809E+01 0.  1.
</event>
<event>
 5   0  0.5297741E-07  0.2812263E+04  0.7818609E-02  0.8299471E-01
        1   -1    0    0  501    0  0.00000000000E+00  0.00000000000E+00  0.17448443512E+04  0.17448443512E+04  0.50400001928E-02 0. -1.
       -1   -1    0    0    0  501  0.00000000000E+00  0.00000000000E+00 -0.11331706235E+04  0.11331706235E+04  0.50400001928E-02 0.  1.
    10030    2    1    2    0    0  0.00000000000E+00  0.00000000000E+00  0.61167372775E+03  0.28780149747E+04  0.28122634026E+04 0.  0.
        5    1    3    3  502    0  0.49648765780E+03 -0.16454598134E+03 -0.10299033586E+04  0.11551183456E+04  0.46999998093E+01 0.  1.
       -5    1    3    3    0  502 -0.49648765780E+03  0.16454598134E+03  0.16415770863E+04  0.17228966291E+04  0.46999998093E+01 0. -1.
</event>
<event>
 5   0  0.1377807E-06  0.2812546E+04  0.7818609E-02  0.8299384E-01
       -2   -1    0    0    0  501  0.00000000000E+00  0.00000000000E+00  0.16880587807E+04  0.16880587807E+04  0.25500000920E-02 0.  1.
        2   -1    0    0  501    0  0.00000000000E+00  0.00000000000E+00 -0.11715254379E+04  0.11715254379E+04  0.25500000920E-02 0. -1.
    10030    2    1    2    0    0  0.00000000000E+00  0.00000000000E+00  0.51653334275E+03  0.28595842186E+04  0.28125460368E+04 0.  0.
        2    1    3    3  502    0  0.94834741711E+03  0.63899128344E+03  0.10904486897E+04  0.15801110812E+04  0.25500000920E-02 0.  1.
       -2    1    3    3    0  502 -0.94834741711E+03 -0.63899128344E+03 -0.57391534700E+03  0.12794731374E+04  0.25500000920E-02 0. -1.
</event>
<event>
 5   0  0.1499888E-06  0.2799843E+04  0.7818609E-02  0.8303317E-01
       -2   -1    0    0    0  501  0.00000000000E+00  0.00000000000E+00  0.13563257191E+04  0.13563257191E+04  0.25500000920E-02 0.  1.
        2   -1    0    0  501    0  0.00000000000E+00  0.00000000000E+00 -0.14449186310E+04  0.14449186310E+04  0.25500000920E-02 0. -1.
    10030    2    1    2    0    0  0.00000000000E+00  0.00000000000E+00 -0.88592911889E+02  0.28012443501E+04  0.27998430679E+04 0.  0.
        3    1    3    3  502    0 -0.34170462084E+03 -0.46093626919E+03  0.12332748916E+04  0.13602173579E+04  0.10100000352E+00 0.  1.
       -3    1    3    3    0  502  0.34170462084E+03  0.46093626919E+03 -0.13218678035E+04  0.14410269922E+04  0.10100000352E+00 0. -1.
</event>
<event>
 5   0  0.5214658E-07  0.2803137E+04  0.7818609E-02  0.8302295E-01
       -1   -1    0    0    0  501  0.00000000000E+00  0.00000000000E+00  0.12282431518E+04  0.12282431518E+04  0.50400001928E-02 0.  1.
        1   -1    0    0  501    0  0.00000000000E+00  0.00000000000E+00 -0.15993530692E+04  0.15993530692E+04  0.50400001928E-02 0. -1.
    10030    2    1    2    0    0  0.00000000000E+00  0.00000000000E+00 -0.37110991743E+03  0.28275962211E+04  0.28031371387E+04 0.  0.
        2    1    3    3  502    0 -0.10876332306E+04 -0.13434788016E+03  0.69579595052E+03  0.12981245710E+04  0.25500000920E-02 0.  1.
       -2    1    3    3    0  502  0.10876332306E+04  0.13434788016E+03 -0.10669058679E+04  0.15294716500E+04  0.25500000920E-02 0. -1.
</event>
<event>
 5   0  0.5297741E-07  0.2802291E+04  0.7818609E-02  0.8302557E-01
       -1   -1    0    0    0  501  0.00000000000E+00  0.00000000000E+00  0.19275029502E+04  0.19275029502E+04  0.50400001928E-02 0. -1.
        1   -1    0    0  501    0  0.00000000000E+00  0.00000000000E+00 -0.10185243195E+04  0.10185243195E+04  0.50400001928E-02 0.  1.
    10030    2    1    2    0    0  0.00000000000E+00  0.00000000000E+00  0.90897863074E+03  0.29460272697E+04  0.28022909418E+04 0.  0.
        5    1    3    3  502    0  0.11758402469E+04 -0.59380274575E+03 -0.47478938151E+02  0.13181344114E+04  0.46999998093E+01 0.  1.
       -5    1    3    3    0  502 -0.11758402469E+04  0.59380274575E+03  0.95645756889E+03  0.16278928583E+04  0.46999998093E+01 0. -1.
</event>
<event>
 5   0  0.1499888E-06  0.2766357E+04  0.7818609E-02  0.8313790E-01
        2   -1    0    0  501    0  0.00000000000E+00  0.00000000000E+00  0.17525505797E+04  0.17525505797E+04  0.25500000920E-02 0.  1.
       -2   -1    0    0    0  501  0.00000000000E+00  0.00000000000E+00 -0.10916565309E+04  0.10916565309E+04  0.25500000920E-02 0. -1.
    10030    2    1    2    0    0  0.00000000000E+00  0.00000000000E+00  0.66089404880E+03  0.28442071106E+04  0.27663573782E+04 0.  0.
        3    1    3    3  502    0 -0.10683511440E+04  0.57720179776E+03 -0.35049574187E+03  0.12638763221E+04  0.10100000352E+00 0. -1.
       -3    1    3    3    0  502  0.10683511440E+04 -0.57720179776E+03  0.10113897907E+04  0.15803307885E+04  0.10100000352E+00 0.  1.
</event>
<event>
 5   0  0.1499888E-06  0.2799352E+04  0.7818609E-02  0.8303469E-01
        2   -1    0    0  501    0  0.00000000000E+00  0.00000000000E+00  0.22084039345E+04  0.22084039345E+04  0.25500000920E-02 0.  1.
       -2   -1    0    0    0  501  0.00000000000E+00  0.00000000000E+00 -0.88710835077E+03  0.88710835078E+03  0.25500000920E-02 0. -1.
    10030    2    1    2    0    0  0.00000000000E+00  0.00000000000E+00  0.13212955838E+04  0.30955122853E+04  0.27993524767E+04 0.  0.
        3    1    3    3  502    0 -0.72641387734E+03 -0.14629390661E+03 -0.65241876743E+03  0.98728379233E+03  0.10100000352E+00 0. -1.
       -3    1    3    3    0  502  0.72641387734E+03  0.14629390661E+03  0.19737143512E+04  0.21082284930E+04  0.10100000352E+00 0.  1.
</event>
<event>
 5   0  0.1377807E-06  0.2803025E+04  0.7818609E-02  0.8302330E-01
        2   -1    0    0  501    0  0.00000000000E+00  0.00000000000E+00  0.12607069501E+04  0.12607069501E+04  0.25500000920E-02 0. -1.
       -2   -1    0    0    0  501  0.00000000000E+00  0.00000000000E+00 -0.15580442413E+04  0.15580442413E+04  0.25500000920E-02 0.  1.
    10030    2    1    2    0    0  0.00000000000E+00  0.00000000000E+00 -0.29733729119E+03  0.28187511914E+04  0.28030249400E+04 0.  0.
        2    1    3    3  502    0 -0.68142045882E+03  0.17552377131E+03 -0.13675310649E+04  0.15379478695E+04  0.25500000920E-02 0.  1.
       -2    1    3    3    0  502  0.68142045882E+03 -0.17552377131E+03  0.10701937737E+04  0.12808033219E+04  0.25500000920E-02 0. -1.
</event>
<event>
 5   0  0.5362952E-07  0.2797466E+04  0.7818609E-02  0.8304056E-01
       -1   -1    0    0    0  501  0.00000000000E+00  0.00000000000E+00  0.12760791478E+04  0.12760791479E+04  0.50400001928E-02 0.  1.
        1   -1    0    0  501    0  0.00000000000E+00  0.00000000000E+00 -0.15331756933E+04  0.15331756933E+04  0.50400001928E-02 0. -1.
    10030    2    1    2    0    0  0.00000000000E+00  0.00000000000E+00 -0.25709654546E+03  0.28092548412E+04  0.27974656618E+04 0.  0.
        1    1    3    3  502    0 -0.13131547073E+04 -0.42431602878E+03  0.10052299818E+03  0.13836633444E+04  0.50400001928E-02 0.  1.
       -1    1    3    3    0  502  0.13131547073E+04  0.42431602878E+03 -0.35761954363E+03  0.14255914967E+04  0.50400001928E-02 0. -1.
</event>
<event>
 5   0  0.1394410E-06  0.2795965E+04  0.7818609E-02  0.8304522E-01
       -2   -1    0    0    0  501  0.00000000000E+00  0.00000000000E+00  0.11377980823E+04  0.11377980823E+04  0.25500000920E-02 0.  1.
        2   -1    0    0  501    0  0.00000000000E+00  0.00000000000E+00 -0.17176644672E+04  0.17176644672E+04  0.25500000920E-02 0. -1.
    10030    2    1    2    0    0  0.00000000000E+00  0.00000000000E+00 -0.57986638491E+03  0.28554625495E+04  0.27959651907E+04 0.  0.
        4    1    3    3  502    0 -0.14776893096E+03  0.41698498381E+03  0.10644244982E+04  0.11526982515E+04  0.12699999809E+01 0.  1.
       -4    1    3    3    0  502  0.14776893096E+03 -0.41698498381E+03 -0.16442908831E+04  0.17027642981E+04  0.12699999809E+01 0. -1.
</event>
<event>
 5   0  0.1499888E-06  0.2797115E+04  0.7818609E-02  0.8304165E-01
        2   -1    0    0  501    0  0.00000000000E+00  0.00000000000E+00  0.17998654291E+04  0.17998654291E+04  0.25500000920E-02 0. -1.
       -2   -1    0    0    0  501  0.00000000000E+00  0.00000000000E+00 -0.10867274649E+04  0.10867274649E+04  0.25500000920E-02 0.  1.
    10030    2    1    2    0    0  0.00000000000E+00  0.00000000000E+00  0.71313796421E+03  0.28865928940E+04  0.27971150816E+04 0.  0.
        3    1    3    3  502    0  0.78254883401E+03  0.93160422193E+03 -0.35520003089E+03  0.12674526327E+04  0.10100000352E+00 0.  1.
       -3    1    3    3    0  502 -0.78254883401E+03 -0.93160422193E+03  0.10683379951E+04  0.16191402614E+04  0.10100000352E+00 0. -1.
</event>
<event>
 5   0  0.5214658E-07  0.2798230E+04  0.7818609E-02  0.8303818E-01
        1   -1    0    0  501    0  0.00000000000E+00  0.00000000000E+00  0.12375069170E+04  0.12375069170E+04  0.50400001928E-02 0. -1.
       -1   -1    0    0    0  501  0.00000000000E+00  0.00000000000E+00 -0.15818279740E+04  0.15818279740E+04  0.50400001928E-02 0.  1.
    10030    2    1    2    0    0  0.00000000000E+00  0.00000000000E+00 -0.34432105701E+03  0.28193348910E+04  0.27982301973E+04 0.  0.
        2    1    3    3  502    0 -0.60686766666E+03 -0.12140761473E+04  0.16989046758E+03  0.13678932806E+04  0.25500000920E-02 0. -1.
       -2    1    3    3    0  502  0.60686766666E+03  0.12140761473E+04 -0.51421152459E+03  0.14514416103E+04  0.25500000920E-02 0.  1.
</event>
<event>
 5   0  0.5362952E-07  0.2802030E+04  0.7818609E-02  0.8302638E-01
        1   -1    0    0  501    0  0.00000000000E+00  0.00000000000E+00  0.19433541834E+04  0.19433541834E+04  0.50400001928E-02 0.  1.
       -1   -1    0    0    0  501  0.00000000000E+00  0.00000000000E+00 -0.10100282637E+04  0.10100282637E+04  0.50400001928E-02 0. -1.
    10030    2    1    2    0    0  0.00000000000E+00  0.00000000000E+00  0.93332591970E+03  0.29533824472E+04  0.28020297298E+04 0.  0.
        1    1    3    3  502    0  0.59811205142E+03 -0.10071349385E+04 -0.34347923953E+03  0.12206706347E+04  0.50400001928E-02 0. -1.
       -1    1    3    3    0  502 -0.59811205142E+03  0.10071349385E+04  0.12768051592E+04  0.17327118125E+04  0.50400001928E-02 0.  1.
</event>
<event>
 5   0  0.1461146E-06  0.2799851E+04  0.7818609E-02  0.8303315E-01
        2   -1    0    0  501    0  0.00000000000E+00  0.00000000000E+00  0.20075020988E+04  0.20075020988E+04  0.25500000920E-02 0. -1.
       -2   -1    0    0    0  501  0.00000000000E+00  0.00000000000E+00 -0.97623359898E+03  0.97623359898E+03  0.25500000920E-02 0.  1.
    10030    2    1    2    0    0  0.00000000000E+00  0.00000000000E+00  0.10312684998E+04  0.29837356978E+04  0.27998507095E+04 0.  0.
        1    1    3    3  502    0 -0.10876421443E+04 -0.88043074764E+03  0.55914810800E+03  0.15069075427E+04  0.50400001928E-02 0.  1.
       -1    1    3    3    0  502  0.10876421443E+04  0.88043074764E+03  0.47212039181E+03  0.14768281551E+04  0.50400001928E-02 0. -1.
</event>
<event>
 5   0  0.5297741E-07  0.2802808E+04  0.7818609E-02  0.8302397E-01
       -1   -1    0    0    0  501  0.00000000000E+00  0.00000000000E+00  0.11211257439E+04  0.11211257439E+04  0.50400001928E-02 0.  1.
        1   -1    0    0  501    0  0.00000000000E+00  0.00000000000E+00 -0.17517506580E+04  0.17517506580E+04  0.50400001928E-02 0. -1.
    10030    2    1    2    0    0  0.00000000000E+00  0.00000000000E+00 -0.63062491406E+03  0.28728764019E+04  0.28028077063E+04 0.  0.
        5    1    3    3  502    0 -0.12077238615E+04 -0.70109387991E+03 -0.19498469862E+03  0.14100250625E+04  0.46999998093E+01 0. -1.
       -5    1    3    3    0  502  0.12077238615E+04  0.70109387991E+03 -0.43564021544E+03  0.14628513395E+04  0.46999998093E+01 0.  1.
</event>
<event>
 5   0  0.5362952E-07  0.2800519E+04  0.7818609E-02  0.8303107E-01
        1   -1    0    0  501    0  0.00000000000E+00  0.00000000000E+00  0.16943814994E+04  0.16943814994E+04  0.50400001928E-02 0.  1.
       -1   -1    0    0    0  501  0.00000000000E+00  0.00000000000E+00 -0.11571933672E+04  0.11571933672E+04  0.50400001928E-02 0. -1.
    10030    2    1    2    0    0  0.00000000000E+00  0.00000000000E+00  0.53718813222E+03  0.28515748666E+04  0.28005192609E+04 0.  0.
        1    1    3    3  502    0  0.38650700704E+03 -0.11233149689E+04 -0.48620471058E+03  0.12835962007E+04  0.50400001928E-02 0. -1.
       -1    1    3    3    0  502 -0.38650700704E+03  0.11233149689E+04  0.10233928428E+04  0.15679786659E+04  0.50400001928E-02 0.  1.
</event>
<event>
 5   0  0.1499888E-06  0.2794915E+04  0.7818609E-02  0.8304849E-01
        2   -1    0    0  501    0  0.00000000000E+00  0.00000000000E+00  0.13099917294E+04  0.13099917294E+04  0.25500000920E-02 0.  1.
       -2   -1    0    0    0  501  0.00000000000E+00  0.00000000000E+00 -0.14907629343E+04  0.14907629343E+04  0.25500000920E-02 0. -1.
    10030    2    1    2    0    0  0.00000000000E+00  0.00000000000E+00 -0.18077120492E+03  0.28007546637E+04  0.27949147496E+04 0.  0.
        3    1    3    3  502    0 -0.17297082562E+03 -0.10736234541E+03  0.12950521267E+04  0.13109559874E+04  0.10100000352E+00 0.  1.
       -3    1    3    3    0  502  0.17297082562E+03  0.10736234541E+03 -0.14758233316E+04  0.14897986764E+04  0.10100000352E+00 0. -1.
</event>
<event>
 5   0  0.5362952E-07  0.2803153E+04  0.7818609E-02  0.8302290E-01
       -1   -1    0    0    0  501  0.00000000000E+00  0.00000000000E+00  0.10911542515E+04  0.10911542515E+04  0.50400001928E-02 0.  1.
        1   -1    0    0  501    0  0.00000000000E+00  0.00000000000E+00 -0.18003105933E+04  0.18003105934E+04  0.50400001928E-02 0. -1.
    10030    2    1    2    0    0  0.00000000000E+00  0.00000000000E+00 -0.70915634185E+03  0.28914648449E+04  0.28031529091E+04 0.  0.
        1    1    3    3  502    0  0.17959803466E+03 -0.10175679699E+04  0.62220623055E+03  0.12061677415E+04  0.50400001928E-02 0.  1.
       -1    1    3    3    0  502 -0.17959803466E+03  0.10175679699E+04 -0.13313625724E+04  0.16852971033E+04  0.50400001928E-02 0. -1.
</event>
<event>
 5   0  0.5362952E-07  0.2800245E+04  0.7818609E-02  0.8303192E-01
       -1   -1    0    0    0  501  0.00000000000E+00  0.00000000000E+00  0.13384876533E+04  0.13384876533E+04  0.50400001928E-02 0.  1.
        1   -1    0    0  501    0  0.00000000000E+00  0.00000000000E+00 -0.14645950593E+04  0.14645950593E+04  0.50400001928E-02 0. -1.
    10030    2    1    2    0    0  0.00000000000E+00  0.00000000000E+00 -0.12610740605E+03  0.28030827126E+04  0.28002445636E+04 0.  0.
        1    1    3    3  502    0 -0.11822887948E+04  0.58324054305E+03  0.40898131592E+03  0.13803050540E+04  0.50400001928E-02 0.  1.
       -1    1    3    3    0  502  0.11822887948E+04 -0.58324054305E+03 -0.53508872196E+03  0.14227776586E+04  0.50400001928E-02 0. -1.
</event>
<event>
 5   0  0.5214658E-07  0.2798542E+04  0.7818609E-02  0.8303721E-01
        1   -1    0    0  501    0  0.00000000000E+00  0.00000000000E+00  0.15180686153E+04  0.15180686153E+04  0.50400001928E-02 0. -1.
       -1   -1    0    0    0  501  0.00000000000E+00  0.00000000000E+00 -0.12897701146E+04  0.12897701146E+04  0.50400001928E-02 0.  1.
    10030    2    1    2    0    0  0.00000000000E+00  0.00000000000E+00  0.22829850070E+03  0.28078387299E+04  0.27985421433E+04 0.  0.
        2    1    3    3  502    0  0.11959626285E+03 -0.32921665246E+03  0.14733719115E+04  0.15144344356E+04  0.25500000920E-02 0. -1.
       -2    1    3    3    0  502 -0.11959626285E+03  0.32921665246E+03 -0.12450734108E+04  0.12934042943E+04  0.25500000920E-02 0.  1.
</event>
<event>
 5   0  0.1461146E-06  0.2788846E+04  0.7818609E-02  0.8306740E-01
        2   -1    0    0  501    0  0.00000000000E+00  0.00000000000E+00  0.13657188096E+04  0.13657188096E+04  0.25500000920E-02 0. -1.
       -2   -1    0    0    0  501  0.00000000000E+00  0.00000000000E+00 -0.14237305403E+04  0.14237305403E+04  0.25500000920E-02 0.  1.
    10030    2    1    2    0    0  0.00000000000E+00  0.00000000000E+00 -0.58011730718E+02  0.27894493500E+04  0.27888460544E+04 0.  0.
        1    1    3    3  502    0 -0.65813329624E+01 -0.50864829102E+03  0.12696005238E+04  0.13677177662E+04  0.50400001928E-02 0. -1.
       -1    1    3    3    0  502  0.65813329624E+01  0.50864829102E+03 -0.13276122545E+04  0.14217315838E+04  0.50400001928E-02 0.  1.
</event>
<event>
 5   0  0.4710000E-07  0.2798500E+04  0.7818609E-02  0.8303734E-01
        3   -1    0    0  501    0  0.00000000000E+00  0.00000000000E+00  0.95019081005E+03  0.95019081541E+03  0.10100000352E+00 0. -1.
       -3   -1    0    0    0  501  0.00000000000E+00  0.00000000000E+00 -0.20605347216E+04  0.20605347241E+04  0.10100000352E+00 0.  1.
    10030    2    1    2    0    0  0.00000000000E+00  0.00000000000E+00 -0.11103439115E+04  0.30107255395E+04  0.27985004328E+04 0.  0.
        3    1    3    3  502    0 -0.13596759898E+04 -0.26590052115E+03 -0.76620925490E+03  0.15831925078E+04  0.10100000352E+00 0. -1.
       -3    1    3    3    0  502  0.13596759898E+04  0.26590052115E+03 -0.34413465664E+03  0.14275330316E+04  0.10100000352E+00 0.  1.
</event>
<event>
 5   0  0.1499888E-06  0.2801926E+04  0.7818609E-02  0.8302671E-01
       -2   -1    0    0    0  501  0.00000000000E+00  0.00000000000E+00  0.85589155103E+03  0.85589155103E+03  0.25500000920E-02 0.  1.
        2   -1    0    0  501    0  0.00000000000E+00  0.00000000000E+00 -0.22931618832E+04  0.22931618832E+04  0.25500000920E-02 0. -1.
    10030    2    1    2    0    0  0.00000000000E+00  0.00000000000E+00 -0.14372703321E+04  0.31490534342E+04  0.28019263951E+04 0.  0.
        3    1    3    3  502    0  0.70629230809E+00 -0.12550625335E+04 -0.19006177797E+02  0.12552066391E+04  0.10100000352E+00 0.  1.
       -3    1    3    3    0  502 -0.70629230809E+00  0.12550625335E+04 -0.14182641543E+04  0.18938467951E+04  0.10100000352E+00 0. -1.
</event>
<event>
 5   0  0.1377807E-06  0.2798180E+04  0.7818609E-02  0.8303834E-01
       -2   -1    0    0    0  501  0.00000000000E+00  0.00000000000E+00  0.10360452730E+04  0.10360452730E+04  0.25500000920E-02 0. -1.
        2   -1    0    0  501    0  0.00000000000E+00  0.00000000000E+00 -0.18893503811E+04  0.18893503811E+04  0.25500000920E-02 0.  1.
    10030    2    1    2    0    0  0.00000000000E+00  0.00000000000E+00 -0.85330510805E+03  0.29253956541E+04  0.27981797879E+04 0.  0.
        2    1    3    3  502    0 -0.30934785434E+03 -0.12999994732E+04 -0.85993115315E+03  0.15890803358E+04  0.25500000920E-02 0.  1.
       -2    1    3    3    0  502  0.30934785434E+03  0.12999994732E+04  0.66260451012E+01  0.13363153183E+04  0.25500000920E-02 0. -1.
</event>
<event>
 5   0  0.1394410E-06  0.2797658E+04  0.7818609E-02  0.8303996E-01
       -2   -1    0    0    0  501  0.00000000000E+00  0.00000000000E+00  0.13141911263E+04  0.13141911263E+04  0.25500000920E-02 0.  1.
        2   -1    0    0  501    0  0.00000000000E+00  0.00000000000E+00 -0.14889173314E+04  0.14889173314E+04  0.25500000920E-02 0. -1.
    10030    2    1    2    0    0  0.00000000000E+00  0.00000000000E+00 -0.17472620506E+03  0.28031084577E+04  0.27976575521E+04 0.  0.
        4    1    3    3  502    0  0.73858866798E+02 -0.79216103227E+03 -0.12401464516E+04  0.14734106921E+04  0.12699999809E+01 0. -1.
       -4    1    3    3    0  502 -0.73858866798E+02  0.79216103227E+03  0.10654202465E+04  0.13296977656E+04  0.12699999809E+01 0.  1.
</event>
<event>
 5   0  0.1499888E-06  0.2803974E+04  0.7818609E-02  0.8302036E-01
       -2   -1    0    0    0  501  0.00000000000E+00  0.00000000000E+00  0.10171280835E+04  0.10171280835E+04  0.25500000920E-02 0.  1.
        2   -1    0    0  501    0  0.00000000000E+00  0.00000000000E+00 -0.19324679659E+04  0.19324679659E+04  0.25500000920E-02 0. -1.
    10030    2    1    2    0    0  0.00000000000E+00  0.00000000000E+00 -0.91533988236E+03  0.29495960495E+04  0.28039739219E+04 0.  0.
        3    1    3    3  502    0  0.45112967198E+02 -0.13556619347E+04 -0.83064398712E+03  0.15905420160E+04  0.10100000352E+00 0.  1.
       -3    1    3    3    0  502 -0.45112967198E+02  0.13556619347E+04 -0.84695895244E+02  0.13590540335E+04  0.10100000352E+00 0. -1.
</event>
<event>
 5   0  0.5362952E-07  0.2878797E+04  0.7818609E-02  0.8279214E-01
        1   -1    0    0  501    0  0.00000000000E+00  0.00000000000E+00  0.17548589571E+04  0.17548589571E+04  0.50400001928E-02 0.  1.
       -1   -1    0    0    0  501  0.00000000000E+00  0.00000000000E+00 -0.11806465540E+04  0.11806465540E+04  0.50400001928E-02 0. -1.
    10030    2    1    2    0    0  0.00000000000E+00  0.00000000000E+00  0.57421240307E+03  0.29355055111E+04  0.28787970963E+04 0.  0.
        1    1    3    3  502    0  0.42352681973E+02 -0.14386966843E+04  0.30244517545E+03  0.14707532027E+04  0.50400001928E-02 0.  1.
       -1    1    3    3    0  502 -0.42352681973E+02  0.14386966843E+04  0.27176722762E+03  0.14647523084E+04  0.50400001928E-02 0. -1.
</event>
<event>
 5   0  0.4710000E-07  0.2799061E+04  0.7818609E-02  0.8303560E-01
       -3   -1    0    0    0  501  0.00000000000E+00  0.00000000000E+00  0.16394761527E+04  0.16394761558E+04  0.10100000352E+00 0.  1.
        3   -1    0    0  501    0  0.00000000000E+00  0.00000000000E+00 -0.11947018257E+04  0.11947018300E+04  0.10100000352E+00 0. -1.
    10030    2    1    2    0    0  0.00000000000E+00  0.00000000000E+00  0.44477432695E+03  0.28341779858E+04  0.27990606734E+04 0.  0.
        1    1    3    3  502    0  0.13439336592E+04  0.27475952461E+03  0.50342058302E+03  0.14611922393E+04  0.50400001928E-02 0.  1.
       -1    1    3    3    0  502 -0.13439336592E+04 -0.27475952461E+03 -0.58646256069E+02  0.13729857465E+04  0.50400001928E-02 0. -1.
</event>
<event>
 5   0  0.1394410E-06  0.2804830E+04  0.7818609E-02  0.8301770E-01
       -2   -1    0    0    0  501  0.00000000000E+00  0.00000000000E+00  0.14290830342E+04  0.14290830342E+04  0.25500000920E-02 0.  1.
        2   -1    0    0  501    0  0.00000000000E+00  0.00000000000E+00 -0.13762445889E+04  0.13762445889E+04  0.25500000920E-02 0. -1.
    10030    2    1    2    0    0  0.00000000000E+00  0.00000000000E+00  0.52838445226E+02  0.28053276231E+04  0.28048299720E+04 0.  0.
        4    1    3    3  502    0 -0.11156585087E+04 -0.25296743648E+03  0.83778430089E+03  0.14179459016E+04  0.12699999809E+01 0.  1.
       -4    1    3    3    0  502  0.11156585087E+04  0.25296743648E+03 -0.78494585566E+03  0.13873817215E+04  0.12699999809E+01 0. -1.
</event>
<event>
 5   0  0.1377807E-06  0.2812277E+04  0.7818609E-02  0.8299467E-01
       -2   -1    0    0    0  501  0.00000000000E+00  0.00000000000E+00  0.12286999844E+04  0.12286999844E+04  0.25500000920E-02 0.  1.
        2   -1    0    0  501    0  0.00000000000E+00  0.00000000000E+00 -0.16092017409E+04  0.16092017409E+04  0.25500000920E-02 0. -1.
    10030    2    1    2    0    0  0.00000000000E+00  0.00000000000E+00 -0.38050175643E+03  0.28379017253E+04  0.28122774785E+04 0.  0.
        2    1    3    3  502    0  0.13773181770E+04 -0.20871734146E+03 -0.38345783692E+03  0.14448557721E+04  0.25500000920E-02 0. -1.
       -2    1    3    3    0  502 -0.13773181770E+04  0.20871734146E+03  0.29560804884E+01  0.13930459532E+04  0.25500000920E-02 0.  1.
</event>
<event>
 5   0  0.5214658E-07  0.2796578E+04  0.7818609E-02  0.8304332E-01
        1   -1    0    0  501    0  0.00000000000E+00  0.00000000000E+00  0.13102547663E+04  0.13102547663E+04  0.50400001928E-02 0. -1.
       -1   -1    0    0    0  501  0.00000000000E+00  0.00000000000E+00 -0.14922376230E+04  0.14922376230E+04  0.50400001928E-02 0.  1.
    10030    2    1    2    0    0  0.00000000000E+00  0.00000000000E+00 -0.18198285677E+03  0.28024923893E+04  0.27965775212E+04 0.  0.
        2    1    3    3  502    0 -0.75940885165E+03  0.77691761342E+03  0.79115938936E+03  0.13439627827E+04  0.25500000920E-02 0. -1.
       -2    1    3    3    0  502  0.75940885165E+03 -0.77691761342E+03 -0.97314224614E+03  0.14585296066E+04  0.25500000920E-02 0.  1.
</event>
<event>
 5   0  0.5214658E-07  0.2799931E+04  0.7818609E-02  0.8303290E-01
       -1   -1    0    0    0  501  0.00000000000E+00  0.00000000000E+00  0.95906171198E+03  0.95906171199E+03  0.50400001928E-02 0.  1.
        1   -1    0    0  501    0  0.00000000000E+00  0.00000000000E+00 -0.20435638446E+04  0.20435638446E+04  0.50400001928E-02 0. -1.
    10030    2    1    2    0    0  0.00000000000E+00  0.00000000000E+00 -0.10845021326E+04  0.30026255566E+04  0.27999313130E+04 0.  0.
        2    1    3    3  502    0 -0.36982676741E+03 -0.13325537780E+04 -0.30869481945E+03  0.14169558570E+04  0.25500000920E-02 0.  1.
       -2    1    3    3    0  502  0.36982676741E+03  0.13325537780E+04 -0.77580731316E+03  0.15856696996E+04  0.25500000920E-02 0. -1.
</event>
<event>
 5   0  0.1461146E-06  0.2828539E+04  0.7818609E-02  0.8294462E-01
        2   -1    0    0  501    0  0.00000000000E+00  0.00000000000E+00  0.16170251966E+04  0.16170251966E+04  0.25500000920E-02 0.  1.
       -2   -1    0    0    0  501  0.00000000000E+00  0.00000000000E+00 -0.12369370409E+04  0.12369370409E+04  0.25500000920E-02 0. -1.
    10030    2    1    2    0    0  0.00000000000E+00  0.00000000000E+00  0.38008815573E+03  0.28539622375E+04  0.28285391012E+04 0.  0.
        1    1    3    3  502    0 -0.44183564281E+03  0.11047552475E+04  0.96141231054E+03  0.15297112548E+04  0.50400001928E-02 0.  1.
       -1    1    3    3    0  502  0.44183564281E+03 -0.11047552475E+04 -0.58132415482E+03  0.13242509827E+04  0.50400001928E-02 0. -1.
</event>
<event>
 5   0  0.5362952E-07  0.2798238E+04  0.7818609E-02  0.8303816E-01
       -1   -1    0    0    0  501  0.00000000000E+00  0.00000000000E+00  0.10798424609E+04  0.10798424609E+04  0.50400001928E-02 0.  1.
        1   -1    0    0  501    0  0.00000000000E+00  0.00000000000E+00 -0.18127960469E+04  0.18127960469E+04  0.50400001928E-02 0. -1.
    10030    2    1    2    0    0  0.00000000000E+00  0.00000000000E+00 -0.73295358601E+03  0.28926385079E+04  0.27982381203E+04 0.  0.
        1    1    3    3  502    0 -0.44666250795E+03  0.84021627530E+03 -0.14267808971E+04  0.17149852809E+04  0.50400001928E-02 0. -1.
       -1    1    3    3    0  502  0.44666250795E+03 -0.84021627530E+03  0.69382731111E+03  0.11776532270E+04  0.50400001928E-02 0.  1.
</event>
<event>
 5   0  0.5297741E-07  0.2801958E+04  0.7818609E-02  0.8302661E-01
        1   -1    0    0  501    0  0.00000000000E+00  0.00000000000E+00  0.16212996835E+04  0.16212996835E+04  0.50400001928E-02 0.  1.
       -1   -1    0    0    0  501  0.00000000000E+00  0.00000000000E+00 -0.12105977337E+04  0.12105977337E+04  0.50400001928E-02 0. -1.
    10030    2    1    2    0    0  0.00000000000E+00  0.00000000000E+00  0.41070194980E+03  0.28318974172E+04  0.28019576888E+04 0.  0.
        5    1    3    3  502    0 -0.97752160841E+02 -0.36072966613E+03 -0.11592756347E+04  0.12180408303E+04  0.46999998093E+01 0. -1.
       -5    1    3    3    0  502  0.97752160841E+02  0.36072966613E+03  0.15699775845E+04  0.16138565869E+04  0.46999998093E+01 0.  1.
</event>
<event>
 5   0  0.5362952E-07  0.2799286E+04  0.7818609E-02  0.8303490E-01
       -1   -1    0    0    0  501  0.00000000000E+00  0.00000000000E+00  0.11838635241E+04  0.11838635242E+04  0.50400001928E-02 0.  1.
        1   -1    0    0  501    0  0.00000000000E+00  0.00000000000E+00 -0.16547518881E+04  0.16547518881E+04  0.50400001928E-02 0. -1.
    10030    2    1    2    0    0  0.00000000000E+00  0.00000000000E+00 -0.47088836399E+03  0.28386154123E+04  0.27992859103E+04 0.  0.
        1    1    3    3  502    0 -0.63267681579E+03  0.12243943122E+04 -0.48296171334E+03  0.14603675570E+04  0.50400001928E-02 0.  1.
       -1    1    3    3    0  502  0.63267681579E+03 -0.12243943122E+04  0.12073349348E+02  0.13782478553E+04  0.50400001928E-02 0. -1.
</event>
<event>
 5   0  0.5551565E-07  0.2792192E+04  0.7818609E-02  0.8305697E-01
        1   -1    0    0  501    0  0.00000000000E+00  0.00000000000E+00  0.23488618966E+04  0.23488618966E+04  0.50400001928E-02 0. -1.
       -1   -1    0    0    0  501  0.00000000000E+00  0.00000000000E+00 -0.82979936201E+03  0.82979936203E+03  0.50400001928E-02 0.  1.
    10030    2    1    2    0    0  0.00000000000E+00  0.00000000000E+00  0.15190625346E+04  0.31786612587E+04  0.27921920445E+04 0.  0.
        3    1    3    3  502    0 -0.79870792563E+03 -0.22418089314E+03  0.20378466746E+04  0.22002296477E+04  0.10100000352E+00 0. -1.
       -3    1    3    3    0  502  0.79870792563E+03  0.22418089314E+03 -0.51878413994E+03  0.97843161098E+03  0.10100000352E+00 0.  1.
</event>
<event>
 5   0  0.1499888E-06  0.2798449E+04  0.7818609E-02  0.8303750E-01
       -2   -1    0    0    0  501  0.00000000000E+00  0.00000000000E+00  0.79615893410E+03  0.79615893410E+03  0.25500000920E-02 0. -1.
        2   -1    0    0  501    0  0.00000000000E+00  0.00000000000E+00 -0.24590935526E+04  0.24590935526E+04  0.25500000920E-02 0.  1.
    10030    2    1    2    0    0  0.00000000000E+00  0.00000000000E+00 -0.16629346185E+04  0.32552524867E+04  0.27984490717E+04 0.  0.
        3    1    3    3  502    0  0.53970234350E+03  0.22565022818E+03  0.64709142715E+03  0.87230956107E+03  0.10100000352E+00 0. -1.
       -3    1    3    3    0  502 -0.53970234350E+03 -0.22565022818E+03 -0.23100260456E+04  0.23829429256E+04  0.10100000352E+00 0.  1.
</event>
<event>
 5   0  0.1461146E-06  0.2800387E+04  0.7818609E-02  0.8303148E-01
        2   -1    0    0  501    0  0.00000000000E+00  0.00000000000E+00  0.14731127156E+04  0.14731127156E+04  0.25500000920E-02 0.  1.
       -2   -1    0    0    0  501  0.00000000000E+00  0.00000000000E+00 -0.13308836622E+04  0.13308836623E+04  0.25500000920E-02 0. -1.
    10030    2    1    2    0    0  0.00000000000E+00  0.00000000000E+00  0.14222905339E+03  0.28039963779E+04  0.28003868632E+04 0.  0.
        1    1    3    3  502    0 -0.79195675713E+03 -0.10257474276E+04 -0.45984092268E+03  0.13750661674E+04  0.50400001928E-02 0. -1.
       -1    1    3    3    0  502  0.79195675713E+03  0.10257474276E+04  0.60206997607E+03  0.14289302105E+04  0.50400001928E-02 0.  1.
</event>
<event>
 5   0  0.4710000E-07  0.2792514E+04  0.7818609E-02  0.8305596E-01
        3   -1    0    0  501    0  0.00000000000E+00  0.00000000000E+00  0.14236773981E+04  0.14236774017E+04  0.10100000352E+00 0.  1.
       -3   -1    0    0    0  501  0.00000000000E+00  0.00000000000E+00 -0.13693645907E+04  0.13693645944E+04  0.10100000352E+00 0. -1.
    10030    2    1    2    0    0  0.00000000000E+00  0.00000000000E+00  0.54312807422E+02  0.27930419961E+04  0.27925138694E+04 0.  0.
        5    1    3    3  502    0 -0.39998292715E+03 -0.67852565228E+03  0.11802525480E+04  0.14189438219E+04  0.46999998093E+01 0.  1.
       -5    1    3    3    0  502  0.39998292715E+03  0.67852565228E+03 -0.11259397406E+04  0.13740981741E+04  0.46999998093E+01 0. -1.
</event>
<event>
 5   0  0.1394410E-06  0.2807081E+04  0.7818609E-02  0.8301073E-01
       -2   -1    0    0    0  501  0.00000000000E+00  0.00000000000E+00  0.14354437095E+04  0.14354437095E+04  0.25500000920E-02 0.  1.
        2   -1    0    0  501    0  0.00000000000E+00  0.00000000000E+00 -0.13723465091E+04  0.13723465091E+04  0.25500000920E-02 0. -1.
    10030    2    1    2    0    0  0.00000000000E+00  0.00000000000E+00  0.63097200399E+02  0.28077902185E+04  0.28070811628E+04 0.  0.
        4    1    3    3  502    0  0.23311871759E+03 -0.11195833139E+03 -0.13483090260E+04  0.13728866840E+04  0.12699999809E+01 0. -1.
       -4    1    3    3    0  502 -0.23311871759E+03  0.11195833139E+03  0.14114062264E+04  0.14349035345E+04  0.12699999809E+01 0.  1.
</event>
<event>
 5   0  0.5214658E-07  0.2801225E+04  0.7818609E-02  0.8302888E-01
        1   -1    0    0  501    0  0.00000000000E+00  0.00000000000E+00  0.20773824380E+04  0.20773824380E+04  0.50400001928E-02 0. -1.
       -1   -1    0    0    0  501  0.00000000000E+00  0.00000000000E+00 -0.94432097895E+03  0.94432097897E+03  0.50400001928E-02 0.  1.
    10030    2    1    2    0    0  0.00000000000E+00  0.00000000000E+00  0.11330614591E+04  0.30217034170E+04  0.28012253159E+04 0.  0.
        2    1    3    3  502    0  0.75682727203E+03  0.22957300234E+03  0.18134648643E+04  0.19784201013E+04  0.25500000920E-02 0. -1.
       -2    1    3    3    0  502 -0.75682727203E+03 -0.22957300234E+03 -0.68040340520E+03  0.10432833157E+04  0.25500000920E-02 0.  1.
</event>
<event>
 5   0  0.1439207E-06  0.2801083E+04  0.7818609E-02  0.8302932E-01
        2   -1    0    0  501    0  0.00000000000E+00  0.00000000000E+00  0.17048012823E+04  0.17048012823E+04  0.25500000920E-02 0.  1.
       -2   -1    0    0    0  501  0.00000000000E+00  0.00000000000E+00 -0.11505835221E+04  0.11505835221E+04  0.25500000920E-02 0. -1.
    10030    2    1    2    0    0  0.00000000000E+00  0.00000000000E+00  0.55421776022E+03  0.28553848043E+04  0.28010828362E+04 0.  0.
        5    1    3    3  502    0  0.13541139454E+04 -0.33622494228E+03  0.40121629632E+03  0.14517811114E+04  0.46999998093E+01 0. -1.
       -5    1    3    3    0  502 -0.13541139454E+04  0.33622494228E+03  0.15300146390E+03  0.14036036930E+04  0.46999998093E+01 0.  1.
</event>
<event>
 5   0  0.1439207E-06  0.2799025E+04  0.7818609E-02  0.8303571E-01
        2   -1    0    0  501    0  0.00000000000E+00  0.00000000000E+00  0.18600664317E+04  0.18600664317E+04  0.25500000920E-02 0. -1.
       -2   -1    0    0    0  501  0.00000000000E+00  0.00000000000E+00 -0.10529921923E+04  0.10529921923E+04  0.25500000920E-02 0.  1.
    10030    2    1    2    0    0  0.00000000000E+00  0.00000000000E+00  0.80707423939E+03  0.29130586241E+04  0.27990251373E+04 0.  0.
        5    1    3    3  502    0  0.56149381585E+03 -0.11682070207E+04  0.95289665669E+03  0.16087315118E+04  0.46999998093E+01 0. -1.
       -5    1    3    3    0  502 -0.56149381585E+03  0.11682070207E+04 -0.14582241731E+03  0.13043271123E+04  0.46999998093E+01 0.  1.
</event>
<event>
 5   0  0.1499888E-06  0.2806267E+04  0.7818609E-02  0.8301325E-01
        2   -1    0    0  501    0  0.00000000000E+00  0.00000000000E+00  0.18401016974E+04  0.18401016974E+04  0.25500000920E-02 0. -1.
       -2   -1    0    0    0  501  0.00000000000E+00  0.00000000000E+00 -0.10699322474E+04  0.10699322474E+04  0.25500000920E-02 0.  1.
    10030    2    1    2    0    0  0.00000000000E+00  0.00000000000E+00  0.77016945002E+03  0.29100339449E+04  0.28062673748E+04 0.  0.
        3    1    3    3  502    0  0.73724081606E+03 -0.11240745016E+04 -0.31925157031E+02  0.13446511562E+04  0.10100000352E+00 0.  1.
       -3    1    3    3    0  502 -0.73724081606E+03  0.11240745016E+04  0.80209460705E+03  0.15653827886E+04  0.10100000352E+00 0. -1.
</event>
<event>
 5   0  0.1439207E-06  0.2803146E+04  0.7818609E-02  0.8302292E-01
        2   -1    0    0  501    0  0.00000000000E+00  0.00000000000E+00  0.17725562883E+04  0.17725562883E+04  0.25500000920E-02 0.  1.
       -2   -1    0    0    0  501  0.00000000000E+00  0.00000000000E+00 -0.11082341671E+04  0.11082341671E+04  0.25500000920E-02 0. -1.
    10030    2    1    2    0    0  0.00000000000E+00  0.00000000000E+00  0.66432212128E+03  0.28807904554E+04  0.28031464049E+04 0.  0.
        5    1    3    3  502    0  0.93837441255E+03  0.43898036819E+03 -0.63798617663E+03  0.12166752867E+04  0.46999998093E+01 0. -1.
       -5    1    3    3    0  502 -0.93837441255E+03 -0.43898036819E+03  0.13023082979E+04  0.16641151687E+04  0.46999998093E+01 0.  1.
</event>
<event>
 5   0  0.1377807E-06  0.2801233E+04  0.7818609E-02  0.8302886E-01
        2   -1    0    0  501    0  0.00000000000E+00  0.00000000000E+00  0.20406030511E+04  0.20406030511E+04  0.25500000920E-02 0.  1.
       -2   -1    0    0    0  501  0.00000000000E+00  0.00000000000E+00 -0.96134624269E+03  0.96134624269E+03  0.25500000920E-02 0. -1.
    10030    2    1    2    0    0  0.00000000000E+00  0.00000000000E+00  0.10792568084E+04  0.30019492938E+04  0.28012326401E+04 0.  0.
        2    1    3    3  502    0 -0.12342405431E+04 -0.23166124475E+03 -0.12506380341E+03  0.12620053905E+04  0.25500000920E-02 0. -1.
       -2    1    3    3    0  502  0.12342405431E+04  0.23166124475E+03  0.12043206118E+04  0.17399439033E+04  0.25500000920E-02 0.  1.
</event>
<event>
 5   0  0.1439207E-06  0.2801645E+04  0.7818609E-02  0.8302758E-01
        2   -1    0    0  501    0  0.00000000000E+00  0.00000000000E+00  0.14773484762E+04  0.14773484762E+04  0.25500000920E-02 0. -1.
       -2   -1    0    0    0  501  0.00000000000E+00  0.00000000000E+00 -0.13282605828E+04  0.13282605828E+04  0.25500000920E-02 0.  1.
    10030    2    1    2    0    0  0.00000000000E+00  0.00000000000E+00  0.14908789347E+03  0.28056090590E+04  0.28016450511E+04 0.  0.
        5    1    3    3  502    0 -0.51279577369E+03  0.61255425430E+03  0.12268672468E+04  0.14640380976E+04  0.46999998093E+01 0. -1.
       -5    1    3    3    0  502  0.51279577369E+03 -0.61255425430E+03 -0.10777793533E+04  0.13415709614E+04  0.46999998093E+01 0.  1.
</event>
<event>
 5   0  0.1377807E-06  0.2797281E+04  0.7818609E-02  0.8304113E-01
       -2   -1    0    0    0  501  0.00000000000E+00  0.00000000000E+00  0.13614534382E+04  0.13614534382E+04  0.25500000920E-02 0.  1.
        2   -1    0    0  501    0  0.00000000000E+00  0.00000000000E+00 -0.14368431484E+04  0.14368431484E+04  0.25500000920E-02 0. -1.
    10030    2    1    2    0    0  0.00000000000E+00  0.00000000000E+00 -0.75389710259E+02  0.27982965866E+04  0.27972808544E+04 0.  0.
        2    1    3    3  502    0  0.88252492112E+03  0.91451085657E+03  0.54648183119E+03  0.13834098218E+04  0.25500000920E-02 0. -1.
       -2    1    3    3    0  502 -0.88252492112E+03 -0.91451085657E+03 -0.62187154145E+03  0.14148867648E+04  0.25500000920E-02 0.  1.
</event>
<event>
 5   0  0.1394410E-06  0.2798559E+04  0.7818609E-02  0.8303716E-01
       -2   -1    0    0    0  501  0.00000000000E+00  0.00000000000E+00  0.14058689941E+04  0.14058689941E+04  0.25500000920E-02 0. -1.
        2   -1    0    0  501    0  0.00000000000E+00  0.00000000000E+00 -0.13927208006E+04  0.13927208006E+04  0.25500000920E-02 0.  1.
    10030    2    1    2    0    0  0.00000000000E+00  0.00000000000E+00  0.13148193430E+02  0.27985897947E+04  0.27985589084E+04 0.  0.
        4    1    3    3  502    0  0.37655092229E+03 -0.12230637927E+04 -0.55938774832E+03  0.13966359239E+04  0.12699999809E+01 0.  1.
       -4    1    3    3    0  502 -0.37655092229E+03  0.12230637927E+04  0.57253594175E+03  0.14019538707E+04  0.12699999809E+01 0. -1.
</event>
<event>
 5   0  0.1461146E-06  0.2801001E+04  0.7818609E-02  0.8302958E-01
       -2   -1    0    0    0  501  0.00000000000E+00  0.00000000000E+00  0.82757108365E+03  0.82757108365E+03  0.25500000920E-02 0. -1.
        2   -1    0    0  501    0  0.00000000000E+00  0.00000000000E+00 -0.23700695671E+04  0.23700695671E+04  0.25500000920E-02 0.  1.
    10030    2    1    2    0    0  0.00000000000E+00  0.00000000000E+00 -0.15424984835E+04  0.31976406508E+04  0.28010005641E+04 0.  0.
        1    1    3    3  502    0 -0.73758517529E+03 -0.94406421164E+03 -0.15992972716E+04  0.19982594650E+04  0.50400001928E-02 0.  1.
       -1    1    3    3    0  502  0.73758517529E+03  0.94406421164E+03  0.56798788096E+02  0.11993811858E+04  0.50400001928E-02 0. -1.
</event>
<event>
 5   0  0.5362952E-07  0.2799885E+04  0.7818609E-02  0.8303304E-01
       -1   -1    0    0    0  501  0.00000000000E+00  0.00000000000E+00  0.11693479258E+04  0.11693479258E+04  0.50400001928E-02 0.  1.
        1   -1    0    0  501    0  0.00000000000E+00  0.00000000000E+00 -0.16760105168E+04  0.16760105168E+04  0.50400001928E-02 0. -1.
    10030    2    1    2    0    0  0.00000000000E+00  0.00000000000E+00 -0.50666259099E+03  0.28453584425E+04  0.27998852986E+04 0.  0.
        1    1    3    3  502    0  0.10732660141E+04  0.87120201657E+03 -0.47816307684E+03  0.14627141958E+04  0.50400001928E-02 0. -1.
       -1    1    3    3    0  502 -0.10732660141E+04 -0.87120201657E+03 -0.28499514157E+02  0.13826442467E+04  0.50400001928E-02 0.  1.
</event>
<event>
 5   0  0.5297741E-07  0.2804323E+04  0.7818609E-02  0.8301927E-01
       -1   -1    0    0    0  501  0.00000000000E+00  0.00000000000E+00  0.15803705934E+04  0.15803705934E+04  0.50400001928E-02 0. -1.
        1   -1    0    0  501    0  0.00000000000E+00  0.00000000000E+00 -0.12440481931E+04  0.12440481931E+04  0.50400001928E-02 0.  1.
    10030    2    1    2    0    0  0.00000000000E+00  0.00000000000E+00  0.33632240030E+03  0.28244187866E+04  0.28043232205E+04 0.  0.
        5    1    3    3  502    0 -0.17188386438E+02 -0.10832612804E+04 -0.72832094460E+03  0.13054592795E+04  0.46999998093E+01 0.  1.
       -5    1    3    3    0  502  0.17188386438E+02  0.10832612804E+04  0.10646433449E+04  0.15189595070E+04  0.46999998093E+01 0. -1.
</event>
<event>
 5   0  0.5214658E-07  0.2795932E+04  0.7818609E-02  0.8304532E-01
       -1   -1    0    0    0  501  0.00000000000E+00  0.00000000000E+00  0.13486371114E+04  0.13486371114E+04  0.50400001928E-02 0. -1.
        1   -1    0    0  501    0  0.00000000000E+00  0.00000000000E+00 -0.14490996419E+04  0.14490996419E+04  0.50400001928E-02 0.  1.
    10030    2    1    2    0    0  0.00000000000E+00  0.00000000000E+00 -0.10046253047E+03  0.27977367533E+04  0.27959324421E+04 0.  0.
        2    1    3    3  502    0 -0.10580402899E+04  0.78543667336E+02  0.86068097164E+03  0.13661588845E+04  0.25500000920E-02 0. -1.
       -2    1    3    3    0  502  0.10580402899E+04 -0.78543667336E+02 -0.96114350211E+03  0.14315778688E+04  0.25500000920E-02 0.  1.
</event>
<event>
 5   0  0.5297741E-07  0.2800041E+04  0.7818609E-02  0.8303256E-01
       -1   -1    0    0    0  501  0.00000000000E+00  0.00000000000E+00  0.25864191501E+04  0.25864191501E+04  0.50400001928E-02 0.  1.
        1   -1    0    0  501    0  0.00000000000E+00  0.00000000000E+00 -0.75782680949E+03  0.75782680950E+03  0.50400001928E-02 0. -1.
    10030    2    1    2    0    0  0.00000000000E+00  0.00000000000E+00  0.18285923406E+04  0.33442459596E+04  0.28000412658E+04 0.  0.
        5    1    3    3  502    0  0.12798053467E+04 -0.51389186767E+03  0.12020569123E+04  0.18294669955E+04  0.46999998093E+01 0. -1.
       -5    1    3    3    0  502 -0.12798053467E+04  0.51389186767E+03  0.62653542823E+03  0.15147789641E+04  0.46999998093E+01 0.  1.
</event>
<event>
 5   0  0.1461146E-06  0.2800115E+04  0.7818609E-02  0.8303233E-01
       -2   -1    0    0    0  501  0.00000000000E+00  0.00000000000E+00  0.13666109727E+04  0.13666109727E+04  0.25500000920E-02 0.  1.
        2   -1    0    0  501    0  0.00000000000E+00  0.00000000000E+00 -0.14343229571E+04  0.14343229571E+04  0.25500000920E-02 0. -1.
    10030    2    1    2    0    0  0.00000000000E+00  0.00000000000E+00 -0.67711984412E+02  0.28009339298E+04  0.28001153487E+04 0.  0.
        1    1    3    3  502    0  0.11610616485E+04 -0.24823415469E+03  0.70830237537E+03  0.13825254436E+04  0.50400001928E-02 0.  1.
       -1    1    3    3    0  502 -0.11610616485E+04  0.24823415469E+03 -0.77601435979E+03  0.14184084862E+04  0.50400001928E-02 0. -1.
</event>
<event>
 5   0  0.1394410E-06  0.2786011E+04  0.7818609E-02  0.8307625E-01
       -2   -1    0    0    0  501  0.00000000000E+00  0.00000000000E+00  0.15074131180E+04  0.15074131180E+04  0.25500000920E-02 0. -1.
        2   -1    0    0  501    0  0.00000000000E+00  0.00000000000E+00 -0.12872811181E+04  0.12872811181E+04  0.25500000920E-02 0.  1.
    10030    2    1    2    0    0  0.00000000000E+00  0.00000000000E+00  0.22013199989E+03  0.27946942362E+04  0.27860110869E+04 0.  0.
        4    1    3    3  502    0 -0.61822787494E+03  0.59472281664E+03 -0.99088000430E+03  0.13106279906E+04  0.12699999809E+01 0.  1.
       -4    1    3    3    0  502  0.61822787494E+03 -0.59472281664E+03  0.12110120042E+04  0.14840662455E+04  0.12699999809E+01 0. -1.
</event>
<event>
 5   0  0.5282098E-07  0.2793777E+04  0.7818609E-02  0.8305203E-01
       -1   -1    0    0    0  501  0.00000000000E+00  0.00000000000E+00  0.24961104362E+04  0.24961104362E+04  0.50400001928E-02 0.  1.
        1   -1    0    0  501    0  0.00000000000E+00  0.00000000000E+00 -0.78173533955E+03  0.78173533957E+03  0.50400001928E-02 0. -1.
    10030    2    1    2    0    0  0.00000000000E+00  0.00000000000E+00  0.17143750967E+04  0.32778457758E+04  0.27937771847E+04 0.  0.
        4    1    3    3  502    0 -0.85006009616E+03 -0.42134729320E+03  0.20600923239E+04  0.22680647487E+04  0.12699999809E+01 0.  1.
       -4    1    3    3    0  502  0.85006009616E+03  0.42134729320E+03 -0.34571722721E+03  0.10097810271E+04  0.12699999809E+01 0. -1.
</event>
<event>
 5   0  0.5214658E-07  0.2804331E+04  0.7818609E-02  0.8301925E-01
        1   -1    0    0  501    0  0.00000000000E+00  0.00000000000E+00  0.20399684000E+04  0.20399684000E+04  0.50400001928E-02 0. -1.
       -1   -1    0    0    0  501  0.00000000000E+00  0.00000000000E+00 -0.96377390361E+03  0.96377390363E+03  0.50400001928E-02 0.  1.
    10030    2    1    2    0    0  0.00000000000E+00  0.00000000000E+00  0.10761944964E+04  0.30037423036E+04  0.28043311560E+04 0.  0.
        2    1    3    3  502    0  0.12674004285E+04  0.10604075665E+02  0.11804515299E+04  0.17320167745E+04  0.25500000920E-02 0. -1.
       -2    1    3    3    0  502 -0.12674004285E+04 -0.10604075665E+02 -0.10425703353E+03  0.12717255292E+04  0.25500000920E-02 0.  1.
</event>
<event>
 5   0  0.5214658E-07  0.2803361E+04  0.7818609E-02  0.8302226E-01
       -1   -1    0    0    0  501  0.00000000000E+00  0.00000000000E+00  0.97749270865E+03  0.97749270866E+03  0.50400001928E-02 0.  1.
        1   -1    0    0  501    0  0.00000000000E+00  0.00000000000E+00 -0.20099460207E+04  0.20099460207E+04  0.50400001928E-02 0. -1.
    10030    2    1    2    0    0  0.00000000000E+00  0.00000000000E+00 -0.10324533121E+04  0.29874387294E+04  0.28033605405E+04 0.  0.
        2    1    3    3  502    0 -0.12471051021E+04  0.27623910876E+03 -0.11312985466E+04  0.17062870751E+04  0.25500000920E-02 0. -1.
       -2    1    3    3    0  502  0.12471051021E+04 -0.27623910876E+03  0.98845234547E+02  0.12811516543E+04  0.25500000920E-02 0.  1.
</event>
<event>
 5   0  0.1377807E-06  0.2794741E+04  0.7818609E-02  0.8304903E-01
        2   -1    0    0  501    0  0.00000000000E+00  0.00000000000E+00  0.11238999383E+04  0.11238999383E+04  0.25500000920E-02 0.  1.
       -2   -1    0    0    0  501  0.00000000000E+00  0.00000000000E+00 -0.17373824893E+04  0.17373824893E+04  0.25500000920E-02 0. -1.
    10030    2    1    2    0    0  0.00000000000E+00  0.00000000000E+00 -0.61348255102E+03  0.28612824277E+04  0.27947408271E+04 0.  0.
        2    1    3    3  502    0 -0.45876451936E+02 -0.11585772936E+04  0.49172392135E+03  0.12594436903E+04  0.25500000920E-02 0.  1.
       -2    1    3    3    0  502  0.45876451936E+02  0.11585772936E+04 -0.11052064724E+04  0.16018387374E+04  0.25500000920E-02 0. -1.
</event>
<event>
 5   0  0.5362952E-07  0.2795917E+04  0.7818609E-02  0.8304537E-01
       -1   -1    0    0    0  501  0.00000000000E+00  0.00000000000E+00  0.82695206594E+03  0.82695206596E+03  0.50400001928E-02 0.  1.
        1   -1    0    0  501    0  0.00000000000E+00  0.00000000000E+00 -0.23632428303E+04  0.23632428303E+04  0.50400001928E-02 0. -1.
    10030    2    1    2    0    0  0.00000000000E+00  0.00000000000E+00 -0.15362907643E+04  0.31901948962E+04  0.27959174100E+04 0.  0.
        1    1    3    3  502    0 -0.10801892147E+04 -0.72473913509E+03 -0.18384450441E+03  0.13137177609E+04  0.50400001928E-02 0. -1.
       -1    1    3    3    0  502  0.10801892147E+04  0.72473913509E+03 -0.13524462599E+04  0.18764771353E+04  0.50400001928E-02 0.  1.
</event>
<event>
 5   0  0.5282098E-07  0.2801119E+04  0.7818609E-02  0.8302921E-01
        1   -1    0    0  501    0  0.00000000000E+00  0.00000000000E+00  0.26518524361E+04  0.26518524361E+04  0.50400001928E-02 0. -1.
       -1   -1    0    0    0  501  0.00000000000E+00  0.00000000000E+00 -0.73969703840E+03  0.73969703842E+03  0.50400001928E-02 0.  1.
    10030    2    1    2    0    0  0.00000000000E+00  0.00000000000E+00  0.19121553977E+04  0.33915494745E+04  0.28011193429E+04 0.  0.
        4    1    3    3  502    0  0.11931431056E+04 -0.66691972275E+03  0.58645459720E+03  0.14873812539E+04  0.12699999809E+01 0.  1.
       -4    1    3    3    0  502 -0.11931431056E+04  0.66691972275E+03  0.13257008005E+04  0.19041682206E+04  0.12699999809E+01 0. -1.
</event>
<event>
 5   0  0.5551565E-07  0.2797222E+04  0.7818609E-02  0.8304131E-01
        1   -1    0    0  501    0  0.00000000000E+00  0.00000000000E+00  0.11587735515E+04  0.11587735515E+04  0.50400001928E-02 0. -1.
       -1   -1    0    0    0  501  0.00000000000E+00  0.00000000000E+00 -0.16880886079E+04  0.16880886079E+04  0.50400001928E-02 0.  1.
    10030    2    1    2    0    0  0.00000000000E+00  0.00000000000E+00 -0.52931505635E+03  0.28468621594E+04  0.27972217870E+04 0.  0.
        3    1    3    3  502    0 -0.28263751743E+03 -0.11057935493E+04 -0.10873649466E+04  0.15763964848E+04  0.10100000352E+00 0.  1.
       -3    1    3    3    0  502  0.28263751743E+03  0.11057935493E+04  0.55804989030E+03  0.12704656746E+04  0.10100000352E+00 0. -1.
</event>
<event>
 5   0  0.5282098E-07  0.2801779E+04  0.7818609E-02  0.8302716E-01
       -1   -1    0    0    0  501  0.00000000000E+00  0.00000000000E+00  0.11038160799E+04  0.11038160799E+04  0.50400001928E-02 0.  1.
        1   -1    0    0  501    0  0.00000000000E+00  0.00000000000E+00 -0.17779157805E+04  0.17779157805E+04  0.50400001928E-02 0. -1.
    10030    2    1    2    0    0  0.00000000000E+00  0.00000000000E+00 -0.67409970062E+03  0.28817318604E+04  0.28017794540E+04 0.  0.
        4    1    3    3  502    0 -0.20391070068E+03  0.13615673970E+04 -0.60336938692E+03  0.15031638568E+04  0.12699999809E+01 0.  1.
       -4    1    3    3    0  502  0.20391070068E+03 -0.13615673970E+04 -0.70730313701E+02  0.13785680036E+04  0.12699999809E+01 0. -1.
</event>
<event>
 5   0  0.1394410E-06  0.2799840E+04  0.7818609E-02  0.8303318E-01
        2   -1    0    0  501    0  0.00000000000E+00  0.00000000000E+00  0.28469993261E+04  0.28469993261E+04  0.25500000920E-02 0. -1.
       -2   -1    0    0    0  501  0.00000000000E+00  0.00000000000E+00 -0.68836562002E+03  0.68836562002E+03  0.25500000920E-02 0.  1.
    10030    2    1    2    0    0  0.00000000000E+00  0.00000000000E+00  0.21586337061E+04  0.35353649461E+04  0.27998403214E+04 0.  0.
        4    1    3    3  502    0 -0.64404874467E+03  0.74013957281E+03  0.23402308760E+04  0.25375751297E+04  0.12699999809E+01 0. -1.
       -4    1    3    3    0  502  0.64404874467E+03 -0.74013957281E+03 -0.18159716995E+03  0.99778981644E+03  0.12699999809E+01 0.  1.
</event>
<event>
 5   0  0.1377807E-06  0.2804542E+04  0.7818609E-02  0.8301860E-01
       -2   -1    0    0    0  501  0.00000000000E+00  0.00000000000E+00  0.11752585698E+04  0.11752585698E+04  0.25500000920E-02 0.  1.
        2   -1    0    0  501    0  0.00000000000E+00  0.00000000000E+00 -0.16731325743E+04  0.16731325743E+04  0.25500000920E-02 0. -1.
    10030    2    1    2    0    0  0.00000000000E+00  0.00000000000E+00 -0.49787400443E+03  0.28483911441E+04  0.28045415999E+04 0.  0.
        2    1    3    3  502    0 -0.10962458314E+04 -0.57689537922E+03 -0.91632617626E+03  0.15408493965E+04  0.25500000920E-02 0. -1.
       -2    1    3    3    0  502  0.10962458314E+04  0.57689537922E+03  0.41845217183E+03  0.13075417476E+04  0.25500000920E-02 0.  1.
</event>
<event>
 5   0  0.1439207E-06  0.2746234E+04  0.7818609E-02  0.8320158E-01
       -2   -1    0    0    0  501  0.00000000000E+00  0.00000000000E+00  0.10392028072E+04  0.10392028072E+04  0.25500000920E-02 0.  1.
        2   -1    0    0  501    0  0.00000000000E+00  0.00000000000E+00 -0.18143235020E+04  0.18143235020E+04  0.25500000920E-02 0. -1.
    10030    2    1    2    0    0  0.00000000000E+00  0.00000000000E+00 -0.77512069473E+03  0.28535263092E+04  0.27462338403E+04 0.  0.
        5    1    3    3  502    0  0.10500003709E+04 -0.84133025067E+03 -0.10282774174E+03  0.13494195064E+04  0.46999998093E+01 0.  1.
       -5    1    3    3    0  502 -0.10500003709E+04  0.84133025067E+03 -0.67229295299E+03  0.15041068028E+04  0.46999998093E+01 0. -1.
</event>
<event>
 5   0  0.1499888E-06  0.2799964E+04  0.7818609E-02  0.8303279E-01
        2   -1    0    0  501    0  0.00000000000E+00  0.00000000000E+00  0.26773889369E+04  0.26773889369E+04  0.25500000920E-02 0. -1.
       -2   -1    0    0    0  501  0.00000000000E+00  0.00000000000E+00 -0.73203794395E+03  0.73203794396E+03  0.25500000920E-02 0.  1.
    10030    2    1    2    0    0  0.00000000000E+00  0.00000000000E+00  0.19453509930E+04  0.34094268809E+04  0.27999644944E+04 0.  0.
        3    1    3    3  502    0  0.10226537461E+04 -0.27363983714E+03  0.20881887855E+04  0.23412030794E+04  0.10100000352E+00 0. -1.
       -3    1    3    3    0  502 -0.10226537461E+04  0.27363983714E+03 -0.14283779252E+03  0.10682238015E+04  0.10100000352E+00 0.  1.
</event>
<event>
 5   0  0.1461146E-06  0.2801655E+04  0.7818609E-02  0.8302755E-01
        2   -1    0    0  501    0  0.00000000000E+00  0.00000000000E+00  0.19157579338E+04  0.19157579338E+04  0.25500000920E-02 0. -1.
       -2   -1    0    0    0  501  0.00000000000E+00  0.00000000000E+00 -0.10243037662E+04  0.10243037662E+04  0.25500000920E-02 0.  1.
    10030    2    1    2    0    0  0.00000000000E+00  0.00000000000E+00  0.89145416763E+03  0.29400617001E+04  0.28016552727E+04 0.  0.
        1    1    3    3  502    0 -0.22765619245E+02  0.13952123336E+04  0.57503081835E+03  0.15092369500E+04  0.50400001928E-02 0.  1.
       -1    1    3    3    0  502  0.22765619245E+02 -0.13952123336E+04  0.31642334927E+03  0.14308247500E+04  0.50400001928E-02 0. -1.
</event>
<event>
 5   0  0.5551565E-07  0.2801216E+04  0.7818609E-02  0.8302891E-01
        1   -1    0    0  501    0  0.00000000000E+00  0.00000000000E+00  0.17402055050E+04  0.17402055050E+04  0.50400001928E-02 0. -1.
       -1   -1    0    0    0  501  0.00000000000E+00  0.00000000000E+00 -0.11272825798E+04  0.11272825798E+04  0.50400001928E-02 0.  1.
    10030    2    1    2    0    0  0.00000000000E+00  0.00000000000E+00  0.61292292516E+03  0.28674880848E+04  0.28012164151E+04 0.  0.
        3    1    3    3  502    0 -0.80200662574E+03 -0.89658789193E+03 -0.42787959513E+03  0.12767793207E+04  0.10100000352E+00 0. -1.
       -3    1    3    3    0  502  0.80200662574E+03  0.89658789193E+03  0.10408025203E+04  0.15907087641E+04  0.10100000352E+00 0.  1.
</event>
<event>
 5   0  0.5551565E-07  0.2779963E+04  0.7818609E-02  0.8309516E-01
       -1   -1    0    0    0  501  0.00000000000E+00  0.00000000000E+00  0.83589568919E+03  0.83589568920E+03  0.50400001928E-02 0. -1.
        1   -1    0    0  501    0  0.00000000000E+00  0.00000000000E+00 -0.23113509160E+04  0.23113509161E+04  0.50400001928E-02 0.  1.
    10030    2    1    2    0    0  0.00000000000E+00  0.00000000000E+00 -0.14754552269E+04  0.31472466053E+04  0.27799627817E+04 0.  0.
        3    1    3    3  502    0 -0.35444475826E+03 -0.13432349993E+04 -0.68539353411E+03  0.15490886536E+04  0.10100000352E+00 0.  1.
       -3    1    3    3    0  502  0.35444475826E+03  0.13432349993E+04 -0.79006169275E+03  0.15981579517E+04  0.10100000352E+00 0. -1.
</event>
<event>
 5   0  0.1439207E-06  0.2807536E+04  0.7818609E-02  0.8300933E-01
        2   -1    0    0  501    0  0.00000000000E+00  0.00000000000E+00  0.15874742580E+04  0.15874742580E+04  0.25500000920E-02 0. -1.
       -2   -1    0    0    0  501  0.00000000000E+00  0.00000000000E+00 -0.12413204428E+04  0.12413204428E+04  0.25500000920E-02 0.  1.
    10030    2    1    2    0    0  0.00000000000E+00  0.00000000000E+00  0.34615381518E+03  0.28287947007E+04  0.28075357514E+04 0.  0.
        5    1    3    3  502    0  0.66646913467E+03 -0.28416931346E+03 -0.10383620454E+04  0.12661560463E+04  0.46999998093E+01 0.  1.
       -5    1    3    3    0  502 -0.66646913467E+03  0.28416931346E+03  0.13845158606E+04  0.15626386545E+04  0.46999998093E+01 0. -1.
</event>
<event>
 5   0  0.5282098E-07  0.2805634E+04  0.7818609E-02  0.8301521E-01
       -1   -1    0    0    0  501  0.00000000000E+00  0.00000000000E+00  0.19263616922E+04  0.19263616922E+04  0.50400001928E-02 0. -1.
        1   -1    0    0  501    0  0.00000000000E+00  0.00000000000E+00 -0.10215609532E+04  0.10215609532E+04  0.50400001928E-02 0.  1.
    10030    2    1    2    0    0  0.00000000000E+00  0.00000000000E+00  0.90480073907E+03  0.29479226454E+04  0.28056342502E+04 0.  0.
        4    1    3    3  502    0  0.12777742108E+04  0.31004360896E+03 -0.61334162520E+02  0.13162816818E+04  0.12699999809E+01 0.  1.
       -4    1    3    3    0  502 -0.12777742108E+04 -0.31004360896E+03  0.96613490159E+03  0.16316409637E+04  0.12699999809E+01 0. -1.
</event>
<event>
 5   0  0.1461146E-06  0.2813818E+04  0.7818609E-02  0.8298991E-01
       -2   -1    0    0    0  501  0.00000000000E+00  0.00000000000E+00  0.17269019389E+04  0.17269019389E+04  0.25500000920E-02 0.  1.
        2   -1    0    0  501    0  0.00000000000E+00  0.00000000000E+00 -0.11462105701E+04  0.11462105701E+04  0.25500000920E-02 0. -1.
    10030    2    1    2    0    0  0.00000000000E+00  0.00000000000E+00  0.58069136883E+03  0.28731125090E+04  0.28138182286E+04 0.  0.
        1    1    3    3  502    0  0.77770203301E+03  0.38661740840E+03  0.14205119132E+04  0.16649767470E+04  0.50400001928E-02 0.  1.
       -1    1    3    3    0  502 -0.77770203301E+03 -0.38661740840E+03 -0.83982054437E+03  0.12081357620E+04  0.50400001928E-02 0. -1.
</event>
<event>
 5   0  0.1499888E-06  0.2798641E+04  0.7818609E-02  0.8303690E-01
       -2   -1    0    0    0  501  0.00000000000E+00  0.00000000000E+00  0.11183555664E+04  0.11183555664E+04  0.25500000920E-02 0. -1.
        2   -1    0    0  501    0  0.00000000000E+00  0.00000000000E+00 -0.17508726513E+04  0.17508726513E+04  0.25500000920E-02 0.  1.
    10030    2    1    2    0    0  0.00000000000E+00  0.00000000000E+00 -0.63251708488E+03  0.28692282177E+04  0.27986412244E+04 0.  0.
        3    1    3    3  502    0 -0.46898596584E+03 -0.87718788149E+03  0.69278676422E+03  0.12121715747E+04  0.10100000352E+00 0. -1.
       -3    1    3    3    0  502  0.46898596584E+03  0.87718788149E+03 -0.13253038491E+04  0.16570566430E+04  0.10100000352E+00 0.  1.
</event>
<event>
 5   0  0.5551565E-07  0.2785365E+04  0.7818609E-02  0.8307826E-01
        1   -1    0    0  501    0  0.00000000000E+00  0.00000000000E+00  0.14313149012E+04  0.14313149012E+04  0.50400001928E-02 0. -1.
       -1   -1    0    0    0  501  0.00000000000E+00  0.00000000000E+00 -0.13550932858E+04  0.13550932858E+04  0.50400001928E-02 0.  1.
    10030    2    1    2    0    0  0.00000000000E+00  0.00000000000E+00  0.76221615413E+02  0.27864081870E+04  0.27853654787E+04 0.  0.
        3    1    3    3  502    0  0.13516605881E+03 -0.13618487471E+04  0.29639988877E+03  0.14002695375E+04  0.10100000352E+00 0. -1.
       -3    1    3    3    0  502 -0.13516605881E+03  0.13618487471E+04 -0.22017827335E+03  0.13861386495E+04  0.10100000352E+00 0.  1.
</event>
<event>
 5   0  0.1499888E-06  0.2796371E+04  0.7818609E-02  0.8304396E-01
        2   -1    0    0  501    0  0.00000000000E+00  0.00000000000E+00  0.68532002956E+03  0.68532002956E+03  0.25500000920E-02 0. -1.
       -2   -1    0    0    0  501  0.00000000000E+00  0.00000000000E+00 -0.28525682892E+04  0.28525682892E+04  0.25500000920E-02 0.  1.
    10030    2    1    2    0    0  0.00000000000E+00  0.00000000000E+00 -0.21672482596E+04  0.35378883188E+04  0.27963706366E+04 0.  0.
        3    1    3    3  502    0 -0.12858549688E+04  0.23020359857E+03 -0.17143161965E+04  0.21552950446E+04  0.10100000352E+00 0.  1.
       -3    1    3    3    0  502  0.12858549688E+04 -0.23020359857E+03 -0.45293206317E+03  0.13825932741E+04  0.10100000352E+00 0. -1.
</event>
<event>
 5   0  0.1461146E-06  0.2791279E+04  0.7818609E-02  0.8305981E-01
       -2   -1    0    0    0  501  0.00000000000E+00  0.00000000000E+00  0.89093880161E+03  0.89093880162E+03  0.25500000920E-02 0.  1.
        2   -1    0    0  501    0  0.00000000000E+00  0.00000000000E+00 -0.21862443834E+04  0.21862443834E+04  0.25500000920E-02 0. -1.
    10030    2    1    2    0    0  0.00000000000E+00  0.00000000000E+00 -0.12953055818E+04  0.30771831850E+04  0.27912792415E+04 0.  0.
        1    1    3    3  502    0 -0.36351940857E+03  0.52643262927E+03 -0.20150773348E+04  0.21141935434E+04  0.50400001928E-02 0. -1.
       -1    1    3    3    0  502  0.36351940857E+03 -0.52643262927E+03  0.71977175298E+03  0.96298964168E+03  0.50400001928E-02 0.  1.
</event>
<event>
 5   0  0.5214658E-07  0.2803448E+04  0.7818609E-02  0.8302199E-01
       -1   -1    0    0    0  501  0.00000000000E+00  0.00000000000E+00  0.11030487324E+04  0.11030487324E+04  0.50400001928E-02 0.  1.
        1   -1    0    0  501    0  0.00000000000E+00  0.00000000000E+00 -0.17812719473E+04  0.17812719474E+04  0.50400001928E-02 0. -1.
    10030    2    1    2    0    0  0.00000000000E+00  0.00000000000E+00 -0.67822321492E+03  0.28843206798E+04  0.28034477086E+04 0.  0.
        2    1    3    3  502    0 -0.42666417840E+03 -0.26464402773E+02 -0.17125701171E+04  0.17651173025E+04  0.25500000920E-02 0. -1.
       -2    1    3    3    0  502  0.42666417840E+03  0.26464402773E+02  0.10343469021E+04  0.11192033773E+04  0.25500000920E-02 0.  1.
</event>
<event>
 5   0  0.1394410E-06  0.2797545E+04  0.7818609E-02  0.8304031E-01
        2   -1    0    0  501    0  0.00000000000E+00  0.00000000000E+00  0.13718481056E+04  0.13718481056E+04  0.25500000920E-02 0.  1.
       -2   -1    0    0    0  501  0.00000000000E+00  0.00000000000E+00 -0.14262250958E+04  0.14262250958E+04  0.25500000920E-02 0. -1.
    10030    2    1    2    0    0  0.00000000000E+00  0.00000000000E+00 -0.54376990137E+02  0.27980732014E+04  0.27975447777E+04 0.  0.
        4    1    3    3  502    0  0.35670158727E+02  0.34629998479E+03 -0.13822013982E+04  0.14253695513E+04  0.12699999809E+01 0. -1.
       -4    1    3    3    0  502 -0.35670158727E+02 -0.34629998479E+03  0.13278244080E+04  0.13727036501E+04  0.12699999809E+01 0.  1.
</event>
<event>
 5   0  0.1377807E-06  0.2800868E+04  0.7818609E-02  0.8302999E-01
        2   -1    0    0  501    0  0.00000000000E+00  0.00000000000E+00  0.15095513699E+04  0.15095513699E+04  0.25500000920E-02 0. -1.
       -2   -1    0    0    0  501  0.00000000000E+00  0.00000000000E+00 -0.12992040763E+04  0.12992040763E+04  0.25500000920E-02 0.  1.
    10030    2    1    2    0    0  0.00000000000E+00  0.00000000000E+00  0.21034729359E+03  0.28087554463E+04  0.28008679321E+04 0.  0.
        2    1    3    3  502    0  0.65374775327E+02 -0.31956655709E+03  0.14709262061E+04  0.15066587369E+04  0.25500000920E-02 0. -1.
       -2    1    3    3    0  502 -0.65374775327E+02  0.31956655709E+03 -0.12605789125E+04  0.13020967093E+04  0.25500000920E-02 0.  1.
</event>
<event>
 5   0  0.5551565E-07  0.2771455E+04  0.7818609E-02  0.8312186E-01
       -1   -1    0    0    0  501  0.00000000000E+00  0.00000000000E+00  0.79915749005E+03  0.79915749007E+03  0.50400001928E-02 0. -1.
        1   -1    0    0  501    0  0.00000000000E+00  0.00000000000E+00 -0.24028316179E+04  0.24028316179E+04  0.50400001928E-02 0.  1.
    10030    2    1    2    0    0  0.00000000000E+00  0.00000000000E+00 -0.16036741279E+04  0.32019891080E+04  0.27714551303E+04 0.  0.
        3    1    3    3  502    0  0.64974274396E+03  0.99201544007E+03 -0.16301326849E+04  0.20158355209E+04  0.10100000352E+00 0.  1.
       -3    1    3    3    0  502 -0.64974274396E+03 -0.99201544007E+03  0.26458557087E+02  0.11861535871E+04  0.10100000352E+00 0. -1.
</event>
<event>
 5   0  0.5282098E-07  0.2804433E+04  0.7818609E-02  0.8301893E-01
        1   -1    0    0  501    0  0.00000000000E+00  0.00000000000E+00  0.22889070451E+04  0.22889070452E+04  0.50400001928E-02 0.  1.
       -1   -1    0    0    0  501  0.00000000000E+00  0.00000000000E+00 -0.85901748892E+03  0.85901748893E+03  0.50400001928E-02 0. -1.
    10030    2    1    2    0    0  0.00000000000E+00  0.00000000000E+00  0.14298895562E+04  0.31479245341E+04  0.28044330495E+04 0.  0.
        4    1    3    3  502    0 -0.12565293071E+04 -0.62235316367E+03  0.71999088634E+03  0.15762543733E+04  0.12699999809E+01 0. -1.
       -4    1    3    3    0  502  0.12565293071E+04  0.62235316367E+03  0.70989866989E+03  0.15716701608E+04  0.12699999809E+01 0.  1.
</event>
<event>
 5   0  0.5297741E-07  0.2798144E+04  0.7818609E-02  0.8303845E-01
       -1   -1    0    0    0  501  0.00000000000E+00  0.00000000000E+00  0.14820540729E+04  0.14820540729E+04  0.50400001928E-02 0. -1.
        1   -1    0    0  501    0  0.00000000000E+00  0.00000000000E+00 -0.13207362877E+04  0.13207362877E+04  0.50400001928E-02 0.  1.
    10030    2    1    2    0    0  0.00000000000E+00  0.00000000000E+00  0.16131778516E+03  0.28027903606E+04  0.27981440953E+04 0.  0.
        5    1    3    3  502    0  0.41358999671E+03  0.43758338946E+01 -0.12580874787E+04  0.13243421112E+04  0.46999998093E+01 0.  1.
       -5    1    3    3    0  502 -0.41358999671E+03 -0.43758338946E+01  0.14194052639E+04  0.14784482495E+04  0.46999998093E+01 0. -1.
</event>
<event>
 5   0  0.5282098E-07  0.2798823E+04  0.7818609E-02  0.8303634E-01
        1   -1    0    0  501    0  0.00000000000E+00  0.00000000000E+00  0.25191883153E+04  0.25191883153E+04  0.50400001928E-02 0. -1.
       -1   -1    0    0    0  501  0.00000000000E+00  0.00000000000E+00 -0.77737453119E+03  0.77737453121E+03  0.50400001928E-02 0.  1.
    10030    2    1    2    0    0  0.00000000000E+00  0.00000000000E+00  0.17418137841E+04  0.32965628465E+04  0.27988232067E+04 0.  0.
        4    1    3    3  502    0  0.12261500733E+04 -0.44729452794E+03  0.14654937182E+04  0.19624448649E+04  0.12699999809E+01 0. -1.
       -4    1    3    3    0  502 -0.12261500733E+04  0.44729452794E+03  0.27632006589E+03  0.13341179815E+04  0.12699999809E+01 0.  1.
</event>
<event>
 5   0  0.5362952E-07  0.2800671E+04  0.7818609E-02  0.8303060E-01
        1   -1    0    0  501    0  0.00000000000E+00  0.00000000000E+00  0.14521056619E+04  0.14521056619E+04  0.50400001928E-02 0.  1.
       -1   -1    0    0    0  501  0.00000000000E+00  0.00000000000E+00 -0.13504111296E+04  0.13504111296E+04  0.50400001928E-02 0. -1.
    10030    2    1    2    0    0  0.00000000000E+00  0.00000000000E+00  0.10169453229E+03  0.28025167916E+04  0.28006710962E+04 0.  0.
        1    1    3    3  502    0 -0.86961877405E+02 -0.48333975466E+02  0.14485645120E+04  0.14519771647E+04  0.50400001928E-02 0.  1.
       -1    1    3    3    0  502  0.86961877405E+02  0.48333975466E+02 -0.13468699798E+04  0.13505396268E+04  0.50400001928E-02 0. -1.
</event>
<event>
 5   0  0.1439207E-06  0.2799030E+04  0.7818609E-02  0.8303569E-01
       -2   -1    0    0    0  501  0.00000000000E+00  0.00000000000E+00  0.23664227908E+04  0.23664227908E+04  0.25500000920E-02 0.  1.
        2   -1    0    0  501    0  0.00000000000E+00  0.00000000000E+00 -0.82768080383E+03  0.82768080383E+03  0.25500000920E-02 0. -1.
    10030    2    1    2    0    0  0.00000000000E+00  0.00000000000E+00  0.15387419870E+04  0.31941035946E+04  0.27990303447E+04 0.  0.
        5    1    3    3  502    0 -0.29460375758E+03  0.92412420811E+03 -0.38190028654E+03  0.10424331369E+04  0.46999998093E+01 0. -1.
       -5    1    3    3    0  502  0.29460375758E+03 -0.92412420811E+03  0.19206422735E+04  0.21516704578E+04  0.46999998093E+01 0.  1.
</event>
<event>
 5   0  0.5282098E-07  0.2804501E+04  0.7818609E-02  0.8301872E-01
        1   -1    0    0  501    0  0.00000000000E+00  0.00000000000E+00  0.23907709491E+04  0.23907709491E+04  0.50400001928E-02 0. -1.
       -1   -1    0    0    0  501  0.00000000000E+00  0.00000000000E+00 -0.82245697030E+03  0.82245697031E+03  0.50400001928E-02 0.  1.
    10030    2    1    2    0    0  0.00000000000E+00  0.00000000000E+00  0.15683139788E+04  0.32132279194E+04  0.28045008337E+04 0.  0.
        4    1    3    3  502    0 -0.65814266532E+03 -0.47001584747E+03 -0.52832168554E+03  0.96601867534E+03  0.12699999809E+01 0.  1.
       -4    1    3    3    0  502  0.65814266532E+03  0.47001584747E+03  0.20966356643E+04  0.22472092441E+04  0.12699999809E+01 0. -1.
</event>
<event>
 5   0  0.5214658E-07  0.2797337E+04  0.7818609E-02  0.8304095E-01
       -1   -1    0    0    0  501  0.00000000000E+00  0.00000000000E+00  0.13272355536E+04  0.13272355536E+04  0.50400001928E-02 0. -1.
        1   -1    0    0  501    0  0.00000000000E+00  0.00000000000E+00 -0.14739463491E+04  0.14739463491E+04  0.50400001928E-02 0.  1.
    10030    2    1    2    0    0  0.00000000000E+00  0.00000000000E+00 -0.14671079546E+03  0.28011819028E+04  0.27973373044E+04 0.  0.
        2    1    3    3  502    0  0.19736887905E+03  0.40229136895E+02  0.13126354225E+04  0.13280002297E+04  0.25500000920E-02 0. -1.
       -2    1    3    3    0  502 -0.19736887905E+03 -0.40229136895E+02 -0.14593462179E+04  0.14731816730E+04  0.25500000920E-02 0.  1.
</event>
<event>
 5   0  0.1499888E-06  0.2798947E+04  0.7818609E-02  0.8303595E-01
       -2   -1    0    0    0  501  0.00000000000E+00  0.00000000000E+00  0.17465682019E+04  0.17465682019E+04  0.25500000920E-02 0.  1.
        2   -1    0    0  501    0  0.00000000000E+00  0.00000000000E+00 -0.11213570784E+04  0.11213570784E+04  0.25500000920E-02 0. -1.
    10030    2    1    2    0    0  0.00000000000E+00  0.00000000000E+00  0.62521112345E+03  0.28679252803E+04  0.27989473851E+04 0.  0.
        3    1    3    3  502    0 -0.97507010429E+03  0.31619396963E+03  0.12888642295E+04  0.16467881913E+04  0.10100000352E+00 0.  1.
       -3    1    3    3    0  502  0.97507010429E+03 -0.31619396963E+03 -0.66365310608E+03  0.12211370890E+04  0.10100000352E+00 0. -1.
</event>
<event>
 5   0  0.1499888E-06  0.2794252E+04  0.7818609E-02  0.8305055E-01
       -2   -1    0    0    0  501  0.00000000000E+00  0.00000000000E+00  0.91222711232E+03  0.91222711233E+03  0.25500000920E-02 0.  1.
        2   -1    0    0  501    0  0.00000000000E+00  0.00000000000E+00 -0.21397745837E+04  0.21397745837E+04  0.25500000920E-02 0. -1.
    10030    2    1    2    0    0  0.00000000000E+00  0.00000000000E+00 -0.12275474714E+04  0.30520016960E+04  0.27942515202E+04 0.  0.
        3    1    3    3  502    0  0.82690986628E+03 -0.10442237430E+04 -0.15324435915E+03  0.13407710454E+04  0.10100000352E+00 0.  1.
       -3    1    3    3    0  502 -0.82690986628E+03  0.10442237430E+04 -0.10743031122E+04  0.17112306506E+04  0.10100000352E+00 0. -1.
</event>
<event>
 5   0  0.5297741E-07  0.2861143E+04  0.7818609E-02  0.8284533E-01
       -1   -1    0    0    0  501  0.00000000000E+00  0.00000000000E+00  0.14679426267E+04  0.14679426267E+04  0.50400001928E-02 0.  1.
        1   -1    0    0  501    0  0.00000000000E+00  0.00000000000E+00 -0.13941515092E+04  0.13941515092E+04  0.50400001928E-02 0. -1.
    10030    2    1    2    0    0  0.00000000000E+00  0.00000000000E+00  0.73791117426E+02  0.28620941359E+04  0.28611427287E+04 0.  0.
        5    1    3    3  502    0  0.14136702142E+03 -0.84527776111E+03 -0.11089255130E+04  0.14015052663E+04  0.46999998093E+01 0. -1.
       -5    1    3    3    0  502 -0.14136702142E+03  0.84527776111E+03  0.11827166304E+04  0.14605888696E+04  0.46999998093E+01 0.  1.
</event>
<event>
 5   0  0.1439207E-06  0.2799716E+04  0.7818609E-02  0.8303357E-01
        2   -1    0    0  501    0  0.00000000000E+00  0.00000000000E+00  0.22092244036E+04  0.22092244036E+04  0.25500000920E-02 0.  1.
       -2   -1    0    0    0  501  0.00000000000E+00  0.00000000000E+00 -0.88700903148E+03  0.88700903148E+03  0.25500000920E-02 0. -1.
    10030    2    1    2    0    0  0.00000000000E+00  0.00000000000E+00  0.13222153721E+04  0.30962334351E+04  0.27997156988E+04 0.  0.
        5    1    3    3  502    0 -0.92759582944E+03 -0.10447343515E+04  0.75799966547E+03  0.15894934636E+04  0.46999998093E+01 0.  1.
       -5    1    3    3    0  502  0.92759582944E+03  0.10447343515E+04  0.56421570666E+03  0.15067399715E+04  0.46999998093E+01 0. -1.
</event>
<event>
 5   0  0.1499888E-06  0.2798866E+04  0.7818609E-02  0.8303621E-01
        2   -1    0    0  501    0  0.00000000000E+00  0.00000000000E+00  0.17014681004E+04  0.17014681004E+04  0.25500000920E-02 0. -1.
       -2   -1    0    0    0  501  0.00000000000E+00  0.00000000000E+00 -0.11510130831E+04  0.11510130831E+04  0.25500000920E-02 0.  1.
    10030    2    1    2    0    0  0.00000000000E+00  0.00000000000E+00  0.55045501734E+03  0.28524811835E+04  0.27988655159E+04 0.  0.
        3    1    3    3  502    0  0.31953432697E+03 -0.96086016063E+03  0.12596805027E+04  0.16162145320E+04  0.10100000352E+00 0. -1.
       -3    1    3    3    0  502 -0.31953432697E+03  0.96086016063E+03 -0.70922548533E+03  0.12362666515E+04  0.10100000352E+00 0.  1.
</event>
<event>
 5   0  0.5551565E-07  0.2798044E+04  0.7818609E-02  0.8303876E-01
        1   -1    0    0  501    0  0.00000000000E+00  0.00000000000E+00  0.20673703613E+04  0.20673703613E+04  0.50400001928E-02 0. -1.
       -1   -1    0    0    0  501  0.00000000000E+00  0.00000000000E+00 -0.94673989694E+03  0.94673989695E+03  0.50400001928E-02 0.  1.
    10030    2    1    2    0    0  0.00000000000E+00  0.00000000000E+00  0.11206304644E+04  0.30141102582E+04  0.27980436042E+04 0.  0.
        3    1    3    3  502    0  0.98859253669E+03 -0.13251264607E+03  0.16170830356E+04  0.18999558835E+04  0.10100000352E+00 0. -1.
       -3    1    3    3    0  502 -0.98859253669E+03  0.13251264607E+03 -0.49645257129E+03  0.11141543747E+04  0.10100000352E+00 0.  1.
</event>
<event>
 5   0  0.5551565E-07  0.2796096E+04  0.7818609E-02  0.8304481E-01
       -1   -1    0    0    0  501  0.00000000000E+00  0.00000000000E+00  0.23917540789E+04  0.23917540789E+04  0.50400001928E-02 0. -1.
        1   -1    0    0  501    0  0.00000000000E+00  0.00000000000E+00 -0.81719868425E+03  0.81719868426E+03  0.50400001928E-02 0.  1.
    10030    2    1    2    0    0  0.00000000000E+00  0.00000000000E+00  0.15745553947E+04  0.32089527632E+04  0.27960960544E+04 0.  0.
        3    1    3    3  502    0 -0.94811912549E+02 -0.13886401087E+04  0.63664336991E+03  0.15305637657E+04  0.10100000352E+00 0. -1.
       -3    1    3    3    0  502  0.94811912549E+02  0.13886401087E+04  0.93791202478E+03  0.16783889975E+04  0.10100000352E+00 0.  1.
</event>
<event>
 5   0  0.5282098E-07  0.2801126E+04  0.7818609E-02  0.8302919E-01
       -1   -1    0    0    0  501  0.00000000000E+00  0.00000000000E+00  0.11395027841E+04  0.11395027841E+04  0.50400001928E-02 0.  1.
        1   -1    0    0  501    0  0.00000000000E+00  0.00000000000E+00 -0.17214315468E+04  0.17214315468E+04  0.50400001928E-02 0. -1.
    10030    2    1    2    0    0  0.00000000000E+00  0.00000000000E+00 -0.58192876270E+03  0.28609343309E+04  0.28011255168E+04 0.  0.
        4    1    3    3  502    0 -0.45317984985E+03  0.28151310133E+02 -0.16441725101E+04  0.17057166612E+04  0.12699999809E+01 0. -1.
       -4    1    3    3    0  502  0.45317984985E+03 -0.28151310133E+02  0.10622437474E+04  0.11552176697E+04  0.12699999809E+01 0.  1.
</event>
<event>
 5   0  0.1461146E-06  0.2795933E+04  0.7818609E-02  0.8304532E-01
        2   -1    0    0  501    0  0.00000000000E+00  0.00000000000E+00  0.13768516086E+04  0.13768516086E+04  0.25500000920E-02 0.  1.
       -2   -1    0    0    0  501  0.00000000000E+00  0.00000000000E+00 -0.14194052963E+04  0.14194052963E+04  0.25500000920E-02 0. -1.
    10030    2    1    2    0    0  0.00000000000E+00  0.00000000000E+00 -0.42553687732E+02  0.27962569049E+04  0.27959330932E+04 0.  0.
        1    1    3    3  502    0 -0.13164677698E+04 -0.18639776818E+03  0.41060525261E+03  0.13915560321E+04  0.50400001928E-02 0. -1.
       -1    1    3    3    0  502  0.13164677698E+04  0.18639776818E+03 -0.45315894034E+03  0.14047008728E+04  0.50400001928E-02 0.  1.
</event>
<event>
 5   0  0.4710000E-07  0.2800590E+04  0.7818609E-02  0.8303085E-01
       -4   -1    0    0    0  501  0.00000000000E+00  0.00000000000E+00  0.12855560747E+04  0.12855567020E+04  0.12699999809E+01 0. -1.
        4   -1    0    0  501    0  0.00000000000E+00  0.00000000000E+00 -0.15252729476E+04  0.15252734763E+04  0.12699999809E+01 0.  1.
    10030    2    1    2    0    0  0.00000000000E+00  0.00000000000E+00 -0.23971687287E+03  0.28108301783E+04  0.28005896008E+04 0.  0.
        5    1    3    3  502    0 -0.39283366116E+02 -0.63112046310E+03 -0.13738056207E+04  0.15123558428E+04  0.46999998093E+01 0.  1.
       -5    1    3    3    0  502  0.39283366116E+02  0.63112046310E+03  0.11340887479E+04  0.12984743355E+04  0.46999998093E+01 0. -1.
</event>
<event>
 5   0  0.1377807E-06  0.2802573E+04  0.7818609E-02  0.8302470E-01
        2   -1    0    0  501    0  0.00000000000E+00  0.00000000000E+00  0.12170207755E+04  0.12170207755E+04  0.25500000920E-02 0.  1.
       -2   -1    0    0    0  501  0.00000000000E+00  0.00000000000E+00 -0.16134514895E+04  0.16134514895E+04  0.25500000920E-02 0. -1.
    10030    2    1    2    0    0  0.00000000000E+00  0.00000000000E+00 -0.39643071397E+03  0.28304722650E+04  0.28025730912E+04 0.  0.
        2    1    3    3  502    0  0.79582833970E+03 -0.50850430486E+03 -0.12437428384E+04  0.15616707791E+04  0.25500000920E-02 0. -1.
       -2    1    3    3    0  502 -0.79582833970E+03  0.50850430486E+03  0.84731212440E+03  0.12688014859E+04  0.25500000920E-02 0.  1.
</event>
<event>
 5   0  0.1499888E-06  0.2802349E+04  0.7818609E-02  0.8302540E-01
        2   -1    0    0  501    0  0.00000000000E+00  0.00000000000E+00  0.20084519178E+04  0.20084519178E+04  0.25500000920E-02 0. -1.
       -2   -1    0    0    0  501  0.00000000000E+00  0.00000000000E+00 -0.97751380526E+03  0.97751380526E+03  0.25500000920E-02 0.  1.
    10030    2    1    2    0    0  0.00000000000E+00  0.00000000000E+00  0.10309381125E+04  0.29859657230E+04  0.28023486413E+04 0.  0.
        3    1    3    3  502    0 -0.91655060795E+03 -0.79052499610E+03  0.12676213397E+04  0.17526718624E+04  0.10100000352E+00 0. -1.
       -3    1    3    3    0  502  0.91655060795E+03  0.79052499610E+03 -0.23668322714E+03  0.12332938606E+04  0.10100000352E+00 0.  1.
</event>
<event>
 5   0  0.5282098E-07  0.2803502E+04  0.7818609E-02  0.8302182E-01
        1   -1    0    0  501    0  0.00000000000E+00  0.00000000000E+00  0.17140691924E+04  0.17140691924E+04  0.50400001928E-02 0. -1.
       -1   -1    0    0    0  501  0.00000000000E+00  0.00000000000E+00 -0.11463399121E+04  0.11463399121E+04  0.50400001928E-02 0.  1.
    10030    2    1    2    0    0  0.00000000000E+00  0.00000000000E+00  0.56772928029E+03  0.28604091046E+04  0.28035020438E+04 0.  0.
        4    1    3    3  502    0 -0.60967386079E+03 -0.59898888291E+03 -0.84972995655E+03  0.12052105668E+04  0.12699999809E+01 0.  1.
       -4    1    3    3    0  502  0.60967386079E+03  0.59898888291E+03  0.14174592368E+04  0.16551985378E+04  0.12699999809E+01 0. -1.
</event>
<event>
 5   0  0.5362952E-07  0.2799271E+04  0.7818609E-02  0.8303495E-01
        1   -1    0    0  501    0  0.00000000000E+00  0.00000000000E+00  0.13341962406E+04  0.13341962406E+04  0.50400001928E-02 0. -1.
       -1   -1    0    0    0  501  0.00000000000E+00  0.00000000000E+00 -0.14682841952E+04  0.14682841952E+04  0.50400001928E-02 0.  1.
    10030    2    1    2    0    0  0.00000000000E+00  0.00000000000E+00 -0.13408795453E+03  0.28024804358E+04  0.27992708003E+04 0.  0.
        1    1    3    3  502    0  0.25367708318E+03  0.43879118178E+03 -0.13731813930E+04  0.14637338904E+04  0.50400001928E-02 0.  1.
       -1    1    3    3    0  502 -0.25367708318E+03 -0.43879118178E+03  0.12390934385E+04  0.13387465455E+04  0.50400001928E-02 0. -1.
</event>
<event>
 5   0  0.1499888E-06  0.2816047E+04  0.7818609E-02  0.8298304E-01
        2   -1    0    0  501    0  0.00000000000E+00  0.00000000000E+00  0.12522111505E+04  0.12522111505E+04  0.25500000920E-02 0.  1.
       -2   -1    0    0    0  501  0.00000000000E+00  0.00000000000E+00 -0.15832240930E+04  0.15832240930E+04  0.25500000920E-02 0. -1.
    10030    2    1    2    0    0  0.00000000000E+00  0.00000000000E+00 -0.33101294246E+03  0.28354352435E+04  0.28160474875E+04 0.  0.
        3    1    3    3  502    0  0.43703552335E+03  0.12258468910E+03 -0.15075383408E+04  0.15743884253E+04  0.10100000352E+00 0. -1.
       -3    1    3    3    0  502 -0.43703552335E+03 -0.12258468910E+03  0.11765253983E+04  0.12610468182E+04  0.10100000352E+00 0.  1.
</event>
<event>
 5   0  0.1439207E-06  0.2800152E+04  0.7818609E-02  0.8303221E-01
       -2   -1    0    0    0  501  0.00000000000E+00  0.00000000000E+00  0.75929754662E+03  0.75929754662E+03  0.25500000920E-02 0. -1.
        2   -1    0    0  501    0  0.00000000000E+00  0.00000000000E+00 -0.25816143450E+04  0.25816143450E+04  0.25500000920E-02 0.  1.
    10030    2    1    2    0    0  0.00000000000E+00  0.00000000000E+00 -0.18223167984E+04  0.33409118916E+04  0.28001524519E+04 0.  0.
        5    1    3    3  502    0 -0.98295072830E+03 -0.99141317098E+03 -0.78546051035E+03  0.16018934151E+04  0.46999998093E+01 0. -1.
       -5    1    3    3    0  502  0.98295072830E+03  0.99141317098E+03 -0.10368562880E+04  0.17390184766E+04  0.46999998093E+01 0.  1.
</event>
<event>
 5   0  0.5551565E-07  0.2836868E+04  0.7818609E-02  0.8291913E-01
       -1   -1    0    0    0  501  0.00000000000E+00  0.00000000000E+00  0.22204828509E+04  0.22204828509E+04  0.50400001928E-02 0.  1.
        1   -1    0    0  501    0  0.00000000000E+00  0.00000000000E+00 -0.90608907528E+03  0.90608907529E+03  0.50400001928E-02 0. -1.
    10030    2    1    2    0    0  0.00000000000E+00  0.00000000000E+00  0.13143937757E+04  0.31265719262E+04  0.28368681697E+04 0.  0.
        3    1    3    3  502    0 -0.72537648851E+03 -0.98122923598E+03  0.14542165968E+04  0.18983486993E+04  0.10100000352E+00 0.  1.
       -3    1    3    3    0  502  0.72537648851E+03  0.98122923598E+03 -0.13982282113E+03  0.12282232269E+04  0.10100000352E+00 0. -1.
</event>
<event>
 5   0  0.5282098E-07  0.2795464E+04  0.7818609E-02  0.8304678E-01
        1   -1    0    0  501    0  0.00000000000E+00  0.00000000000E+00  0.18934884421E+04  0.18934884422E+04  0.50400001928E-02 0. -1.
       -1   -1    0    0    0  501  0.00000000000E+00  0.00000000000E+00 -0.10317752892E+04  0.10317752893E+04  0.50400001928E-02 0.  1.
    10030    2    1    2    0    0  0.00000000000E+00  0.00000000000E+00  0.86171315290E+03  0.29252637314E+04  0.27954638864E+04 0.  0.
        4    1    3    3  502    0  0.11955816090E+04  0.94267831662E+02 -0.32035586370E+03  0.12413425394E+04  0.12699999809E+01 0.  1.
       -4    1    3    3    0  502 -0.11955816090E+04 -0.94267831662E+02  0.11820690166E+04  0.16839211920E+04  0.12699999809E+01 0. -1.
</event>
<event>
 5   0  0.5214658E-07  0.2798201E+04  0.7818609E-02  0.8303827E-01
       -1   -1    0    0    0  501  0.00000000000E+00  0.00000000000E+00  0.94716747306E+03  0.94716747307E+03  0.50400001928E-02 0.  1.
        1   -1    0    0  501    0  0.00000000000E+00  0.00000000000E+00 -0.20666701014E+04  0.20666701014E+04  0.50400001928E-02 0. -1.
    10030    2    1    2    0    0  0.00000000000E+00  0.00000000000E+00 -0.11195026284E+04  0.30138375745E+04  0.27982013492E+04 0.  0.
        2    1    3    3  502    0  0.10874551695E+04  0.83031203858E+03 -0.87469930931E+03  0.16239075432E+04  0.25500000920E-02 0.  1.
       -2    1    3    3    0  502 -0.10874551695E+04 -0.83031203858E+03 -0.24480331905E+03  0.13899300313E+04  0.25500000920E-02 0. -1.
</event>
<event>
 5   0  0.1394410E-06  0.2798183E+04  0.7818609E-02  0.8303833E-01
       -2   -1    0    0    0  501  0.00000000000E+00  0.00000000000E+00  0.86505238354E+03  0.86505238355E+03  0.25500000920E-02 0.  1.
        2   -1    0    0  501    0  0.00000000000E+00  0.00000000000E+00 -0.22628192176E+04  0.22628192176E+04  0.25500000920E-02 0. -1.
    10030    2    1    2    0    0  0.00000000000E+00  0.00000000000E+00 -0.13977668341E+04  0.31278716011E+04  0.27981830946E+04 0.  0.
        4    1    3    3  502    0  0.42071887408E+03  0.24079266107E+03 -0.21659459655E+04  0.22195290075E+04  0.12699999809E+01 0. -1.
       -4    1    3    3    0  502 -0.42071887408E+03 -0.24079266107E+03  0.76817913143E+03  0.90834259369E+03  0.12699999809E+01 0.  1.
</event>
<event>
 5   0  0.5297741E-07  0.2805474E+04  0.7818609E-02  0.8301571E-01
        1   -1    0    0  501    0  0.00000000000E+00  0.00000000000E+00  0.16754580922E+04  0.16754580922E+04  0.50400001928E-02 0. -1.
       -1   -1    0    0    0  501  0.00000000000E+00  0.00000000000E+00 -0.11744074226E+04  0.11744074226E+04  0.50400001928E-02 0.  1.
    10030    2    1    2    0    0  0.00000000000E+00  0.00000000000E+00  0.50105066963E+03  0.28498655148E+04  0.28054735213E+04 0.  0.
        5    1    3    3  502    0  0.89904459815E+03 -0.44986589477E+03  0.12442621889E+04  0.15996471478E+04  0.46999998093E+01 0. -1.
       -5    1    3    3    0  502 -0.89904459815E+03  0.44986589477E+03 -0.74321151930E+03  0.12502183670E+04  0.46999998093E+01 0.  1.
</event>
<event>
 5   0  0.1439207E-06  0.2794805E+04  0.7818609E-02  0.8304883E-01
        2   -1    0    0  501    0  0.00000000000E+00  0.00000000000E+00  0.15860548706E+04  0.15860548706E+04  0.25500000920E-02 0.  1.
       -2   -1    0    0    0  501  0.00000000000E+00  0.00000000000E+00 -0.12311889972E+04  0.12311889972E+04  0.25500000920E-02 0. -1.
    10030    2    1    2    0    0  0.00000000000E+00  0.00000000000E+00  0.35486587336E+03  0.28172438679E+04  0.27948046842E+04 0.  0.
        5    1    3    3  502    0 -0.29751543884E+03 -0.80830188928E+03  0.12866512910E+04  0.15483413755E+04  0.46999998093E+01 0.  1.
       -5    1    3    3    0  502  0.29751543884E+03  0.80830188928E+03 -0.93178541762E+03  0.12689024923E+04  0.46999998093E+01 0. -1.
</event>
<event>
 5   0  0.5214658E-07  0.2800525E+04  0.7818609E-02  0.8303106E-01
        1   -1    0    0  501    0  0.00000000000E+00  0.00000000000E+00  0.18056787795E+04  0.18056787795E+04  0.50400001928E-02 0.  1.
       -1   -1    0    0    0  501  0.00000000000E+00  0.00000000000E+00 -0.10858711373E+04  0.10858711373E+04  0.50400001928E-02 0. -1.
    10030    2    1    2    0    0  0.00000000000E+00  0.00000000000E+00  0.71980764220E+03  0.28915499169E+04  0.28005245723E+04 0.  0.
        2    1    3    3  502    0 -0.74497368874E+03 -0.30887687059E+03  0.15418125155E+04  0.17399932618E+04  0.25500000920E-02 0.  1.
       -2    1    3    3    0  502  0.74497368874E+03  0.30887687059E+03 -0.82200487331E+03  0.11515566551E+04  0.25500000920E-02 0. -1.
</event>
<event>
 5   0  0.1461146E-06  0.2801079E+04  0.7818609E-02  0.8302933E-01
        2   -1    0    0  501    0  0.00000000000E+00  0.00000000000E+00  0.11205744572E+04  0.11205744572E+04  0.25500000920E-02 0. -1.
       -2   -1    0    0    0  501  0.00000000000E+00  0.00000000000E+00 -0.17504516483E+04  0.17504516483E+04  0.25500000920E-02 0.  1.
    10030    2    1    2    0    0  0.00000000000E+00  0.00000000000E+00 -0.62987719109E+03  0.28710261055E+04  0.28010793674E+04 0.  0.
        1    1    3    3  502    0  0.20568101599E+03  0.83850548337E+03 -0.14452525764E+04  0.16834937290E+04  0.50400001928E-02 0.  1.
       -1    1    3    3    0  502 -0.20568101599E+03 -0.83850548337E+03  0.81537538535E+03  0.11875323764E+04  0.50400001928E-02 0. -1.
</event>
<event>
 5   0  0.5297741E-07  0.2801001E+04  0.7818609E-02  0.8302958E-01
       -1   -1    0    0    0  501  0.00000000000E+00  0.00000000000E+00  0.14138858359E+04  0.14138858359E+04  0.50400001928E-02 0.  1.
        1   -1    0    0  501    0  0.00000000000E+00  0.00000000000E+00 -0.13872421792E+04  0.13872421792E+04  0.50400001928E-02 0. -1.
    10030    2    1    2    0    0  0.00000000000E+00  0.00000000000E+00  0.26643656718E+02  0.28011280152E+04  0.28010012983E+04 0.  0.
        5    1    3    3  502    0  0.85340365862E+03 -0.59667640628E+03 -0.92323505605E+03  0.13916557035E+04  0.46999998093E+01 0. -1.
       -5    1    3    3    0  502 -0.85340365862E+03  0.59667640628E+03  0.94987871277E+03  0.14094723117E+04  0.46999998093E+01 0.  1.
</event>
<event>
 5   0  0.5214658E-07  0.2799509E+04  0.7818609E-02  0.8303421E-01
        1   -1    0    0  501    0  0.00000000000E+00  0.00000000000E+00  0.18321737792E+04  0.18321737792E+04  0.50400001928E-02 0.  1.
       -1   -1    0    0    0  501  0.00000000000E+00  0.00000000000E+00 -0.10693926711E+04  0.10693926711E+04  0.50400001928E-02 0. -1.
    10030    2    1    2    0    0  0.00000000000E+00  0.00000000000E+00  0.76278110815E+03  0.29015664503E+04  0.27995093939E+04 0.  0.
        2    1    3    3  502    0 -0.12026630521E+04  0.31164030759E+03  0.10497195172E+04  0.16264775323E+04  0.25500000920E-02 0. -1.
       -2    1    3    3    0  502  0.12026630521E+04 -0.31164030759E+03 -0.28693840903E+03  0.12750889180E+04  0.25500000920E-02 0.  1.
</event>
<event>
 5   0  0.1377807E-06  0.2801506E+04  0.7818609E-02  0.8302801E-01
        2   -1    0    0  501    0  0.00000000000E+00  0.00000000000E+00  0.14752443763E+04  0.14752443763E+04  0.25500000920E-02 0.  1.
       -2   -1    0    0    0  501  0.00000000000E+00  0.00000000000E+00 -0.13300230798E+04  0.13300230798E+04  0.25500000920E-02 0. -1.
    10030    2    1    2    0    0  0.00000000000E+00  0.00000000000E+00  0.14522129655E+03  0.28052674561E+04  0.28015060727E+04 0.  0.
        2    1    3    3  502    0 -0.62689392527E+03  0.12708548385E+03  0.13204629069E+04  0.14672317479E+04  0.25500000920E-02 0.  1.
       -2    1    3    3    0  502  0.62689392527E+03 -0.12708548385E+03 -0.11752416103E+04  0.13380357082E+04  0.25500000920E-02 0. -1.
</event>
<event>
 5   0  0.1377807E-06  0.2811429E+04  0.7818609E-02  0.8299729E-01
       -2   -1    0    0    0  501  0.00000000000E+00  0.00000000000E+00  0.10559035484E+04  0.10559035484E+04  0.25500000920E-02 0.  1.
        2   -1    0    0  501    0  0.00000000000E+00  0.00000000000E+00 -0.18714144547E+04  0.18714144547E+04  0.25500000920E-02 0. -1.
    10030    2    1    2    0    0  0.00000000000E+00  0.00000000000E+00 -0.81551090626E+03  0.29273180031E+04  0.28114289343E+04 0.  0.
        2    1    3    3  502    0 -0.10061305990E+04  0.13427751730E+03  0.60480366828E+03  0.11815738280E+04  0.25500000920E-02 0.  1.
       -2    1    3    3    0  502  0.10061305990E+04 -0.13427751730E+03 -0.14203145745E+04  0.17457441750E+04  0.25500000920E-02 0. -1.
</event>
<event>
 5   0  0.1394410E-06  0.2800477E+04  0.7818609E-02  0.8303120E-01
       -2   -1    0    0    0  501  0.00000000000E+00  0.00000000000E+00  0.18215265131E+04  0.18215265131E+04  0.25500000920E-02 0. -1.
        2   -1    0    0  501    0  0.00000000000E+00  0.00000000000E+00 -0.10763870300E+04  0.10763870300E+04  0.25500000920E-02 0.  1.
    10030    2    1    2    0    0  0.00000000000E+00  0.00000000000E+00  0.74513948310E+03  0.28979135432E+04  0.28004767548E+04 0.  0.
        4    1    3    3  502    0 -0.64761059748E+03 -0.61469332907E+03  0.14887168536E+04  0.17359512832E+04  0.12699999809E+01 0. -1.
       -4    1    3    3    0  502  0.64761059748E+03  0.61469332907E+03 -0.74357737045E+03  0.11619622599E+04  0.12699999809E+01 0.  1.
</event>
<event>
 5   0  0.1377807E-06  0.2802753E+04  0.7818609E-02  0.8302414E-01
       -2   -1    0    0    0  501  0.00000000000E+00  0.00000000000E+00  0.94690980389E+03  0.94690980389E+03  0.25500000920E-02 0. -1.
        2   -1    0    0  501    0  0.00000000000E+00  0.00000000000E+00 -0.20739636737E+04  0.20739636737E+04  0.25500000920E-02 0.  1.
    10030    2    1    2    0    0  0.00000000000E+00  0.00000000000E+00 -0.11270538699E+04  0.30208734776E+04  0.28027533146E+04 0.  0.
        2    1    3    3  502    0  0.87932132292E+03  0.10902045078E+04 -0.51407987429E+03  0.14919885974E+04  0.25500000920E-02 0.  1.
       -2    1    3    3    0  502 -0.87932132292E+03 -0.10902045078E+04 -0.61297399557E+03  0.15288848802E+04  0.25500000920E-02 0. -1.
</event>
<event>
 5   0  0.1377807E-06  0.2799244E+04  0.7818609E-02  0.8303503E-01
        2   -1    0    0  501    0  0.00000000000E+00  0.00000000000E+00  0.17514584420E+04  0.17514584420E+04  0.25500000920E-02 0. -1.
       -2   -1    0    0    0  501  0.00000000000E+00  0.00000000000E+00 -0.11184632400E+04  0.11184632400E+04  0.25500000920E-02 0.  1.
    10030    2    1    2    0    0  0.00000000000E+00  0.00000000000E+00  0.63299520208E+03  0.28699216820E+04  0.27992441006E+04 0.  0.
        2    1    3    3  502    0  0.39126015407E+03  0.99601839521E+03 -0.60839089814E+03  0.12309657334E+04  0.25500000920E-02 0.  1.
       -2    1    3    3    0  502 -0.39126015407E+03 -0.99601839521E+03  0.12413861002E+04  0.16389559486E+04  0.25500000920E-02 0. -1.
</event>
<event>
 5   0  0.1499888E-06  0.2782742E+04  0.7818609E-02  0.8308647E-01
        2   -1    0    0  501    0  0.00000000000E+00  0.00000000000E+00  0.20023700751E+04  0.20023700751E+04  0.25500000920E-02 0.  1.
       -2   -1    0    0    0  501  0.00000000000E+00  0.00000000000E+00 -0.96681062217E+03  0.96681062217E+03  0.25500000920E-02 0. -1.
    10030    2    1    2    0    0  0.00000000000E+00  0.00000000000E+00  0.10355594529E+04  0.29691806973E+04  0.27827415677E+04 0.  0.
        3    1    3    3  502    0  0.63326283160E+03 -0.77720446529E+03 -0.51166306622E+03  0.11255521748E+04  0.10100000352E+00 0. -1.
       -3    1    3    3    0  502 -0.63326283160E+03  0.77720446529E+03  0.15472225192E+04  0.18436285224E+04  0.10100000352E+00 0.  1.
</event>
<event>
 5   0  0.5282098E-07  0.2799366E+04  0.7818609E-02  0.8303465E-01
        1   -1    0    0  501    0  0.00000000000E+00  0.00000000000E+00  0.17222412803E+04  0.17222412803E+04  0.50400001928E-02 0.  1.
       -1   -1    0    0    0  501  0.00000000000E+00  0.00000000000E+00 -0.11375364481E+04  0.11375364481E+04  0.50400001928E-02 0. -1.
    10030    2    1    2    0    0  0.00000000000E+00  0.00000000000E+00  0.58470483215E+03  0.28597777284E+04  0.27993658059E+04 0.  0.
        4    1    3    3  502    0 -0.56525120451E+03 -0.45321746744E+03  0.15157759262E+04  0.16800277582E+04  0.12699999809E+01 0.  1.
       -4    1    3    3    0  502  0.56525120451E+03  0.45321746744E+03 -0.93107109408E+03  0.11797499702E+04  0.12699999809E+01 0. -1.
</event>
<event>
 5   0  0.5362952E-07  0.2790560E+04  0.7818609E-02  0.8306205E-01
       -1   -1    0    0    0  501  0.00000000000E+00  0.00000000000E+00  0.27455733696E+04  0.27455733696E+04  0.50400001928E-02 0.  1.
        1   -1    0    0  501    0  0.00000000000E+00  0.00000000000E+00 -0.70907115786E+03  0.70907115788E+03  0.50400001928E-02 0. -1.
    10030    2    1    2    0    0  0.00000000000E+00  0.00000000000E+00  0.20365022117E+04  0.34546445275E+04  0.27905604371E+04 0.  0.
        1    1    3    3  502    0 -0.73903361085E+03  0.43399542078E+03  0.23813085327E+04  0.25308403804E+04  0.50400001928E-02 0.  1.
       -1    1    3    3    0  502  0.73903361085E+03 -0.43399542078E+03 -0.34480632093E+03  0.92380414710E+03  0.50400001928E-02 0. -1.
</event>
<event>
 5   0  0.5551565E-07  0.2796985E+04  0.7818609E-02  0.8304205E-01
       -1   -1    0    0    0  501  0.00000000000E+00  0.00000000000E+00  0.85204046336E+03  0.85204046337E+03  0.50400001928E-02 0.  1.
        1   -1    0    0  501    0  0.00000000000E+00  0.00000000000E+00 -0.22954088505E+04  0.22954088505E+04  0.50400001928E-02 0. -1.
    10030    2    1    2    0    0  0.00000000000E+00  0.00000000000E+00 -0.14433683871E+04  0.31474493139E+04  0.27969849629E+04 0.  0.
        3    1    3    3  502    0 -0.12667066083E+04  0.53135256591E+03 -0.42630607643E+03  0.14382691201E+04  0.10100000352E+00 0. -1.
       -3    1    3    3    0  502  0.12667066083E+04 -0.53135256591E+03 -0.10170623107E+04  0.17091801938E+04  0.10100000352E+00 0.  1.
</event>
<event>
 5   0  0.5214658E-07  0.2792341E+04  0.7818609E-02  0.8305650E-01
       -1   -1    0    0    0  501  0.00000000000E+00  0.00000000000E+00  0.24022843994E+04  0.24022843994E+04  0.50400001928E-02 0.  1.
        1   -1    0    0  501    0  0.00000000000E+00  0.00000000000E+00 -0.81143281112E+03  0.81143281114E+03  0.50400001928E-02 0. -1.
    10030    2    1    2    0    0  0.00000000000E+00  0.00000000000E+00  0.15908515883E+04  0.32137172105E+04  0.27923412280E+04 0.  0.
        2    1    3    3  502    0 -0.11198386043E+04  0.61895530673E+03  0.14384385608E+04  0.19251622437E+04  0.25500000920E-02 0.  1.
       -2    1    3    3    0  502  0.11198386043E+04 -0.61895530673E+03  0.15241302747E+03  0.12885549668E+04  0.25500000920E-02 0. -1.
</event>
<event>
 5   0  0.5551565E-07  0.2798288E+04  0.7818609E-02  0.8303800E-01
       -1   -1    0    0    0  501  0.00000000000E+00  0.00000000000E+00  0.12607750469E+04  0.12607750469E+04  0.50400001928E-02 0.  1.
        1   -1    0    0  501    0  0.00000000000E+00  0.00000000000E+00 -0.15526987579E+04  0.15526987579E+04  0.50400001928E-02 0. -1.
    10030    2    1    2    0    0  0.00000000000E+00  0.00000000000E+00 -0.29192371101E+03  0.28134738048E+04  0.27982879404E+04 0.  0.
        3    1    3    3  502    0  0.54978557405E+03 -0.65796206991E+03  0.96567180561E+03  0.12913947147E+04  0.10100000352E+00 0.  1.
       -3    1    3    3    0  502 -0.54978557405E+03  0.65796206991E+03 -0.12575955166E+04  0.15220790901E+04  0.10100000352E+00 0. -1.
</event>
<event>
 5   0  0.1394410E-06  0.2805313E+04  0.7818609E-02  0.8301621E-01
       -2   -1    0    0    0  501  0.00000000000E+00  0.00000000000E+00  0.15551227466E+04  0.15551227466E+04  0.25500000920E-02 0.  1.
        2   -1    0    0  501    0  0.00000000000E+00  0.00000000000E+00 -0.12651378482E+04  0.12651378482E+04  0.25500000920E-02 0. -1.
    10030    2    1    2    0    0  0.00000000000E+00  0.00000000000E+00  0.28998489835E+03  0.28202605948E+04  0.28053125639E+04 0.  0.
        4    1    3    3  502    0 -0.12633550555E+04  0.45142389919E+03 -0.26657078119E+03  0.13678125337E+04  0.12699999809E+01 0. -1.
       -4    1    3    3    0  502  0.12633550555E+04 -0.45142389919E+03  0.55655567954E+03  0.14524480611E+04  0.12699999809E+01 0.  1.
</event>
<event>
 5   0  0.1394410E-06  0.2799682E+04  0.7818609E-02  0.8303367E-01
       -2   -1    0    0    0  501  0.00000000000E+00  0.00000000000E+00  0.17289042270E+04  0.17289042270E+04  0.25500000920E-02 0.  1.
        2   -1    0    0  501    0  0.00000000000E+00  0.00000000000E+00 -0.11334084647E+04  0.11334084647E+04  0.25500000920E-02 0. -1.
    10030    2    1    2    0    0  0.00000000000E+00  0.00000000000E+00  0.59549576225E+03  0.28623126917E+04  0.27996819002E+04 0.  0.
        4    1    3    3  502    0 -0.76430869086E+02 -0.11276243404E+04 -0.54666763382E+03  0.12554781741E+04  0.12699999809E+01 0. -1.
       -4    1    3    3    0  502  0.76430869086E+02  0.11276243404E+04  0.11421633961E+04  0.16068345176E+04  0.12699999809E+01 0.  1.
</event>
<event>
 5   0  0.1377807E-06  0.2803648E+04  0.7818609E-02  0.8302137E-01
       -2   -1    0    0    0  501  0.00000000000E+00  0.00000000000E+00  0.94128850876E+03  0.94128850876E+03  0.25500000920E-02 0.  1.
        2   -1    0    0  501    0  0.00000000000E+00  0.00000000000E+00 -0.20876808463E+04  0.20876808463E+04  0.25500000920E-02 0. -1.
    10030    2    1    2    0    0  0.00000000000E+00  0.00000000000E+00 -0.11463923375E+04  0.30289693550E+04  0.28036476173E+04 0.  0.
        2    1    3    3  502    0  0.10850331743E+03  0.13669331005E+04 -0.25853109624E+03  0.13953914858E+04  0.25500000920E-02 0.  1.
       -2    1    3    3    0  502 -0.10850331743E+03 -0.13669331005E+04 -0.88786124128E+03  0.16335778692E+04  0.25500000920E-02 0. -1.
</event>
<event>
 5   0  0.4710000E-07  0.2800288E+04  0.7818609E-02  0.8303179E-01
        3   -1    0    0  501    0  0.00000000000E+00  0.00000000000E+00  0.18683203713E+04  0.18683203740E+04  0.10100000352E+00 0. -1.
       -3   -1    0    0    0  501  0.00000000000E+00  0.00000000000E+00 -0.10492861493E+04  0.10492861542E+04  0.10100000352E+00 0.  1.
    10030    2    1    2    0    0  0.00000000000E+00  0.00000000000E+00  0.81903422200E+03  0.29176065282E+04  0.28002876275E+04 0.  0.
        1    1    3    3  502    0 -0.22016894497E+03  0.12348929478E+04 -0.23861190138E+03  0.12768596619E+04  0.50400001928E-02 0.  1.
       -1    1    3    3    0  502  0.22016894497E+03 -0.12348929478E+04  0.10576461234E+04  0.16407468662E+04  0.50400001928E-02 0. -1.
</event>
<event>
 5   0  0.5282098E-07  0.2801513E+04  0.7818609E-02  0.8302799E-01
        1   -1    0    0  501    0  0.00000000000E+00  0.00000000000E+00  0.11181483628E+04  0.11181483628E+04  0.50400001928E-02 0. -1.
       -1   -1    0    0    0  501  0.00000000000E+00  0.00000000000E+00 -0.17547929283E+04  0.17547929283E+04  0.50400001928E-02 0.  1.
    10030    2    1    2    0    0  0.00000000000E+00  0.00000000000E+00 -0.63664456550E+03  0.28729412911E+04  0.28015130482E+04 0.  0.
        4    1    3    3  502    0 -0.51129596888E+02  0.81968098967E+03 -0.14819899877E+04  0.16943397230E+04  0.12699999809E+01 0.  1.
       -4    1    3    3    0  502  0.51129596888E+02 -0.81968098967E+03  0.84534542222E+03  0.11786015681E+04  0.12699999809E+01 0. -1.
</event>
<event>
 5   0  0.5551565E-07  0.2805129E+04  0.7818609E-02  0.8301678E-01
        1   -1    0    0  501    0  0.00000000000E+00  0.00000000000E+00  0.13015749321E+04  0.13015749321E+04  0.50400001928E-02 0. -1.
       -1   -1    0    0    0  501  0.00000000000E+00  0.00000000000E+00 -0.15113895135E+04  0.15113895135E+04  0.50400001928E-02 0.  1.
    10030    2    1    2    0    0  0.00000000000E+00  0.00000000000E+00 -0.20981458134E+03  0.28129644456E+04  0.28051286626E+04 0.  0.
        3    1    3    3  502    0  0.61612455420E+03  0.92461530562E+03 -0.96325610866E+03  0.14705051074E+04  0.10100000352E+00 0.  1.
       -3    1    3    3    0  502 -0.61612455420E+03 -0.92461530562E+03  0.75344152732E+03  0.13424593383E+04  0.10100000352E+00 0. -1.
</event>
<event>
 5   0  0.5282098E-07  0.2782427E+04  0.7818609E-02  0.8308745E-01
        1   -1    0    0  501    0  0.00000000000E+00  0.00000000000E+00  0.29178998684E+04  0.29178998684E+04  0.50400001928E-02 0.  1.
       -1   -1    0    0    0  501  0.00000000000E+00  0.00000000000E+00 -0.66331115243E+03  0.66331115244E+03  0.50400001928E-02 0. -1.
    10030    2    1    2    0    0  0.00000000000E+00  0.00000000000E+00  0.22545887160E+04  0.35812110208E+04  0.27824273751E+04 0.  0.
        4    1    3    3  502    0  0.14392776125E+03  0.10568531110E+04  0.22769256921E+04  0.25143678965E+04  0.12699999809E+01 0.  1.
       -4    1    3    3    0  502 -0.14392776125E+03 -0.10568531110E+04 -0.22336976120E+02  0.10668431244E+04  0.12699999809E+01 0. -1.
</event>
<event>
 5   0  0.5282098E-07  0.2796757E+04  0.7818609E-02  0.8304276E-01
        1   -1    0    0  501    0  0.00000000000E+00  0.00000000000E+00  0.17001526302E+04  0.17001526302E+04  0.50400001928E-02 0. -1.
       -1   -1    0    0    0  501  0.00000000000E+00  0.00000000000E+00 -0.11501683828E+04  0.11501683829E+04  0.50400001928E-02 0.  1.
    10030    2    1    2    0    0  0.00000000000E+00  0.00000000000E+00  0.54998424737E+03  0.28503210131E+04  0.27967565509E+04 0.  0.
        4    1    3    3  502    0  0.65149914313E+03  0.10939095790E+04 -0.31433080675E+03  0.13114475855E+04  0.12699999809E+01 0.  1.
       -4    1    3    3    0  502 -0.65149914313E+03 -0.10939095790E+04  0.86431505411E+03  0.15388734276E+04  0.12699999809E+01 0. -1.
</event>
<event>
 5   0  0.1461146E-06  0.2799455E+04  0.7818609E-02  0.8303437E-01
        2   -1    0    0  501    0  0.00000000000E+00  0.00000000000E+00  0.25112924343E+04  0.25112924343E+04  0.25500000920E-02 0.  1.
       -2   -1    0    0    0  501  0.00000000000E+00  0.00000000000E+00 -0.78017106199E+03  0.78017106199E+03  0.25500000920E-02 0. -1.
    10030    2    1    2    0    0  0.00000000000E+00  0.00000000000E+00  0.17311213723E+04  0.32914634963E+04  0.27994554366E+04 0.  0.
        1    1    3    3  502    0  0.73939398466E+03  0.84709993013E+03 -0.11459286271E+03  0.11302270924E+04  0.50400001928E-02 0. -1.
       -1    1    3    3    0  502 -0.73939398466E+03 -0.84709993013E+03  0.18457142350E+04  0.21612364039E+04  0.50400001928E-02 0.  1.
</event>
<event>
 5   0  0.1377807E-06  0.2803948E+04  0.7818609E-02  0.8302044E-01
       -2   -1    0    0    0  501  0.00000000000E+00  0.00000000000E+00  0.15028408044E+04  0.15028408044E+04  0.25500000920E-02 0.  1.
        2   -1    0    0  501    0  0.00000000000E+00  0.00000000000E+00 -0.13078775271E+04  0.13078775271E+04  0.25500000920E-02 0. -1.
    10030    2    1    2    0    0  0.00000000000E+00  0.00000000000E+00  0.19496327730E+03  0.28107183315E+04  0.28039484409E+04 0.  0.
        2    1    3    3  502    0  0.75600725957E+03 -0.11450074730E+04  0.38617459702E+03  0.14253841268E+04  0.25500000920E-02 0.  1.
       -2    1    3    3    0  502 -0.75600725957E+03  0.11450074730E+04 -0.19121131972E+03  0.13853342046E+04  0.25500000920E-02 0. -1.
</event>
<event>
 5   0  0.1499888E-06  0.2800450E+04  0.7818609E-02  0.8303129E-01
       -2   -1    0    0    0  501  0.00000000000E+00  0.00000000000E+00  0.10734951806E+04  0.10734951806E+04  0.25500000920E-02 0.  1.
        2   -1    0    0  501    0  0.00000000000E+00  0.00000000000E+00 -0.18263987557E+04  0.18263987557E+04  0.25500000920E-02 0. -1.
    10030    2    1    2    0    0  0.00000000000E+00  0.00000000000E+00 -0.75290357508E+03  0.28998939363E+04  0.28004501510E+04 0.  0.
        3    1    3    3  502    0 -0.57776303169E+02  0.29981978981E+03 -0.17915056562E+04  0.18173394108E+04  0.10100000352E+00 0. -1.
       -3    1    3    3    0  502  0.57776303169E+02 -0.29981978981E+03  0.10386020811E+04  0.10825545255E+04  0.10100000352E+00 0.  1.
</event>
<event>
 5   0  0.1439207E-06  0.2799977E+04  0.7818609E-02  0.8303276E-01
        2   -1    0    0  501    0  0.00000000000E+00  0.00000000000E+00  0.22343021351E+04  0.22343021351E+04  0.25500000920E-02 0.  1.
       -2   -1    0    0    0  501  0.00000000000E+00  0.00000000000E+00 -0.87721691185E+03  0.87721691185E+03  0.25500000920E-02 0. -1.
    10030    2    1    2    0    0  0.00000000000E+00  0.00000000000E+00  0.13570852232E+04  0.31115190469E+04  0.27999768707E+04 0.  0.
        5    1    3    3  502    0 -0.13438271336E+04  0.18989074021E+03  0.29678486375E+03  0.13892563491E+04  0.46999998093E+01 0. -1.
       -5    1    3    3    0  502  0.13438271336E+04 -0.18989074021E+03  0.10603003595E+04  0.17222626978E+04  0.46999998093E+01 0.  1.
</event>
<event>
 5   0  0.5297741E-07  0.2798721E+04  0.7818609E-02  0.8303665E-01
       -1   -1    0    0    0  501  0.00000000000E+00  0.00000000000E+00  0.10176470574E+04  0.10176470574E+04  0.50400001928E-02 0.  1.
        1   -1    0    0  501    0  0.00000000000E+00  0.00000000000E+00 -0.19242526543E+04  0.19242526543E+04  0.50400001928E-02 0. -1.
    10030    2    1    2    0    0  0.00000000000E+00  0.00000000000E+00 -0.90660559694E+03  0.29418997117E+04  0.27987211732E+04 0.  0.
        5    1    3    3  502    0 -0.12225824208E+04 -0.46736119860E+03 -0.97365675207E+03  0.16313073979E+04  0.46999998093E+01 0.  1.
       -5    1    3    3    0  502  0.12225824208E+04  0.46736119860E+03  0.67051155132E+02  0.13105923138E+04  0.46999998093E+01 0. -1.
</event>
<event>
 5   0  0.5214658E-07  0.2788283E+04  0.7818609E-02  0.8306915E-01
       -1   -1    0    0    0  501  0.00000000000E+00  0.00000000000E+00  0.10251144441E+04  0.10251144441E+04  0.50400001928E-02 0. -1.
        1   -1    0    0  501    0  0.00000000000E+00  0.00000000000E+00 -0.18960132968E+04  0.18960132968E+04  0.50400001928E-02 0.  1.
    10030    2    1    2    0    0  0.00000000000E+00  0.00000000000E+00 -0.87089885265E+03  0.29211277409E+04  0.27882830680E+04 0.  0.
        2    1    3    3  502    0  0.10405104745E+04  0.86147750586E+03 -0.74315958593E+02  0.13528963014E+04  0.25500000920E-02 0. -1.
       -2    1    3    3    0  502 -0.10405104745E+04 -0.86147750586E+03 -0.79658289406E+03  0.15682314395E+04  0.25500000920E-02 0.  1.
</event>
<event>
 5   0  0.5297741E-07  0.2798208E+04  0.7818609E-02  0.8303825E-01
        1   -1    0    0  501    0  0.00000000000E+00  0.00000000000E+00  0.17067236547E+04  0.17067236547E+04  0.50400001928E-02 0.  1.
       -1   -1    0    0    0  501  0.00000000000E+00  0.00000000000E+00 -0.11469296557E+04  0.11469296557E+04  0.50400001928E-02 0. -1.
    10030    2    1    2    0    0  0.00000000000E+00  0.00000000000E+00  0.55979399904E+03  0.28536533104E+04  0.27982079792E+04 0.  0.
        5    1    3    3  502    0  0.13233437092E+04  0.23209706110E+03  0.67796743995E+03  0.15049151332E+04  0.46999998093E+01 0. -1.
       -5    1    3    3    0  502 -0.13233437092E+04 -0.23209706110E+03 -0.11817344091E+03  0.13487381772E+04  0.46999998093E+01 0.  1.
</event>
<event>
 5   0  0.1377807E-06  0.2798838E+04  0.7818609E-02  0.8303629E-01
       -2   -1    0    0    0  501  0.00000000000E+00  0.00000000000E+00  0.74387764129E+03  0.74387764129E+03  0.25500000920E-02 0.  1.
        2   -1    0    0  501    0  0.00000000000E+00  0.00000000000E+00 -0.26326549059E+04  0.26326549059E+04  0.25500000920E-02 0. -1.
    10030    2    1    2    0    0  0.00000000000E+00  0.00000000000E+00 -0.18887772646E+04  0.33765325472E+04  0.27988377029E+04 0.  0.
        2    1    3    3  502    0 -0.28522417859E+03  0.23599704416E+03  0.68373369036E+03  0.77752118701E+03  0.25500000920E-02 0.  1.
       -2    1    3    3    0  502  0.28522417859E+03 -0.23599704416E+03 -0.25725109550E+04  0.25990113602E+04  0.25500000920E-02 0. -1.
</event>
<event>
 5   0  0.1461146E-06  0.2806924E+04  0.7818609E-02  0.8301122E-01
        2   -1    0    0  501    0  0.00000000000E+00  0.00000000000E+00  0.22682262353E+04  0.22682262353E+04  0.25500000920E-02 0. -1.
       -2   -1    0    0    0  501  0.00000000000E+00  0.00000000000E+00 -0.86839046149E+03  0.86839046149E+03  0.25500000920E-02 0.  1.
    10030    2    1    2    0    0  0.00000000000E+00  0.00000000000E+00  0.13998357738E+04  0.31366166967E+04  0.28069243148E+04 0.  0.
        1    1    3    3  502    0  0.17976155917E+02  0.29819565030E+03  0.22322858223E+04  0.22521864444E+04  0.50400001928E-02 0. -1.
       -1    1    3    3    0  502 -0.17976155917E+02 -0.29819565030E+03 -0.83245004848E+03  0.88443025236E+03  0.50400001928E-02 0.  1.
</event>
<event>
 5   0  0.1461146E-06  0.2805473E+04  0.7818609E-02  0.8301571E-01
        2   -1    0    0  501    0  0.00000000000E+00  0.00000000000E+00  0.13328082871E+04  0.13328082871E+04  0.25500000920E-02 0. -1.
       -2   -1    0    0    0  501  0.00000000000E+00  0.00000000000E+00 -0.14763335252E+04  0.14763335252E+04  0.25500000920E-02 0.  1.
    10030    2    1    2    0    0  0.00000000000E+00  0.00000000000E+00 -0.14352523804E+03  0.28091418123E+04  0.28054729062E+04 0.  0.
        1    1    3    3  502    0  0.64787249763E+03 -0.89799177831E+03 -0.93401684243E+03  0.14486253722E+04  0.50400001928E-02 0.  1.
       -1    1    3    3    0  502 -0.64787249763E+03  0.89799177831E+03  0.79049160439E+03  0.13605164401E+04  0.50400001928E-02 0. -1.
</event>
<event>
 5   0  0.1499888E-06  0.2800373E+04  0.7818609E-02  0.8303153E-01
       -2   -1    0    0    0  501  0.00000000000E+00  0.00000000000E+00  0.12394559956E+04  0.12394559956E+04  0.25500000920E-02 0.  1.
        2   -1    0    0  501    0  0.00000000000E+00  0.00000000000E+00 -0.15817600332E+04  0.15817600332E+04  0.25500000920E-02 0. -1.
    10030    2    1    2    0    0  0.00000000000E+00  0.00000000000E+00 -0.34230403764E+03  0.28212160288E+04  0.28003728014E+04 0.  0.
        3    1    3    3  502    0  0.98433071269E+03 -0.96600871591E+03 -0.41469947849E+03  0.14401581367E+04  0.10100000352E+00 0.  1.
       -3    1    3    3    0  502 -0.98433071269E+03  0.96600871591E+03  0.72395440851E+02  0.13810578921E+04  0.10100000352E+00 0. -1.
</event>
<event>
 5   0  0.5282098E-07  0.2802020E+04  0.7818609E-02  0.8302641E-01
       -1   -1    0    0    0  501  0.00000000000E+00  0.00000000000E+00  0.11819818478E+04  0.11819818478E+04  0.50400001928E-02 0. -1.
        1   -1    0    0  501    0  0.00000000000E+00  0.00000000000E+00 -0.16606254828E+04  0.16606254828E+04  0.50400001928E-02 0.  1.
    10030    2    1    2    0    0  0.00000000000E+00  0.00000000000E+00 -0.47864363503E+03  0.28426073306E+04  0.28020201117E+04 0.  0.
        4    1    3    3  502    0  0.32987327899E+03 -0.10082178458E+04 -0.11677324275E+04  0.15776312116E+04  0.12699999809E+01 0.  1.
       -4    1    3    3    0  502 -0.32987327899E+03  0.10082178458E+04  0.68908879245E+03  0.12649761190E+04  0.12699999809E+01 0. -1.
</event>
<event>
 5   0  0.1499888E-06  0.2801093E+04  0.7818609E-02  0.8302929E-01
       -2   -1    0    0    0  501  0.00000000000E+00  0.00000000000E+00  0.23021162125E+04  0.23021162125E+04  0.25500000920E-02 0.  1.
        2   -1    0    0  501    0  0.00000000000E+00  0.00000000000E+00 -0.85205517897E+03  0.85205517897E+03  0.25500000920E-02 0. -1.
    10030    2    1    2    0    0  0.00000000000E+00  0.00000000000E+00  0.14500610335E+04  0.31541713915E+04  0.28010926736E+04 0.  0.
        3    1    3    3  502    0  0.11020660162E+03  0.11921782761E+04 -0.93272291817E+02  0.12008889489E+04  0.10100000352E+00 0. -1.
       -3    1    3    3    0  502 -0.11020660162E+03 -0.11921782761E+04  0.15433333254E+04  0.19532824426E+04  0.10100000352E+00 0.  1.
</event>
<event>
 5   0  0.5214658E-07  0.2802043E+04  0.7818609E-02  0.8302634E-01
        1   -1    0    0  501    0  0.00000000000E+00  0.00000000000E+00  0.19999678353E+04  0.19999678353E+04  0.50400001928E-02 0. -1.
       -1   -1    0    0    0  501  0.00000000000E+00  0.00000000000E+00 -0.98144622296E+03  0.98144622297E+03  0.50400001928E-02 0.  1.
    10030    2    1    2    0    0  0.00000000000E+00  0.00000000000E+00  0.10185216123E+04  0.29814140583E+04  0.28020427392E+04 0.  0.
        2    1    3    3  502    0 -0.71087773106E+03 -0.10673264598E+04  0.11095837349E+04  0.16957915512E+04  0.25500000920E-02 0. -1.
       -2    1    3    3    0  502  0.71087773106E+03  0.10673264598E+04 -0.91062122613E+02  0.12856225070E+04  0.25500000920E-02 0.  1.
</event>
<event>
 5   0  0.4710000E-07  0.2803311E+04  0.7818609E-02  0.8302241E-01
       -4   -1    0    0    0  501  0.00000000000E+00  0.00000000000E+00  0.11966039021E+04  0.11966045760E+04  0.12699999809E+01 0. -1.
        4   -1    0    0  501    0  0.00000000000E+00  0.00000000000E+00 -0.16418432710E+04  0.16418437622E+04  0.12699999809E+01 0.  1.
    10030    2    1    2    0    0  0.00000000000E+00  0.00000000000E+00 -0.44523936891E+03  0.28384483382E+04  0.28033106986E+04 0.  0.
        1    1    3    3  502    0 -0.78834416117E+03  0.11373107296E+04 -0.44829336377E+03  0.14546233713E+04  0.50400001928E-02 0. -1.
       -1    1    3    3    0  502  0.78834416117E+03 -0.11373107296E+04  0.30539948660E+01  0.13838249669E+04  0.50400001928E-02 0.  1.
</event>
<event>
 5   0  0.1499888E-06  0.2809345E+04  0.7818609E-02  0.8300373E-01
        2   -1    0    0  501    0  0.00000000000E+00  0.00000000000E+00  0.27025648387E+04  0.27025648387E+04  0.25500000920E-02 0. -1.
       -2   -1    0    0    0  501  0.00000000000E+00  0.00000000000E+00 -0.73008590012E+03  0.73008590013E+03  0.25500000920E-02 0.  1.
    10030    2    1    2    0    0  0.00000000000E+00  0.00000000000E+00  0.19724789385E+04  0.34326507388E+04  0.28093447513E+04 0.  0.
        3    1    3    3  502    0  0.21491448136E+03 -0.89451987831E+03  0.22832348988E+04  0.24616083483E+04  0.10100000352E+00 0. -1.
       -3    1    3    3    0  502 -0.21491448136E+03  0.89451987831E+03 -0.31075596032E+03  0.97104239046E+03  0.10100000352E+00 0.  1.
</event>
<event>
 5   0  0.5214658E-07  0.2800901E+04  0.7818609E-02  0.8302989E-01
        1   -1    0    0  501    0  0.00000000000E+00  0.00000000000E+00  0.13577658860E+04  0.13577658860E+04  0.50400001928E-02 0. -1.
       -1   -1    0    0    0  501  0.00000000000E+00  0.00000000000E+00 -0.14444774358E+04  0.14444774358E+04  0.50400001928E-02 0.  1.
    10030    2    1    2    0    0  0.00000000000E+00  0.00000000000E+00 -0.86711549811E+02  0.28022433219E+04  0.28009014160E+04 0.  0.
        2    1    3    3  502    0  0.97436923933E+03  0.64644529776E+03 -0.81442291132E+03  0.14249812687E+04  0.25500000920E-02 0.  1.
       -2    1    3    3    0  502 -0.97436923933E+03 -0.64644529776E+03  0.72771136151E+03  0.13772620532E+04  0.25500000920E-02 0. -1.
</event>
<event>
 5   0  0.5214658E-07  0.2802469E+04  0.7818609E-02  0.8302502E-01
       -1   -1    0    0    0  501  0.00000000000E+00  0.00000000000E+00  0.23284071294E+04  0.23284071294E+04  0.50400001928E-02 0.  1.
        1   -1    0    0  501    0  0.00000000000E+00  0.00000000000E+00 -0.84326208794E+03  0.84326208795E+03  0.50400001928E-02 0. -1.
    10030    2    1    2    0    0  0.00000000000E+00  0.00000000000E+00  0.14851450414E+04  0.31716692173E+04  0.28024685244E+04 0.  0.
        2    1    3    3  502    0  0.91403615297E+03  0.32497548283E+03 -0.40176636290E+03  0.10499939827E+04  0.25500000920E-02 0. -1.
       -2    1    3    3    0  502 -0.91403615297E+03 -0.32497548283E+03  0.18869114043E+04  0.21216752346E+04  0.25500000920E-02 0.  1.
</event>
<event>
 5   0  0.5297741E-07  0.2803397E+04  0.7818609E-02  0.8302214E-01
       -1   -1    0    0    0  501  0.00000000000E+00  0.00000000000E+00  0.12576475656E+04  0.12576475656E+04  0.50400001928E-02 0.  1.
        1   -1    0    0  501    0  0.00000000000E+00  0.00000000000E+00 -0.15622492783E+04  0.15622492783E+04  0.50400001928E-02 0. -1.
    10030    2    1    2    0    0  0.00000000000E+00  0.00000000000E+00 -0.30460171269E+03  0.28198968439E+04  0.28033972261E+04 0.  0.
        5    1    3    3  502    0 -0.11113266949E+03 -0.18299847417E+03 -0.15456967531E+04  0.15604612953E+04  0.46999998093E+01 0. -1.
       -5    1    3    3    0  502  0.11113266949E+03  0.18299847417E+03  0.12410950404E+04  0.12594355486E+04  0.46999998093E+01 0.  1.
</event>
<event>
 5   0  0.1377807E-06  0.2813511E+04  0.7818609E-02  0.8299086E-01
        2   -1    0    0  501    0  0.00000000000E+00  0.00000000000E+00  0.21826278755E+04  0.21826278755E+04  0.25500000920E-02 0.  1.
       -2   -1    0    0    0  501  0.00000000000E+00  0.00000000000E+00 -0.90668728602E+03  0.90668728603E+03  0.25500000920E-02 0. -1.
    10030    2    1    2    0    0  0.00000000000E+00  0.00000000000E+00  0.12759405895E+04  0.30893151615E+04  0.28135109346E+04 0.  0.
        2    1    3    3  502    0 -0.47576122228E+03 -0.12416881198E+04  0.13380561758E+03  0.13364288499E+04  0.25500000920E-02 0. -1.
       -2    1    3    3    0  502  0.47576122228E+03  0.12416881198E+04  0.11421349719E+04  0.17528863116E+04  0.25500000920E-02 0.  1.
</event>
<event>
 5   0  0.1377807E-06  0.2806281E+04  0.7818609E-02  0.8301321E-01
        2   -1    0    0  501    0  0.00000000000E+00  0.00000000000E+00  0.29490195541E+04  0.29490195541E+04  0.25500000920E-02 0. -1.
       -2   -1    0    0    0  501  0.00000000000E+00  0.00000000000E+00 -0.66761264029E+03  0.66761264029E+03  0.25500000920E-02 0.  1.
    10030    2    1    2    0    0  0.00000000000E+00  0.00000000000E+00  0.22814069138E+04  0.36166321944E+04  0.28062806209E+04 0.  0.
        2    1    3    3  502    0 -0.68691500945E+03 -0.84538340464E+03  0.83787991339E+00  0.10892777576E+04  0.25500000920E-02 0.  1.
       -2    1    3    3    0  502  0.68691500945E+03  0.84538340464E+03  0.22805690339E+04  0.25273544368E+04  0.25500000920E-02 0. -1.
</event>
<event>
 5   0  0.5551565E-07  0.2804386E+04  0.7818609E-02  0.8301908E-01
       -1   -1    0    0    0  501  0.00000000000E+00  0.00000000000E+00  0.22214608785E+04  0.22214608785E+04  0.50400001928E-02 0. -1.
        1   -1    0    0  501    0  0.00000000000E+00  0.00000000000E+00 -0.88506852348E+03  0.88506852350E+03  0.50400001928E-02 0.  1.
    10030    2    1    2    0    0  0.00000000000E+00  0.00000000000E+00  0.13363923550E+04  0.31065294020E+04  0.28043859219E+04 0.  0.
        3    1    3    3  502    0  0.12664776115E+04 -0.36558700975E+03  0.11977440188E+04  0.17810699445E+04  0.10100000352E+00 0. -1.
       -3    1    3    3    0  502 -0.12664776115E+04  0.36558700975E+03  0.13864833617E+03  0.13254594575E+04  0.10100000352E+00 0.  1.
</event>
<event>
 5   0  0.1394410E-06  0.2798491E+04  0.7818609E-02  0.8303737E-01
        2   -1    0    0  501    0  0.00000000000E+00  0.00000000000E+00  0.16976864737E+04  0.16976864737E+04  0.25500000920E-02 0. -1.
       -2   -1    0    0    0  501  0.00000000000E+00  0.00000000000E+00 -0.11532681353E+04  0.11532681353E+04  0.25500000920E-02 0.  1.
    10030    2    1    2    0    0  0.00000000000E+00  0.00000000000E+00  0.54441833837E+03  0.28509546090E+04  0.27984908175E+04 0.  0.
        4    1    3    3  502    0 -0.52876179475E+03  0.84820031172E+03  0.12697771464E+04  0.16159729016E+04  0.12699999809E+01 0. -1.
       -4    1    3    3    0  502  0.52876179475E+03 -0.84820031172E+03 -0.72535880799E+03  0.12349817074E+04  0.12699999809E+01 0.  1.
</event>
<event>
 5   0  0.5362952E-07  0.2793370E+04  0.7818609E-02  0.8305330E-01
       -1   -1    0    0    0  501  0.00000000000E+00  0.00000000000E+00  0.12894291849E+04  0.12894291849E+04  0.50400001928E-02 0. -1.
        1   -1    0    0  501    0  0.00000000000E+00  0.00000000000E+00 -0.15128626324E+04  0.15128626324E+04  0.50400001928E-02 0.  1.
    10030    2    1    2    0    0  0.00000000000E+00  0.00000000000E+00 -0.22343344751E+03  0.28022918174E+04  0.27933701731E+04 0.  0.
        1    1    3    3  502    0  0.77880777045E+03 -0.11157976946E+04 -0.42765621053E+03  0.14263365217E+04  0.50400001928E-02 0. -1.
       -1    1    3    3    0  502 -0.77880777045E+03  0.11157976946E+04  0.20422276302E+03  0.13759552957E+04  0.50400001928E-02 0.  1.
</event>
<event>
 5   0  0.1377807E-06  0.2799982E+04  0.7818609E-02  0.8303274E-01
        2   -1    0    0  501    0  0.00000000000E+00  0.00000000000E+00  0.18214105297E+04  0.18214105297E+04  0.25500000920E-02 0.  1.
       -2   -1    0    0    0  501  0.00000000000E+00  0.00000000000E+00 -0.10760749487E+04  0.10760749487E+04  0.25500000920E-02 0. -1.
    10030    2    1    2    0    0  0.00000000000E+00  0.00000000000E+00  0.74533558097E+03  0.28974854785E+04  0.27999816017E+04 0.  0.
        2    1    3    3  502    0  0.77377617489E+03 -0.11334458954E+04  0.86365568177E+02  0.13750956978E+04  0.25500000920E-02 0.  1.
       -2    1    3    3    0  502 -0.77377617489E+03  0.11334458954E+04  0.65897001280E+03  0.15223897807E+04  0.25500000920E-02 0. -1.
</event>
<event>
 5   0  0.5297741E-07  0.2796096E+04  0.7818609E-02  0.8304481E-01
        1   -1    0    0  501    0  0.00000000000E+00  0.00000000000E+00  0.17321060758E+04  0.17321060759E+04  0.50400001928E-02 0. -1.
       -1   -1    0    0    0  501  0.00000000000E+00  0.00000000000E+00 -0.11284174286E+04  0.11284174286E+04  0.50400001928E-02 0.  1.
    10030    2    1    2    0    0  0.00000000000E+00  0.00000000000E+00  0.60368864722E+03  0.28605235045E+04  0.27960963390E+04 0.  0.
        5    1    3    3  502    0 -0.90391759728E+03 -0.10305357711E+03 -0.78413735891E+03  0.12010747479E+04  0.46999998093E+01 0.  1.
       -5    1    3    3    0  502  0.90391759728E+03  0.10305357711E+03  0.13878260061E+04  0.16594487566E+04  0.46999998093E+01 0. -1.
</event>
<event>
 5   0  0.1461146E-06  0.2799106E+04  0.7818609E-02  0.8303546E-01
        2   -1    0    0  501    0  0.00000000000E+00  0.00000000000E+00  0.13291271336E+04  0.13291271337E+04  0.25500000920E-02 0. -1.
       -2   -1    0    0    0  501  0.00000000000E+00  0.00000000000E+00 -0.14737104364E+04  0.14737104364E+04  0.25500000920E-02 0.  1.
    10030    2    1    2    0    0  0.00000000000E+00  0.00000000000E+00 -0.14458330277E+03  0.28028375701E+04  0.27991059488E+04 0.  0.
        1    1    3    3  502    0 -0.11785914662E+04 -0.29586783613E+03  0.62299194034E+03  0.13655528472E+04  0.50400001928E-02 0. -1.
       -1    1    3    3    0  502  0.11785914662E+04  0.29586783613E+03 -0.76757524311E+03  0.14372847229E+04  0.50400001928E-02 0.  1.
</event>
<event>
 5   0  0.4710000E-07  0.2798830E+04  0.7818609E-02  0.8303632E-01
       -4   -1    0    0    0  501  0.00000000000E+00  0.00000000000E+00  0.21133091376E+04  0.21133095192E+04  0.12699999809E+01 0. -1.
        4   -1    0    0  501    0  0.00000000000E+00  0.00000000000E+00 -0.92667946369E+03  0.92668033395E+03  0.12699999809E+01 0.  1.
    10030    2    1    2    0    0  0.00000000000E+00  0.00000000000E+00  0.11866296739E+04  0.30399898532E+04  0.27988298134E+04 0.  0.
        3    1    3    3  502    0  0.55605945900E+03  0.11617452477E+04 -0.11139103272E+01  0.12879656026E+04  0.10100000352E+00 0.  1.
       -3    1    3    3    0  502 -0.55605945900E+03 -0.11617452477E+04  0.11877435842E+04  0.17520242506E+04  0.10100000352E+00 0. -1.
</event>
<event>
 5   0  0.5362952E-07  0.2796170E+04  0.7818609E-02  0.8304458E-01
       -1   -1    0    0    0  501  0.00000000000E+00  0.00000000000E+00  0.21390799006E+04  0.21390799006E+04  0.50400001928E-02 0. -1.
        1   -1    0    0  501    0  0.00000000000E+00  0.00000000000E+00 -0.91377688323E+03  0.91377688324E+03  0.50400001928E-02 0.  1.
    10030    2    1    2    0    0  0.00000000000E+00  0.00000000000E+00  0.12253030173E+04  0.30528567838E+04  0.27961700696E+04 0.  0.
        1    1    3    3  502    0  0.32802710890E+03 -0.10253204604E+04 -0.36129103494E+03  0.11355241269E+04  0.50400001928E-02 0.  1.
       -1    1    3    3    0  502 -0.32802710890E+03  0.10253204604E+04  0.15865940523E+04  0.19173326570E+04  0.50400001928E-02 0. -1.
</event>
<event>
 5   0  0.5282098E-07  0.2793539E+04  0.7818609E-02  0.8305277E-01
        1   -1    0    0  501    0  0.00000000000E+00  0.00000000000E+00  0.28606936821E+04  0.28606936821E+04  0.50400001928E-02 0.  1.
       -1   -1    0    0    0  501  0.00000000000E+00  0.00000000000E+00 -0.68199027505E+03  0.68199027507E+03  0.50400001928E-02 0. -1.
    10030    2    1    2    0    0  0.00000000000E+00  0.00000000000E+00  0.21787034071E+04  0.35426839572E+04  0.27935391683E+04 0.  0.
        4    1    3    3  502    0  0.49215490514E+03  0.81914775737E+03 -0.20253013978E+03  0.97685186670E+03  0.12699999809E+01 0. -1.
       -4    1    3    3    0  502 -0.49215490514E+03 -0.81914775737E+03  0.23812335468E+04  0.25658320905E+04  0.12699999809E+01 0.  1.
</event>
<event>
 5   0  0.5282098E-07  0.2801737E+04  0.7818609E-02  0.8302729E-01
       -1   -1    0    0    0  501  0.00000000000E+00  0.00000000000E+00  0.17111807955E+04  0.17111807955E+04  0.50400001928E-02 0.  1.
        1   -1    0    0  501    0  0.00000000000E+00  0.00000000000E+00 -0.11468293429E+04  0.11468293429E+04  0.50400001928E-02 0. -1.
    10030    2    1    2    0    0  0.00000000000E+00  0.00000000000E+00  0.56435145256E+03  0.28580101384E+04  0.28017368523E+04 0.  0.
        4    1    3    3  502    0  0.57694268213E+03  0.12158252147E+03 -0.10140894437E+04  0.11730405708E+04  0.12699999809E+01 0. -1.
       -4    1    3    3    0  502 -0.57694268213E+03 -0.12158252147E+03  0.15784408963E+04  0.16849695676E+04  0.12699999809E+01 0.  1.
</event>
<event>
 5   0  0.1377807E-06  0.2799393E+04  0.7818609E-02  0.8303457E-01
        2   -1    0    0  501    0  0.00000000000E+00  0.00000000000E+00  0.16432974228E+04  0.16432974228E+04  0.25500000920E-02 0.  1.
       -2   -1    0    0    0  501  0.00000000000E+00  0.00000000000E+00 -0.11922063681E+04  0.11922063681E+04  0.25500000920E-02 0. -1.
    10030    2    1    2    0    0  0.00000000000E+00  0.00000000000E+00  0.45109105472E+03  0.28355037909E+04  0.27993925428E+04 0.  0.
        2    1    3    3  502    0 -0.30555528455E+03 -0.48164436284E+03  0.15202374901E+04  0.16237202193E+04  0.25500000920E-02 0.  1.
       -2    1    3    3    0  502  0.30555528455E+03  0.48164436284E+03 -0.10691464354E+04  0.12117835716E+04  0.25500000920E-02 0. -1.
</event>
<event>
 5   0  0.1377807E-06  0.2803600E+04  0.7818609E-02  0.8302152E-01
        2   -1    0    0  501    0  0.00000000000E+00  0.00000000000E+00  0.23694856263E+04  0.23694856263E+04  0.25500000920E-02 0.  1.
       -2   -1    0    0    0  501  0.00000000000E+00  0.00000000000E+00 -0.82931216837E+03  0.82931216838E+03  0.25500000920E-02 0. -1.
    10030    2    1    2    0    0  0.00000000000E+00  0.00000000000E+00  0.15401734579E+04  0.31987977947E+04  0.28036000162E+04 0.  0.
        2    1    3    3  502    0  0.11035533561E+03 -0.47927692614E+03  0.22678161425E+04  0.23205332853E+04  0.25500000920E-02 0.  1.
       -2    1    3    3    0  502 -0.11035533561E+03  0.47927692614E+03 -0.72764268457E+03  0.87826450938E+03  0.25500000920E-02 0. -1.
</event>
<event>
 5   0  0.1394410E-06  0.2797933E+04  0.7818609E-02  0.8303911E-01
        2   -1    0    0  501    0  0.00000000000E+00  0.00000000000E+00  0.20216258222E+04  0.20216258222E+04  0.25500000920E-02 0.  1.
       -2   -1    0    0    0  501  0.00000000000E+00  0.00000000000E+00 -0.96808547656E+03  0.96808547656E+03  0.25500000920E-02 0. -1.
    10030    2    1    2    0    0  0.00000000000E+00  0.00000000000E+00  0.10535403456E+04  0.29897112987E+04  0.27979325206E+04 0.  0.
        4    1    3    3  502    0 -0.92628195054E+03  0.71595194573E+03 -0.29156884921E+03  0.12064822615E+04  0.12699999809E+01 0. -1.
       -4    1    3    3    0  502  0.92628195054E+03 -0.71595194573E+03  0.13451091948E+04  0.17832290373E+04  0.12699999809E+01 0.  1.
</event>
<event>
 5   0  0.1439207E-06  0.2805467E+04  0.7818609E-02  0.8301573E-01
        2   -1    0    0  501    0  0.00000000000E+00  0.00000000000E+00  0.11022025404E+04  0.11022025404E+04  0.25500000920E-02 0.  1.
       -2   -1    0    0    0  501  0.00000000000E+00  0.00000000000E+00 -0.17852084463E+04  0.17852084463E+04  0.25500000920E-02 0. -1.
    10030    2    1    2    0    0  0.00000000000E+00  0.00000000000E+00 -0.68300590593E+03  0.28874109868E+04  0.28054670091E+04 0.  0.
        5    1    3    3  502    0  0.12254635420E+03 -0.88664809524E+03  0.77007898280E+03  0.11807650839E+04  0.46999998093E+01 0.  1.
       -5    1    3    3    0  502 -0.12254635420E+03  0.88664809524E+03 -0.14530848887E+04  0.17066459028E+04  0.46999998093E+01 0. -1.
</event>
<event>
 5   0  0.1377807E-06  0.2804259E+04  0.7818609E-02  0.8301947E-01
        2   -1    0    0  501    0  0.00000000000E+00  0.00000000000E+00  0.18925591372E+04  0.18925591372E+04  0.25500000920E-02 0. -1.
       -2   -1    0    0    0  501  0.00000000000E+00  0.00000000000E+00 -0.10387876402E+04  0.10387876402E+04  0.25500000920E-02 0.  1.
    10030    2    1    2    0    0  0.00000000000E+00  0.00000000000E+00  0.85377149702E+03  0.29313467775E+04  0.28042589325E+04 0.  0.
        2    1    3    3  502    0  0.41434280795E+03 -0.35218601522E+03 -0.92406681010E+03  0.10722007374E+04  0.25500000920E-02 0.  1.
       -2    1    3    3    0  502 -0.41434280795E+03  0.35218601522E+03  0.17778383071E+04  0.18591460400E+04  0.25500000920E-02 0. -1.
</event>
<event>
 5   0  0.1461146E-06  0.2804195E+04  0.7818609E-02  0.8301967E-01
       -2   -1    0    0    0  501  0.00000000000E+00  0.00000000000E+00  0.14000461707E+04  0.14000461707E+04  0.25500000920E-02 0.  1.
        2   -1    0    0  501    0  0.00000000000E+00  0.00000000000E+00 -0.14041514469E+04  0.14041514469E+04  0.25500000920E-02 0. -1.
    10030    2    1    2    0    0  0.00000000000E+00  0.00000000000E+00 -0.41052762019E+01  0.28041976175E+04  0.28041946125E+04 0.  0.
        1    1    3    3  502    0  0.48489817488E+03  0.38651251053E+03  0.12554695623E+04  0.14002578273E+04  0.50400001928E-02 0.  1.
       -1    1    3    3    0  502 -0.48489817488E+03 -0.38651251053E+03 -0.12595748385E+04  0.14039397903E+04  0.50400001928E-02 0. -1.
</event>
<event>
 5   0  0.1394410E-06  0.2830913E+04  0.7818609E-02  0.8293735E-01
        2   -1    0    0  501    0  0.00000000000E+00  0.00000000000E+00  0.82564460855E+03  0.82564460856E+03  0.25500000920E-02 0. -1.
       -2   -1    0    0    0  501  0.00000000000E+00  0.00000000000E+00 -0.24266089071E+04  0.24266089071E+04  0.25500000920E-02 0.  1.
    10030    2    1    2    0    0  0.00000000000E+00  0.00000000000E+00 -0.16009642985E+04  0.32522535156E+04  0.28309126170E+04 0.  0.
        4    1    3    3  502    0 -0.87067722204E+02  0.12204435387E+04 -0.16180559327E+04  0.20285881380E+04  0.12699999809E+01 0.  1.
       -4    1    3    3    0  502  0.87067722204E+02 -0.12204435387E+04  0.17091634186E+02  0.12236653776E+04  0.12699999809E+01 0. -1.
</event>
<event>
 5   0  0.1394410E-06  0.2804464E+04  0.7818609E-02  0.8301884E-01
       -2   -1    0    0    0  501  0.00000000000E+00  0.00000000000E+00  0.61115464787E+03  0.61115464788E+03  0.25500000920E-02 0. -1.
        2   -1    0    0  501    0  0.00000000000E+00  0.00000000000E+00 -0.32172791834E+04  0.32172791834E+04  0.25500000920E-02 0.  1.
    10030    2    1    2    0    0  0.00000000000E+00  0.00000000000E+00 -0.26061245355E+04  0.38284338312E+04  0.28044643884E+04 0.  0.
        4    1    3    3  502    0  0.46859631967E+03 -0.18673356142E+03 -0.30891300112E+04  0.31300443724E+04  0.12699999809E+01 0.  1.
       -4    1    3    3    0  502 -0.46859631967E+03  0.18673356142E+03  0.48300547575E+03  0.69838945888E+03  0.12699999809E+01 0. -1.
</event>
<event>
 5   0  0.1439207E-06  0.2800733E+04  0.7818609E-02  0.8303041E-01
        2   -1    0    0  501    0  0.00000000000E+00  0.00000000000E+00  0.20630347655E+04  0.20630347655E+04  0.25500000920E-02 0.  1.
       -2   -1    0    0    0  501  0.00000000000E+00  0.00000000000E+00 -0.95055401115E+03  0.95055401115E+03  0.25500000920E-02 0. -1.
    10030    2    1    2    0    0  0.00000000000E+00  0.00000000000E+00  0.11124807544E+04  0.30135887767E+04  0.28007327409E+04 0.  0.
        5    1    3    3  502    0 -0.13066529662E+04  0.14571992663E+02  0.14541299703E+02  0.13068235751E+04  0.46999998093E+01 0. -1.
       -5    1    3    3    0  502  0.13066529662E+04 -0.14571992663E+02  0.10979394547E+04  0.17067652015E+04  0.46999998093E+01 0.  1.
</event>
<event>
 5   0  0.5282098E-07  0.2815551E+04  0.7818609E-02  0.8298457E-01
       -1   -1    0    0    0  501  0.00000000000E+00  0.00000000000E+00  0.12511932931E+04  0.12511932931E+04  0.50400001928E-02 0. -1.
        1   -1    0    0  501    0  0.00000000000E+00  0.00000000000E+00 -0.15839530950E+04  0.15839530950E+04  0.50400001928E-02 0.  1.
    10030    2    1    2    0    0  0.00000000000E+00  0.00000000000E+00 -0.33275980186E+03  0.28351463881E+04  0.28155507376E+04 0.  0.
        4    1    3    3  502    0  0.12328208406E+04  0.67952125197E+03 -0.15099220667E+03  0.14157671476E+04  0.12699999809E+01 0.  1.
       -4    1    3    3    0  502 -0.12328208406E+04 -0.67952125197E+03 -0.18176759520E+03  0.14193792405E+04  0.12699999809E+01 0. -1.
</event>
<event>
 5   0  0.1439207E-06  0.2780133E+04  0.7818609E-02  0.8309463E-01
        2   -1    0    0  501    0  0.00000000000E+00  0.00000000000E+00  0.13373423555E+04  0.13373423555E+04  0.25500000920E-02 0.  1.
       -2   -1    0    0    0  501  0.00000000000E+00  0.00000000000E+00 -0.14448693716E+04  0.14448693716E+04  0.25500000920E-02 0. -1.
    10030    2    1    2    0    0  0.00000000000E+00  0.00000000000E+00 -0.10752701606E+03  0.27822117271E+04  0.27801330967E+04 0.  0.
        5    1    3    3  502    0 -0.18030595085E+03  0.46248354263E+03  0.12456146296E+04  0.13408874519E+04  0.46999998093E+01 0.  1.
       -5    1    3    3    0  502  0.18030595085E+03 -0.46248354263E+03 -0.13531416457E+04  0.14413242752E+04  0.46999998093E+01 0. -1.
</event>
<event>
 5   0  0.1499888E-06  0.2801794E+04  0.7818609E-02  0.8302712E-01
       -2   -1    0    0    0  501  0.00000000000E+00  0.00000000000E+00  0.19495341440E+04  0.19495341440E+04  0.25500000920E-02 0.  1.
        2   -1    0    0  501    0  0.00000000000E+00  0.00000000000E+00 -0.10066573351E+04  0.10066573351E+04  0.25500000920E-02 0. -1.
    10030    2    1    2    0    0  0.00000000000E+00  0.00000000000E+00  0.94287680889E+03  0.29561914791E+04  0.28017943151E+04 0.  0.
        3    1    3    3  502    0 -0.54185958428E+03  0.58656813180E+03 -0.74300656200E+03  0.10907487079E+04  0.10100000352E+00 0. -1.
       -3    1    3    3    0  502  0.54185958428E+03 -0.58656813180E+03  0.16858833709E+04  0.18654427712E+04  0.10100000352E+00 0.  1.
</event>
<event>
 5   0  0.5214658E-07  0.2799435E+04  0.7818609E-02  0.8303444E-01
        1   -1    0    0  501    0  0.00000000000E+00  0.00000000000E+00  0.21031067570E+04  0.21031067570E+04  0.50400001928E-02 0.  1.
       -1   -1    0    0    0  501  0.00000000000E+00  0.00000000000E+00 -0.93157860281E+03  0.93157860283E+03  0.50400001928E-02 0. -1.
    10030    2    1    2    0    0  0.00000000000E+00  0.00000000000E+00  0.11715281542E+04  0.30346853599E+04  0.27994351247E+04 0.  0.
        2    1    3    3  502    0 -0.42682616404E+03  0.99480191829E+03 -0.37615905144E+03  0.11459961007E+04  0.25500000920E-02 0. -1.
       -2    1    3    3    0  502  0.42682616404E+03 -0.99480191829E+03  0.15476872057E+04  0.18886892591E+04  0.25500000920E-02 0.  1.
</event>
<event>
 5   0  0.5362952E-07  0.2783255E+04  0.7818609E-02  0.8308486E-01
        1   -1    0    0  501    0  0.00000000000E+00  0.00000000000E+00  0.81990318120E+03  0.81990318122E+03  0.50400001928E-02 0. -1.
       -1   -1    0    0    0  501  0.00000000000E+00  0.00000000000E+00 -0.23620194395E+04  0.23620194395E+04  0.50400001928E-02 0.  1.
    10030    2    1    2    0    0  0.00000000000E+00  0.00000000000E+00 -0.15421162583E+04  0.31819226208E+04  0.27832551105E+04 0.  0.
        1    1    3    3  502    0 -0.29309361843E+03  0.10666549923E+03  0.77942947275E+03  0.83951873172E+03  0.50400001928E-02 0. -1.
       -1    1    3    3    0  502  0.29309361843E+03 -0.10666549923E+03 -0.23215457311E+04  0.23424038890E+04  0.50400001928E-02 0.  1.
</event>
<event>
 5   0  0.5297741E-07  0.2766297E+04  0.7818609E-02  0.8313809E-01
       -1   -1    0    0    0  501  0.00000000000E+00  0.00000000000E+00  0.76964914134E+03  0.76964914136E+03  0.50400001928E-02 0. -1.
        1   -1    0    0  501    0  0.00000000000E+00  0.00000000000E+00 -0.24856782389E+04  0.24856782389E+04  0.50400001928E-02 0.  1.
    10030    2    1    2    0    0  0.00000000000E+00  0.00000000000E+00 -0.17160290976E+04  0.32553273803E+04  0.27662972525E+04 0.  0.
        5    1    3    3  502    0  0.87588889677E+03 -0.13709947066E+03  0.39131533718E+03  0.96908586175E+03  0.46999998093E+01 0. -1.
       -5    1    3    3    0  502 -0.87588889677E+03  0.13709947066E+03 -0.21073444348E+04  0.22862415185E+04  0.46999998093E+01 0.  1.
</event>
<event>
 5   0  0.5297741E-07  0.2787915E+04  0.7818609E-02  0.8307030E-01
       -1   -1    0    0    0  501  0.00000000000E+00  0.00000000000E+00  0.11594595926E+04  0.11594595926E+04  0.50400001928E-02 0.  1.
        1   -1    0    0  501    0  0.00000000000E+00  0.00000000000E+00 -0.16758823086E+04  0.16758823086E+04  0.50400001928E-02 0. -1.
    10030    2    1    2    0    0  0.00000000000E+00  0.00000000000E+00 -0.51642271595E+03  0.28353419012E+04  0.27879152202E+04 0.  0.
        5    1    3    3  502    0  0.51058305995E+03 -0.72575711419E+03 -0.13515234732E+04  0.16168043291E+04  0.46999998093E+01 0. -1.
       -5    1    3    3    0  502 -0.51058305995E+03  0.72575711419E+03  0.83510075724E+03  0.12185375721E+04  0.46999998093E+01 0.  1.
</event>
<event>
 5   0  0.1461146E-06  0.2802109E+04  0.7818609E-02  0.8302614E-01
        2   -1    0    0  501    0  0.00000000000E+00  0.00000000000E+00  0.94967166575E+03  0.94967166576E+03  0.25500000920E-02 0. -1.
       -2   -1    0    0    0  501  0.00000000000E+00  0.00000000000E+00 -0.20669809258E+04  0.20669809258E+04  0.25500000920E-02 0.  1.
    10030    2    1    2    0    0  0.00000000000E+00  0.00000000000E+00 -0.11173092600E+04  0.30166525915E+04  0.28021086481E+04 0.  0.
        1    1    3    3  502    0  0.11215002835E+03 -0.91674290258E+03  0.57555572637E+03  0.10882369101E+04  0.50400001928E-02 0. -1.
       -1    1    3    3    0  502 -0.11215002835E+03  0.91674290258E+03 -0.16928649864E+04  0.19284156815E+04  0.50400001928E-02 0.  1.
</event>
<event>
 5   0  0.1461146E-06  0.2800715E+04  0.7818609E-02  0.8303047E-01
        2   -1    0    0  501    0  0.00000000000E+00  0.00000000000E+00  0.12542540725E+04  0.12542540725E+04  0.25500000920E-02 0. -1.
       -2   -1    0    0    0  501  0.00000000000E+00  0.00000000000E+00 -0.15634795150E+04  0.15634795150E+04  0.25500000920E-02 0.  1.
    10030    2    1    2    0    0  0.00000000000E+00  0.00000000000E+00 -0.30922544244E+03  0.28177335875E+04  0.28007145867E+04 0.  0.
        1    1    3    3  502    0 -0.38842786993E+02 -0.33397664558E+03 -0.15222670572E+04  0.15589567522E+04  0.50400001928E-02 0.  1.
       -1    1    3    3    0  502  0.38842786993E+02  0.33397664558E+03  0.12130416148E+04  0.12587768353E+04  0.50400001928E-02 0. -1.
</event>
<event>
 5   0  0.5282098E-07  0.2802805E+04  0.7818609E-02  0.8302398E-01
        1   -1    0    0  501    0  0.00000000000E+00  0.00000000000E+00  0.25148047244E+04  0.25148047244E+04  0.50400001928E-02 0. -1.
       -1   -1    0    0    0  501  0.00000000000E+00  0.00000000000E+00 -0.78094690900E+03  0.78094690902E+03  0.50400001928E-02 0.  1.
    10030    2    1    2    0    0  0.00000000000E+00  0.00000000000E+00  0.17338578154E+04  0.32957516335E+04  0.28028050067E+04 0.  0.
        4    1    3    3  502    0 -0.25291095825E+03  0.13686636467E+04  0.67470558078E+03  0.15467492894E+04  0.12699999809E+01 0. -1.
       -4    1    3    3    0  502  0.25291095825E+03 -0.13686636467E+04  0.10591522347E+04  0.17490023441E+04  0.12699999809E+01 0.  1.
</event>
<event>
 5   0  0.1377807E-06  0.2813412E+04  0.7818609E-02  0.8299116E-01
       -2   -1    0    0    0  501  0.00000000000E+00  0.00000000000E+00  0.79817011335E+03  0.79817011335E+03  0.25500000920E-02 0.  1.
        2   -1    0    0  501    0  0.00000000000E+00  0.00000000000E+00 -0.24791983969E+04  0.24791983969E+04  0.25500000920E-02 0. -1.
    10030    2    1    2    0    0  0.00000000000E+00  0.00000000000E+00 -0.16810282835E+04  0.32773685102E+04  0.28134122097E+04 0.  0.
        2    1    3    3  502    0  0.26910655833E+03 -0.21801767017E+03  0.74772777623E+03  0.82404300349E+03  0.25500000920E-02 0.  1.
       -2    1    3    3    0  502 -0.26910655833E+03  0.21801767017E+03 -0.24287560598E+04  0.24533255068E+04  0.25500000920E-02 0. -1.
</event>
<event>
 5   0  0.1439207E-06  0.2793048E+04  0.7818609E-02  0.8305430E-01
       -2   -1    0    0    0  501  0.00000000000E+00  0.00000000000E+00  0.76148853766E+03  0.76148853766E+03  0.25500000920E-02 0.  1.
        2   -1    0    0  501    0  0.00000000000E+00  0.00000000000E+00 -0.25611405846E+04  0.25611405846E+04  0.25500000920E-02 0. -1.
    10030    2    1    2    0    0  0.00000000000E+00  0.00000000000E+00 -0.17996520469E+04  0.33226291223E+04  0.27930479398E+04 0.  0.
        5    1    3    3  502    0 -0.60077139479E+03  0.24842114200E+03  0.57049046979E+03  0.86493976594E+03  0.46999998093E+01 0.  1.
       -5    1    3    3    0  502  0.60077139479E+03 -0.24842114200E+03 -0.23701425167E+04  0.24576893563E+04  0.46999998093E+01 0. -1.
</event>
<event>
 5   0  0.1439207E-06  0.2798835E+04  0.7818609E-02  0.8303630E-01
        2   -1    0    0  501    0  0.00000000000E+00  0.00000000000E+00  0.17230594490E+04  0.17230594490E+04  0.25500000920E-02 0.  1.
       -2   -1    0    0    0  501  0.00000000000E+00  0.00000000000E+00 -0.11365651967E+04  0.11365651967E+04  0.25500000920E-02 0. -1.
    10030    2    1    2    0    0  0.00000000000E+00  0.00000000000E+00  0.58649425226E+03  0.28596246457E+04  0.27988350445E+04 0.  0.
        5    1    3    3  502    0 -0.50876522537E+03 -0.79330028612E+03  0.13502109564E+04  0.16465901479E+04  0.46999998093E+01 0.  1.
       -5    1    3    3    0  502  0.50876522537E+03  0.79330028612E+03 -0.76371670414E+03  0.12130344977E+04  0.46999998093E+01 0. -1.
</event>
<event>
 5   0  0.5362952E-07  0.2806989E+04  0.7818609E-02  0.8301102E-01
       -1   -1    0    0    0  501  0.00000000000E+00  0.00000000000E+00  0.17627132057E+04  0.17627132057E+04  0.50400001928E-02 0.  1.
        1   -1    0    0  501    0  0.00000000000E+00  0.00000000000E+00 -0.11174799865E+04  0.11174799866E+04  0.50400001928E-02 0. -1.
    10030    2    1    2    0    0  0.00000000000E+00  0.00000000000E+00  0.64523321920E+03  0.28801931923E+04  0.28069889415E+04 0.  0.
        1    1    3    3  502    0  0.12007656404E+04 -0.37127571491E+03  0.96349569843E+03  0.15836690755E+04  0.50400001928E-02 0.  1.
       -1    1    3    3    0  502 -0.12007656404E+04  0.37127571491E+03 -0.31826247923E+03  0.12965241168E+04  0.50400001928E-02 0. -1.
</event>
<event>
 5   0  0.5282098E-07  0.2797321E+04  0.7818609E-02  0.8304101E-01
       -1   -1    0    0    0  501  0.00000000000E+00  0.00000000000E+00  0.10510838908E+04  0.10510838908E+04  0.50400001928E-02 0. -1.
        1   -1    0    0  501    0  0.00000000000E+00  0.00000000000E+00 -0.18611748014E+04  0.18611748014E+04  0.50400001928E-02 0.  1.
    10030    2    1    2    0    0  0.00000000000E+00  0.00000000000E+00 -0.81009091062E+03  0.29122586923E+04  0.27973207551E+04 0.  0.
        4    1    3    3  502    0  0.51916085920E+03 -0.54862516319E+02  0.94584925679E+03  0.10803565721E+04  0.12699999809E+01 0. -1.
       -4    1    3    3    0  502 -0.51916085920E+03  0.54862516319E+02 -0.17559401674E+04  0.18319021202E+04  0.12699999809E+01 0.  1.
</event>
<event>
 5   0  0.1499888E-06  0.2800421E+04  0.7818609E-02  0.8303138E-01
       -2   -1    0    0    0  501  0.00000000000E+00  0.00000000000E+00  0.12150875876E+04  0.12150875876E+04  0.25500000920E-02 0.  1.
        2   -1    0    0  501    0  0.00000000000E+00  0.00000000000E+00 -0.16135370757E+04  0.16135370757E+04  0.25500000920E-02 0. -1.
    10030    2    1    2    0    0  0.00000000000E+00  0.00000000000E+00 -0.39844948805E+03  0.28286246633E+04  0.28004205919E+04 0.  0.
        3    1    3    3  502    0 -0.11912488204E+04  0.65079397258E+03 -0.54616965343E+03  0.14631841468E+04  0.10100000352E+00 0. -1.
       -3    1    3    3    0  502  0.11912488204E+04 -0.65079397258E+03  0.14772016538E+03  0.13654405166E+04  0.10100000352E+00 0.  1.
</event>
<event>
 5   0  0.1461146E-06  0.2800997E+04  0.7818609E-02  0.8302959E-01
        2   -1    0    0  501    0  0.00000000000E+00  0.00000000000E+00  0.14701338971E+04  0.14701338971E+04  0.25500000920E-02 0. -1.
       -2   -1    0    0    0  501  0.00000000000E+00  0.00000000000E+00 -0.13341614302E+04  0.13341614302E+04  0.25500000920E-02 0.  1.
    10030    2    1    2    0    0  0.00000000000E+00  0.00000000000E+00  0.13597246688E+03  0.28042953273E+04  0.28009969245E+04 0.  0.
        1    1    3    3  502    0 -0.97599002478E+03 -0.45774017354E+03  0.96308230082E+03  0.14455483780E+04  0.50400001928E-02 0. -1.
       -1    1    3    3    0  502  0.97599002478E+03  0.45774017354E+03 -0.82710983394E+03  0.13587469494E+04  0.50400001928E-02 0.  1.
</event>
<event>
 5   0  0.1439207E-06  0.2791885E+04  0.7818609E-02  0.8305792E-01
       -2   -1    0    0    0  501  0.00000000000E+00  0.00000000000E+00  0.10673866522E+04  0.10673866522E+04  0.25500000920E-02 0. -1.
        2   -1    0    0  501    0  0.00000000000E+00  0.00000000000E+00 -0.18256325146E+04  0.18256325146E+04  0.25500000920E-02 0.  1.
    10030    2    1    2    0    0  0.00000000000E+00  0.00000000000E+00 -0.75824586238E+03  0.28930191668E+04  0.27918852254E+04 0.  0.
        5    1    3    3  502    0  0.71381841693E+03 -0.25643435739E+03  0.83522329775E+03  0.11282355069E+04  0.46999998093E+01 0. -1.
       -5    1    3    3    0  502 -0.71381841693E+03  0.25643435739E+03 -0.15934691601E+04  0.17647836599E+04  0.46999998093E+01 0.  1.
</event>
<event>
 5   0  0.5214658E-07  0.2799961E+04  0.7818609E-02  0.8303281E-01
       -1   -1    0    0    0  501  0.00000000000E+00  0.00000000000E+00  0.92208119200E+03  0.92208119201E+03  0.50400001928E-02 0.  1.
        1   -1    0    0  501    0  0.00000000000E+00  0.00000000000E+00 -0.21255664886E+04  0.21255664886E+04  0.50400001928E-02 0. -1.
    10030    2    1    2    0    0  0.00000000000E+00  0.00000000000E+00 -0.12034852966E+04  0.30476476806E+04  0.27999606294E+04 0.  0.
        2    1    3    3  502    0  0.53521558683E+03 -0.12435669492E+04 -0.98968452968E+03  0.16770181722E+04  0.25500000920E-02 0. -1.
       -2    1    3    3    0  502 -0.53521558683E+03  0.12435669492E+04 -0.21380076689E+03  0.13706295084E+04  0.25500000920E-02 0.  1.
</event>
<event>
 5   0  0.1499888E-06  0.2800943E+04  0.7818609E-02  0.8302976E-01
       -2   -1    0    0    0  501  0.00000000000E+00  0.00000000000E+00  0.12264021339E+04  0.12264021339E+04  0.25500000920E-02 0. -1.
        2   -1    0    0  501    0  0.00000000000E+00  0.00000000000E+00 -0.15992469271E+04  0.15992469271E+04  0.25500000920E-02 0.  1.
    10030    2    1    2    0    0  0.00000000000E+00  0.00000000000E+00 -0.37284479318E+03  0.28256490610E+04  0.28009425871E+04 0.  0.
        3    1    3    3  502    0 -0.38047085172E+03 -0.10264950744E+04 -0.10675507526E+04  0.15290895417E+04  0.10100000352E+00 0.  1.
       -3    1    3    3    0  502  0.38047085172E+03  0.10264950744E+04  0.69470595944E+03  0.12965595193E+04  0.10100000352E+00 0. -1.
</event>
<event>
 5   0  0.1394410E-06  0.2802002E+04  0.7818609E-02  0.8302647E-01
       -2   -1    0    0    0  501  0.00000000000E+00  0.00000000000E+00  0.19044360588E+04  0.19044360588E+04  0.25500000920E-02 0.  1.
        2   -1    0    0  501    0  0.00000000000E+00  0.00000000000E+00 -0.10306479937E+04  0.10306479937E+04  0.25500000920E-02 0. -1.
    10030    2    1    2    0    0  0.00000000000E+00  0.00000000000E+00  0.87378806509E+03  0.29350840524E+04  0.28020015725E+04 0.  0.
        4    1    3    3  502    0 -0.66666860351E+03 -0.11022981641E+04 -0.13998345488E+03  0.12958029365E+04  0.12699999809E+01 0. -1.
       -4    1    3    3    0  502  0.66666860351E+03  0.11022981641E+04  0.10137715200E+04  0.16392811160E+04  0.12699999809E+01 0.  1.
</event>
<event>
 5   0  0.4710000E-07  0.2818509E+04  0.7818609E-02  0.8297545E-01
       -3   -1    0    0    0  501  0.00000000000E+00  0.00000000000E+00  0.10215285850E+04  0.10215285900E+04  0.10100000352E+00 0. -1.
        3   -1    0    0  501    0  0.00000000000E+00  0.00000000000E+00 -0.19441432213E+04  0.19441432239E+04  0.10100000352E+00 0.  1.
    10030    2    1    2    0    0  0.00000000000E+00  0.00000000000E+00 -0.92261463627E+03  0.29656718139E+04  0.28185087441E+04 0.  0.
        4    1    3    3  502    0  0.73412014436E+03  0.19685465840E+03  0.78737845312E+03  0.10943722329E+04  0.12699999809E+01 0. -1.
       -4    1    3    3    0  502 -0.73412014436E+03 -0.19685465840E+03 -0.17099930894E+04  0.18712995809E+04  0.12699999809E+01 0.  1.
</event>
<event>
 5   0  0.1499888E-06  0.2808801E+04  0.7818609E-02  0.8300541E-01
        2   -1    0    0  501    0  0.00000000000E+00  0.00000000000E+00  0.19127088812E+04  0.19127088812E+04  0.25500000920E-02 0.  1.
       -2   -1    0    0    0  501  0.00000000000E+00  0.00000000000E+00 -0.10311763341E+04  0.10311763341E+04  0.25500000920E-02 0. -1.
    10030    2    1    2    0    0  0.00000000000E+00  0.00000000000E+00  0.88153254711E+03  0.29438852153E+04  0.28088005499E+04 0.  0.
        3    1    3    3  502    0  0.11684275609E+04  0.77553916877E+03  0.36194188453E+03  0.14483390160E+04  0.10100000352E+00 0. -1.
       -3    1    3    3    0  502 -0.11684275609E+04 -0.77553916877E+03  0.51959066258E+03  0.14955461993E+04  0.10100000352E+00 0.  1.
</event>
<event>
 5   0  0.1394410E-06  0.2785291E+04  0.7818609E-02  0.8307849E-01
        2   -1    0    0  501    0  0.00000000000E+00  0.00000000000E+00  0.14046939544E+04  0.14046939544E+04  0.25500000920E-02 0.  1.
       -2   -1    0    0    0  501  0.00000000000E+00  0.00000000000E+00 -0.13807007081E+04  0.13807007081E+04  0.25500000920E-02 0. -1.
    10030    2    1    2    0    0  0.00000000000E+00  0.00000000000E+00  0.23993246325E+02  0.27853946625E+04  0.27852913223E+04 0.  0.
        4    1    3    3  502    0 -0.31493808457E+03  0.60597385739E+03  0.12257426105E+04  0.14031524768E+04  0.12699999809E+01 0.  1.
       -4    1    3    3    0  502  0.31493808457E+03 -0.60597385739E+03 -0.12017493642E+04  0.13822421858E+04  0.12699999809E+01 0. -1.
</event>
<event>
 5   0  0.1461146E-06  0.2799953E+04  0.7818609E-02  0.8303283E-01
       -2   -1    0    0    0  501  0.00000000000E+00  0.00000000000E+00  0.11380224218E+04  0.11380224218E+04  0.25500000920E-02 0.  1.
        2   -1    0    0  501    0  0.00000000000E+00  0.00000000000E+00 -0.17222282991E+04  0.17222282991E+04  0.25500000920E-02 0. -1.
    10030    2    1    2    0    0  0.00000000000E+00  0.00000000000E+00 -0.58420587732E+03  0.28602507209E+04  0.27999531566E+04 0.  0.
        1    1    3    3  502    0  0.13582543281E+04 -0.31453078402E+03 -0.42192228259E+03  0.14566409463E+04  0.50400001928E-02 0.  1.
       -1    1    3    3    0  502 -0.13582543281E+04  0.31453078402E+03 -0.16228359473E+03  0.14036097745E+04  0.50400001928E-02 0. -1.
</event>
<event>
 5   0  0.5282098E-07  0.2791157E+04  0.7818609E-02  0.8306019E-01
        1   -1    0    0  501    0  0.00000000000E+00  0.00000000000E+00  0.19105235874E+04  0.19105235874E+04  0.50400001928E-02 0.  1.
       -1   -1    0    0    0  501  0.00000000000E+00  0.00000000000E+00 -0.10194271962E+04  0.10194271962E+04  0.50400001928E-02 0. -1.
    10030    2    1    2    0    0  0.00000000000E+00  0.00000000000E+00  0.89109639117E+03  0.29299507836E+04  0.27911572539E+04 0.  0.
        4    1    3    3  502    0 -0.28687756109E+03  0.13652734417E+04  0.40672555970E+03  0.14531681250E+04  0.12699999809E+01 0. -1.
       -4    1    3    3    0  502  0.28687756109E+03 -0.13652734417E+04  0.48437083146E+03  0.14767826586E+04  0.12699999809E+01 0.  1.
</event>
<event>
 5   0  0.1499888E-06  0.2800690E+04  0.7818609E-02  0.8303054E-01
       -2   -1    0    0    0  501  0.00000000000E+00  0.00000000000E+00  0.12706005783E+04  0.12706005783E+04  0.25500000920E-02 0. -1.
        2   -1    0    0  501    0  0.00000000000E+00  0.00000000000E+00 -0.15433381857E+04  0.15433381857E+04  0.25500000920E-02 0.  1.
    10030    2    1    2    0    0  0.00000000000E+00  0.00000000000E+00 -0.27273760739E+03  0.28139387641E+04  0.28006901945E+04 0.  0.
        3    1    3    3  502    0  0.63205331555E+03 -0.77825362440E+03  0.84590427201E+03  0.13117637536E+04  0.10100000352E+00 0. -1.
       -3    1    3    3    0  502 -0.63205331555E+03  0.77825362440E+03 -0.11186418794E+04  0.15021750105E+04  0.10100000352E+00 0.  1.
</event>
<event>
 5   0  0.1439207E-06  0.2802885E+04  0.7818609E-02  0.8302373E-01
       -2   -1    0    0    0  501  0.00000000000E+00  0.00000000000E+00  0.11369579826E+04  0.11369579826E+04  0.25500000920E-02 0. -1.
        2   -1    0    0  501    0  0.00000000000E+00  0.00000000000E+00 -0.17274523830E+04  0.17274523830E+04  0.25500000920E-02 0.  1.
    10030    2    1    2    0    0  0.00000000000E+00  0.00000000000E+00 -0.59049440036E+03  0.28644103656E+04  0.28028847828E+04 0.  0.
        5    1    3    3  502    0  0.52205173439E+03  0.12734956629E+04 -0.25464827048E+02  0.13765899042E+04  0.46999998093E+01 0. -1.
       -5    1    3    3    0  502 -0.52205173439E+03 -0.12734956629E+04 -0.56502957331E+03  0.14878204615E+04  0.46999998093E+01 0.  1.
</event>
<event>
 5   0  0.5551565E-07  0.2799685E+04  0.7818609E-02  0.8303366E-01
       -1   -1    0    0    0  501  0.00000000000E+00  0.00000000000E+00  0.11222018035E+04  0.11222018036E+04  0.50400001928E-02 0.  1.
        1   -1    0    0  501    0  0.00000000000E+00  0.00000000000E+00 -0.17461738014E+04  0.17461738014E+04  0.50400001928E-02 0. -1.
    10030    2    1    2    0    0  0.00000000000E+00  0.00000000000E+00 -0.62397199789E+03  0.28683756050E+04  0.27996852604E+04 0.  0.
        3    1    3    3  502    0  0.11887259324E+04  0.33457151024E+03 -0.98736516053E+03  0.15811063874E+04  0.10100000352E+00 0. -1.
       -3    1    3    3    0  502 -0.11887259324E+04 -0.33457151024E+03  0.36339316264E+03  0.12872692176E+04  0.10100000352E+00 0.  1.
</event>
<event>
 5   0  0.5282098E-07  0.2783160E+04  0.7818609E-02  0.8308516E-01
       -1   -1    0    0    0  501  0.00000000000E+00  0.00000000000E+00  0.11317806260E+04  0.11317806260E+04  0.50400001928E-02 0. -1.
        1   -1    0    0  501    0  0.00000000000E+00  0.00000000000E+00 -0.17110158177E+04  0.17110158177E+04  0.50400001928E-02 0.  1.
    10030    2    1    2    0    0  0.00000000000E+00  0.00000000000E+00 -0.57923519171E+03  0.28427964437E+04  0.27831597534E+04 0.  0.
        4    1    3    3  502    0  0.97167074892E+03  0.62564143032E+01  0.72787500072E+03  0.12140785875E+04  0.12699999809E+01 0. -1.
       -4    1    3    3    0  502 -0.97167074892E+03 -0.62564143032E+01 -0.13071101924E+04  0.16287178562E+04  0.12699999809E+01 0.  1.
</event>
<event>
 5   0  0.1394410E-06  0.2794562E+04  0.7818609E-02  0.8304959E-01
        2   -1    0    0  501    0  0.00000000000E+00  0.00000000000E+00  0.14544017934E+04  0.14544017934E+04  0.25500000920E-02 0.  1.
       -2   -1    0    0    0  501  0.00000000000E+00  0.00000000000E+00 -0.13424032757E+04  0.13424032757E+04  0.25500000920E-02 0. -1.
    10030    2    1    2    0    0  0.00000000000E+00  0.00000000000E+00  0.11199851770E+03  0.27968050691E+04  0.27945616698E+04 0.  0.
        4    1    3    3  502    0  0.12260304634E+04 -0.24192643065E+03 -0.56957294585E+03  0.13733513930E+04  0.12699999809E+01 0. -1.
       -4    1    3    3    0  502 -0.12260304634E+04  0.24192643065E+03  0.68157146355E+03  0.14234536761E+04  0.12699999809E+01 0.  1.
</event>
<event>
 5   0  0.5551565E-07  0.2793470E+04  0.7818609E-02  0.8305298E-01
        1   -1    0    0  501    0  0.00000000000E+00  0.00000000000E+00  0.19284265424E+04  0.19284265424E+04  0.50400001928E-02 0. -1.
       -1   -1    0    0    0  501  0.00000000000E+00  0.00000000000E+00 -0.10116378017E+04  0.10116378017E+04  0.50400001928E-02 0.  1.
    10030    2    1    2    0    0  0.00000000000E+00  0.00000000000E+00  0.91678874073E+03  0.29400643441E+04  0.27934703779E+04 0.  0.
        3    1    3    3  502    0  0.96802193336E+03  0.93651530552E+03  0.69202817164E+02  0.13486720955E+04  0.10100000352E+00 0.  1.
       -3    1    3    3    0  502 -0.96802193336E+03 -0.93651530552E+03  0.84758592357E+03  0.15913922486E+04  0.10100000352E+00 0. -1.
</event>
<event>
 5   0  0.1439207E-06  0.2797402E+04  0.7818609E-02  0.8304075E-01
       -2   -1    0    0    0  501  0.00000000000E+00  0.00000000000E+00  0.11136914558E+04  0.11136914558E+04  0.25500000920E-02 0. -1.
        2   -1    0    0  501    0  0.00000000000E+00  0.00000000000E+00 -0.17566489615E+04  0.17566489615E+04  0.25500000920E-02 0.  1.
    10030    2    1    2    0    0  0.00000000000E+00  0.00000000000E+00 -0.64295750568E+03  0.28703404173E+04  0.27974023231E+04 0.  0.
        5    1    3    3  502    0  0.98148564255E+03 -0.96262218819E+03 -0.58585412525E+03  0.14943904074E+04  0.46999998093E+01 0.  1.
       -5    1    3    3    0  502 -0.98148564255E+03  0.96262218819E+03 -0.57103380427E+02  0.13759500099E+04  0.46999998093E+01 0. -1.
</event>
<event>
 5   0  0.1377807E-06  0.2797034E+04  0.7818609E-02  0.8304190E-01
        2   -1    0    0  501    0  0.00000000000E+00  0.00000000000E+00  0.14916391596E+04  0.14916391596E+04  0.25500000920E-02 0.  1.
       -2   -1    0    0    0  501  0.00000000000E+00  0.00000000000E+00 -0.13112086461E+04  0.13112086461E+04  0.25500000920E-02 0. -1.
    10030    2    1    2    0    0  0.00000000000E+00  0.00000000000E+00  0.18043051344E+03  0.28028478057E+04  0.27970342600E+04 0.  0.
        2    1    3    3  502    0 -0.72185849775E+03  0.17422170929E+03  0.12777595327E+04  0.14778708733E+04  0.25500000920E-02 0.  1.
       -2    1    3    3    0  502  0.72185849775E+03 -0.17422170929E+03 -0.10973290193E+04  0.13249769324E+04  0.25500000920E-02 0. -1.
</event>
<event>
 5   0  0.1439207E-06  0.2800369E+04  0.7818609E-02  0.8303154E-01
        2   -1    0    0  501    0  0.00000000000E+00  0.00000000000E+00  0.12023324519E+04  0.12023324519E+04  0.25500000920E-02 0.  1.
       -2   -1    0    0    0  501  0.00000000000E+00  0.00000000000E+00 -0.16305939696E+04  0.16305939696E+04  0.25500000920E-02 0. -1.
    10030    2    1    2    0    0  0.00000000000E+00  0.00000000000E+00 -0.42826151769E+03  0.28329264216E+04  0.28003685797E+04 0.  0.
        5    1    3    3  502    0 -0.89352641925E+03 -0.70241334249E+03  0.61312967148E+03  0.12914039065E+04  0.46999998093E+01 0.  1.
       -5    1    3    3    0  502  0.89352641925E+03  0.70241334249E+03 -0.10413911892E+04  0.15415225151E+04  0.46999998093E+01 0. -1.
</event>
<event>
 5   0  0.5297741E-07  0.2796797E+04  0.7818609E-02  0.8304264E-01
        1   -1    0    0  501    0  0.00000000000E+00  0.00000000000E+00  0.16905794923E+04  0.16905794923E+04  0.50400001928E-02 0.  1.
       -1   -1    0    0    0  501  0.00000000000E+00  0.00000000000E+00 -0.11567144476E+04  0.11567144476E+04  0.50400001928E-02 0. -1.
    10030    2    1    2    0    0  0.00000000000E+00  0.00000000000E+00  0.53386504471E+03  0.28472939399E+04  0.27967965415E+04 0.  0.
        5    1    3    3  502    0 -0.79161435923E+03 -0.11349787476E+04  0.61634423261E+02  0.13851537616E+04  0.46999998093E+01 0.  1.
       -5    1    3    3    0  502  0.79161435923E+03  0.11349787476E+04  0.47223062145E+03  0.14621401783E+04  0.46999998093E+01 0. -1.
</event>
<event>
 5   0  0.5282098E-07  0.2806469E+04  0.7818609E-02  0.8301263E-01
        1   -1    0    0  501    0  0.00000000000E+00  0.00000000000E+00  0.96424087035E+03  0.96424087036E+03  0.50400001928E-02 0. -1.
       -1   -1    0    0    0  501  0.00000000000E+00  0.00000000000E+00 -0.20420898384E+04  0.20420898384E+04  0.50400001928E-02 0.  1.
    10030    2    1    2    0    0  0.00000000000E+00  0.00000000000E+00 -0.10778489680E+04  0.30063307088E+04  0.28064685875E+04 0.  0.
        4    1    3    3  502    0 -0.18129711432E+03 -0.12279627086E+04  0.16213123699E+03  0.12518183608E+04  0.12699999809E+01 0. -1.
       -4    1    3    3    0  502  0.18129711432E+03  0.12279627086E+04 -0.12399802050E+04  0.17545123480E+04  0.12699999809E+01 0.  1.
</event>
<event>
 5   0  0.1499888E-06  0.2795382E+04  0.7818609E-02  0.8304704E-01
       -2   -1    0    0    0  501  0.00000000000E+00  0.00000000000E+00  0.92081298969E+03  0.92081298969E+03  0.25500000920E-02 0.  1.
        2   -1    0    0  501    0  0.00000000000E+00  0.00000000000E+00 -0.21215383395E+04  0.21215383395E+04  0.25500000920E-02 0. -1.
    10030    2    1    2    0    0  0.00000000000E+00  0.00000000000E+00 -0.12007253498E+04  0.30423513292E+04  0.27953819497E+04 0.  0.
        3    1    3    3  502    0  0.10186232557E+04 -0.61578785278E+03 -0.13977237994E+04  0.18358703239E+04  0.10100000352E+00 0. -1.
       -3    1    3    3    0  502 -0.10186232557E+04  0.61578785278E+03  0.19699844965E+03  0.12064810052E+04  0.10100000352E+00 0.  1.
</event>
<event>
 5   0  0.5214658E-07  0.2794003E+04  0.7818609E-02  0.8305133E-01
       -1   -1    0    0    0  501  0.00000000000E+00  0.00000000000E+00  0.10101301734E+04  0.10101301735E+04  0.50400001928E-02 0. -1.
        1   -1    0    0  501    0  0.00000000000E+00  0.00000000000E+00 -0.19320416606E+04  0.19320416606E+04  0.50400001928E-02 0.  1.
    10030    2    1    2    0    0  0.00000000000E+00  0.00000000000E+00 -0.92191148719E+03  0.29421718341E+04  0.27940032769E+04 0.  0.
        2    1    3    3  502    0 -0.59761488310E+03 -0.12127968967E+04 -0.83115821931E+03  0.15870865908E+04  0.25500000920E-02 0.  1.
       -2    1    3    3    0  502  0.59761488310E+03  0.12127968967E+04 -0.90753267872E+02  0.13550852433E+04  0.25500000920E-02 0. -1.
</event>
<event>
 5   0  0.1394410E-06  0.2799021E+04  0.7818609E-02  0.8303572E-01
       -2   -1    0    0    0  501  0.00000000000E+00  0.00000000000E+00  0.14886302834E+04  0.14886302834E+04  0.25500000920E-02 0. -1.
        2   -1    0    0  501    0  0.00000000000E+00  0.00000000000E+00 -0.13157257543E+04  0.13157257543E+04  0.25500000920E-02 0.  1.
    10030    2    1    2    0    0  0.00000000000E+00  0.00000000000E+00  0.17290452914E+03  0.28043560377E+04  0.27990206876E+04 0.  0.
        4    1    3    3  502    0  0.81659631196E+03 -0.74609923441E+03 -0.77258161480E+03  0.13492136853E+04  0.12699999809E+01 0.  1.
       -4    1    3    3    0  502 -0.81659631196E+03  0.74609923441E+03  0.94548614393E+03  0.14551423523E+04  0.12699999809E+01 0. -1.
</event>
<event>
 5   0  0.5282098E-07  0.2793504E+04  0.7818609E-02  0.8305288E-01
        1   -1    0    0  501    0  0.00000000000E+00  0.00000000000E+00  0.13526657050E+04  0.13526657050E+04  0.50400001928E-02 0.  1.
       -1   -1    0    0    0  501  0.00000000000E+00  0.00000000000E+00 -0.14422754064E+04  0.14422754064E+04  0.50400001928E-02 0. -1.
    10030    2    1    2    0    0  0.00000000000E+00  0.00000000000E+00 -0.89609701393E+02  0.27949411114E+04  0.27935042362E+04 0.  0.
        4    1    3    3  502    0 -0.81936060311E+03  0.33280111573E+02  0.10864647995E+04  0.13612004765E+04  0.12699999809E+01 0.  1.
       -4    1    3    3    0  502  0.81936060311E+03 -0.33280111573E+02 -0.11760745009E+04  0.14337406349E+04  0.12699999809E+01 0. -1.
</event>
<event>
 5   0  0.5362952E-07  0.2797303E+04  0.7818609E-02  0.8304106E-01
        1   -1    0    0  501    0  0.00000000000E+00  0.00000000000E+00  0.19365835026E+04  0.19365835026E+04  0.50400001928E-02 0.  1.
       -1   -1    0    0    0  501  0.00000000000E+00  0.00000000000E+00 -0.10101432029E+04  0.10101432029E+04  0.50400001928E-02 0. -1.
    10030    2    1    2    0    0  0.00000000000E+00  0.00000000000E+00  0.92644029973E+03  0.29467267055E+04  0.27973034601E+04 0.  0.
        1    1    3    3  502    0  0.80648640167E+03  0.11053755185E+04  0.15799942990E+03  0.13774030539E+04  0.50400001928E-02 0. -1.
       -1    1    3    3    0  502 -0.80648640167E+03 -0.11053755185E+04  0.76844086983E+03  0.15693236516E+04  0.50400001928E-02 0.  1.
</event>
<event>
 5   0  0.5297741E-07  0.2816195E+04  0.7818609E-02  0.8298258E-01
       -1   -1    0    0    0  501  0.00000000000E+00  0.00000000000E+00  0.16161410580E+04  0.16161410580E+04  0.50400001928E-02 0.  1.
        1   -1    0    0  501    0  0.00000000000E+00  0.00000000000E+00 -0.12268351300E+04  0.12268351300E+04  0.50400001928E-02 0. -1.
    10030    2    1    2    0    0  0.00000000000E+00  0.00000000000E+00  0.38930592792E+03  0.28429761880E+04  0.28161950394E+04 0.  0.
        5    1    3    3  502    0  0.49766887807E+03  0.94189606869E+03 -0.73490431652E+03  0.12941981923E+04  0.46999998093E+01 0. -1.
       -5    1    3    3    0  502 -0.49766887807E+03 -0.94189606869E+03  0.11242102444E+04  0.15487779957E+04  0.46999998093E+01 0.  1.
</event>
<event>
 5   0  0.5551565E-07  0.2770355E+04  0.7818609E-02  0.8312532E-01
       -1   -1    0    0    0  501  0.00000000000E+00  0.00000000000E+00  0.14593636898E+04  0.14593636898E+04  0.50400001928E-02 0. -1.
        1   -1    0    0  501    0  0.00000000000E+00  0.00000000000E+00 -0.13147621907E+04  0.13147621907E+04  0.50400001928E-02 0.  1.
    10030    2    1    2    0    0  0.00000000000E+00  0.00000000000E+00  0.14460149906E+03  0.27741258805E+04  0.27703546356E+04 0.  0.
        3    1    3    3  502    0 -0.10944670554E+04 -0.84830816428E+03  0.37162887625E+02  0.13852313768E+04  0.10100000352E+00 0.  1.
       -3    1    3    3    0  502  0.10944670554E+04  0.84830816428E+03  0.10743861143E+03  0.13888945037E+04  0.10100000352E+00 0. -1.
</event>
<event>
 5   0  0.1377807E-06  0.2778278E+04  0.7818609E-02  0.8310044E-01
        2   -1    0    0  501    0  0.00000000000E+00  0.00000000000E+00  0.16230480109E+04  0.16230480109E+04  0.25500000920E-02 0. -1.
       -2   -1    0    0    0  501  0.00000000000E+00  0.00000000000E+00 -0.11889401460E+04  0.11889401460E+04  0.25500000920E-02 0.  1.
    10030    2    1    2    0    0  0.00000000000E+00  0.00000000000E+00  0.43410786488E+03  0.28119881569E+04  0.27782778400E+04 0.  0.
        2    1    3    3  502    0  0.29751991104E+03  0.12791074829E+04  0.67539834023E+03  0.14767521689E+04  0.25500000920E-02 0. -1.
       -2    1    3    3    0  502 -0.29751991104E+03 -0.12791074829E+04 -0.24129047535E+03  0.13352359881E+04  0.25500000920E-02 0.  1.
</event>
<event>
 5   0  0.5282098E-07  0.2798667E+04  0.7818609E-02  0.8303682E-01
       -1   -1    0    0    0  501  0.00000000000E+00  0.00000000000E+00  0.96308732214E+03  0.96308732215E+03  0.50400001928E-02 0.  1.
        1   -1    0    0  501    0  0.00000000000E+00  0.00000000000E+00 -0.20331845857E+04  0.20331845858E+04  0.50400001928E-02 0. -1.
    10030    2    1    2    0    0  0.00000000000E+00  0.00000000000E+00 -0.10700972636E+04  0.29962719079E+04  0.27986670385E+04 0.  0.
        4    1    3    3  502    0  0.13082482589E+03 -0.38543999459E+03 -0.19684042266E+04  0.20100487399E+04  0.12699999809E+01 0. -1.
       -4    1    3    3    0  502 -0.13082482589E+03  0.38543999459E+03  0.89830696299E+03  0.98622316803E+03  0.12699999809E+01 0.  1.
</event>
<event>
 5   0  0.1439207E-06  0.2796446E+04  0.7818609E-02  0.8304373E-01
        2   -1    0    0  501    0  0.00000000000E+00  0.00000000000E+00  0.17929580895E+04  0.17929580895E+04  0.25500000920E-02 0. -1.
       -2   -1    0    0    0  501  0.00000000000E+00  0.00000000000E+00 -0.10903918550E+04  0.10903918550E+04  0.25500000920E-02 0.  1.
    10030    2    1    2    0    0  0.00000000000E+00  0.00000000000E+00  0.70256623451E+03  0.28833499445E+04  0.27964455275E+04 0.  0.
        5    1    3    3  502    0  0.28150778087E+03 -0.13309513905E+04  0.18249204033E+02  0.13605268678E+04  0.46999998093E+01 0.  1.
       -5    1    3    3    0  502 -0.28150778087E+03  0.13309513905E+04  0.68431703048E+03  0.15228230767E+04  0.46999998093E+01 0. -1.
</event>
<event>
 5   0  0.1394410E-06  0.2801808E+04  0.7818609E-02  0.8302707E-01
       -2   -1    0    0    0  501  0.00000000000E+00  0.00000000000E+00  0.16823409527E+04  0.16823409527E+04  0.25500000920E-02 0.  1.
        2   -1    0    0  501    0  0.00000000000E+00  0.00000000000E+00 -0.11665479072E+04  0.11665479072E+04  0.25500000920E-02 0. -1.
    10030    2    1    2    0    0  0.00000000000E+00  0.00000000000E+00  0.51579304544E+03  0.28488888599E+04  0.28018075006E+04 0.  0.
        4    1    3    3  502    0 -0.10841367367E+04 -0.85339555651E+03  0.11139211641E+02  0.13797688700E+04  0.12699999809E+01 0. -1.
       -4    1    3    3    0  502  0.10841367367E+04  0.85339555651E+03  0.50465383380E+03  0.14691199899E+04  0.12699999809E+01 0.  1.
</event>
<event>
 5   0  0.5362952E-07  0.2800866E+04  0.7818609E-02  0.8303000E-01
        1   -1    0    0  501    0  0.00000000000E+00  0.00000000000E+00  0.12755146395E+04  0.12755146395E+04  0.50400001928E-02 0. -1.
       -1   -1    0    0    0  501  0.00000000000E+00  0.00000000000E+00 -0.15375847955E+04  0.15375847955E+04  0.50400001928E-02 0.  1.
    10030    2    1    2    0    0  0.00000000000E+00  0.00000000000E+00 -0.26207015593E+03  0.28130994350E+04  0.28008655206E+04 0.  0.
        1    1    3    3  502    0  0.10883997441E+04  0.17614597453E+03  0.73620070057E+03  0.13257574736E+04  0.50400001928E-02 0. -1.
       -1    1    3    3    0  502 -0.10883997441E+04 -0.17614597453E+03 -0.99827085650E+03  0.14873419614E+04  0.50400001928E-02 0.  1.
</event>
<event>
 5   0  0.1439207E-06  0.2802388E+04  0.7818609E-02  0.8302527E-01
        2   -1    0    0  501    0  0.00000000000E+00  0.00000000000E+00  0.13490495503E+04  0.13490495503E+04  0.25500000920E-02 0. -1.
       -2   -1    0    0    0  501  0.00000000000E+00  0.00000000000E+00 -0.14553540098E+04  0.14553540098E+04  0.25500000920E-02 0.  1.
    10030    2    1    2    0    0  0.00000000000E+00  0.00000000000E+00 -0.10630445950E+03  0.28044035601E+04  0.28023880334E+04 0.  0.
        5    1    3    3  502    0 -0.98113041837E+03 -0.59808377253E+03  0.74929822615E+03  0.13717838819E+04  0.46999998093E+01 0. -1.
       -5    1    3    3    0  502  0.98113041837E+03  0.59808377253E+03 -0.85560268565E+03  0.14326196782E+04  0.46999998093E+01 0.  1.
</event>
<event>
 5   0  0.1461146E-06  0.2793671E+04  0.7818609E-02  0.8305236E-01
        2   -1    0    0  501    0  0.00000000000E+00  0.00000000000E+00  0.23453057830E+04  0.23453057830E+04  0.25500000920E-02 0.  1.
       -2   -1    0    0    0  501  0.00000000000E+00  0.00000000000E+00 -0.83193830614E+03  0.83193830615E+03  0.25500000920E-02 0. -1.
    10030    2    1    2    0    0  0.00000000000E+00  0.00000000000E+00  0.15133674769E+04  0.31772440892E+04  0.27936712194E+04 0.  0.
        1    1    3    3  502    0  0.83437507251E+03 -0.85566675430E+02 -0.51365934908E+03  0.98353919317E+03  0.50400001928E-02 0. -1.
       -1    1    3    3    0  502 -0.83437507251E+03  0.85566675430E+02  0.20270268260E+04  0.21937048960E+04  0.50400001928E-02 0.  1.
</event>
<event>
 5   0  0.1499888E-06  0.2806334E+04  0.7818609E-02  0.8301305E-01
        2   -1    0    0  501    0  0.00000000000E+00  0.00000000000E+00  0.23654900197E+04  0.23654900197E+04  0.25500000920E-02 0.  1.
       -2   -1    0    0    0  501  0.00000000000E+00  0.00000000000E+00 -0.83233371872E+03  0.83233371872E+03  0.25500000920E-02 0. -1.
    10030    2    1    2    0    0  0.00000000000E+00  0.00000000000E+00  0.15331563009E+04  0.31978237384E+04  0.28063336257E+04 0.  0.
        3    1    3    3  502    0  0.47038149535E+02 -0.73680057209E+03 -0.59310621367E+03  0.94702833191E+03  0.10100000352E+00 0. -1.
       -3    1    3    3    0  502 -0.47038149535E+02  0.73680057209E+03  0.21262625146E+04  0.22507954065E+04  0.10100000352E+00 0.  1.
</event>
<event>
 5   0  0.5362952E-07  0.2798768E+04  0.7818609E-02  0.8303651E-01
       -1   -1    0    0    0  501  0.00000000000E+00  0.00000000000E+00  0.14576393584E+04  0.14576393584E+04  0.50400001928E-02 0.  1.
        1   -1    0    0  501    0  0.00000000000E+00  0.00000000000E+00 -0.13434569152E+04  0.13434569152E+04  0.50400001928E-02 0. -1.
    10030    2    1    2    0    0  0.00000000000E+00  0.00000000000E+00  0.11418244322E+03  0.28010962736E+04  0.27987680690E+04 0.  0.
        1    1    3    3  502    0 -0.11126247031E+04  0.20029457985E+03 -0.76835181747E+03  0.13669002027E+04  0.50400001928E-02 0. -1.
       -1    1    3    3    0  502  0.11126247031E+04 -0.20029457985E+03  0.88253426070E+03  0.14341960710E+04  0.50400001928E-02 0.  1.
</event>
<event>
 5   0  0.5214658E-07  0.2797091E+04  0.7818609E-02  0.8304172E-01
        1   -1    0    0  501    0  0.00000000000E+00  0.00000000000E+00  0.10582475833E+04  0.10582475833E+04  0.50400001928E-02 0.  1.
       -1   -1    0    0    0  501  0.00000000000E+00  0.00000000000E+00 -0.18482720801E+04  0.18482720801E+04  0.50400001928E-02 0. -1.
    10030    2    1    2    0    0  0.00000000000E+00  0.00000000000E+00 -0.79002449681E+03  0.29065196634E+04  0.27970909617E+04 0.  0.
        2    1    3    3  502    0 -0.12085595260E+04  0.54340276165E+02  0.33412328526E+03  0.12550726526E+04  0.25500000920E-02 0.  1.
       -2    1    3    3    0  502  0.12085595260E+04 -0.54340276165E+02 -0.11241477821E+04  0.16514470108E+04  0.25500000920E-02 0. -1.
</event>
<event>
 5   0  0.1461146E-06  0.2801037E+04  0.7818609E-02  0.8302946E-01
        2   -1    0    0  501    0  0.00000000000E+00  0.00000000000E+00  0.26769394827E+04  0.26769394827E+04  0.25500000920E-02 0. -1.
       -2   -1    0    0    0  501  0.00000000000E+00  0.00000000000E+00 -0.73272207323E+03  0.73272207323E+03  0.25500000920E-02 0.  1.
    10030    2    1    2    0    0  0.00000000000E+00  0.00000000000E+00  0.19442174095E+04  0.34096615560E+04  0.28010374133E+04 0.  0.
        1    1    3    3  502    0  0.82973938965E+03  0.10567649518E+04  0.49096058796E+03  0.14304761155E+04  0.50400001928E-02 0.  1.
       -1    1    3    3    0  502 -0.82973938965E+03 -0.10567649518E+04  0.14532568216E+04  0.19791854404E+04  0.50400001928E-02 0. -1.
</event>
<event>
 5   0  0.1499888E-06  0.2796242E+04  0.7818609E-02  0.8304436E-01
        2   -1    0    0  501    0  0.00000000000E+00  0.00000000000E+00  0.20151186849E+04  0.20151186849E+04  0.25500000920E-02 0. -1.
       -2   -1    0    0    0  501  0.00000000000E+00  0.00000000000E+00 -0.97003841848E+03  0.97003841848E+03  0.25500000920E-02 0.  1.
    10030    2    1    2    0    0  0.00000000000E+00  0.00000000000E+00  0.10450802664E+04  0.29851571034E+04  0.27962421513E+04 0.  0.
        3    1    3    3  502    0 -0.89501800623E+03  0.62569653613E+03 -0.40947678059E+03  0.11662866847E+04  0.10100000352E+00 0. -1.
       -3    1    3    3    0  502  0.89501800623E+03 -0.62569653613E+03  0.14545570470E+04  0.18188704187E+04  0.10100000352E+00 0.  1.
</event>
<event>
 5   0  0.5297741E-07  0.2802153E+04  0.7818609E-02  0.8302600E-01
        1   -1    0    0  501    0  0.00000000000E+00  0.00000000000E+00  0.20192949729E+04  0.20192949729E+04  0.50400001928E-02 0.  1.
       -1   -1    0    0    0  501  0.00000000000E+00  0.00000000000E+00 -0.97212882497E+03  0.97212882498E+03  0.50400001928E-02 0. -1.
    10030    2    1    2    0    0  0.00000000000E+00  0.00000000000E+00  0.10471661480E+04  0.29914237979E+04  0.28021526363E+04 0.  0.
        5    1    3    3  502    0 -0.10150647344E+04 -0.65469936776E+03 -0.23430245380E+03  0.12304094469E+04  0.46999998093E+01 0. -1.
       -5    1    3    3    0  502  0.10150647344E+04  0.65469936776E+03  0.12814686018E+04  0.17610143510E+04  0.46999998093E+01 0.  1.
</event>
<event>
 5   0  0.1499888E-06  0.2761728E+04  0.7818609E-02  0.8315250E-01
        2   -1    0    0  501    0  0.00000000000E+00  0.00000000000E+00  0.18679479449E+04  0.18679479449E+04  0.25500000920E-02 0.  1.
       -2   -1    0    0    0  501  0.00000000000E+00  0.00000000000E+00 -0.10207911884E+04  0.10207911884E+04  0.25500000920E-02 0. -1.
    10030    2    1    2    0    0  0.00000000000E+00  0.00000000000E+00  0.84715675651E+03  0.28887391334E+04  0.27617275772E+04 0.  0.
        3    1    3    3  502    0 -0.18569102869E+03  0.79761280759E+03 -0.73936174791E+03  0.11033236848E+04  0.10100000352E+00 0. -1.
       -3    1    3    3    0  502  0.18569102869E+03 -0.79761280759E+03  0.15865185044E+04  0.17854154486E+04  0.10100000352E+00 0.  1.
</event>
<event>
 5   0  0.5282098E-07  0.2804800E+04  0.7818609E-02  0.8301780E-01
       -1   -1    0    0    0  501  0.00000000000E+00  0.00000000000E+00  0.12111258223E+04  0.12111258223E+04  0.50400001928E-02 0. -1.
        1   -1    0    0  501    0  0.00000000000E+00  0.00000000000E+00 -0.16238826531E+04  0.16238826531E+04  0.50400001928E-02 0.  1.
    10030    2    1    2    0    0  0.00000000000E+00  0.00000000000E+00 -0.41275683081E+03  0.28350084755E+04  0.28048003235E+04 0.  0.
        4    1    3    3  502    0 -0.69851502567E+03  0.53111293370E+03 -0.13121075732E+04  0.15784904453E+04  0.12699999809E+01 0.  1.
       -4    1    3    3    0  502  0.69851502567E+03 -0.53111293370E+03  0.89935074237E+03  0.12565180302E+04  0.12699999809E+01 0. -1.
</event>
<event>
 5   0  0.5282098E-07  0.2801028E+04  0.7818609E-02  0.8302949E-01
        1   -1    0    0  501    0  0.00000000000E+00  0.00000000000E+00  0.11246300387E+04  0.11246300387E+04  0.50400001928E-02 0. -1.
       -1   -1    0    0    0  501  0.00000000000E+00  0.00000000000E+00 -0.17440750503E+04  0.17440750503E+04  0.50400001928E-02 0.  1.
    10030    2    1    2    0    0  0.00000000000E+00  0.00000000000E+00 -0.61944501161E+03  0.28687050891E+04  0.28010278052E+04 0.  0.
        4    1    3    3  502    0  0.66225691423E+03 -0.29649532639E+03 -0.15365568973E+04  0.16992652561E+04  0.12699999809E+01 0.  1.
       -4    1    3    3    0  502 -0.66225691423E+03  0.29649532639E+03  0.91711188573E+03  0.11694398329E+04  0.12699999809E+01 0. -1.
</event>
<event>
 5   0  0.1499888E-06  0.2796386E+04  0.7818609E-02  0.8304391E-01
       -2   -1    0    0    0  501  0.00000000000E+00  0.00000000000E+00  0.79938650418E+03  0.79938650419E+03  0.25500000920E-02 0.  1.
        2   -1    0    0  501    0  0.00000000000E+00  0.00000000000E+00 -0.24455549529E+04  0.24455549529E+04  0.25500000920E-02 0. -1.
    10030    2    1    2    0    0  0.00000000000E+00  0.00000000000E+00 -0.16461684487E+04  0.32449414571E+04  0.27963859709E+04 0.  0.
        3    1    3    3  502    0 -0.10179252102E+04  0.92172265522E+03 -0.51783091922E+03  0.14676148193E+04  0.10100000352E+00 0. -1.
       -3    1    3    3    0  502  0.10179252102E+04 -0.92172265522E+03 -0.11283375295E+04  0.17773266378E+04  0.10100000352E+00 0.  1.
</event>
<event>
 5   0  0.5297741E-07  0.2801757E+04  0.7818609E-02  0.8302723E-01
       -1   -1    0    0    0  501  0.00000000000E+00  0.00000000000E+00  0.14767555226E+04  0.14767555226E+04  0.50400001928E-02 0.  1.
        1   -1    0    0  501    0  0.00000000000E+00  0.00000000000E+00 -0.13289004916E+04  0.13289004916E+04  0.50400001928E-02 0. -1.
    10030    2    1    2    0    0  0.00000000000E+00  0.00000000000E+00  0.14785503104E+03  0.28056560142E+04  0.28017574056E+04 0.  0.
        5    1    3    3  502    0 -0.39466104297E+03  0.12147601537E+04  0.65008842643E+03  0.14331910626E+04  0.46999998093E+01 0. -1.
       -5    1    3    3    0  502  0.39466104297E+03 -0.12147601537E+04 -0.50223339538E+03  0.13724649515E+04  0.46999998093E+01 0.  1.
</event>
<event>
 5   0  0.5362952E-07  0.2799574E+04  0.7818609E-02  0.8303401E-01
       -1   -1    0    0    0  501  0.00000000000E+00  0.00000000000E+00  0.13390126582E+04  0.13390126582E+04  0.50400001928E-02 0.  1.
        1   -1    0    0  501    0  0.00000000000E+00  0.00000000000E+00 -0.14633194181E+04  0.14633194181E+04  0.50400001928E-02 0. -1.
    10030    2    1    2    0    0  0.00000000000E+00  0.00000000000E+00 -0.12430675991E+03  0.28023320762E+04  0.27995736988E+04 0.  0.
        1    1    3    3  502    0  0.10900872443E+04  0.58464471882E+03  0.59370481023E+03  0.13720732667E+04  0.50400001928E-02 0. -1.
       -1    1    3    3    0  502 -0.10900872443E+04 -0.58464471882E+03 -0.71801157013E+03  0.14302588096E+04  0.50400001928E-02 0.  1.
</event>
<event>
 5   0  0.5282098E-07  0.2793494E+04  0.7818609E-02  0.8305291E-01
        1   -1    0    0  501    0  0.00000000000E+00  0.00000000000E+00  0.16690232856E+04  0.16690232856E+04  0.50400001928E-02 0. -1.
       -1   -1    0    0    0  501  0.00000000000E+00  0.00000000000E+00 -0.11688884636E+04  0.11688884636E+04  0.50400001928E-02 0.  1.
    10030    2    1    2    0    0  0.00000000000E+00  0.00000000000E+00  0.50013482204E+03  0.28379117492E+04  0.27934939155E+04 0.  0.
        4    1    3    3  502    0  0.27446460261E+03  0.85951132595E+03 -0.83309874634E+03  0.12280658254E+04  0.12699999809E+01 0.  1.
       -4    1    3    3    0  502 -0.27446460261E+03 -0.85951132595E+03  0.13332335684E+04  0.16098459238E+04  0.12699999809E+01 0. -1.
</event>
<event>
 5   0  0.1377807E-06  0.2800654E+04  0.7818609E-02  0.8303065E-01
        2   -1    0    0  501    0  0.00000000000E+00  0.00000000000E+00  0.16272503795E+04  0.16272503795E+04  0.25500000920E-02 0.  1.
       -2   -1    0    0    0  501  0.00000000000E+00  0.00000000000E+00 -0.12050486729E+04  0.12050486729E+04  0.25500000920E-02 0. -1.
    10030    2    1    2    0    0  0.00000000000E+00  0.00000000000E+00  0.42220170658E+03  0.28322990524E+04  0.28006541452E+04 0.  0.
        2    1    3    3  502    0  0.56946051114E+03  0.94492757091E+03  0.10832503457E+04  0.15461580448E+04  0.25500000920E-02 0.  1.
       -2    1    3    3    0  502 -0.56946051114E+03 -0.94492757091E+03 -0.66104863915E+03  0.12861410076E+04  0.25500000920E-02 0. -1.
</event>
<event>
 5   0  0.1377807E-06  0.2800000E+04  0.7818609E-02  0.8303268E-01
       -2   -1    0    0    0  501  0.00000000000E+00  0.00000000000E+00  0.12995784897E+04  0.12995784897E+04  0.25500000920E-02 0. -1.
        2   -1    0    0  501    0  0.00000000000E+00  0.00000000000E+00 -0.15081812811E+04  0.15081812811E+04  0.25500000920E-02 0.  1.
    10030    2    1    2    0    0  0.00000000000E+00  0.00000000000E+00 -0.20860279140E+03  0.28077597708E+04  0.27999999654E+04 0.  0.
        2    1    3    3  502    0 -0.50622127161E+02 -0.13952762587E+03 -0.15002691232E+04  0.15075934466E+04  0.25500000920E-02 0.  1.
       -2    1    3    3    0  502  0.50622127161E+02  0.13952762587E+03  0.12916663318E+04  0.13001663243E+04  0.25500000920E-02 0. -1.
</event>
<event>
 5   0  0.1377807E-06  0.2798492E+04  0.7818609E-02  0.8303737E-01
        2   -1    0    0  501    0  0.00000000000E+00  0.00000000000E+00  0.15239447349E+04  0.15239447349E+04  0.25500000920E-02 0. -1.
       -2   -1    0    0    0  501  0.00000000000E+00  0.00000000000E+00 -0.12847509322E+04  0.12847509322E+04  0.25500000920E-02 0.  1.
    10030    2    1    2    0    0  0.00000000000E+00  0.00000000000E+00  0.23919380272E+03  0.28086956671E+04  0.27984920359E+04 0.  0.
        2    1    3    3  502    0 -0.32939941445E+03 -0.71241813923E+03  0.12822011908E+04  0.15033574003E+04  0.25500000920E-02 0. -1.
       -2    1    3    3    0  502  0.32939941445E+03  0.71241813923E+03 -0.10430073880E+04  0.13053382668E+04  0.25500000920E-02 0.  1.
</event>
<event>
 5   0  0.5214658E-07  0.2804757E+04  0.7818609E-02  0.8301793E-01
        1   -1    0    0  501    0  0.00000000000E+00  0.00000000000E+00  0.20708331712E+04  0.20708331712E+04  0.50400001928E-02 0.  1.
       -1   -1    0    0    0  501  0.00000000000E+00  0.00000000000E+00 -0.94969753455E+03  0.94969753457E+03  0.50400001928E-02 0. -1.
    10030    2    1    2    0    0  0.00000000000E+00  0.00000000000E+00  0.11211356366E+04  0.30205307057E+04  0.28047567860E+04 0.  0.
        2    1    3    3  502    0 -0.10533573469E+04 -0.53816795657E+03 -0.25069735558E+03  0.12091466470E+04  0.25500000920E-02 0. -1.
       -2    1    3    3    0  502  0.10533573469E+04  0.53816795657E+03  0.13718329922E+04  0.18113840587E+04  0.25500000920E-02 0.  1.
</event>
<event>
 5   0  0.5282098E-07  0.2799931E+04  0.7818609E-02  0.8303290E-01
       -1   -1    0    0    0  501  0.00000000000E+00  0.00000000000E+00  0.13158232198E+04  0.13158232198E+04  0.50400001928E-02 0.  1.
        1   -1    0    0  501    0  0.00000000000E+00  0.00000000000E+00 -0.14894888601E+04  0.14894888601E+04  0.50400001928E-02 0. -1.
    10030    2    1    2    0    0  0.00000000000E+00  0.00000000000E+00 -0.17366564032E+03  0.28053120799E+04  0.27999314476E+04 0.  0.
        4    1    3    3  502    0 -0.67665066055E+03  0.12198432169E+04  0.31838132354E+02  0.13953095964E+04  0.12699999809E+01 0. -1.
       -4    1    3    3    0  502  0.67665066055E+03 -0.12198432169E+04 -0.20550377267E+03  0.14100024836E+04  0.12699999809E+01 0.  1.
</event>
<event>
 5   0  0.5551565E-07  0.2795255E+04  0.7818609E-02  0.8304743E-01
        1   -1    0    0  501    0  0.00000000000E+00  0.00000000000E+00  0.21610830862E+04  0.21610830862E+04  0.50400001928E-02 0.  1.
       -1   -1    0    0    0  501  0.00000000000E+00  0.00000000000E+00 -0.90388104079E+03  0.90388104080E+03  0.50400001928E-02 0. -1.
    10030    2    1    2    0    0  0.00000000000E+00  0.00000000000E+00  0.12572020454E+04  0.30649641270E+04  0.27952545710E+04 0.  0.
        3    1    3    3  502    0  0.27348882208E+03  0.11068461638E+04 -0.25776415812E+03  0.11689084385E+04  0.10100000352E+00 0. -1.
       -3    1    3    3    0  502 -0.27348882208E+03 -0.11068461638E+04  0.15149662036E+04  0.18960556886E+04  0.10100000352E+00 0.  1.
</event>
<event>
 5   0  0.1439207E-06  0.2805905E+04  0.7818609E-02  0.8301437E-01
        2   -1    0    0  501    0  0.00000000000E+00  0.00000000000E+00  0.13826024799E+04  0.13826024799E+04  0.25500000920E-02 0. -1.
       -2   -1    0    0    0  501  0.00000000000E+00  0.00000000000E+00 -0.14236020343E+04  0.14236020343E+04  0.25500000920E-02 0.  1.
    10030    2    1    2    0    0  0.00000000000E+00  0.00000000000E+00 -0.40999554401E+02  0.28062045141E+04  0.28059049898E+04 0.  0.
        5    1    3    3  502    0 -0.22199985976E+03 -0.81086383719E+03  0.11027717151E+04  0.13866908977E+04  0.46999998093E+01 0. -1.
       -5    1    3    3    0  502  0.22199985976E+03  0.81086383719E+03 -0.11437712695E+04  0.14195136164E+04  0.46999998093E+01 0.  1.
</event>
<event>
 5   0  0.5282098E-07  0.2821452E+04  0.7818609E-02  0.8296639E-01
        1   -1    0    0  501    0  0.00000000000E+00  0.00000000000E+00  0.12906845046E+04  0.12906845046E+04  0.50400001928E-02 0. -1.
       -1   -1    0    0    0  501  0.00000000000E+00  0.00000000000E+00 -0.15419325279E+04  0.15419325280E+04  0.50400001928E-02 0.  1.
    10030    2    1    2    0    0  0.00000000000E+00  0.00000000000E+00 -0.25124802337E+03  0.28326170325E+04  0.28214524068E+04 0.  0.
        4    1    3    3  502    0  0.13233739687E+04 -0.39680682889E+03  0.16076340334E+03  0.13909064689E+04  0.12699999809E+01 0. -1.
       -4    1    3    3    0  502 -0.13233739687E+04  0.39680682889E+03 -0.41201142671E+03  0.14417105636E+04  0.12699999809E+01 0.  1.
</event>
<event>
 5   0  0.1439207E-06  0.2799382E+04  0.7818609E-02  0.8303460E-01
        2   -1    0    0  501    0  0.00000000000E+00  0.00000000000E+00  0.16222233113E+04  0.16222233113E+04  0.25500000920E-02 0.  1.
       -2   -1    0    0    0  501  0.00000000000E+00  0.00000000000E+00 -0.12076853366E+04  0.12076853366E+04  0.25500000920E-02 0. -1.
    10030    2    1    2    0    0  0.00000000000E+00  0.00000000000E+00  0.41453797472E+03  0.28299086479E+04  0.27993822931E+04 0.  0.
        5    1    3    3  502    0  0.74016596987E+03 -0.73978954129E+03  0.11469096343E+04  0.15525971878E+04  0.46999998093E+01 0.  1.
       -5    1    3    3    0  502 -0.74016596987E+03  0.73978954129E+03 -0.73237165956E+03  0.12773114601E+04  0.46999998093E+01 0. -1.
</event>
<event>
 5   0  0.5282098E-07  0.2797086E+04  0.7818609E-02  0.8304173E-01
       -1   -1    0    0    0  501  0.00000000000E+00  0.00000000000E+00  0.12249110898E+04  0.12249110898E+04  0.50400001928E-02 0.  1.
        1   -1    0    0  501    0  0.00000000000E+00  0.00000000000E+00 -0.15967878795E+04  0.15967878795E+04  0.50400001928E-02 0. -1.
    10030    2    1    2    0    0  0.00000000000E+00  0.00000000000E+00 -0.37187678973E+03  0.28216989694E+04  0.27970864711E+04 0.  0.
        4    1    3    3  502    0 -0.77404803729E+03  0.23710805386E+03  0.96451353372E+03  0.12592293528E+04  0.12699999809E+01 0.  1.
       -4    1    3    3    0  502  0.77404803729E+03 -0.23710805386E+03 -0.13363903234E+04  0.15624696166E+04  0.12699999809E+01 0. -1.
</event>
<event>
 5   0  0.5297741E-07  0.2799754E+04  0.7818609E-02  0.8303345E-01
        1   -1    0    0  501    0  0.00000000000E+00  0.00000000000E+00  0.13000738864E+04  0.13000738864E+04  0.50400001928E-02 0.  1.
       -1   -1    0    0    0  501  0.00000000000E+00  0.00000000000E+00 -0.15073418518E+04  0.15073418518E+04  0.50400001928E-02 0. -1.
    10030    2    1    2    0    0  0.00000000000E+00  0.00000000000E+00 -0.20726796539E+03  0.28074157382E+04  0.27997541173E+04 0.  0.
        5    1    3    3  502    0  0.90549292455E+02  0.50045344117E+03  0.12041516222E+04  0.13071557063E+04  0.46999998093E+01 0.  1.
       -5    1    3    3    0  502 -0.90549292455E+02 -0.50045344117E+03 -0.14114195876E+04  0.15002600319E+04  0.46999998093E+01 0. -1.
</event>
<event>
 5   0  0.5551565E-07  0.2807130E+04  0.7818609E-02  0.8301058E-01
       -1   -1    0    0    0  501  0.00000000000E+00  0.00000000000E+00  0.12978958839E+04  0.12978958839E+04  0.50400001928E-02 0.  1.
        1   -1    0    0  501    0  0.00000000000E+00  0.00000000000E+00 -0.15178369669E+04  0.15178369669E+04  0.50400001928E-02 0. -1.
    10030    2    1    2    0    0  0.00000000000E+00  0.00000000000E+00 -0.21994108300E+03  0.28157328509E+04  0.28071297454E+04 0.  0.
        3    1    3    3  502    0 -0.57728320469E+03  0.45596308895E+03  0.10890321816E+04  0.13142105385E+04  0.10100000352E+00 0.  1.
       -3    1    3    3    0  502  0.57728320469E+03 -0.45596308895E+03 -0.13089732646E+04  0.15015223123E+04  0.10100000352E+00 0. -1.
</event>
<event>
 5   0  0.5551565E-07  0.2814265E+04  0.7818609E-02  0.8298853E-01
        1   -1    0    0  501    0  0.00000000000E+00  0.00000000000E+00  0.22079330788E+04  0.22079330788E+04  0.50400001928E-02 0. -1.
       -1   -1    0    0    0  501  0.00000000000E+00  0.00000000000E+00 -0.89677614247E+03  0.89677614249E+03  0.50400001928E-02 0.  1.
    10030    2    1    2    0    0  0.00000000000E+00  0.00000000000E+00  0.13111569363E+04  0.31047092213E+04  0.28142648840E+04 0.  0.
        3    1    3    3  502    0  0.52115403953E+02 -0.88831923300E+03 -0.54696214176E+03  0.10445069027E+04  0.10100000352E+00 0.  1.
       -3    1    3    3    0  502 -0.52115403953E+02  0.88831923300E+03  0.18581190781E+04  0.20602023186E+04  0.10100000352E+00 0. -1.
</event>
<event>
 5   0  0.1394410E-06  0.2798391E+04  0.7818609E-02  0.8303768E-01
        2   -1    0    0  501    0  0.00000000000E+00  0.00000000000E+00  0.23525960815E+04  0.23525960815E+04  0.25500000920E-02 0. -1.
       -2   -1    0    0    0  501  0.00000000000E+00  0.00000000000E+00 -0.83216521551E+03  0.83216521551E+03  0.25500000920E-02 0.  1.
    10030    2    1    2    0    0  0.00000000000E+00  0.00000000000E+00  0.15204308660E+04  0.31847612970E+04  0.27983914130E+04 0.  0.
        4    1    3    3  502    0  0.12095968476E+04 -0.61855245151E+03  0.11411121103E+04  0.17742238106E+04  0.12699999809E+01 0. -1.
       -4    1    3    3    0  502 -0.12095968476E+04  0.61855245151E+03  0.37931875566E+03  0.14105374863E+04  0.12699999809E+01 0.  1.
</event>
<event>
 5   0  0.1377807E-06  0.2807311E+04  0.7818609E-02  0.8301002E-01
        2   -1    0    0  501    0  0.00000000000E+00  0.00000000000E+00  0.21372282494E+04  0.21372282494E+04  0.25500000920E-02 0.  1.
       -2   -1    0    0    0  501  0.00000000000E+00  0.00000000000E+00 -0.92187072289E+03  0.92187072290E+03  0.25500000920E-02 0. -1.
    10030    2    1    2    0    0  0.00000000000E+00  0.00000000000E+00  0.12153575265E+04  0.30590989723E+04  0.28073105644E+04 0.  0.
        2    1    3    3  502    0 -0.57485325376E+03 -0.36981292485E+03 -0.72826117792E+03  0.99879037140E+03  0.25500000920E-02 0. -1.
       -2    1    3    3    0  502  0.57485325376E+03  0.36981292485E+03  0.19436187044E+04  0.20603086009E+04  0.25500000920E-02 0.  1.
</event>
<event>
 5   0  0.5551565E-07  0.2804258E+04  0.7818609E-02  0.8301948E-01
        1   -1    0    0  501    0  0.00000000000E+00  0.00000000000E+00  0.28282050982E+04  0.28282050982E+04  0.50400001928E-02 0.  1.
       -1   -1    0    0    0  501  0.00000000000E+00  0.00000000000E+00 -0.69512864212E+03  0.69512864214E+03  0.50400001928E-02 0. -1.
    10030    2    1    2    0    0  0.00000000000E+00  0.00000000000E+00  0.21330764561E+04  0.35233337403E+04  0.28042584543E+04 0.  0.
        3    1    3    3  502    0  0.10784503635E+04  0.69355989137E+02 -0.55905688514E+02  0.10821233276E+04  0.10100000352E+00 0. -1.
       -3    1    3    3    0  502 -0.10784503635E+04 -0.69355989137E+02  0.21889821446E+04  0.24412104127E+04  0.10100000352E+00 0.  1.
</event>
<event>
 5   0  0.1499888E-06  0.2800085E+04  0.7818609E-02  0.8303242E-01
        2   -1    0    0  501    0  0.00000000000E+00  0.00000000000E+00  0.14423935938E+04  0.14423935938E+04  0.25500000920E-02 0.  1.
       -2   -1    0    0    0  501  0.00000000000E+00  0.00000000000E+00 -0.13589349639E+04  0.13589349639E+04  0.25500000920E-02 0. -1.
    10030    2    1    2    0    0  0.00000000000E+00  0.00000000000E+00  0.83458629918E+02  0.28013285577E+04  0.28000850603E+04 0.  0.
        3    1    3    3  502    0  0.10003102220E+02  0.12520955080E+04  0.66832674861E+03  0.14193321938E+04  0.10100000352E+00 0.  1.
       -3    1    3    3    0  502 -0.10003102220E+02 -0.12520955080E+04 -0.58486811869E+03  0.13819963639E+04  0.10100000352E+00 0. -1.
</event>
<event>
 5   0  0.5362952E-07  0.2805657E+04  0.7818609E-02  0.8301514E-01
        1   -1    0    0  501    0  0.00000000000E+00  0.00000000000E+00  0.10175941720E+04  0.10175941721E+04  0.50400001928E-02 0.  1.
       -1   -1    0    0    0  501  0.00000000000E+00  0.00000000000E+00 -0.19339026931E+04  0.19339026931E+04  0.50400001928E-02 0. -1.
    10030    2    1    2    0    0  0.00000000000E+00  0.00000000000E+00 -0.91630852107E+03  0.29514968652E+04  0.28056572206E+04 0.  0.
        1    1    3    3  502    0  0.10498909049E+04 -0.54338525656E+03  0.33634507493E+03  0.12290917210E+04  0.50400001928E-02 0.  1.
       -1    1    3    3    0  502 -0.10498909049E+04  0.54338525656E+03 -0.12526535960E+04  0.17224051442E+04  0.50400001928E-02 0. -1.
</event>
<event>
 5   0  0.5282098E-07  0.2787968E+04  0.7818609E-02  0.8307014E-01
        1   -1    0    0  501    0  0.00000000000E+00  0.00000000000E+00  0.14596430772E+04  0.14596430772E+04  0.50400001928E-02 0. -1.
       -1   -1    0    0    0  501  0.00000000000E+00  0.00000000000E+00 -0.13312785587E+04  0.13312785588E+04  0.50400001928E-02 0.  1.
    10030    2    1    2    0    0  0.00000000000E+00  0.00000000000E+00  0.12836451844E+03  0.27909216359E+04  0.27879681003E+04 0.  0.
        4    1    3    3  502    0 -0.11881462344E+04  0.37210773040E+03 -0.56340635861E+03  0.13665957615E+04  0.12699999809E+01 0. -1.
       -4    1    3    3    0  502  0.11881462344E+04 -0.37210773040E+03  0.69177087705E+03  0.14243258745E+04  0.12699999809E+01 0.  1.
</event>
<event>
 5   0  0.5297741E-07  0.2795994E+04  0.7818609E-02  0.8304513E-01
        1   -1    0    0  501    0  0.00000000000E+00  0.00000000000E+00  0.14572415272E+04  0.14572415272E+04  0.50400001928E-02 0.  1.
       -1   -1    0    0    0  501  0.00000000000E+00  0.00000000000E+00 -0.13411607333E+04  0.13411607333E+04  0.50400001928E-02 0. -1.
    10030    2    1    2    0    0  0.00000000000E+00  0.00000000000E+00  0.11608079389E+03  0.27984022604E+04  0.27959936446E+04 0.  0.
        5    1    3    3  502    0  0.89977493964E+03 -0.35159264177E+02  0.11283267942E+04  0.14435977834E+04  0.46999998093E+01 0.  1.
       -5    1    3    3    0  502 -0.89977493964E+03  0.35159264177E+02 -0.10122460003E+04  0.13548044770E+04  0.46999998093E+01 0. -1.
</event>
<event>
 5   0  0.1499888E-06  0.2802814E+04  0.7818609E-02  0.8302395E-01
       -2   -1    0    0    0  501  0.00000000000E+00  0.00000000000E+00  0.13830783497E+04  0.13830783497E+04  0.25500000920E-02 0.  1.
        2   -1    0    0  501    0  0.00000000000E+00  0.00000000000E+00 -0.14199788094E+04  0.14199788094E+04  0.25500000920E-02 0. -1.
    10030    2    1    2    0    0  0.00000000000E+00  0.00000000000E+00 -0.36900459682E+02  0.28030571592E+04  0.28028142631E+04 0.  0.
        3    1    3    3  502    0 -0.40001910315E+03  0.93098442058E+03  0.94972181498E+03  0.13887832121E+04  0.10100000352E+00 0.  1.
       -3    1    3    3    0  502  0.40001910315E+03 -0.93098442058E+03 -0.98662227466E+03  0.14142739470E+04  0.10100000352E+00 0. -1.
</event>
<event>
 5   0  0.5362952E-07  0.2796976E+04  0.7818609E-02  0.8304208E-01
       -1   -1    0    0    0  501  0.00000000000E+00  0.00000000000E+00  0.17271332179E+04  0.17271332179E+04  0.50400001928E-02 0. -1.
        1   -1    0    0  501    0  0.00000000000E+00  0.00000000000E+00 -0.11323788195E+04  0.11323788195E+04  0.50400001928E-02 0.  1.
    10030    2    1    2    0    0  0.00000000000E+00  0.00000000000E+00  0.59475439842E+03  0.28595120374E+04  0.27969762776E+04 0.  0.
        1    1    3    3  502    0 -0.98586510247E+03 -0.74363915778E+03 -0.37368239949E+03  0.12901812791E+04  0.50400001928E-02 0.  1.
       -1    1    3    3    0  502  0.98586510247E+03  0.74363915778E+03  0.96843679791E+03  0.15693307583E+04  0.50400001928E-02 0. -1.
</event>
<event>
 5   0  0.1461146E-06  0.2800393E+04  0.7818609E-02  0.8303146E-01
       -2   -1    0    0    0  501  0.00000000000E+00  0.00000000000E+00  0.18235123241E+04  0.18235123241E+04  0.25500000920E-02 0.  1.
        2   -1    0    0  501    0  0.00000000000E+00  0.00000000000E+00 -0.10751508526E+04  0.10751508526E+04  0.25500000920E-02 0. -1.
    10030    2    1    2    0    0  0.00000000000E+00  0.00000000000E+00  0.74836147156E+03  0.28986631767E+04  0.28003934223E+04 0.  0.
        1    1    3    3  502    0  0.62573211984E+03  0.70707935656E+03 -0.69605018835E+03  0.11730250496E+04  0.50400001928E-02 0. -1.
       -1    1    3    3    0  502 -0.62573211984E+03 -0.70707935656E+03  0.14444116599E+04  0.17256381271E+04  0.50400001928E-02 0.  1.
</event>
<event>
 5   0  0.5282098E-07  0.2807276E+04  0.7818609E-02  0.8301013E-01
       -1   -1    0    0    0  501  0.00000000000E+00  0.00000000000E+00  0.88666280942E+03  0.88666280943E+03  0.50400001928E-02 0. -1.
        1   -1    0    0  501    0  0.00000000000E+00  0.00000000000E+00 -0.22220385837E+04  0.22220385837E+04  0.50400001928E-02 0.  1.
    10030    2    1    2    0    0  0.00000000000E+00  0.00000000000E+00 -0.13353757742E+04  0.31087013931E+04  0.28072755285E+04 0.  0.
        4    1    3    3  502    0  0.79918522261E+03 -0.11444584828E+04 -0.83087095740E+03  0.16244477214E+04  0.12699999809E+01 0.  1.
       -4    1    3    3    0  502 -0.79918522261E+03  0.11444584828E+04 -0.50450481684E+03  0.14842536717E+04  0.12699999809E+01 0. -1.
</event>
<event>
 5   0  0.5297741E-07  0.2794982E+04  0.7818609E-02  0.8304828E-01
       -1   -1    0    0    0  501  0.00000000000E+00  0.00000000000E+00  0.14585044240E+04  0.14585044240E+04  0.50400001928E-02 0.  1.
        1   -1    0    0  501    0  0.00000000000E+00  0.00000000000E+00 -0.13390295929E+04  0.13390295929E+04  0.50400001928E-02 0. -1.
    10030    2    1    2    0    0  0.00000000000E+00  0.00000000000E+00  0.11947483109E+03  0.27975340169E+04  0.27949816351E+04 0.  0.
        5    1    3    3  502    0 -0.55073414004E+03  0.20643057777E+03  0.13285846310E+04  0.14529559140E+04  0.46999998093E+01 0.  1.
       -5    1    3    3    0  502  0.55073414004E+03 -0.20643057777E+03 -0.12091097999E+04  0.13445781028E+04  0.46999998093E+01 0. -1.
</event>
<event>
 5   0  0.5214658E-07  0.2800519E+04  0.7818609E-02  0.8303107E-01
       -1   -1    0    0    0  501  0.00000000000E+00  0.00000000000E+00  0.93744434601E+03  0.93744434602E+03  0.50400001928E-02 0. -1.
        1   -1    0    0  501    0  0.00000000000E+00  0.00000000000E+00 -0.20915666684E+04  0.20915666684E+04  0.50400001928E-02 0.  1.
    10030    2    1    2    0    0  0.00000000000E+00  0.00000000000E+00 -0.11541223224E+04  0.30290110144E+04  0.28005194858E+04 0.  0.
        2    1    3    3  502    0  0.63931352277E+03 -0.61023882745E+03 -0.17517754159E+04  0.19620984468E+04  0.25500000920E-02 0.  1.
       -2    1    3    3    0  502 -0.63931352277E+03  0.61023882745E+03  0.59765309350E+03  0.10669125677E+04  0.25500000920E-02 0. -1.
</event>
<event>
 5   0  0.5282098E-07  0.2769801E+04  0.7818609E-02  0.8312706E-01
       -1   -1    0    0    0  501  0.00000000000E+00  0.00000000000E+00  0.99631689331E+03  0.99631689332E+03  0.50400001928E-02 0. -1.
        1   -1    0    0  501    0  0.00000000000E+00  0.00000000000E+00 -0.19250395621E+04  0.19250395622E+04  0.50400001928E-02 0.  1.
    10030    2    1    2    0    0  0.00000000000E+00  0.00000000000E+00 -0.92872266884E+03  0.29213564555E+04  0.27698010297E+04 0.  0.
        4    1    3    3  502    0 -0.36079038276E+03  0.11423858379E+03 -0.18694438814E+04  0.19073652489E+04  0.12699999809E+01 0.  1.
       -4    1    3    3    0  502  0.36079038276E+03 -0.11423858379E+03  0.94072121254E+03  0.10139912065E+04  0.12699999809E+01 0. -1.
</event>
<event>
 5   0  0.5297741E-07  0.2801450E+04  0.7818609E-02  0.8302818E-01
       -1   -1    0    0    0  501  0.00000000000E+00  0.00000000000E+00  0.13121018503E+04  0.13121018503E+04  0.50400001928E-02 0.  1.
        1   -1    0    0  501    0  0.00000000000E+00  0.00000000000E+00 -0.14953344520E+04  0.14953344520E+04  0.50400001928E-02 0. -1.
    10030    2    1    2    0    0  0.00000000000E+00  0.00000000000E+00 -0.18323260171E+03  0.28074363023E+04  0.28014504110E+04 0.  0.
        5    1    3    3  502    0  0.55144371461E+03 -0.11222223646E+04  0.54102952170E+03  0.13624273336E+04  0.46999998093E+01 0.  1.
       -5    1    3    3    0  502 -0.55144371461E+03  0.11222223646E+04 -0.72426212341E+03  0.14450089687E+04  0.46999998093E+01 0. -1.
</event>
<event>
 5   0  0.1377807E-06  0.2800855E+04  0.7818609E-02  0.8303003E-01
       -2   -1    0    0    0  501  0.00000000000E+00  0.00000000000E+00  0.16568426474E+04  0.16568426474E+04  0.25500000920E-02 0. -1.
        2   -1    0    0  501    0  0.00000000000E+00  0.00000000000E+00 -0.11836951673E+04  0.11836951673E+04  0.25500000920E-02 0.  1.
    10030    2    1    2    0    0  0.00000000000E+00  0.00000000000E+00  0.47314748007E+03  0.28405378147E+04  0.28008546087E+04 0.  0.
        2    1    3    3  502    0  0.34047128853E+03  0.10300576125E+04  0.11347039015E+04  0.15698701626E+04  0.25500000920E-02 0. -1.
       -2    1    3    3    0  502 -0.34047128853E+03 -0.10300576125E+04 -0.66155642147E+03  0.12706676521E+04  0.25500000920E-02 0.  1.
</event>
<event>
 5   0  0.5362952E-07  0.2800358E+04  0.7818609E-02  0.8303157E-01
        1   -1    0    0  501    0  0.00000000000E+00  0.00000000000E+00  0.12622559139E+04  0.12622559140E+04  0.50400001928E-02 0.  1.
       -1   -1    0    0    0  501  0.00000000000E+00  0.00000000000E+00 -0.15531729456E+04  0.15531729456E+04  0.50400001928E-02 0. -1.
    10030    2    1    2    0    0  0.00000000000E+00  0.00000000000E+00 -0.29091703167E+03  0.28154288596E+04  0.28003583599E+04 0.  0.
        1    1    3    3  502    0 -0.48272078546E+03 -0.18020789212E+03  0.11634724986E+04  0.12724631610E+04  0.50400001928E-02 0.  1.
       -1    1    3    3    0  502  0.48272078546E+03  0.18020789212E+03 -0.14543895303E+04  0.15429656986E+04  0.50400001928E-02 0. -1.
</event>
<event>
 5   0  0.5362952E-07  0.2808874E+04  0.7818609E-02  0.8300519E-01
       -1   -1    0    0    0  501  0.00000000000E+00  0.00000000000E+00  0.10839333333E+04  0.10839333333E+04  0.50400001928E-02 0. -1.
        1   -1    0    0  501    0  0.00000000000E+00  0.00000000000E+00 -0.18197089158E+04  0.18197089158E+04  0.50400001928E-02 0.  1.
    10030    2    1    2    0    0  0.00000000000E+00  0.00000000000E+00 -0.73577558243E+03  0.29036422491E+04  0.28088739030E+04 0.  0.
        1    1    3    3  502    0 -0.12136383902E+04  0.52338654094E+03  0.12310177773E+03  0.13274056129E+04  0.50400001928E-02 0. -1.
       -1    1    3    3    0  502  0.12136383902E+04 -0.52338654094E+03 -0.85887736017E+03  0.15762366362E+04  0.50400001928E-02 0.  1.
</event>
<event>
 5   0  0.5362952E-07  0.2794224E+04  0.7818609E-02  0.8305064E-01
       -1   -1    0    0    0  501  0.00000000000E+00  0.00000000000E+00  0.79697037249E+03  0.79697037251E+03  0.50400001928E-02 0.  1.
        1   -1    0    0  501    0  0.00000000000E+00  0.00000000000E+00 -0.24491768904E+04  0.24491768904E+04  0.50400001928E-02 0. -1.
    10030    2    1    2    0    0  0.00000000000E+00  0.00000000000E+00 -0.16522065179E+04  0.32461472629E+04  0.27942236265E+04 0.  0.
        1    1    3    3  502    0 -0.42109989786E+03  0.83488720406E+02 -0.23706542095E+04  0.24092108400E+04  0.50400001928E-02 0. -1.
       -1    1    3    3    0  502  0.42109989786E+03 -0.83488720406E+02  0.71844769160E+03  0.83693642292E+03  0.50400001928E-02 0.  1.
</event>
<event>
 5   0  0.1394410E-06  0.2793870E+04  0.7818609E-02  0.8305174E-01
       -2   -1    0    0    0  501  0.00000000000E+00  0.00000000000E+00  0.33888011992E+04  0.33888011992E+04  0.25500000920E-02 0. -1.
        2   -1    0    0  501    0  0.00000000000E+00  0.00000000000E+00 -0.57584601931E+03  0.57584601931E+03  0.25500000920E-02 0.  1.
    10030    2    1    2    0    0  0.00000000000E+00  0.00000000000E+00  0.28129551799E+04  0.39646472185E+04  0.27938702051E+04 0.  0.
        4    1    3    3  502    0  0.65965650279E+03 -0.10330578525E+04  0.45553182112E+03  0.13076184769E+04  0.12699999809E+01 0.  1.
       -4    1    3    3    0  502 -0.65965650279E+03  0.10330578525E+04  0.23574233588E+04  0.26570287416E+04  0.12699999809E+01 0. -1.
</event>
<event>
 5   0  0.5551565E-07  0.2797975E+04  0.7818609E-02  0.8303897E-01
        1   -1    0    0  501    0  0.00000000000E+00  0.00000000000E+00  0.20482461238E+04  0.20482461238E+04  0.50400001928E-02 0. -1.
       -1   -1    0    0    0  501  0.00000000000E+00  0.00000000000E+00 -0.95553289408E+03  0.95553289410E+03  0.50400001928E-02 0.  1.
    10030    2    1    2    0    0  0.00000000000E+00  0.00000000000E+00  0.10927132297E+04  0.30037790179E+04  0.27979753726E+04 0.  0.
        3    1    3    3  502    0  0.93157081242E+03 -0.10059061540E+04  0.84521221711E+03  0.16106070506E+04  0.10100000352E+00 0. -1.
       -3    1    3    3    0  502 -0.93157081242E+03  0.10059061540E+04  0.24750101258E+03  0.13931719673E+04  0.10100000352E+00 0.  1.
</event>
<event>
 5   0  0.1394410E-06  0.2801439E+04  0.7818609E-02  0.8302822E-01
       -2   -1    0    0    0  501  0.00000000000E+00  0.00000000000E+00  0.14403835809E+04  0.14403835809E+04  0.25500000920E-02 0. -1.
        2   -1    0    0  501    0  0.00000000000E+00  0.00000000000E+00 -0.13621472559E+04  0.13621472559E+04  0.25500000920E-02 0.  1.
    10030    2    1    2    0    0  0.00000000000E+00  0.00000000000E+00  0.78236324998E+02  0.28025308367E+04  0.28014385890E+04 0.  0.
        4    1    3    3  502    0  0.18222941050E+03  0.13882689805E+04  0.18501276199E+00  0.14001785484E+04  0.12699999809E+01 0. -1.
       -4    1    3    3    0  502 -0.18222941050E+03 -0.13882689805E+04  0.78051312236E+02  0.14023522883E+04  0.12699999809E+01 0.  1.
</event>
<event>
 5   0  0.1499888E-06  0.2805070E+04  0.7818609E-02  0.8301696E-01
        2   -1    0    0  501    0  0.00000000000E+00  0.00000000000E+00  0.17342123288E+04  0.17342123288E+04  0.25500000920E-02 0. -1.
       -2   -1    0    0    0  501  0.00000000000E+00  0.00000000000E+00 -0.11342929643E+04  0.11342929643E+04  0.25500000920E-02 0.  1.
    10030    2    1    2    0    0  0.00000000000E+00  0.00000000000E+00  0.59991936447E+03  0.28685052931E+04  0.28050702972E+04 0.  0.
        3    1    3    3  502    0  0.11132338392E+04  0.46491046605E+03  0.10314496483E+04  0.15872365007E+04  0.10100000352E+00 0. -1.
       -3    1    3    3    0  502 -0.11132338392E+04 -0.46491046605E+03 -0.43153028379E+03  0.12812687923E+04  0.10100000352E+00 0.  1.
</event>
<event>
 5   0  0.1461146E-06  0.2798486E+04  0.7818609E-02  0.8303739E-01
       -2   -1    0    0    0  501  0.00000000000E+00  0.00000000000E+00  0.14514730857E+04  0.14514730857E+04  0.25500000920E-02 0.  1.
        2   -1    0    0  501    0  0.00000000000E+00  0.00000000000E+00 -0.13488922278E+04  0.13488922278E+04  0.25500000920E-02 0. -1.
    10030    2    1    2    0    0  0.00000000000E+00  0.00000000000E+00  0.10258085792E+03  0.28003653136E+04  0.27984858508E+04 0.  0.
        1    1    3    3  502    0 -0.65299497074E+03  0.11951987115E+03 -0.11812808310E+04  0.13550320414E+04  0.50400001928E-02 0. -1.
       -1    1    3    3    0  502  0.65299497074E+03 -0.11951987115E+03  0.12838616889E+04  0.14453332722E+04  0.50400001928E-02 0.  1.
</event>
<event>
 5   0  0.1394410E-06  0.2817192E+04  0.7818609E-02  0.8297951E-01
        2   -1    0    0  501    0  0.00000000000E+00  0.00000000000E+00  0.96036592328E+03  0.96036592328E+03  0.25500000920E-02 0.  1.
       -2   -1    0    0    0  501  0.00000000000E+00  0.00000000000E+00 -0.20660281468E+04  0.20660281468E+04  0.25500000920E-02 0. -1.
    10030    2    1    2    0    0  0.00000000000E+00  0.00000000000E+00 -0.11056622235E+04  0.30263940700E+04  0.28171922396E+04 0.  0.
        4    1    3    3  502    0 -0.11945307349E+04  0.12965274861E+03  0.23689750660E+03  0.12246777345E+04  0.12699999809E+01 0.  1.
       -4    1    3    3    0  502  0.11945307349E+04 -0.12965274861E+03 -0.13425597301E+04  0.18017163355E+04  0.12699999809E+01 0. -1.
</event>
<event>
 5   0  0.5551565E-07  0.2795861E+04  0.7818609E-02  0.8304555E-01
       -1   -1    0    0    0  501  0.00000000000E+00  0.00000000000E+00  0.78363428039E+03  0.78363428040E+03  0.50400001928E-02 0. -1.
        1   -1    0    0  501    0  0.00000000000E+00  0.00000000000E+00 -0.24937769468E+04  0.24937769468E+04  0.50400001928E-02 0.  1.
    10030    2    1    2    0    0  0.00000000000E+00  0.00000000000E+00 -0.17101426665E+04  0.32774112273E+04  0.27958605854E+04 0.  0.
        3    1    3    3  502    0  0.85183133448E+02 -0.51468382130E+03  0.66524978011E+03  0.84540693294E+03  0.10100000352E+00 0. -1.
       -3    1    3    3    0  502 -0.85183133448E+02  0.51468382130E+03 -0.23753924466E+04  0.24320042943E+04  0.10100000352E+00 0.  1.
</event>
<event>
 5   0  0.1499888E-06  0.2824230E+04  0.7818609E-02  0.8295785E-01
        2   -1    0    0  501    0  0.00000000000E+00  0.00000000000E+00  0.22111695225E+04  0.22111695225E+04  0.25500000920E-02 0.  1.
       -2   -1    0    0    0  501  0.00000000000E+00  0.00000000000E+00 -0.90181639107E+03  0.90181639108E+03  0.25500000920E-02 0. -1.
    10030    2    1    2    0    0  0.00000000000E+00  0.00000000000E+00  0.13093531314E+04  0.31129859136E+04  0.28242301031E+04 0.  0.
        3    1    3    3  502    0 -0.11940127352E+04 -0.74410953414E+02  0.14816268394E+04  0.19043165450E+04  0.10100000352E+00 0.  1.
       -3    1    3    3    0  502  0.11940127352E+04  0.74410953414E+02 -0.17227370803E+03  0.12086693686E+04  0.10100000352E+00 0. -1.
</event>
<event>
 5   0  0.5551565E-07  0.2749756E+04  0.7818609E-02  0.8319039E-01
        1   -1    0    0  501    0  0.00000000000E+00  0.00000000000E+00  0.13589795077E+04  0.13589795078E+04  0.50400001928E-02 0.  1.
       -1   -1    0    0    0  501  0.00000000000E+00  0.00000000000E+00 -0.13909620485E+04  0.13909620485E+04  0.50400001928E-02 0. -1.
    10030    2    1    2    0    0  0.00000000000E+00  0.00000000000E+00 -0.31982540770E+02  0.27499415563E+04  0.27497555673E+04 0.  0.
        3    1    3    3  502    0  0.80020932516E+03 -0.80313447156E+03  0.76183313261E+03  0.13659244765E+04  0.10100000352E+00 0.  1.
       -3    1    3    3    0  502 -0.80020932516E+03  0.80313447156E+03 -0.79381567338E+03  0.13840170797E+04  0.10100000352E+00 0. -1.
</event>
<event>
 5   0  0.1394410E-06  0.2801033E+04  0.7818609E-02  0.8302948E-01
        2   -1    0    0  501    0  0.00000000000E+00  0.00000000000E+00  0.19647110269E+04  0.19647110269E+04  0.25500000920E-02 0. -1.
       -2   -1    0    0    0  501  0.00000000000E+00  0.00000000000E+00 -0.99833857179E+03  0.99833857179E+03  0.25500000920E-02 0.  1.
    10030    2    1    2    0    0  0.00000000000E+00  0.00000000000E+00  0.96637245508E+03  0.29630495987E+04  0.28010332383E+04 0.  0.
        4    1    3    3  502    0 -0.11905383896E+04  0.72237051423E+03  0.64095851497E+03  0.15329808373E+04  0.12699999809E+01 0. -1.
       -4    1    3    3    0  502  0.11905383896E+04 -0.72237051423E+03  0.32541394011E+03  0.14300687613E+04  0.12699999809E+01 0.  1.
</event>
<event>
 5   0  0.1377807E-06  0.2799672E+04  0.7818609E-02  0.8303370E-01
       -2   -1    0    0    0  501  0.00000000000E+00  0.00000000000E+00  0.90990505396E+03  0.90990505397E+03  0.25500000920E-02 0. -1.
        2   -1    0    0  501    0  0.00000000000E+00  0.00000000000E+00 -0.21535655810E+04  0.21535655810E+04  0.25500000920E-02 0.  1.
    10030    2    1    2    0    0  0.00000000000E+00  0.00000000000E+00 -0.12436605271E+04  0.30634706350E+04  0.27996715566E+04 0.  0.
        2    1    3    3  502    0  0.10993655322E+04  0.47444500219E+02  0.32496505486E+03  0.11473699669E+04  0.25500000920E-02 0. -1.
       -2    1    3    3    0  502 -0.10993655322E+04 -0.47444500219E+02 -0.15686255819E+04  0.19161006681E+04  0.25500000920E-02 0.  1.
</event>
<event>
 5   0  0.1461146E-06  0.2787504E+04  0.7818609E-02  0.8307158E-01
       -2   -1    0    0    0  501  0.00000000000E+00  0.00000000000E+00  0.10877538021E+04  0.10877538021E+04  0.25500000920E-02 0. -1.
        2   -1    0    0  501    0  0.00000000000E+00  0.00000000000E+00 -0.17858316683E+04  0.17858316683E+04  0.25500000920E-02 0.  1.
    10030    2    1    2    0    0  0.00000000000E+00  0.00000000000E+00 -0.69807786617E+03  0.28735854705E+04  0.27875043944E+04 0.  0.
        1    1    3    3  502    0  0.81139618343E+03 -0.37211171493E+03  0.75439598686E+03  0.11687361549E+04  0.50400001928E-02 0. -1.
       -1    1    3    3    0  502 -0.81139618343E+03  0.37211171493E+03 -0.14524738530E+04  0.17048493155E+04  0.50400001928E-02 0.  1.
</event>
<event>
 5   0  0.1499888E-06  0.2800356E+04  0.7818609E-02  0.8303158E-01
       -2   -1    0    0    0  501  0.00000000000E+00  0.00000000000E+00  0.12551805462E+04  0.12551805462E+04  0.25500000920E-02 0. -1.
        2   -1    0    0  501    0  0.00000000000E+00  0.00000000000E+00 -0.15619251765E+04  0.15619251765E+04  0.25500000920E-02 0.  1.
    10030    2    1    2    0    0  0.00000000000E+00  0.00000000000E+00 -0.30674463029E+03  0.28171057228E+04  0.28003557605E+04 0.  0.
        3    1    3    3  502    0  0.60818421507E+02  0.10282656769E+04 -0.11074484101E+04  0.15124388166E+04  0.10100000352E+00 0.  1.
       -3    1    3    3    0  502 -0.60818421507E+02 -0.10282656769E+04  0.80070377983E+03  0.13046669061E+04  0.10100000352E+00 0. -1.
</event>
<event>
 5   0  0.1377807E-06  0.2793708E+04  0.7818609E-02  0.8305224E-01
        2   -1    0    0  501    0  0.00000000000E+00  0.00000000000E+00  0.19329200539E+04  0.19329200539E+04  0.25500000920E-02 0. -1.
       -2   -1    0    0    0  501  0.00000000000E+00  0.00000000000E+00 -0.10094578187E+04  0.10094578187E+04  0.25500000920E-02 0.  1.
    10030    2    1    2    0    0  0.00000000000E+00  0.00000000000E+00  0.92346223519E+03  0.29423778726E+04  0.27937081174E+04 0.  0.
        2    1    3    3  502    0  0.12604323127E+04  0.12949927502E+03  0.10810199165E+04  0.16655520818E+04  0.25500000920E-02 0. -1.
       -2    1    3    3    0  502 -0.12604323127E+04 -0.12949927502E+03 -0.15755768134E+03  0.12768257908E+04  0.25500000920E-02 0.  1.
</event>
<event>
 5   0  0.5214658E-07  0.2794259E+04  0.7818609E-02  0.8305053E-01
        1   -1    0    0  501    0  0.00000000000E+00  0.00000000000E+00  0.93518312125E+03  0.93518312126E+03  0.50400001928E-02 0.  1.
       -1   -1    0    0    0  501  0.00000000000E+00  0.00000000000E+00 -0.20872605095E+04  0.20872605095E+04  0.50400001928E-02 0. -1.
    10030    2    1    2    0    0  0.00000000000E+00  0.00000000000E+00 -0.11520773882E+04  0.30224436307E+04  0.27942589702E+04 0.  0.
        2    1    3    3  502    0  0.96472655374E+03 -0.99749075839E+03 -0.75140696184E+03  0.15780676661E+04  0.25500000920E-02 0. -1.
       -2    1    3    3    0  502 -0.96472655374E+03  0.99749075839E+03 -0.40067042639E+03  0.14443759646E+04  0.25500000920E-02 0.  1.
</event>
<event>
 5   0  0.5214658E-07  0.2796079E+04  0.7818609E-02  0.8304487E-01
        1   -1    0    0  501    0  0.00000000000E+00  0.00000000000E+00  0.13579295103E+04  0.13579295103E+04  0.50400001928E-02 0. -1.
       -1   -1    0    0    0  501  0.00000000000E+00  0.00000000000E+00 -0.14393343026E+04  0.14393343026E+04  0.50400001928E-02 0.  1.
    10030    2    1    2    0    0  0.00000000000E+00  0.00000000000E+00 -0.81404792328E+02  0.27972638129E+04  0.27960790580E+04 0.  0.
        2    1    3    3  502    0 -0.23982788524E+02 -0.11525962875E+04 -0.83189851707E+03  0.14216569624E+04  0.25500000920E-02 0.  1.
       -2    1    3    3    0  502  0.23982788524E+02  0.11525962875E+04  0.75049372474E+03  0.13756068505E+04  0.25500000920E-02 0. -1.
</event>
<event>
 5   0  0.5282098E-07  0.2801092E+04  0.7818609E-02  0.8302929E-01
        1   -1    0    0  501    0  0.00000000000E+00  0.00000000000E+00  0.20406173520E+04  0.20406173520E+04  0.50400001928E-02 0.  1.
       -1   -1    0    0    0  501  0.00000000000E+00  0.00000000000E+00 -0.96124280727E+03  0.96124280729E+03  0.50400001928E-02 0. -1.
    10030    2    1    2    0    0  0.00000000000E+00  0.00000000000E+00  0.10793745447E+04  0.30018601593E+04  0.28010917529E+04 0.  0.
        4    1    3    3  502    0 -0.79942271016E+03 -0.81545506675E+03  0.14086588114E+04  0.18133849275E+04  0.12699999809E+01 0.  1.
       -4    1    3    3    0  502  0.79942271016E+03  0.81545506675E+03 -0.32928426667E+03  0.11884752318E+04  0.12699999809E+01 0. -1.
</event>
<event>
 5   0  0.5297741E-07  0.2800236E+04  0.7818609E-02  0.8303195E-01
        1   -1    0    0  501    0  0.00000000000E+00  0.00000000000E+00  0.13542454191E+04  0.13542454191E+04  0.50400001928E-02 0. -1.
       -1   -1    0    0    0  501  0.00000000000E+00  0.00000000000E+00 -0.14475445966E+04  0.14475445966E+04  0.50400001928E-02 0.  1.
    10030    2    1    2    0    0  0.00000000000E+00  0.00000000000E+00 -0.93299177476E+02  0.28017900158E+04  0.28002361608E+04 0.  0.
        5    1    3    3  502    0  0.11752817045E+04 -0.43582369958E+03 -0.67075782295E+03  0.14216777163E+04  0.46999998093E+01 0.  1.
       -5    1    3    3    0  502 -0.11752817045E+04  0.43582369958E+03  0.57745864547E+03  0.13801122995E+04  0.46999998093E+01 0. -1.
</event>
<event>
 5   0  0.5297741E-07  0.2803124E+04  0.7818609E-02  0.8302299E-01
        1   -1    0    0  501    0  0.00000000000E+00  0.00000000000E+00  0.32105761105E+04  0.32105761105E+04  0.50400001928E-02 0.  1.
       -1   -1    0    0    0  501  0.00000000000E+00  0.00000000000E+00 -0.61184548784E+03  0.61184548786E+03  0.50400001928E-02 0. -1.
    10030    2    1    2    0    0  0.00000000000E+00  0.00000000000E+00  0.25987306227E+04  0.38224215984E+04  0.28031243331E+04 0.  0.
        5    1    3    3  502    0  0.42259357983E+03 -0.36538081306E+03 -0.45345017143E+03  0.71953291811E+03  0.46999998093E+01 0. -1.
       -5    1    3    3    0  502 -0.42259357983E+03  0.36538081306E+03  0.30521807941E+04  0.31028886803E+04  0.46999998093E+01 0.  1.
</event>
<event>
 5   0  0.1499888E-06  0.2800540E+04  0.7818609E-02  0.8303101E-01
        2   -1    0    0  501    0  0.00000000000E+00  0.00000000000E+00  0.21003197354E+04  0.21003197354E+04  0.25500000920E-02 0.  1.
       -2   -1    0    0    0  501  0.00000000000E+00  0.00000000000E+00 -0.93355134057E+03  0.93355134058E+03  0.25500000920E-02 0. -1.
    10030    2    1    2    0    0  0.00000000000E+00  0.00000000000E+00  0.11667683948E+04  0.30338710759E+04  0.28005401655E+04 0.  0.
        3    1    3    3  502    0  0.44407293966E+03  0.10272738669E+04 -0.32831773551E+03  0.11663125305E+04  0.10100000352E+00 0. -1.
       -3    1    3    3    0  502 -0.44407293966E+03 -0.10272738669E+04  0.14950861303E+04  0.18675585454E+04  0.10100000352E+00 0.  1.
</event>
<event>
 5   0  0.1499888E-06  0.2816412E+04  0.7818609E-02  0.8298191E-01
       -2   -1    0    0    0  501  0.00000000000E+00  0.00000000000E+00  0.10781575141E+04  0.10781575142E+04  0.25500000920E-02 0. -1.
        2   -1    0    0  501    0  0.00000000000E+00  0.00000000000E+00 -0.18392895735E+04  0.18392895735E+04  0.25500000920E-02 0.  1.
    10030    2    1    2    0    0  0.00000000000E+00  0.00000000000E+00 -0.76113205936E+03  0.29174470877E+04  0.28164118125E+04 0.  0.
        3    1    3    3  502    0  0.64826856544E+02  0.45124567802E+03 -0.17607365941E+04  0.18187959059E+04  0.10100000352E+00 0.  1.
       -3    1    3    3    0  502 -0.64826856544E+02 -0.45124567802E+03  0.99960453471E+03  0.10986511818E+04  0.10100000352E+00 0. -1.
</event>
<event>
 5   0  0.5297741E-07  0.2808712E+04  0.7818609E-02  0.8300569E-01
       -1   -1    0    0    0  501  0.00000000000E+00  0.00000000000E+00  0.92412748904E+03  0.92412748905E+03  0.50400001928E-02 0.  1.
        1   -1    0    0  501    0  0.00000000000E+00  0.00000000000E+00 -0.21341388200E+04  0.21341388200E+04  0.50400001928E-02 0. -1.
    10030    2    1    2    0    0  0.00000000000E+00  0.00000000000E+00 -0.12100113310E+04  0.30582663091E+04  0.28087124089E+04 0.  0.
        5    1    3    3  502    0  0.26749221595E+03  0.34592055644E+03  0.84810164573E+03  0.95420731943E+03  0.46999998093E+01 0.  1.
       -5    1    3    3    0  502 -0.26749221595E+03 -0.34592055644E+03 -0.20581129767E+04  0.21040589896E+04  0.46999998093E+01 0. -1.
</event>
<event>
 5   0  0.1461146E-06  0.2798791E+04  0.7818609E-02  0.8303644E-01
        2   -1    0    0  501    0  0.00000000000E+00  0.00000000000E+00  0.13392862209E+04  0.13392862209E+04  0.25500000920E-02 0.  1.
       -2   -1    0    0    0  501  0.00000000000E+00  0.00000000000E+00 -0.14622027632E+04  0.14622027632E+04  0.25500000920E-02 0. -1.
    10030    2    1    2    0    0  0.00000000000E+00  0.00000000000E+00 -0.12291654234E+03  0.28014889841E+04  0.27987911769E+04 0.  0.
        1    1    3    3  502    0 -0.69425219702E+03 -0.61254923139E+03  0.98888886869E+03  0.13546600565E+04  0.50400001928E-02 0.  1.
       -1    1    3    3    0  502  0.69425219702E+03  0.61254923139E+03 -0.11118054110E+04  0.14468289277E+04  0.50400001928E-02 0. -1.
</event>
<event>
 5   0  0.5214658E-07  0.2798041E+04  0.7818609E-02  0.8303877E-01
       -1   -1    0    0    0  501  0.00000000000E+00  0.00000000000E+00  0.15802738876E+04  0.15802738876E+04  0.50400001928E-02 0.  1.
        1   -1    0    0  501    0  0.00000000000E+00  0.00000000000E+00 -0.12385565271E+04  0.12385565271E+04  0.50400001928E-02 0. -1.
    10030    2    1    2    0    0  0.00000000000E+00  0.00000000000E+00  0.34171736048E+03  0.28188304148E+04  0.27980411278E+04 0.  0.
        2    1    3    3  502    0  0.59960061832E+03  0.76837617464E+03 -0.84025960864E+03  0.12868407272E+04  0.25500000920E-02 0. -1.
       -2    1    3    3    0  502 -0.59960061832E+03 -0.76837617464E+03  0.11819769691E+04  0.15319896876E+04  0.25500000920E-02 0.  1.
</event>
<event>
 5   0  0.1499888E-06  0.2802483E+04  0.7818609E-02  0.8302498E-01
       -2   -1    0    0    0  501  0.00000000000E+00  0.00000000000E+00  0.85714196085E+03  0.85714196085E+03  0.25500000920E-02 0.  1.
        2   -1    0    0  501    0  0.00000000000E+00  0.00000000000E+00 -0.22907259174E+04  0.22907259174E+04  0.25500000920E-02 0. -1.
    10030    2    1    2    0    0  0.00000000000E+00  0.00000000000E+00 -0.14335839565E+04  0.31478678782E+04  0.28024826883E+04 0.  0.
        3    1    3    3  502    0  0.77239060159E+03 -0.27695985764E+03 -0.19926409379E+04  0.21549737636E+04  0.10100000352E+00 0. -1.
       -3    1    3    3    0  502 -0.77239060159E+03  0.27695985764E+03  0.55905698141E+03  0.99289411461E+03  0.10100000352E+00 0.  1.
</event>
<event>
 5   0  0.1394410E-06  0.2789511E+04  0.7818609E-02  0.8306532E-01
        2   -1    0    0  501    0  0.00000000000E+00  0.00000000000E+00  0.16916713765E+04  0.16916713765E+04  0.25500000920E-02 0. -1.
       -2   -1    0    0    0  501  0.00000000000E+00  0.00000000000E+00 -0.11499533024E+04  0.11499533024E+04  0.25500000920E-02 0.  1.
    10030    2    1    2    0    0  0.00000000000E+00  0.00000000000E+00  0.54171807413E+03  0.28416246789E+04  0.27895111299E+04 0.  0.
        4    1    3    3  502    0  0.93149032953E+03 -0.71357626564E+03  0.10389183202E+04  0.15672326598E+04  0.12699999809E+01 0. -1.
       -4    1    3    3    0  502 -0.93149032953E+03  0.71357626564E+03 -0.49720024609E+03  0.12743920192E+04  0.12699999809E+01 0.  1.
</event>
<event>
 5   0  0.1439207E-06  0.2803058E+04  0.7818609E-02  0.8302320E-01
       -2   -1    0    0    0  501  0.00000000000E+00  0.00000000000E+00  0.89576213468E+03  0.89576213469E+03  0.25500000920E-02 0.  1.
        2   -1    0    0  501    0  0.00000000000E+00  0.00000000000E+00 -0.21928628256E+04  0.21928628256E+04  0.25500000920E-02 0. -1.
    10030    2    1    2    0    0  0.00000000000E+00  0.00000000000E+00 -0.12971006910E+04  0.30886249603E+04  0.28030579629E+04 0.  0.
        5    1    3    3  502    0  0.12186739661E+04 -0.60870876330E+03 -0.28548431200E+03  0.13918390627E+04  0.46999998093E+01 0. -1.
       -5    1    3    3    0  502 -0.12186739661E+04  0.60870876330E+03 -0.10116163790E+04  0.16967858976E+04  0.46999998093E+01 0.  1.
</event>
<event>
 5   0  0.5362952E-07  0.2802159E+04  0.7818609E-02  0.8302599E-01
        1   -1    0    0  501    0  0.00000000000E+00  0.00000000000E+00  0.13484066080E+04  0.13484066080E+04  0.50400001928E-02 0. -1.
       -1   -1    0    0    0  501  0.00000000000E+00  0.00000000000E+00 -0.14558094746E+04  0.14558094746E+04  0.50400001928E-02 0.  1.
    10030    2    1    2    0    0  0.00000000000E+00  0.00000000000E+00 -0.10740286651E+03  0.28042160826E+04  0.28021585362E+04 0.  0.
        1    1    3    3  502    0 -0.51927980909E+03  0.31264844993E+03 -0.13178084873E+04  0.14505239683E+04  0.50400001928E-02 0.  1.
       -1    1    3    3    0  502  0.51927980909E+03 -0.31264844993E+03  0.12104056208E+04  0.13536921143E+04  0.50400001928E-02 0. -1.
</event>
<event>
 5   0  0.5551565E-07  0.2802494E+04  0.7818609E-02  0.8302495E-01
        1   -1    0    0  501    0  0.00000000000E+00  0.00000000000E+00  0.16385505813E+04  0.16385505813E+04  0.50400001928E-02 0.  1.
       -1   -1    0    0    0  501  0.00000000000E+00  0.00000000000E+00 -0.11983107947E+04  0.11983107947E+04  0.50400001928E-02 0. -1.
    10030    2    1    2    0    0  0.00000000000E+00  0.00000000000E+00  0.44023978655E+03  0.28368613760E+04  0.28024937818E+04 0.  0.
        3    1    3    3  502    0  0.89670805036E+03 -0.49515012881E+03  0.11880012132E+04  0.15686318467E+04  0.10100000352E+00 0.  1.
       -3    1    3    3    0  502 -0.89670805036E+03  0.49515012881E+03 -0.74776142667E+03  0.12682295293E+04  0.10100000352E+00 0. -1.
</event>
<event>
 5   0  0.5282098E-07  0.2802818E+04  0.7818609E-02  0.8302394E-01
        1   -1    0    0  501    0  0.00000000000E+00  0.00000000000E+00  0.13255237321E+04  0.13255237321E+04  0.50400001928E-02 0.  1.
       -1   -1    0    0    0  501  0.00000000000E+00  0.00000000000E+00 -0.14816388749E+04  0.14816388749E+04  0.50400001928E-02 0. -1.
    10030    2    1    2    0    0  0.00000000000E+00  0.00000000000E+00 -0.15611514281E+03  0.28071626070E+04  0.28028182182E+04 0.  0.
        4    1    3    3  502    0 -0.30809463257E+03 -0.16868169567E+03 -0.14368365370E+04  0.14791472760E+04  0.12699999809E+01 0. -1.
       -4    1    3    3    0  502  0.30809463257E+03  0.16868169567E+03  0.12807213942E+04  0.13280153310E+04  0.12699999809E+01 0.  1.
</event>
<event>
 5   0  0.5297741E-07  0.2803253E+04  0.7818609E-02  0.8302259E-01
       -1   -1    0    0    0  501  0.00000000000E+00  0.00000000000E+00  0.11326372551E+04  0.11326372551E+04  0.50400001928E-02 0. -1.
        1   -1    0    0  501    0  0.00000000000E+00  0.00000000000E+00 -0.17344978895E+04  0.17344978895E+04  0.50400001928E-02 0.  1.
    10030    2    1    2    0    0  0.00000000000E+00  0.00000000000E+00 -0.60186063437E+03  0.28671351446E+04  0.28032530593E+04 0.  0.
        5    1    3    3  502    0  0.47438793811E+03 -0.12771022759E+04  0.35970549754E+02  0.13628463264E+04  0.46999998093E+01 0. -1.
       -5    1    3    3    0  502 -0.47438793811E+03  0.12771022759E+04 -0.63783118412E+03  0.15042888182E+04  0.46999998093E+01 0.  1.
</event>
<event>
 5   0  0.1499888E-06  0.2805865E+04  0.7818609E-02  0.8301450E-01
        2   -1    0    0  501    0  0.00000000000E+00  0.00000000000E+00  0.13006228701E+04  0.13006228701E+04  0.25500000920E-02 0.  1.
       -2   -1    0    0    0  501  0.00000000000E+00  0.00000000000E+00 -0.15132899238E+04  0.15132899238E+04  0.25500000920E-02 0. -1.
    10030    2    1    2    0    0  0.00000000000E+00  0.00000000000E+00 -0.21266705370E+03  0.28139127938E+04  0.28058649176E+04 0.  0.
        3    1    3    3  502    0  0.11966566205E+04  0.46696647131E+03  0.45935414084E+03  0.13642034268E+04  0.10100000352E+00 0.  1.
       -3    1    3    3    0  502 -0.11966566205E+04 -0.46696647131E+03 -0.67202119454E+03  0.14497093670E+04  0.10100000352E+00 0. -1.
</event>
<event>
 5   0  0.5214658E-07  0.2800497E+04  0.7818609E-02  0.8303114E-01
       -1   -1    0    0    0  501  0.00000000000E+00  0.00000000000E+00  0.14804869302E+04  0.14804869302E+04  0.50400001928E-02 0. -1.
        1   -1    0    0  501    0  0.00000000000E+00  0.00000000000E+00 -0.13243585797E+04  0.13243585797E+04  0.50400001928E-02 0.  1.
    10030    2    1    2    0    0  0.00000000000E+00  0.00000000000E+00  0.15612835046E+03  0.28048455099E+04  0.28004967903E+04 0.  0.
        2    1    3    3  502    0  0.92866509869E+03  0.10381506266E+04  0.22153457959E+03  0.14104088624E+04  0.25500000920E-02 0. -1.
       -2    1    3    3    0  502 -0.92866509869E+03 -0.10381506266E+04 -0.65406229130E+02  0.13944366475E+04  0.25500000920E-02 0.  1.
</event>
<event>
 5   0  0.5282098E-07  0.2791873E+04  0.7818609E-02  0.8305796E-01
        1   -1    0    0  501    0  0.00000000000E+00  0.00000000000E+00  0.25579942980E+04  0.25579942980E+04  0.50400001928E-02 0.  1.
       -1   -1    0    0    0  501  0.00000000000E+00  0.00000000000E+00 -0.76178371303E+03  0.76178371305E+03  0.50400001928E-02 0. -1.
    10030    2    1    2    0    0  0.00000000000E+00  0.00000000000E+00  0.17962105850E+04  0.33197780111E+04  0.27918727724E+04 0.  0.
        4    1    3    3  502    0  0.11073234572E+04  0.71511489186E+03  0.14444154327E+04  0.19554774615E+04  0.12699999809E+01 0.  1.
       -4    1    3    3    0  502 -0.11073234572E+04 -0.71511489186E+03  0.35179515229E+03  0.13643005496E+04  0.12699999809E+01 0. -1.
</event>
<event>
 5   0  0.5551565E-07  0.2791844E+04  0.7818609E-02  0.8305805E-01
        1   -1    0    0  501    0  0.00000000000E+00  0.00000000000E+00  0.15917509280E+04  0.15917509280E+04  0.50400001928E-02 0. -1.
       -1   -1    0    0    0  501  0.00000000000E+00  0.00000000000E+00 -0.12241852656E+04  0.12241852656E+04  0.50400001928E-02 0.  1.
    10030    2    1    2    0    0  0.00000000000E+00  0.00000000000E+00  0.36756566234E+03  0.28159361936E+04  0.27918438585E+04 0.  0.
        3    1    3    3  502    0  0.10217430956E+04  0.61343728433E+03  0.91692106438E+03  0.15036650238E+04  0.10100000352E+00 0. -1.
       -3    1    3    3    0  502 -0.10217430956E+04 -0.61343728433E+03 -0.54935540204E+03  0.13122711698E+04  0.10100000352E+00 0.  1.
</event>
<event>
 5   0  0.5282098E-07  0.2792582E+04  0.7818609E-02  0.8305575E-01
        1   -1    0    0  501    0  0.00000000000E+00  0.00000000000E+00  0.13199712502E+04  0.13199712502E+04  0.50400001928E-02 0. -1.
       -1   -1    0    0    0  501  0.00000000000E+00  0.00000000000E+00 -0.14770238810E+04  0.14770238810E+04  0.50400001928E-02 0.  1.
    10030    2    1    2    0    0  0.00000000000E+00  0.00000000000E+00 -0.15705263084E+03  0.27969951312E+04  0.27925823596E+04 0.  0.
        4    1    3    3  502    0  0.99795240101E+03  0.42554510114E+03 -0.95890891950E+03  0.14479314751E+04  0.12699999809E+01 0.  1.
       -4    1    3    3    0  502 -0.99795240101E+03 -0.42554510114E+03  0.80185628866E+03  0.13490636561E+04  0.12699999809E+01 0. -1.
</event>
<event>
 5   0  0.1377807E-06  0.2797404E+04  0.7818609E-02  0.8304075E-01
        2   -1    0    0  501    0  0.00000000000E+00  0.00000000000E+00  0.20698594505E+04  0.20698594505E+04  0.25500000920E-02 0.  1.
       -2   -1    0    0    0  501  0.00000000000E+00  0.00000000000E+00 -0.94516917700E+03  0.94516917701E+03  0.25500000920E-02 0. -1.
    10030    2    1    2    0    0  0.00000000000E+00  0.00000000000E+00  0.11246902735E+04  0.30150286275E+04  0.27974040490E+04 0.  0.
        2    1    3    3  502    0 -0.79015967302E+03  0.66027675548E+03  0.15825849763E+04  0.18880923997E+04  0.25500000920E-02 0.  1.
       -2    1    3    3    0  502  0.79015967302E+03 -0.66027675548E+03 -0.45789470278E+03  0.11269362278E+04  0.25500000920E-02 0. -1.
</event>
<event>
 5   0  0.1439207E-06  0.2790719E+04  0.7818609E-02  0.8306156E-01
       -2   -1    0    0    0  501  0.00000000000E+00  0.00000000000E+00  0.15162291012E+04  0.15162291012E+04  0.25500000920E-02 0.  1.
        2   -1    0    0  501    0  0.00000000000E+00  0.00000000000E+00 -0.12841253385E+04  0.12841253385E+04  0.25500000920E-02 0. -1.
    10030    2    1    2    0    0  0.00000000000E+00  0.00000000000E+00  0.23210376268E+03  0.28003544396E+04  0.27907190527E+04 0.  0.
        5    1    3    3  502    0  0.59826258052E+03 -0.28298034126E+03  0.13487109165E+04  0.15023445727E+04  0.46999998093E+01 0.  1.
       -5    1    3    3    0  502 -0.59826258052E+03  0.28298034126E+03 -0.11166071538E+04  0.12980098670E+04  0.46999998093E+01 0. -1.
</event>
<event>
 5   0  0.1499888E-06  0.2795820E+04  0.7818609E-02  0.8304567E-01
        2   -1    0    0  501    0  0.00000000000E+00  0.00000000000E+00  0.10209055570E+04  0.10209055570E+04  0.25500000920E-02 0.  1.
       -2   -1    0    0    0  501  0.00000000000E+00  0.00000000000E+00 -0.19141368164E+04  0.19141368164E+04  0.25500000920E-02 0. -1.
    10030    2    1    2    0    0  0.00000000000E+00  0.00000000000E+00 -0.89323125945E+03  0.29350423734E+04  0.27958203896E+04 0.  0.
        3    1    3    3  502    0  0.36221945943E+03  0.12707758140E+04  0.32255903752E+02  0.13217846117E+04  0.10100000352E+00 0.  1.
       -3    1    3    3    0  502 -0.36221945943E+03 -0.12707758140E+04 -0.92548716320E+03  0.16132577617E+04  0.10100000352E+00 0. -1.
</event>
<event>
 5   0  0.1439207E-06  0.2798459E+04  0.7818609E-02  0.8303747E-01
        2   -1    0    0  501    0  0.00000000000E+00  0.00000000000E+00  0.21103364565E+04  0.21103364565E+04  0.25500000920E-02 0.  1.
       -2   -1    0    0    0  501  0.00000000000E+00  0.00000000000E+00 -0.92773962320E+03  0.92773962321E+03  0.25500000920E-02 0. -1.
    10030    2    1    2    0    0  0.00000000000E+00  0.00000000000E+00  0.11825968333E+04  0.30380760797E+04  0.27984586822E+04 0.  0.
        5    1    3    3  502    0 -0.66585415029E+03  0.47756047078E+03 -0.64001015280E+03  0.10397407554E+04  0.46999998093E+01 0. -1.
       -5    1    3    3    0  502  0.66585415029E+03 -0.47756047078E+03  0.18226069861E+04  0.19983353244E+04  0.46999998093E+01 0.  1.
</event>
<event>
 5   0  0.5282098E-07  0.2800840E+04  0.7818609E-02  0.8303007E-01
       -1   -1    0    0    0  501  0.00000000000E+00  0.00000000000E+00  0.11901132816E+04  0.11901132816E+04  0.50400001928E-02 0. -1.
        1   -1    0    0  501    0  0.00000000000E+00  0.00000000000E+00 -0.16478909029E+04  0.16478909029E+04  0.50400001928E-02 0.  1.
    10030    2    1    2    0    0  0.00000000000E+00  0.00000000000E+00 -0.45777762131E+03  0.28380041845E+04  0.28008404811E+04 0.  0.
        4    1    3    3  502    0  0.74828930957E+03  0.29624824880E+03 -0.13901652513E+04  0.16063190700E+04  0.12699999809E+01 0.  1.
       -4    1    3    3    0  502 -0.74828930957E+03 -0.29624824880E+03  0.93238763003E+03  0.12316851145E+04  0.12699999809E+01 0. -1.
</event>
<event>
 5   0  0.5297741E-07  0.2787543E+04  0.7818609E-02  0.8307146E-01
       -1   -1    0    0    0  501  0.00000000000E+00  0.00000000000E+00  0.11280021786E+04  0.11280021786E+04  0.50400001928E-02 0.  1.
        1   -1    0    0  501    0  0.00000000000E+00  0.00000000000E+00 -0.17221588159E+04  0.17221588159E+04  0.50400001928E-02 0. -1.
    10030    2    1    2    0    0  0.00000000000E+00  0.00000000000E+00 -0.59415663726E+03  0.28501609945E+04  0.27875429297E+04 0.  0.
        5    1    3    3  502    0 -0.79399720110E+03 -0.10790063670E+04 -0.69028236873E+03  0.15070494796E+04  0.46999998093E+01 0. -1.
       -5    1    3    3    0  502  0.79399720110E+03  0.10790063670E+04  0.96125731465E+02  0.13431115149E+04  0.46999998093E+01 0.  1.
</event>
<event>
 5   0  0.5551565E-07  0.2794737E+04  0.7818609E-02  0.8304904E-01
        1   -1    0    0  501    0  0.00000000000E+00  0.00000000000E+00  0.17759665324E+04  0.17759665324E+04  0.50400001928E-02 0. -1.
       -1   -1    0    0    0  501  0.00000000000E+00  0.00000000000E+00 -0.10994797782E+04  0.10994797783E+04  0.50400001928E-02 0.  1.
    10030    2    1    2    0    0  0.00000000000E+00  0.00000000000E+00  0.67648675418E+03  0.28754463107E+04  0.27947374040E+04 0.  0.
        3    1    3    3  502    0 -0.11316338507E+04 -0.36563735402E+03  0.10931582796E+04  0.16153268651E+04  0.10100000352E+00 0. -1.
       -3    1    3    3    0  502  0.11316338507E+04  0.36563735402E+03 -0.41667152544E+03  0.12601194456E+04  0.10100000352E+00 0.  1.
</event>
<event>
 5   0  0.5297741E-07  0.2797038E+04  0.7818609E-02  0.8304189E-01
       -1   -1    0    0    0  501  0.00000000000E+00  0.00000000000E+00  0.68897912562E+03  0.68897912564E+03  0.50400001928E-02 0. -1.
        1   -1    0    0  501    0  0.00000000000E+00  0.00000000000E+00 -0.28387722541E+04  0.28387722541E+04  0.50400001928E-02 0.  1.
    10030    2    1    2    0    0  0.00000000000E+00  0.00000000000E+00 -0.21497931285E+04  0.35277513797E+04  0.27970375940E+04 0.  0.
        5    1    3    3  502    0 -0.72665632453E+03 -0.10853481480E+04 -0.17052957338E+04  0.21480376267E+04  0.46999998093E+01 0.  1.
       -5    1    3    3    0  502  0.72665632453E+03  0.10853481480E+04 -0.44449739471E+03  0.13797137530E+04  0.46999998093E+01 0. -1.
</event>
<event>
 5   0  0.1377807E-06  0.2784966E+04  0.7818609E-02  0.8307951E-01
       -2   -1    0    0    0  501  0.00000000000E+00  0.00000000000E+00  0.92128639424E+03  0.92128639424E+03  0.25500000920E-02 0.  1.
        2   -1    0    0  501    0  0.00000000000E+00  0.00000000000E+00 -0.21046752854E+04  0.21046752854E+04  0.25500000920E-02 0. -1.
    10030    2    1    2    0    0  0.00000000000E+00  0.00000000000E+00 -0.11833888911E+04  0.30259616796E+04  0.27849658560E+04 0.  0.
        2    1    3    3  502    0  0.11189471159E+04  0.40433789570E+03 -0.13778207334E+04  0.18204180167E+04  0.25500000920E-02 0. -1.
       -2    1    3    3    0  502 -0.11189471159E+04 -0.40433789570E+03  0.19443184222E+03  0.12055436630E+04  0.25500000920E-02 0.  1.
</event>
<event>
 5   0  0.1499888E-06  0.2802206E+04  0.7818609E-02  0.8302584E-01
        2   -1    0    0  501    0  0.00000000000E+00  0.00000000000E+00  0.21783391631E+04  0.21783391631E+04  0.25500000920E-02 0. -1.
       -2   -1    0    0    0  501  0.00000000000E+00  0.00000000000E+00 -0.90118665461E+03  0.90118665462E+03  0.25500000920E-02 0.  1.
    10030    2    1    2    0    0  0.00000000000E+00  0.00000000000E+00  0.12771525084E+04  0.30795258177E+04  0.28022064042E+04 0.  0.
        3    1    3    3  502    0  0.96921851117E+03  0.40939213082E+03  0.16554029125E+04  0.19614650780E+04  0.10100000352E+00 0. -1.
       -3    1    3    3    0  502 -0.96921851117E+03 -0.40939213082E+03 -0.37825040410E+03  0.11180607397E+04  0.10100000352E+00 0.  1.
</event>
<event>
 5   0  0.1499888E-06  0.2800744E+04  0.7818609E-02  0.8303037E-01
        2   -1    0    0  501    0  0.00000000000E+00  0.00000000000E+00  0.17612616159E+04  0.17612616159E+04  0.25500000920E-02 0.  1.
       -2   -1    0    0    0  501  0.00000000000E+00  0.00000000000E+00 -0.11134303361E+04  0.11134303361E+04  0.25500000920E-02 0. -1.
    10030    2    1    2    0    0  0.00000000000E+00  0.00000000000E+00  0.64783127988E+03  0.28746919520E+04  0.28007442675E+04 0.  0.
        3    1    3    3  502    0 -0.63550002765E+03  0.46387411053E+03  0.15129503713E+04  0.17053029970E+04  0.10100000352E+00 0.  1.
       -3    1    3    3    0  502  0.63550002765E+03 -0.46387411053E+03 -0.86511909138E+03  0.11693889550E+04  0.10100000352E+00 0. -1.
</event>
<event>
 5   0  0.5214658E-07  0.2796387E+04  0.7818609E-02  0.8304391E-01
        1   -1    0    0  501    0  0.00000000000E+00  0.00000000000E+00  0.10139013666E+04  0.10139013666E+04  0.50400001928E-02 0. -1.
       -1   -1    0    0    0  501  0.00000000000E+00  0.00000000000E+00 -0.19281413501E+04  0.19281413501E+04  0.50400001928E-02 0.  1.
    10030    2    1    2    0    0  0.00000000000E+00  0.00000000000E+00 -0.91423998353E+03  0.29420427167E+04  0.27963870618E+04 0.  0.
        2    1    3    3  502    0 -0.30233500576E+03  0.31025379835E+03  0.94151544622E+03  0.10363952965E+04  0.25500000920E-02 0. -1.
       -2    1    3    3    0  502  0.30233500576E+03 -0.31025379835E+03 -0.18557554298E+04  0.19056474202E+04  0.25500000920E-02 0.  1.
</event>
<event>
 5   0  0.1394410E-06  0.2797244E+04  0.7818609E-02  0.8304125E-01
       -2   -1    0    0    0  501  0.00000000000E+00  0.00000000000E+00  0.13031266267E+04  0.13031266267E+04  0.25500000920E-02 0. -1.
        2   -1    0    0  501    0  0.00000000000E+00  0.00000000000E+00 -0.15011149103E+04  0.15011149103E+04  0.25500000920E-02 0.  1.
    10030    2    1    2    0    0  0.00000000000E+00  0.00000000000E+00 -0.19798828353E+03  0.28042415370E+04  0.27972435070E+04 0.  0.
        4    1    3    3  502    0  0.33809706097E+03 -0.20253458222E+03 -0.14442944728E+04  0.14971032085E+04  0.12699999809E+01 0.  1.
       -4    1    3    3    0  502 -0.33809706097E+03  0.20253458222E+03  0.12463061893E+04  0.13071383286E+04  0.12699999809E+01 0. -1.
</event>
<event>
 5   0  0.1499888E-06  0.2817489E+04  0.7818609E-02  0.8297859E-01
       -2   -1    0    0    0  501  0.00000000000E+00  0.00000000000E+00  0.14437438409E+04  0.14437438409E+04  0.25500000920E-02 0.  1.
        2   -1    0    0  501    0  0.00000000000E+00  0.00000000000E+00 -0.13745934615E+04  0.13745934616E+04  0.25500000920E-02 0. -1.
    10030    2    1    2    0    0  0.00000000000E+00  0.00000000000E+00  0.69150379387E+02  0.28183373025E+04  0.28174888422E+04 0.  0.
        3    1    3    3  502    0  0.48156995710E+03 -0.13172660679E+04 -0.97605878500E+02  0.14059254727E+04  0.10100000352E+00 0. -1.
       -3    1    3    3    0  502 -0.48156995710E+03  0.13172660679E+04  0.16675625789E+03  0.14124118298E+04  0.10100000352E+00 0.  1.
</event>
<event>
 5   0  0.1499888E-06  0.2800024E+04  0.7818609E-02  0.8303261E-01
        2   -1    0    0  501    0  0.00000000000E+00  0.00000000000E+00  0.18347180709E+04  0.18347180709E+04  0.25500000920E-02 0. -1.
       -2   -1    0    0    0  501  0.00000000000E+00  0.00000000000E+00 -0.10683023675E+04  0.10683023675E+04  0.25500000920E-02 0.  1.
    10030    2    1    2    0    0  0.00000000000E+00  0.00000000000E+00  0.76641570340E+03  0.29030204385E+04  0.28000240420E+04 0.  0.
        3    1    3    3  502    0  0.84545058973E+03  0.28721190732E+03 -0.73476865674E+03  0.11563573706E+04  0.10100000352E+00 0.  1.
       -3    1    3    3    0  502 -0.84545058973E+03 -0.28721190732E+03  0.15011843601E+04  0.17466630679E+04  0.10100000352E+00 0. -1.
</event>
<event>
 5   0  0.1499888E-06  0.2799269E+04  0.7818609E-02  0.8303495E-01
       -2   -1    0    0    0  501  0.00000000000E+00  0.00000000000E+00  0.10316715034E+04  0.10316715034E+04  0.25500000920E-02 0.  1.
        2   -1    0    0  501    0  0.00000000000E+00  0.00000000000E+00 -0.18988375127E+04  0.18988375127E+04  0.25500000920E-02 0. -1.
    10030    2    1    2    0    0  0.00000000000E+00  0.00000000000E+00 -0.86716600928E+03  0.29305090161E+04  0.27992688698E+04 0.  0.
        3    1    3    3  502    0 -0.48783975040E+03  0.60672221977E+02  0.93831719322E+03  0.10592959482E+04  0.10100000352E+00 0.  1.
       -3    1    3    3    0  502  0.48783975040E+03 -0.60672221977E+02 -0.18054832025E+04  0.18712130679E+04  0.10100000352E+00 0. -1.
</event>
<event>
 5   0  0.1439207E-06  0.2801139E+04  0.7818609E-02  0.8302915E-01
       -2   -1    0    0    0  501  0.00000000000E+00  0.00000000000E+00  0.19577678475E+04  0.19577678475E+04  0.25500000920E-02 0. -1.
        2   -1    0    0  501    0  0.00000000000E+00  0.00000000000E+00 -0.10019551614E+04  0.10019551614E+04  0.25500000920E-02 0.  1.
    10030    2    1    2    0    0  0.00000000000E+00  0.00000000000E+00  0.95581268613E+03  0.29597230089E+04  0.28011394821E+04 0.  0.
        5    1    3    3  502    0  0.12421509727E+04 -0.21064666102E+03  0.11243109821E+04  0.16886113613E+04  0.46999998093E+01 0. -1.
       -5    1    3    3    0  502 -0.12421509727E+04  0.21064666102E+03 -0.16849829601E+03  0.12711116476E+04  0.46999998093E+01 0.  1.
</event>
<event>
 5   0  0.5551565E-07  0.2795716E+04  0.7818609E-02  0.8304599E-01
        1   -1    0    0  501    0  0.00000000000E+00  0.00000000000E+00  0.15052594491E+04  0.15052594492E+04  0.50400001928E-02 0.  1.
       -1   -1    0    0    0  501  0.00000000000E+00  0.00000000000E+00 -0.12981200782E+04  0.12981200782E+04  0.50400001928E-02 0. -1.
    10030    2    1    2    0    0  0.00000000000E+00  0.00000000000E+00  0.20713937096E+03  0.28033795273E+04  0.27957163761E+04 0.  0.
        3    1    3    3  502    0  0.69305660218E+02 -0.12891179718E+04  0.64111658967E+03  0.14414086553E+04  0.10100000352E+00 0.  1.
       -3    1    3    3    0  502 -0.69305660218E+02  0.12891179718E+04 -0.43397721871E+03  0.13619708721E+04  0.10100000352E+00 0. -1.
</event>
<event>
 5   0  0.5214658E-07  0.2805249E+04  0.7818609E-02  0.8301641E-01
       -1   -1    0    0    0  501  0.00000000000E+00  0.00000000000E+00  0.10838792917E+04  0.10838792917E+04  0.50400001928E-02 0.  1.
        1   -1    0    0  501    0  0.00000000000E+00  0.00000000000E+00 -0.18151057416E+04  0.18151057416E+04  0.50400001928E-02 0. -1.
    10030    2    1    2    0    0  0.00000000000E+00  0.00000000000E+00 -0.73122644990E+03  0.28989850333E+04  0.28052490267E+04 0.  0.
        2    1    3    3  502    0 -0.35466136256E+03  0.11562905084E+04  0.36844802262E+03  0.12643363348E+04  0.25500000920E-02 0.  1.
       -2    1    3    3    0  502  0.35466136256E+03 -0.11562905084E+04 -0.10996744725E+04  0.16346486985E+04  0.25500000920E-02 0. -1.
</event>
<event>
 5   0  0.5282098E-07  0.2803672E+04  0.7818609E-02  0.8302129E-01
        1   -1    0    0  501    0  0.00000000000E+00  0.00000000000E+00  0.19014401259E+04  0.19014401259E+04  0.50400001928E-02 0.  1.
       -1   -1    0    0    0  501  0.00000000000E+00  0.00000000000E+00 -0.10335033636E+04  0.10335033636E+04  0.50400001928E-02 0. -1.
    10030    2    1    2    0    0  0.00000000000E+00  0.00000000000E+00  0.86793676234E+03  0.29349434895E+04  0.28036724244E+04 0.  0.
        4    1    3    3  502    0  0.33051764009E+03 -0.11519438564E+04 -0.32735676640E+03  0.12423287102E+04  0.12699999809E+01 0.  1.
       -4    1    3    3    0  502 -0.33051764009E+03  0.11519438564E+04  0.11952935287E+04  0.16926147794E+04  0.12699999809E+01 0. -1.
</event>
<event>
 5   0  0.1499888E-06  0.2801584E+04  0.7818609E-02  0.8302777E-01
       -2   -1    0    0    0  501  0.00000000000E+00  0.00000000000E+00  0.28305587427E+04  0.28305587427E+04  0.25500000920E-02 0. -1.
        2   -1    0    0  501    0  0.00000000000E+00  0.00000000000E+00 -0.69322659160E+03  0.69322659160E+03  0.25500000920E-02 0.  1.
    10030    2    1    2    0    0  0.00000000000E+00  0.00000000000E+00  0.21373321511E+04  0.35237853343E+04  0.28015842586E+04 0.  0.
        3    1    3    3  502    0 -0.57963028439E+03 -0.53818036072E+03  0.25228119657E+04  0.26438966681E+04  0.10100000352E+00 0. -1.
       -3    1    3    3    0  502  0.57963028439E+03  0.53818036072E+03 -0.38547981458E+03  0.87988866619E+03  0.10100000352E+00 0.  1.
</event>
<event>
 5   0  0.1499888E-06  0.2799245E+04  0.7818609E-02  0.8303503E-01
       -2   -1    0    0    0  501  0.00000000000E+00  0.00000000000E+00  0.56987053112E+03  0.56987053112E+03  0.25500000920E-02 0. -1.
        2   -1    0    0  501    0  0.00000000000E+00  0.00000000000E+00 -0.34375238813E+04  0.34375238814E+04  0.25500000920E-02 0.  1.
    10030    2    1    2    0    0  0.00000000000E+00  0.00000000000E+00 -0.28676533502E+04  0.40073944125E+04  0.27992452983E+04 0.  0.
        3    1    3    3  502    0  0.77298177891E+03 -0.40987178058E+03  0.13012328302E+03  0.88454948195E+03  0.10100000352E+00 0. -1.
       -3    1    3    3    0  502 -0.77298177891E+03  0.40987178058E+03 -0.29977766333E+04  0.31228449305E+04  0.10100000352E+00 0.  1.
</event>
<event>
 5   0  0.1461146E-06  0.2801848E+04  0.7818609E-02  0.8302695E-01
       -2   -1    0    0    0  501  0.00000000000E+00  0.00000000000E+00  0.99421998565E+03  0.99421998566E+03  0.25500000920E-02 0. -1.
        2   -1    0    0  501    0  0.00000000000E+00  0.00000000000E+00 -0.19739980609E+04  0.19739980609E+04  0.25500000920E-02 0.  1.
    10030    2    1    2    0    0  0.00000000000E+00  0.00000000000E+00 -0.97977807524E+03  0.29682180466E+04  0.28018481927E+04 0.  0.
        1    1    3    3  502    0 -0.64372316790E+03 -0.57195245731E+03  0.68075030520E+03  0.10976930848E+04  0.50400001928E-02 0. -1.
       -1    1    3    3    0  502  0.64372316790E+03  0.57195245731E+03 -0.16605283804E+04  0.18705249618E+04  0.50400001928E-02 0.  1.
</event>
<event>
 5   0  0.5362952E-07  0.2796295E+04  0.7818609E-02  0.8304419E-01
        1   -1    0    0  501    0  0.00000000000E+00  0.00000000000E+00  0.13246641329E+04  0.13246641329E+04  0.50400001928E-02 0. -1.
       -1   -1    0    0    0  501  0.00000000000E+00  0.00000000000E+00 -0.14757073712E+04  0.14757073712E+04  0.50400001928E-02 0.  1.
    10030    2    1    2    0    0  0.00000000000E+00  0.00000000000E+00 -0.15104323830E+03  0.28003715041E+04  0.27962951384E+04 0.  0.
        1    1    3    3  502    0  0.72770900106E+03 -0.74042627012E+03 -0.10133830406E+04  0.14507710497E+04  0.50400001928E-02 0.  1.
       -1    1    3    3    0  502 -0.72770900106E+03  0.74042627012E+03  0.86233980232E+03  0.13496004544E+04  0.50400001928E-02 0. -1.
</event>
<event>
 5   0  0.1377807E-06  0.2798670E+04  0.7818609E-02  0.8303682E-01
        2   -1    0    0  501    0  0.00000000000E+00  0.00000000000E+00  0.12956394445E+04  0.12956394445E+04  0.25500000920E-02 0. -1.
       -2   -1    0    0    0  501  0.00000000000E+00  0.00000000000E+00 -0.15113292294E+04  0.15113292294E+04  0.25500000920E-02 0.  1.
    10030    2    1    2    0    0  0.00000000000E+00  0.00000000000E+00 -0.21568978492E+03  0.28069686739E+04  0.27986695148E+04 0.  0.
        2    1    3    3  502    0 -0.10797809007E+04 -0.84799271615E+03  0.16336281637E+03  0.13826445132E+04  0.25500000920E-02 0.  1.
       -2    1    3    3    0  502  0.10797809007E+04  0.84799271615E+03 -0.37905260129E+03  0.14243241607E+04  0.25500000920E-02 0. -1.
</event>
<event>
 5   0  0.1499888E-06  0.2799192E+04  0.7818609E-02  0.8303519E-01
        2   -1    0    0  501    0  0.00000000000E+00  0.00000000000E+00  0.18234762468E+04  0.18234762468E+04  0.25500000920E-02 0. -1.
       -2   -1    0    0    0  501  0.00000000000E+00  0.00000000000E+00 -0.10742497593E+04  0.10742497593E+04  0.25500000920E-02 0.  1.
    10030    2    1    2    0    0  0.00000000000E+00  0.00000000000E+00  0.74922648747E+03  0.28977260060E+04  0.27991919685E+04 0.  0.
        3    1    3    3  502    0  0.39290914269E+03 -0.12740523968E+04  0.81537280602E+03  0.15628243430E+04  0.10100000352E+00 0. -1.
       -3    1    3    3    0  502 -0.39290914269E+03  0.12740523968E+04 -0.66146318545E+02  0.13349016630E+04  0.10100000352E+00 0.  1.
</event>
<event>
 5   0  0.5362952E-07  0.2819765E+04  0.7818609E-02  0.8297158E-01
        1   -1    0    0  501    0  0.00000000000E+00  0.00000000000E+00  0.16278884720E+04  0.16278884720E+04  0.50400001928E-02 0.  1.
       -1   -1    0    0    0  501  0.00000000000E+00  0.00000000000E+00 -0.12210716577E+04  0.12210716577E+04  0.50400001928E-02 0. -1.
    10030    2    1    2    0    0  0.00000000000E+00  0.00000000000E+00  0.40681681428E+03  0.28489601297E+04  0.28197648661E+04 0.  0.
        1    1    3    3  502    0  0.59172737428E+03  0.99714179026E+03 -0.60697812450E+03  0.13087610473E+04  0.50400001928E-02 0.  1.
       -1    1    3    3    0  502 -0.59172737428E+03 -0.99714179026E+03  0.10137949388E+04  0.15401990824E+04  0.50400001928E-02 0. -1.
</event>
<event>
 5   0  0.1394410E-06  0.2767947E+04  0.7818609E-02  0.8313289E-01
       -2   -1    0    0    0  501  0.00000000000E+00  0.00000000000E+00  0.10314595771E+04  0.10314595771E+04  0.25500000920E-02 0.  1.
        2   -1    0    0  501    0  0.00000000000E+00  0.00000000000E+00 -0.18569638100E+04  0.18569638100E+04  0.25500000920E-02 0. -1.
    10030    2    1    2    0    0  0.00000000000E+00  0.00000000000E+00 -0.82550423291E+03  0.28884233871E+04  0.27679473305E+04 0.  0.
        4    1    3    3  502    0  0.49042347639E+03 -0.56365673406E+03 -0.16284289459E+04  0.17916491132E+04  0.12699999809E+01 0. -1.
       -4    1    3    3    0  502 -0.49042347639E+03  0.56365673406E+03  0.80292471303E+03  0.10967742738E+04  0.12699999809E+01 0.  1.
</event>
<event>
 5   0  0.4710000E-07  0.2801459E+04  0.7818609E-02  0.8302816E-01
        3   -1    0    0  501    0  0.00000000000E+00  0.00000000000E+00  0.18243448014E+04  0.18243448042E+04  0.10100000352E+00 0.  1.
       -3   -1    0    0    0  501  0.00000000000E+00  0.00000000000E+00 -0.10754780864E+04  0.10754780911E+04  0.10100000352E+00 0. -1.
    10030    2    1    2    0    0  0.00000000000E+00  0.00000000000E+00  0.74886671506E+03  0.28998228954E+04  0.28014588106E+04 0.  0.
        4    1    3    3  502    0  0.43946233312E+02  0.66191100621E+03 -0.90257061492E+03  0.11201306975E+04  0.12699999809E+01 0. -1.
       -4    1    3    3    0  502 -0.43946233312E+02 -0.66191100621E+03  0.16514373300E+04  0.17796921979E+04  0.12699999809E+01 0.  1.
</event>
<event>
 5   0  0.1439207E-06  0.2798909E+04  0.7818609E-02  0.8303607E-01
        2   -1    0    0  501    0  0.00000000000E+00  0.00000000000E+00  0.14989337629E+04  0.14989337629E+04  0.25500000920E-02 0.  1.
       -2   -1    0    0    0  501  0.00000000000E+00  0.00000000000E+00 -0.13065776955E+04  0.13065776955E+04  0.25500000920E-02 0. -1.
    10030    2    1    2    0    0  0.00000000000E+00  0.00000000000E+00  0.19235606734E+03  0.28055114584E+04  0.27989093745E+04 0.  0.
        5    1    3    3  502    0 -0.61923475851E+03  0.89561862885E+03 -0.78502415846E+03  0.13423373026E+04  0.46999998093E+01 0. -1.
       -5    1    3    3    0  502  0.61923475851E+03 -0.89561862885E+03  0.97738022580E+03  0.14631741558E+04  0.46999998093E+01 0.  1.
</event>
<event>
 5   0  0.1394410E-06  0.2800732E+04  0.7818609E-02  0.8303041E-01
        2   -1    0    0  501    0  0.00000000000E+00  0.00000000000E+00  0.18611992392E+04  0.18611992392E+04  0.25500000920E-02 0. -1.
       -2   -1    0    0    0  501  0.00000000000E+00  0.00000000000E+00 -0.10536348538E+04  0.10536348538E+04  0.25500000920E-02 0.  1.
    10030    2    1    2    0    0  0.00000000000E+00  0.00000000000E+00  0.80756438537E+03  0.29148340929E+04  0.28007316103E+04 0.  0.
        4    1    3    3  502    0  0.49282249562E+03  0.13081919435E+04  0.48949397254E+03  0.14811637774E+04  0.12699999809E+01 0.  1.
       -4    1    3    3    0  502 -0.49282249562E+03 -0.13081919435E+04  0.31807041283E+03  0.14336703156E+04  0.12699999809E+01 0. -1.
</event>
<event>
 5   0  0.1499888E-06  0.2800362E+04  0.7818609E-02  0.8303156E-01
        2   -1    0    0  501    0  0.00000000000E+00  0.00000000000E+00  0.20077202752E+04  0.20077202752E+04  0.25500000920E-02 0. -1.
       -2   -1    0    0    0  501  0.00000000000E+00  0.00000000000E+00 -0.97648371267E+03  0.97648371268E+03  0.25500000920E-02 0.  1.
    10030    2    1    2    0    0  0.00000000000E+00  0.00000000000E+00  0.10312365625E+04  0.29842039879E+04  0.28003615112E+04 0.  0.
        3    1    3    3  502    0  0.98248194872E+03  0.91915290890E+03  0.92888328947E+03  0.16349119319E+04  0.10100000352E+00 0. -1.
       -3    1    3    3    0  502 -0.98248194872E+03 -0.91915290890E+03  0.10235327304E+03  0.13492920559E+04  0.10100000352E+00 0.  1.
</event>
<event>
 5   0  0.1499888E-06  0.2745793E+04  0.7818609E-02  0.8320298E-01
        2   -1    0    0  501    0  0.00000000000E+00  0.00000000000E+00  0.11229388408E+04  0.11229388408E+04  0.25500000920E-02 0.  1.
       -2   -1    0    0    0  501  0.00000000000E+00  0.00000000000E+00 -0.16784929159E+04  0.16784929159E+04  0.25500000920E-02 0. -1.
    10030    2    1    2    0    0  0.00000000000E+00  0.00000000000E+00 -0.55555407517E+03  0.28014317567E+04  0.27457930652E+04 0.  0.
        3    1    3    3  502    0  0.43117065926E+03  0.10994581893E+02 -0.16075741855E+04  0.16644289682E+04  0.10100000352E+00 0. -1.
       -3    1    3    3    0  502 -0.43117065926E+03 -0.10994581893E+02  0.10520201103E+04  0.11370027885E+04  0.10100000352E+00 0.  1.
</event>
<event>
 5   0  0.1394410E-06  0.2805389E+04  0.7818609E-02  0.8301597E-01
        2   -1    0    0  501    0  0.00000000000E+00  0.00000000000E+00  0.16363022728E+04  0.16363022728E+04  0.25500000920E-02 0.  1.
       -2   -1    0    0    0  501  0.00000000000E+00  0.00000000000E+00 -0.12024375074E+04  0.12024375074E+04  0.25500000920E-02 0. -1.
    10030    2    1    2    0    0  0.00000000000E+00  0.00000000000E+00  0.43386476535E+03  0.28387397802E+04  0.28053885480E+04 0.  0.
        4    1    3    3  502    0  0.16821973134E+03  0.12612947997E+04  0.81419266657E+03  0.15106534219E+04  0.12699999809E+01 0.  1.
       -4    1    3    3    0  502 -0.16821973134E+03 -0.12612947997E+04 -0.38032790122E+03  0.13280863583E+04  0.12699999809E+01 0. -1.
</event>
<event>
 5   0  0.1499888E-06  0.2797007E+04  0.7818609E-02  0.8304198E-01
       -2   -1    0    0    0  501  0.00000000000E+00  0.00000000000E+00  0.75667537201E+03  0.75667537201E+03  0.25500000920E-02 0.  1.
        2   -1    0    0  501    0  0.00000000000E+00  0.00000000000E+00 -0.25847433519E+04  0.25847433519E+04  0.25500000920E-02 0. -1.
    10030    2    1    2    0    0  0.00000000000E+00  0.00000000000E+00 -0.18280679799E+04  0.33414187239E+04  0.27970067124E+04 0.  0.
        3    1    3    3  502    0  0.12113424313E+04 -0.69889366390E+03 -0.91757544277E+03  0.16726468673E+04  0.10100000352E+00 0. -1.
       -3    1    3    3    0  502 -0.12113424313E+04  0.69889366390E+03 -0.91049253714E+03  0.16687718567E+04  0.10100000352E+00 0.  1.
</event>
<event>
 5   0  0.5297741E-07  0.2807640E+04  0.7818609E-02  0.8300900E-01
       -1   -1    0    0    0  501  0.00000000000E+00  0.00000000000E+00  0.13626333947E+04  0.13626333948E+04  0.50400001928E-02 0.  1.
        1   -1    0    0  501    0  0.00000000000E+00  0.00000000000E+00 -0.14462514209E+04  0.14462514209E+04  0.50400001928E-02 0. -1.
    10030    2    1    2    0    0  0.00000000000E+00  0.00000000000E+00 -0.83618026175E+02  0.28088848157E+04  0.28076399223E+04 0.  0.
        5    1    3    3  502    0  0.29961756083E+03  0.13102422478E+04 -0.44718364321E+03  0.14165100534E+04  0.46999998093E+01 0.  1.
       -5    1    3    3    0  502 -0.29961756083E+03 -0.13102422478E+04  0.36356561704E+03  0.13923747623E+04  0.46999998093E+01 0. -1.
</event>
<event>
 5   0  0.1461146E-06  0.2799257E+04  0.7818609E-02  0.8303499E-01
       -2   -1    0    0    0  501  0.00000000000E+00  0.00000000000E+00  0.91106092223E+03  0.91106092223E+03  0.25500000920E-02 0. -1.
        2   -1    0    0  501    0  0.00000000000E+00  0.00000000000E+00 -0.21501958474E+04  0.21501958474E+04  0.25500000920E-02 0.  1.
    10030    2    1    2    0    0  0.00000000000E+00  0.00000000000E+00 -0.12391349252E+04  0.30612567696E+04  0.27992566240E+04 0.  0.
        1    1    3    3  502    0 -0.11888399936E+02 -0.81873919860E+03 -0.18609241639E+04  0.20331045111E+04  0.50400001928E-02 0.  1.
       -1    1    3    3    0  502  0.11888399936E+02  0.81873919860E+03  0.62178923869E+03  0.10281522585E+04  0.50400001928E-02 0. -1.
</event>
<event>
 5   0  0.5551565E-07  0.2793434E+04  0.7818609E-02  0.8305310E-01
        1   -1    0    0  501    0  0.00000000000E+00  0.00000000000E+00  0.11147575275E+04  0.11147575275E+04  0.50400001928E-02 0.  1.
       -1   -1    0    0    0  501  0.00000000000E+00  0.00000000000E+00 -0.17499932521E+04  0.17499932521E+04  0.50400001928E-02 0. -1.
    10030    2    1    2    0    0  0.00000000000E+00  0.00000000000E+00 -0.63523572459E+03  0.28647507797E+04  0.27934338374E+04 0.  0.
        3    1    3    3  502    0  0.10035901907E+04 -0.31339050963E+03  0.62531868808E+03  0.12232867015E+04  0.10100000352E+00 0.  1.
       -3    1    3    3    0  502 -0.10035901907E+04  0.31339050963E+03 -0.12605544127E+04  0.16414640781E+04  0.10100000352E+00 0. -1.
</event>
<event>
 5   0  0.1394410E-06  0.2794809E+04  0.7818609E-02  0.8304882E-01
       -2   -1    0    0    0  501  0.00000000000E+00  0.00000000000E+00  0.23527169841E+04  0.23527169841E+04  0.25500000920E-02 0.  1.
        2   -1    0    0  501    0  0.00000000000E+00  0.00000000000E+00 -0.82999320617E+03  0.82999320617E+03  0.25500000920E-02 0. -1.
    10030    2    1    2    0    0  0.00000000000E+00  0.00000000000E+00  0.15227237779E+04  0.31827101903E+04  0.27948088399E+04 0.  0.
        4    1    3    3  502    0  0.22645274238E+03  0.99501866732E+03 -0.32580993865E+03  0.10712127342E+04  0.12699999809E+01 0. -1.
       -4    1    3    3    0  502 -0.22645274238E+03 -0.99501866732E+03  0.18485337166E+04  0.21114974561E+04  0.12699999809E+01 0.  1.
</event>
<event>
 5   0  0.1394410E-06  0.2799391E+04  0.7818609E-02  0.8303458E-01
        2   -1    0    0  501    0  0.00000000000E+00  0.00000000000E+00  0.12071585223E+04  0.12071585223E+04  0.25500000920E-02 0.  1.
       -2   -1    0    0    0  501  0.00000000000E+00  0.00000000000E+00 -0.16229410282E+04  0.16229410282E+04  0.25500000920E-02 0. -1.
    10030    2    1    2    0    0  0.00000000000E+00  0.00000000000E+00 -0.41578250595E+03  0.28300995506E+04  0.27993907147E+04 0.  0.
        4    1    3    3  502    0  0.25501168200E+03  0.48665688738E+03  0.10935845149E+04  0.12238441846E+04  0.12699999809E+01 0.  1.
       -4    1    3    3    0  502 -0.25501168200E+03 -0.48665688738E+03 -0.15093670209E+04  0.16062553659E+04  0.12699999809E+01 0. -1.
</event>
<event>
 5   0  0.1394410E-06  0.2797888E+04  0.7818609E-02  0.8303924E-01
       -2   -1    0    0    0  501  0.00000000000E+00  0.00000000000E+00  0.97105512844E+03  0.97105512844E+03  0.25500000920E-02 0.  1.
        2   -1    0    0  501    0  0.00000000000E+00  0.00000000000E+00 -0.20153790138E+04  0.20153790138E+04  0.25500000920E-02 0. -1.
    10030    2    1    2    0    0  0.00000000000E+00  0.00000000000E+00 -0.10443238854E+04  0.29864341422E+04  0.27978878656E+04 0.  0.
        4    1    3    3  502    0 -0.28068379546E+03  0.18121352565E+03 -0.19721697494E+04  0.20002691990E+04  0.12699999809E+01 0. -1.
       -4    1    3    3    0  502  0.28068379546E+03 -0.18121352565E+03  0.92784586408E+03  0.98616494326E+03  0.12699999809E+01 0.  1.
</event>
<event>
 5   0  0.1461146E-06  0.2852989E+04  0.7818609E-02  0.8287004E-01
        2   -1    0    0  501    0  0.00000000000E+00  0.00000000000E+00  0.20457039332E+04  0.20457039332E+04  0.25500000920E-02 0. -1.
       -2   -1    0    0    0  501  0.00000000000E+00  0.00000000000E+00 -0.99471183310E+03  0.99471183310E+03  0.25500000920E-02 0.  1.
    10030    2    1    2    0    0  0.00000000000E+00  0.00000000000E+00  0.10509921001E+04  0.30404157663E+04  0.28529885449E+04 0.  0.
        1    1    3    3  502    0  0.44638804022E+03 -0.91966478125E+03 -0.53477161641E+03  0.11537011199E+04  0.50400001928E-02 0.  1.
       -1    1    3    3    0  502 -0.44638804022E+03  0.91966478125E+03  0.15857637165E+04  0.18867146464E+04  0.50400001928E-02 0. -1.
</event>
<event>
 5   0  0.5282098E-07  0.2796808E+04  0.7818609E-02  0.8304260E-01
       -1   -1    0    0    0  501  0.00000000000E+00  0.00000000000E+00  0.31045729518E+04  0.31045729518E+04  0.50400001928E-02 0.  1.
        1   -1    0    0  501    0  0.00000000000E+00  0.00000000000E+00 -0.62988819516E+03  0.62988819518E+03  0.50400001928E-02 0. -1.
    10030    2    1    2    0    0  0.00000000000E+00  0.00000000000E+00  0.24746847567E+04  0.37344611470E+04  0.27968080760E+04 0.  0.
        4    1    3    3  502    0 -0.28266023017E+03  0.86016242245E+03  0.26603519075E+04  0.28102046337E+04  0.12699999809E+01 0.  1.
       -4    1    3    3    0  502  0.28266023017E+03 -0.86016242245E+03 -0.18566715077E+03  0.92425651336E+03  0.12699999809E+01 0. -1.
</event>
<event>
 5   0  0.5297741E-07  0.2792170E+04  0.7818609E-02  0.8305703E-01
       -1   -1    0    0    0  501  0.00000000000E+00  0.00000000000E+00  0.88766542543E+03  0.88766542544E+03  0.50400001928E-02 0.  1.
        1   -1    0    0  501    0  0.00000000000E+00  0.00000000000E+00 -0.21957078271E+04  0.21957078271E+04  0.50400001928E-02 0. -1.
    10030    2    1    2    0    0  0.00000000000E+00  0.00000000000E+00 -0.13080424017E+04  0.30833732526E+04  0.27921704264E+04 0.  0.
        5    1    3    3  502    0  0.65129255406E+03 -0.82470748106E+03  0.36091169810E+03  0.11111272493E+04  0.46999998093E+01 0.  1.
       -5    1    3    3    0  502 -0.65129255406E+03  0.82470748106E+03 -0.16689540998E+04  0.19722460033E+04  0.46999998093E+01 0. -1.
</event>
<event>
 5   0  0.1394410E-06  0.2839937E+04  0.7818609E-02  0.8290976E-01
        2   -1    0    0  501    0  0.00000000000E+00  0.00000000000E+00  0.12589519979E+04  0.12589519979E+04  0.25500000920E-02 0.  1.
       -2   -1    0    0    0  501  0.00000000000E+00  0.00000000000E+00 -0.16015790710E+04  0.16015790710E+04  0.25500000920E-02 0. -1.
    10030    2    1    2    0    0  0.00000000000E+00  0.00000000000E+00 -0.34262707310E+03  0.28605310689E+04  0.28399374438E+04 0.  0.
        4    1    3    3  502    0  0.34750601827E+03  0.94475798375E+03  0.83743833091E+03  0.13094398236E+04  0.12699999809E+01 0.  1.
       -4    1    3    3    0  502 -0.34750601827E+03 -0.94475798375E+03 -0.11800654040E+04  0.15510912453E+04  0.12699999809E+01 0. -1.
</event>
<event>
 5   0  0.1461146E-06  0.2798716E+04  0.7818609E-02  0.8303667E-01
        2   -1    0    0  501    0  0.00000000000E+00  0.00000000000E+00  0.18530113907E+04  0.18530113907E+04  0.25500000920E-02 0. -1.
       -2   -1    0    0    0  501  0.00000000000E+00  0.00000000000E+00 -0.10567674883E+04  0.10567674883E+04  0.25500000920E-02 0.  1.
    10030    2    1    2    0    0  0.00000000000E+00  0.00000000000E+00  0.79624390238E+03  0.29097788790E+04  0.27987155576E+04 0.  0.
        1    1    3    3  502    0  0.87989807461E+03  0.17405724463E+03 -0.71859978639E+03  0.11493050940E+04  0.50400001928E-02 0.  1.
       -1    1    3    3    0  502 -0.87989807461E+03 -0.17405724463E+03  0.15148436888E+04  0.17604737850E+04  0.50400001928E-02 0. -1.
</event>
<event>
 5   0  0.1377807E-06  0.2800883E+04  0.7818609E-02  0.8302994E-01
        2   -1    0    0  501    0  0.00000000000E+00  0.00000000000E+00  0.23648142090E+04  0.23648142090E+04  0.25500000920E-02 0. -1.
       -2   -1    0    0    0  501  0.00000000000E+00  0.00000000000E+00 -0.82934060861E+03  0.82934060862E+03  0.25500000920E-02 0.  1.
    10030    2    1    2    0    0  0.00000000000E+00  0.00000000000E+00  0.15354736003E+04  0.31941548176E+04  0.28008830431E+04 0.  0.
        2    1    3    3  502    0  0.25735650598E+03 -0.13455419060E+04  0.10992825491E+04  0.17564559530E+04  0.25500000920E-02 0. -1.
       -2    1    3    3    0  502 -0.25735650598E+03  0.13455419060E+04  0.43619105120E+03  0.14376988646E+04  0.25500000920E-02 0.  1.
</event>
<event>
 5   0  0.1439207E-06  0.2798790E+04  0.7818609E-02  0.8303644E-01
        2   -1    0    0  501    0  0.00000000000E+00  0.00000000000E+00  0.19847166098E+04  0.19847166098E+04  0.25500000920E-02 0. -1.
       -2   -1    0    0    0  501  0.00000000000E+00  0.00000000000E+00 -0.98669287437E+03  0.98669287438E+03  0.25500000920E-02 0.  1.
    10030    2    1    2    0    0  0.00000000000E+00  0.00000000000E+00  0.99802373544E+03  0.29714094842E+04  0.27987895502E+04 0.  0.
        5    1    3    3  502    0  0.48722627894E+03 -0.10372813591E+04  0.13516258504E+04  0.17720769154E+04  0.46999998093E+01 0. -1.
       -5    1    3    3    0  502 -0.48722627894E+03  0.10372813591E+04 -0.35360211491E+03  0.11993325688E+04  0.46999998093E+01 0.  1.
</event>
<event>
 5   0  0.1377807E-06  0.2800099E+04  0.7818609E-02  0.8303238E-01
       -2   -1    0    0    0  501  0.00000000000E+00  0.00000000000E+00  0.11937804471E+04  0.11937804471E+04  0.25500000920E-02 0.  1.
        2   -1    0    0  501    0  0.00000000000E+00  0.00000000000E+00 -0.16419588331E+04  0.16419588331E+04  0.25500000920E-02 0. -1.
    10030    2    1    2    0    0  0.00000000000E+00  0.00000000000E+00 -0.44817838600E+03  0.28357392802E+04  0.28000988197E+04 0.  0.
        2    1    3    3  502    0 -0.10678210651E+04  0.54123379965E+03  0.51107237387E+03  0.13016800007E+04  0.25500000920E-02 0.  1.
       -2    1    3    3    0  502  0.10678210651E+04 -0.54123379965E+03 -0.95925075987E+03  0.15340592796E+04  0.25500000920E-02 0. -1.
</event>
<event>
 5   0  0.5551565E-07  0.2802796E+04  0.7818609E-02  0.8302401E-01
        1   -1    0    0  501    0  0.00000000000E+00  0.00000000000E+00  0.25597756615E+04  0.25597756615E+04  0.50400001928E-02 0. -1.
       -1   -1    0    0    0  501  0.00000000000E+00  0.00000000000E+00 -0.76722196172E+03  0.76722196174E+03  0.50400001928E-02 0.  1.
    10030    2    1    2    0    0  0.00000000000E+00  0.00000000000E+00  0.17925536997E+04  0.33269976232E+04  0.28027958218E+04 0.  0.
        3    1    3    3  502    0  0.32557971287E+03  0.11434716968E+04  0.17769097074E+04  0.21379751611E+04  0.10100000352E+00 0. -1.
       -3    1    3    3    0  502 -0.32557971287E+03 -0.11434716968E+04  0.15643992320E+02  0.11890224621E+04  0.10100000352E+00 0.  1.
</event>
<event>
 5   0  0.1461146E-06  0.2803114E+04  0.7818609E-02  0.8302302E-01
        2   -1    0    0  501    0  0.00000000000E+00  0.00000000000E+00  0.20707368763E+04  0.20707368763E+04  0.25500000920E-02 0.  1.
       -2   -1    0    0    0  501  0.00000000000E+00  0.00000000000E+00 -0.94862943315E+03  0.94862943315E+03  0.25500000920E-02 0. -1.
    10030    2    1    2    0    0  0.00000000000E+00  0.00000000000E+00  0.11221074431E+04  0.30193663094E+04  0.28031139464E+04 0.  0.
        1    1    3    3  502    0 -0.62579444527E+02 -0.85446644100E+03  0.17558293771E+04  0.19537056808E+04  0.50400001928E-02 0.  1.
       -1    1    3    3    0  502  0.62579444527E+02  0.85446644100E+03 -0.63372193400E+03  0.10656606286E+04  0.50400001928E-02 0. -1.
</event>
<event>
 5   0  0.5282098E-07  0.2801055E+04  0.7818609E-02  0.8302941E-01
        1   -1    0    0  501    0  0.00000000000E+00  0.00000000000E+00  0.13173518609E+04  0.13173518609E+04  0.50400001928E-02 0. -1.
       -1   -1    0    0    0  501  0.00000000000E+00  0.00000000000E+00 -0.14889548362E+04  0.14889548362E+04  0.50400001928E-02 0.  1.
    10030    2    1    2    0    0  0.00000000000E+00  0.00000000000E+00 -0.17160297530E+03  0.28063066972E+04  0.28010551043E+04 0.  0.
        4    1    3    3  502    0 -0.12505698161E+04  0.47511846924E+03 -0.50108240898E+03  0.14285473805E+04  0.12699999809E+01 0.  1.
       -4    1    3    3    0  502  0.12505698161E+04 -0.47511846924E+03  0.32947943368E+03  0.13777593167E+04  0.12699999809E+01 0. -1.
</event>
<event>
 5   0  0.5282098E-07  0.2801533E+04  0.7818609E-02  0.8302793E-01
       -1   -1    0    0    0  501  0.00000000000E+00  0.00000000000E+00  0.10521840671E+04  0.10521840671E+04  0.50400001928E-02 0.  1.
        1   -1    0    0  501    0  0.00000000000E+00  0.00000000000E+00 -0.18648324312E+04  0.18648324312E+04  0.50400001928E-02 0. -1.
    10030    2    1    2    0    0  0.00000000000E+00  0.00000000000E+00 -0.81264836405E+03  0.29170164983E+04  0.28015331317E+04 0.  0.
        4    1    3    3  502    0 -0.56058344341E+03  0.42621400240E+03 -0.16671196673E+04  0.18097518534E+04  0.12699999809E+01 0. -1.
       -4    1    3    3    0  502  0.56058344341E+03 -0.42621400240E+03  0.85447130326E+03  0.11072646449E+04  0.12699999809E+01 0.  1.
</event>
<event>
 5   0  0.1499888E-06  0.2800440E+04  0.7818609E-02  0.8303132E-01
       -2   -1    0    0    0  501  0.00000000000E+00  0.00000000000E+00  0.17399893942E+04  0.17399893942E+04  0.25500000920E-02 0. -1.
        2   -1    0    0  501    0  0.00000000000E+00  0.00000000000E+00 -0.11267980389E+04  0.11267980389E+04  0.25500000920E-02 0.  1.
    10030    2    1    2    0    0  0.00000000000E+00  0.00000000000E+00  0.61319135530E+03  0.28667874331E+04  0.28004404205E+04 0.  0.
        3    1    3    3  502    0 -0.81075181142E+03  0.23582709853E+03  0.14500568086E+04  0.16779742782E+04  0.10100000352E+00 0. -1.
       -3    1    3    3    0  502  0.81075181142E+03 -0.23582709853E+03 -0.83686545329E+03  0.11888131549E+04  0.10100000352E+00 0.  1.
</event>
<event>
 5   0  0.1439207E-06  0.2798038E+04  0.7818609E-02  0.8303878E-01
       -2   -1    0    0    0  501  0.00000000000E+00  0.00000000000E+00  0.12568933402E+04  0.12568933402E+04  0.25500000920E-02 0. -1.
        2   -1    0    0  501    0  0.00000000000E+00  0.00000000000E+00 -0.15572158453E+04  0.15572158453E+04  0.25500000920E-02 0.  1.
    10030    2    1    2    0    0  0.00000000000E+00  0.00000000000E+00 -0.30032250513E+03  0.28141091855E+04  0.27980380449E+04 0.  0.
        5    1    3    3  502    0  0.14460775243E+03  0.68722619524E+02 -0.15479633720E+04  0.15562284188E+04  0.46999998093E+01 0.  1.
       -5    1    3    3    0  502 -0.14460775243E+03 -0.68722619524E+02  0.12476408669E+04  0.12578807667E+04  0.46999998093E+01 0. -1.
</event>
<event>
 5   0  0.1439207E-06  0.2817512E+04  0.7818609E-02  0.8297852E-01
       -2   -1    0    0    0  501  0.00000000000E+00  0.00000000000E+00  0.10245958681E+04  0.10245958681E+04  0.25500000920E-02 0.  1.
        2   -1    0    0  501    0  0.00000000000E+00  0.00000000000E+00 -0.19369528339E+04  0.19369528339E+04  0.25500000920E-02 0. -1.
    10030    2    1    2    0    0  0.00000000000E+00  0.00000000000E+00 -0.91235696582E+03  0.29615487020E+04  0.28175122859E+04 0.  0.
        5    1    3    3  502    0 -0.13102258742E+04 -0.33762929172E+03 -0.43840653164E+02  0.13537464581E+04  0.46999998093E+01 0.  1.
       -5    1    3    3    0  502  0.13102258742E+04  0.33762929172E+03 -0.86851631265E+03  0.16078022439E+04  0.46999998093E+01 0. -1.
</event>
<event>
 5   0  0.1461146E-06  0.2784051E+04  0.7818609E-02  0.8308237E-01
       -2   -1    0    0    0  501  0.00000000000E+00  0.00000000000E+00  0.17458387932E+04  0.17458387932E+04  0.25500000920E-02 0.  1.
        2   -1    0    0  501    0  0.00000000000E+00  0.00000000000E+00 -0.11099160517E+04  0.11099160517E+04  0.25500000920E-02 0. -1.
    10030    2    1    2    0    0  0.00000000000E+00  0.00000000000E+00  0.63592274151E+03  0.28557548448E+04  0.27840506462E+04 0.  0.
        1    1    3    3  502    0 -0.11161655138E+04 -0.82984550439E+03  0.25934517666E+03  0.14148247016E+04  0.50400001928E-02 0.  1.
       -1    1    3    3    0  502  0.11161655138E+04  0.82984550439E+03  0.37657756485E+03  0.14409301433E+04  0.50400001928E-02 0. -1.
</event>
<event>
 5   0  0.5282098E-07  0.2800252E+04  0.7818609E-02  0.8303190E-01
        1   -1    0    0  501    0  0.00000000000E+00  0.00000000000E+00  0.18505852521E+04  0.18505852521E+04  0.50400001928E-02 0.  1.
       -1   -1    0    0    0  501  0.00000000000E+00  0.00000000000E+00 -0.10593148882E+04  0.10593148882E+04  0.50400001928E-02 0. -1.
    10030    2    1    2    0    0  0.00000000000E+00  0.00000000000E+00  0.79127036390E+03  0.29099001403E+04  0.28002517812E+04 0.  0.
        4    1    3    3  502    0  0.54635138025E+03  0.78994482930E+03  0.14542691771E+04  0.17428175798E+04  0.12699999809E+01 0.  1.
       -4    1    3    3    0  502 -0.54635138025E+03 -0.78994482930E+03 -0.66299881318E+03  0.11670825606E+04  0.12699999809E+01 0. -1.
</event>
<event>
 5   0  0.4710000E-07  0.2797086E+04  0.7818609E-02  0.8304174E-01
       -3   -1    0    0    0  501  0.00000000000E+00  0.00000000000E+00  0.98775861492E+03  0.98775862009E+03  0.10100000352E+00 0.  1.
        3   -1    0    0  501    0  0.00000000000E+00  0.00000000000E+00 -0.19801624115E+04  0.19801624141E+04  0.10100000352E+00 0. -1.
    10030    2    1    2    0    0  0.00000000000E+00  0.00000000000E+00 -0.99240379661E+03  0.29679210342E+04  0.27970859783E+04 0.  0.
        2    1    3    3  502    0 -0.31543288104E+03 -0.12169126512E+04 -0.11464504024E+04  0.17013885001E+04  0.25500000920E-02 0. -1.
       -2    1    3    3    0  502  0.31543288104E+03  0.12169126512E+04  0.15404660574E+03  0.12665325341E+04  0.25500000920E-02 0.  1.
</event>
<event>
 5   0  0.1439207E-06  0.2801273E+04  0.7818609E-02  0.8302873E-01
       -2   -1    0    0    0  501  0.00000000000E+00  0.00000000000E+00  0.13545921699E+04  0.13545921699E+04  0.25500000920E-02 0. -1.
        2   -1    0    0  501    0  0.00000000000E+00  0.00000000000E+00 -0.14482457695E+04  0.14482457695E+04  0.25500000920E-02 0.  1.
    10030    2    1    2    0    0  0.00000000000E+00  0.00000000000E+00 -0.93653599570E+02  0.28028379394E+04  0.28012728389E+04 0.  0.
        5    1    3    3  502    0  0.10112249907E+04 -0.38884372429E+03 -0.93500787508E+03  0.14310965167E+04  0.46999998093E+01 0.  1.
       -5    1    3    3    0  502 -0.10112249907E+04  0.38884372429E+03  0.84135427551E+03  0.13717414227E+04  0.46999998093E+01 0. -1.
</event>
<event>
 5   0  0.1377807E-06  0.2797772E+04  0.7818609E-02  0.8303960E-01
        2   -1    0    0  501    0  0.00000000000E+00  0.00000000000E+00  0.14763993291E+04  0.14763993291E+04  0.25500000920E-02 0.  1.
       -2   -1    0    0    0  501  0.00000000000E+00  0.00000000000E+00 -0.13254419623E+04  0.13254419623E+04  0.25500000920E-02 0. -1.
    10030    2    1    2    0    0  0.00000000000E+00  0.00000000000E+00  0.15095736683E+03  0.28018412914E+04  0.27977717018E+04 0.  0.
        2    1    3    3  502    0  0.11172243452E+04 -0.61205495018E+03 -0.50335870777E+03  0.13697340940E+04  0.25500000920E-02 0. -1.
       -2    1    3    3    0  502 -0.11172243452E+04  0.61205495018E+03  0.65431607460E+03  0.14321071974E+04  0.25500000920E-02 0.  1.
</event>
<event>
 5   0  0.1499888E-06  0.2806800E+04  0.7818609E-02  0.8301160E-01
       -2   -1    0    0    0  501  0.00000000000E+00  0.00000000000E+00  0.11119365659E+04  0.11119365659E+04  0.25500000920E-02 0. -1.
        2   -1    0    0  501    0  0.00000000000E+00  0.00000000000E+00 -0.17712629323E+04  0.17712629323E+04  0.25500000920E-02 0.  1.
    10030    2    1    2    0    0  0.00000000000E+00  0.00000000000E+00 -0.65932636638E+03  0.28831994982E+04  0.28068003294E+04 0.  0.
        3    1    3    3  502    0  0.12270226419E+04  0.15437102154E+03  0.35180763716E+03  0.12857618752E+04  0.10100000352E+00 0. -1.
       -3    1    3    3    0  502 -0.12270226419E+04 -0.15437102154E+03 -0.10111340035E+04  0.15974376230E+04  0.10100000352E+00 0.  1.
</event>
<event>
 5   0  0.5362952E-07  0.2787464E+04  0.7818609E-02  0.8307171E-01
        1   -1    0    0  501    0  0.00000000000E+00  0.00000000000E+00  0.20156529658E+04  0.20156529658E+04  0.50400001928E-02 0. -1.
       -1   -1    0    0    0  501  0.00000000000E+00  0.00000000000E+00 -0.96370179617E+03  0.96370179618E+03  0.50400001928E-02 0.  1.
    10030    2    1    2    0    0  0.00000000000E+00  0.00000000000E+00  0.10519511696E+04  0.29793547620E+04  0.27874636382E+04 0.  0.
        1    1    3    3  502    0  0.65837107326E+03  0.84125391352E+03  0.14827688379E+04  0.18275021323E+04  0.50400001928E-02 0. -1.
       -1    1    3    3    0  502 -0.65837107326E+03 -0.84125391352E+03 -0.43081766825E+03  0.11518526296E+04  0.50400001928E-02 0.  1.
</event>
<event>
 5   0  0.1499888E-06  0.2797084E+04  0.7818609E-02  0.8304174E-01
        2   -1    0    0  501    0  0.00000000000E+00  0.00000000000E+00  0.10369819555E+04  0.10369819555E+04  0.25500000920E-02 0.  1.
       -2   -1    0    0    0  501  0.00000000000E+00  0.00000000000E+00 -0.18861650110E+04  0.18861650110E+04  0.25500000920E-02 0. -1.
    10030    2    1    2    0    0  0.00000000000E+00  0.00000000000E+00 -0.84918305553E+03  0.29231469664E+04  0.27970835393E+04 0.  0.
        3    1    3    3  502    0  0.54450809299E+03  0.74440657101E+03 -0.15233016125E+04  0.17807520937E+04  0.10100000352E+00 0. -1.
       -3    1    3    3    0  502 -0.54450809299E+03 -0.74440657101E+03  0.67411855696E+03  0.11423948728E+04  0.10100000352E+00 0.  1.
</event>
<event>
 5   0  0.1439207E-06  0.2801380E+04  0.7818609E-02  0.8302840E-01
        2   -1    0    0  501    0  0.00000000000E+00  0.00000000000E+00  0.18237567714E+04  0.18237567714E+04  0.25500000920E-02 0.  1.
       -2   -1    0    0    0  501  0.00000000000E+00  0.00000000000E+00 -0.10757646101E+04  0.10757646101E+04  0.25500000920E-02 0. -1.
    10030    2    1    2    0    0  0.00000000000E+00  0.00000000000E+00  0.74799216131E+03  0.28995213815E+04  0.28013803684E+04 0.  0.
        5    1    3    3  502    0 -0.13389298135E+04  0.34864650320E+03  0.59986931196E+03  0.15080294132E+04  0.46999998093E+01 0. -1.
       -5    1    3    3    0  502  0.13389298135E+04 -0.34864650320E+03  0.14812284935E+03  0.13914919684E+04  0.46999998093E+01 0.  1.
</event>
<event>
 5   0  0.5362952E-07  0.2799466E+04  0.7818609E-02  0.8303434E-01
       -1   -1    0    0    0  501  0.00000000000E+00  0.00000000000E+00  0.12376735871E+04  0.12376735871E+04  0.50400001928E-02 0. -1.
        1   -1    0    0  501    0  0.00000000000E+00  0.00000000000E+00 -0.15830121801E+04  0.15830121801E+04  0.50400001928E-02 0.  1.
    10030    2    1    2    0    0  0.00000000000E+00  0.00000000000E+00 -0.34533859297E+03  0.28206857672E+04  0.27994659229E+04 0.  0.
        1    1    3    3  502    0 -0.61485465224E+03  0.35664873792E+03 -0.13876318414E+04  0.15590916243E+04  0.50400001928E-02 0.  1.
       -1    1    3    3    0  502  0.61485465224E+03 -0.35664873792E+03  0.10422932485E+04  0.12615941429E+04  0.50400001928E-02 0. -1.
</event>
<event>
 5   0  0.5214658E-07  0.2799422E+04  0.7818609E-02  0.8303448E-01
       -1   -1    0    0    0  501  0.00000000000E+00  0.00000000000E+00  0.20077424870E+04  0.20077424870E+04  0.50400001928E-02 0. -1.
        1   -1    0    0  501    0  0.00000000000E+00  0.00000000000E+00 -0.97581772684E+03  0.97581772685E+03  0.50400001928E-02 0.  1.
    10030    2    1    2    0    0  0.00000000000E+00  0.00000000000E+00  0.10319247602E+04  0.29835602139E+04  0.27994218759E+04 0.  0.
        2    1    3    3  502    0  0.73512140440E+03  0.11500810691E+04  0.18557011006E+03  0.13775072451E+04  0.25500000920E-02 0.  1.
       -2    1    3    3    0  502 -0.73512140440E+03 -0.11500810691E+04  0.84635465013E+03  0.16060529688E+04  0.25500000920E-02 0. -1.
</event>
<event>
 5   0  0.1394410E-06  0.2799575E+04  0.7818609E-02  0.8303400E-01
        2   -1    0    0  501    0  0.00000000000E+00  0.00000000000E+00  0.12032953792E+04  0.12032953793E+04  0.25500000920E-02 0. -1.
       -2   -1    0    0    0  501  0.00000000000E+00  0.00000000000E+00 -0.16283655017E+04  0.16283655017E+04  0.25500000920E-02 0.  1.
    10030    2    1    2    0    0  0.00000000000E+00  0.00000000000E+00 -0.42507012241E+03  0.28316608809E+04  0.27995747419E+04 0.  0.
        4    1    3    3  502    0 -0.98340925131E+03  0.50711283789E+02  0.79372266275E+03  0.12647777149E+04  0.12699999809E+01 0. -1.
       -4    1    3    3    0  502  0.98340925131E+03 -0.50711283789E+02 -0.12187927852E+04  0.15668831660E+04  0.12699999809E+01 0.  1.
</event>
<event>
 5   0  0.1394410E-06  0.2799400E+04  0.7818609E-02  0.8303455E-01
        2   -1    0    0  501    0  0.00000000000E+00  0.00000000000E+00  0.14190448938E+04  0.14190448938E+04  0.25500000920E-02 0. -1.
       -2   -1    0    0    0  501  0.00000000000E+00  0.00000000000E+00 -0.13806188974E+04  0.13806188974E+04  0.25500000920E-02 0.  1.
    10030    2    1    2    0    0  0.00000000000E+00  0.00000000000E+00  0.38425996419E+02  0.27996637913E+04  0.27994000762E+04 0.  0.
        4    1    3    3  502    0  0.32293170457E+03 -0.13619333954E+04  0.22548642182E+02  0.13998776781E+04  0.12699999809E+01 0. -1.
       -4    1    3    3    0  502 -0.32293170457E+03  0.13619333954E+04  0.15877354238E+02  0.13997861132E+04  0.12699999809E+01 0.  1.
</event>
<event>
 5   0  0.1377807E-06  0.2798201E+04  0.7818609E-02  0.8303827E-01
        2   -1    0    0  501    0  0.00000000000E+00  0.00000000000E+00  0.25099293507E+04  0.25099293507E+04  0.25500000920E-02 0. -1.
       -2   -1    0    0    0  501  0.00000000000E+00  0.00000000000E+00 -0.77989518548E+03  0.77989518548E+03  0.25500000920E-02 0.  1.
    10030    2    1    2    0    0  0.00000000000E+00  0.00000000000E+00  0.17300341652E+04  0.32898245362E+04  0.27982007194E+04 0.  0.
        2    1    3    3  502    0  0.48835904134E+03 -0.11312869600E+04  0.85880307320E+02  0.12351842641E+04  0.25500000920E-02 0.  1.
       -2    1    3    3    0  502 -0.48835904134E+03  0.11312869600E+04  0.16441538579E+04  0.20546402721E+04  0.25500000920E-02 0. -1.
</event>
<event>
 5   0  0.1461146E-06  0.2797973E+04  0.7818609E-02  0.8303898E-01
        2   -1    0    0  501    0  0.00000000000E+00  0.00000000000E+00  0.15600812082E+04  0.15600812082E+04  0.25500000920E-02 0. -1.
       -2   -1    0    0    0  501  0.00000000000E+00  0.00000000000E+00 -0.12545268881E+04  0.12545268881E+04  0.25500000920E-02 0.  1.
    10030    2    1    2    0    0  0.00000000000E+00  0.00000000000E+00  0.30555432012E+03  0.28146080963E+04  0.27979734261E+04 0.  0.
        1    1    3    3  502    0 -0.56895927960E+03  0.10764968236E+04 -0.54023352370E+03  0.13320706938E+04  0.50400001928E-02 0.  1.
       -1    1    3    3    0  502  0.56895927960E+03 -0.10764968236E+04  0.84578784382E+03  0.14825374025E+04  0.50400001928E-02 0. -1.
</event>
<event>
 5   0  0.1394410E-06  0.2810576E+04  0.7818609E-02  0.8299992E-01
       -2   -1    0    0    0  501  0.00000000000E+00  0.00000000000E+00  0.16058383323E+04  0.16058383323E+04  0.25500000920E-02 0. -1.
        2   -1    0    0  501    0  0.00000000000E+00  0.00000000000E+00 -0.12297843807E+04  0.12297843807E+04  0.25500000920E-02 0.  1.
    10030    2    1    2    0    0  0.00000000000E+00  0.00000000000E+00  0.37605395165E+03  0.28356227130E+04  0.28105763814E+04 0.  0.
        4    1    3    3  502    0 -0.44621389057E+02  0.99471333364E+03  0.11885231176E+04  0.15504949205E+04  0.12699999809E+01 0. -1.
       -4    1    3    3    0  502  0.44621389057E+02 -0.99471333364E+03 -0.81246916598E+03  0.12851277925E+04  0.12699999809E+01 0.  1.
</event>
<event>
 5   0  0.1439207E-06  0.2798419E+04  0.7818609E-02  0.8303759E-01
       -2   -1    0    0    0  501  0.00000000000E+00  0.00000000000E+00  0.71264138668E+03  0.71264138669E+03  0.25500000920E-02 0.  1.
        2   -1    0    0  501    0  0.00000000000E+00  0.00000000000E+00 -0.27472257490E+04  0.27472257490E+04  0.25500000920E-02 0. -1.
    10030    2    1    2    0    0  0.00000000000E+00  0.00000000000E+00 -0.20345843624E+04  0.34598671357E+04  0.27984186730E+04 0.  0.
        5    1    3    3  502    0 -0.90363687891E+03 -0.95457539289E+03 -0.42436406296E+03  0.13812605611E+04  0.46999998093E+01 0.  1.
       -5    1    3    3    0  502  0.90363687891E+03  0.95457539289E+03 -0.16102202994E+04  0.20786065747E+04  0.46999998093E+01 0. -1.
</event>
<event>
 5   0  0.5551565E-07  0.2803195E+04  0.7818609E-02  0.8302277E-01
        1   -1    0    0  501    0  0.00000000000E+00  0.00000000000E+00  0.18671754085E+04  0.18671754085E+04  0.50400001928E-02 0. -1.
       -1   -1    0    0    0  501  0.00000000000E+00  0.00000000000E+00 -0.10521108104E+04  0.10521108104E+04  0.50400001928E-02 0.  1.
    10030    2    1    2    0    0  0.00000000000E+00  0.00000000000E+00  0.81506459806E+03  0.29192862189E+04  0.28031949145E+04 0.  0.
        3    1    3    3  502    0 -0.61797427548E+03  0.78933432787E+03  0.14276579917E+04  0.17444621629E+04  0.10100000352E+00 0. -1.
       -3    1    3    3    0  502  0.61797427548E+03 -0.78933432787E+03 -0.61259339368E+03  0.11748240560E+04  0.10100000352E+00 0.  1.
</event>
<event>
 5   0  0.5551565E-07  0.2803881E+04  0.7818609E-02  0.8302064E-01
       -1   -1    0    0    0  501  0.00000000000E+00  0.00000000000E+00  0.96032495832E+03  0.96032495834E+03  0.50400001928E-02 0.  1.
        1   -1    0    0  501    0  0.00000000000E+00  0.00000000000E+00 -0.20466378816E+04  0.20466378816E+04  0.50400001928E-02 0. -1.
    10030    2    1    2    0    0  0.00000000000E+00  0.00000000000E+00 -0.10863129232E+04  0.30069628399E+04  0.28038811946E+04 0.  0.
        3    1    3    3  502    0 -0.36974846820E+03 -0.25432422144E+03 -0.19675270537E+04  0.20180578428E+04  0.10100000352E+00 0. -1.
       -3    1    3    3    0  502  0.36974846820E+03  0.25432422144E+03  0.88121413051E+03  0.98890499713E+03  0.10100000352E+00 0.  1.
</event>
<event>
 5   0  0.5282098E-07  0.2799192E+04  0.7818609E-02  0.8303519E-01
        1   -1    0    0  501    0  0.00000000000E+00  0.00000000000E+00  0.27927697200E+04  0.27927697200E+04  0.50400001928E-02 0.  1.
       -1   -1    0    0    0  501  0.00000000000E+00  0.00000000000E+00 -0.70140710613E+03  0.70140710614E+03  0.50400001928E-02 0. -1.
    10030    2    1    2    0    0  0.00000000000E+00  0.00000000000E+00  0.20913626139E+04  0.34941768261E+04  0.27991916886E+04 0.  0.
        4    1    3    3  502    0  0.12202205089E+04  0.47368468673E+03  0.16642439102E+04  0.21173154414E+04  0.12699999809E+01 0.  1.
       -4    1    3    3    0  502 -0.12202205089E+04 -0.47368468673E+03  0.42711870368E+03  0.13768613847E+04  0.12699999809E+01 0. -1.
</event>
<event>
 5   0  0.5362952E-07  0.2794232E+04  0.7818609E-02  0.8305061E-01
       -1   -1    0    0    0  501  0.00000000000E+00  0.00000000000E+00  0.85807102467E+03  0.85807102468E+03  0.50400001928E-02 0. -1.
        1   -1    0    0  501    0  0.00000000000E+00  0.00000000000E+00 -0.22747913094E+04  0.22747913094E+04  0.50400001928E-02 0.  1.
    10030    2    1    2    0    0  0.00000000000E+00  0.00000000000E+00 -0.14167202847E+04  0.31328623341E+04  0.27942315650E+04 0.  0.
        1    1    3    3  502    0 -0.93062848661E+03  0.96789490398E+03 -0.11412068350E+04  0.17621699593E+04  0.50400001928E-02 0.  1.
       -1    1    3    3    0  502  0.93062848661E+03 -0.96789490398E+03 -0.27551344974E+03  0.13706923748E+04  0.50400001928E-02 0. -1.
</event>
<event>
 5   0  0.1461146E-06  0.2797294E+04  0.7818609E-02  0.8304109E-01
       -2   -1    0    0    0  501  0.00000000000E+00  0.00000000000E+00  0.92979260121E+03  0.92979260122E+03  0.25500000920E-02 0.  1.
        2   -1    0    0  501    0  0.00000000000E+00  0.00000000000E+00 -0.21039252367E+04  0.21039252367E+04  0.25500000920E-02 0. -1.
    10030    2    1    2    0    0  0.00000000000E+00  0.00000000000E+00 -0.11741326355E+04  0.30337178379E+04  0.27972944919E+04 0.  0.
        1    1    3    3  502    0 -0.97003214152E+02  0.33269446962E+03  0.88249392366E+03  0.94809849646E+03  0.50400001928E-02 0.  1.
       -1    1    3    3    0  502  0.97003214152E+02 -0.33269446962E+03 -0.20566265592E+04  0.20856193415E+04  0.50400001928E-02 0. -1.
</event>
<event>
 5   0  0.1394410E-06  0.2798298E+04  0.7818609E-02  0.8303797E-01
        2   -1    0    0  501    0  0.00000000000E+00  0.00000000000E+00  0.16290078090E+04  0.16290078090E+04  0.25500000920E-02 0.  1.
       -2   -1    0    0    0  501  0.00000000000E+00  0.00000000000E+00 -0.12017242607E+04  0.12017242607E+04  0.25500000920E-02 0. -1.
    10030    2    1    2    0    0  0.00000000000E+00  0.00000000000E+00  0.42728354831E+03  0.28307320697E+04  0.27982982006E+04 0.  0.
        4    1    3    3  502    0  0.59331870407E+03 -0.21773596521E+02 -0.10679741800E+04  0.12219131050E+04  0.12699999809E+01 0. -1.
       -4    1    3    3    0  502 -0.59331870407E+03  0.21773596521E+02  0.14952577283E+04  0.16088189647E+04  0.12699999809E+01 0.  1.
</event>
<event>
 5   0  0.1377807E-06  0.2801093E+04  0.7818609E-02  0.8302929E-01
        2   -1    0    0  501    0  0.00000000000E+00  0.00000000000E+00  0.24438539967E+04  0.24438539967E+04  0.25500000920E-02 0. -1.
       -2   -1    0    0    0  501  0.00000000000E+00  0.00000000000E+00 -0.80263830458E+03  0.80263830458E+03  0.25500000920E-02 0.  1.
    10030    2    1    2    0    0  0.00000000000E+00  0.00000000000E+00  0.16412156921E+04  0.32464923013E+04  0.28010932355E+04 0.  0.
        2    1    3    3  502    0 -0.36225227577E+03  0.55523792932E+03  0.22504769199E+04  0.23460951039E+04  0.25500000920E-02 0. -1.
       -2    1    3    3    0  502  0.36225227577E+03 -0.55523792932E+03 -0.60926122776E+03  0.90039719742E+03  0.25500000920E-02 0.  1.
</event>
<event>
 5   0  0.5297741E-07  0.2798364E+04  0.7818609E-02  0.8303777E-01
        1   -1    0    0  501    0  0.00000000000E+00  0.00000000000E+00  0.12625021601E+04  0.12625021601E+04  0.50400001928E-02 0.  1.
       -1   -1    0    0    0  501  0.00000000000E+00  0.00000000000E+00 -0.15506584173E+04  0.15506584173E+04  0.50400001928E-02 0. -1.
    10030    2    1    2    0    0  0.00000000000E+00  0.00000000000E+00 -0.28815625722E+03  0.28131605775E+04  0.27983635229E+04 0.  0.
        5    1    3    3  502    0 -0.13986558831E+04 -0.14566878352E+02 -0.10872059615E+03  0.14029585637E+04  0.46999998093E+01 0. -1.
       -5    1    3    3    0  502  0.13986558831E+04  0.14566878352E+02 -0.17943566107E+03  0.14102020138E+04  0.46999998093E+01 0.  1.
</event>
<event>
 5   0  0.5551565E-07  0.2802575E+04  0.7818609E-02  0.8302469E-01
       -1   -1    0    0    0  501  0.00000000000E+00  0.00000000000E+00  0.11889070318E+04  0.11889070318E+04  0.50400001928E-02 0. -1.
        1   -1    0    0  501    0  0.00000000000E+00  0.00000000000E+00 -0.16516070756E+04  0.16516070756E+04  0.50400001928E-02 0.  1.
    10030    2    1    2    0    0  0.00000000000E+00  0.00000000000E+00 -0.46270004385E+03  0.28405141074E+04  0.28025754341E+04 0.  0.
        3    1    3    3  502    0 -0.52498004610E+03 -0.11741597549E+04  0.33237350148E+03  0.13284304022E+04  0.10100000352E+00 0. -1.
       -3    1    3    3    0  502  0.52498004610E+03  0.11741597549E+04 -0.79507354533E+03  0.15120837052E+04  0.10100000352E+00 0.  1.
</event>
<event>
 5   0  0.1461146E-06  0.2802576E+04  0.7818609E-02  0.8302469E-01
       -2   -1    0    0    0  501  0.00000000000E+00  0.00000000000E+00  0.16536534720E+04  0.16536534720E+04  0.25500000920E-02 0.  1.
        2   -1    0    0  501    0  0.00000000000E+00  0.00000000000E+00 -0.11874362570E+04  0.11874362570E+04  0.25500000920E-02 0. -1.
    10030    2    1    2    0    0  0.00000000000E+00  0.00000000000E+00  0.46621721501E+03  0.28410897291E+04  0.28025760216E+04 0.  0.
        1    1    3    3  502    0 -0.13072985261E+04 -0.33828738213E+03 -0.14638902390E+03  0.13582700525E+04  0.50400001928E-02 0. -1.
       -1    1    3    3    0  502  0.13072985261E+04  0.33828738213E+03  0.61260623892E+03  0.14828196766E+04  0.50400001928E-02 0.  1.
</event>
<event>
 5   0  0.5282098E-07  0.2810391E+04  0.7818609E-02  0.8300050E-01
        1   -1    0    0  501    0  0.00000000000E+00  0.00000000000E+00  0.20058856058E+04  0.20058856058E+04  0.50400001928E-02 0.  1.
       -1   -1    0    0    0  501  0.00000000000E+00  0.00000000000E+00 -0.98439033144E+03  0.98439033145E+03  0.50400001928E-02 0. -1.
    10030    2    1    2    0    0  0.00000000000E+00  0.00000000000E+00  0.10214952744E+04  0.29902759373E+04  0.28103910022E+04 0.  0.
        4    1    3    3  502    0  0.11519175033E+04  0.16316933108E+03 -0.32775112276E+03  0.12087020213E+04  0.12699999809E+01 0. -1.
       -4    1    3    3    0  502 -0.11519175033E+04 -0.16316933108E+03  0.13492463972E+04  0.17815739160E+04  0.12699999809E+01 0.  1.
</event>
<event>
 5   0  0.5551565E-07  0.2786457E+04  0.7818609E-02  0.8307485E-01
       -1   -1    0    0    0  501  0.00000000000E+00  0.00000000000E+00  0.80448772405E+03  0.80448772407E+03  0.50400001928E-02 0. -1.
        1   -1    0    0  501    0  0.00000000000E+00  0.00000000000E+00 -0.24128218499E+04  0.24128218499E+04  0.50400001928E-02 0.  1.
    10030    2    1    2    0    0  0.00000000000E+00  0.00000000000E+00 -0.16083341259E+04  0.32173095740E+04  0.27864569321E+04 0.  0.
        3    1    3    3  502    0  0.13846802903E+04  0.36772585360E+02 -0.63138263561E+03  0.15222797943E+04  0.10100000352E+00 0.  1.
       -3    1    3    3    0  502 -0.13846802903E+04 -0.36772585360E+02 -0.97695149026E+03  0.16950297797E+04  0.10100000352E+00 0. -1.
</event>
<event>
 5   0  0.5362952E-07  0.2801146E+04  0.7818609E-02  0.8302913E-01
        1   -1    0    0  501    0  0.00000000000E+00  0.00000000000E+00  0.15401335599E+04  0.15401335599E+04  0.50400001928E-02 0. -1.
       -1   -1    0    0    0  501  0.00000000000E+00  0.00000000000E+00 -0.12736590280E+04  0.12736590280E+04  0.50400001928E-02 0.  1.
    10030    2    1    2    0    0  0.00000000000E+00  0.00000000000E+00  0.26647453187E+03  0.28137925880E+04  0.28011462032E+04 0.  0.
        1    1    3    3  502    0  0.38186181840E+03  0.97286453572E+03  0.10698206089E+04  0.14955935238E+04  0.50400001928E-02 0. -1.
       -1    1    3    3    0  502 -0.38186181840E+03 -0.97286453572E+03 -0.80334607704E+03  0.13181990641E+04  0.50400001928E-02 0.  1.
</event>
<event>
 5   0  0.5297741E-07  0.2770585E+04  0.7818609E-02  0.8312459E-01
        1   -1    0    0  501    0  0.00000000000E+00  0.00000000000E+00  0.13191470966E+04  0.13191470966E+04  0.50400001928E-02 0. -1.
       -1   -1    0    0    0  501  0.00000000000E+00  0.00000000000E+00 -0.14547543042E+04  0.14547543042E+04  0.50400001928E-02 0.  1.
    10030    2    1    2    0    0  0.00000000000E+00  0.00000000000E+00 -0.13560720763E+03  0.27739014008E+04  0.27705847157E+04 0.  0.
        5    1    3    3  502    0  0.18863634932E+03 -0.13534833433E+04  0.15943063297E+03  0.13758419421E+04  0.46999998093E+01 0. -1.
       -5    1    3    3    0  502 -0.18863634932E+03  0.13534833433E+04 -0.29503784060E+03  0.13980594588E+04  0.46999998093E+01 0.  1.
</event>
<event>
 5   0  0.5551565E-07  0.2821793E+04  0.7818609E-02  0.8296534E-01
       -1   -1    0    0    0  501  0.00000000000E+00  0.00000000000E+00  0.14217612410E+04  0.14217612410E+04  0.50400001928E-02 0. -1.
        1   -1    0    0  501    0  0.00000000000E+00  0.00000000000E+00 -0.14001144121E+04  0.14001144121E+04  0.50400001928E-02 0.  1.
    10030    2    1    2    0    0  0.00000000000E+00  0.00000000000E+00  0.21646828855E+02  0.28218756531E+04  0.28217926246E+04 0.  0.
        3    1    3    3  502    0 -0.70972134112E+03  0.11801376151E+04 -0.29610453267E+03  0.14085833583E+04  0.10100000352E+00 0. -1.
       -3    1    3    3    0  502  0.70972134112E+03 -0.11801376151E+04  0.31775136153E+03  0.14132922949E+04  0.10100000352E+00 0.  1.
</event>
<event>
 5   0  0.1394410E-06  0.2803519E+04  0.7818609E-02  0.8302177E-01
        2   -1    0    0  501    0  0.00000000000E+00  0.00000000000E+00  0.17468173772E+04  0.17468173772E+04  0.25500000920E-02 0.  1.
       -2   -1    0    0    0  501  0.00000000000E+00  0.00000000000E+00 -0.11248629259E+04  0.11248629259E+04  0.25500000920E-02 0. -1.
    10030    2    1    2    0    0  0.00000000000E+00  0.00000000000E+00  0.62195445135E+03  0.28716803031E+04  0.28035192925E+04 0.  0.
        4    1    3    3  502    0  0.42926777965E+03  0.10875949877E+04 -0.48099255428E+03  0.12643137008E+04  0.12699999809E+01 0.  1.
       -4    1    3    3    0  502 -0.42926777965E+03 -0.10875949877E+04  0.11029470056E+04  0.16073666022E+04  0.12699999809E+01 0. -1.
</event>
<event>
 5   0  0.1461146E-06  0.2803177E+04  0.7818609E-02  0.8302283E-01
       -2   -1    0    0    0  501  0.00000000000E+00  0.00000000000E+00  0.15135071630E+04  0.15135071630E+04  0.25500000920E-02 0. -1.
        2   -1    0    0  501    0  0.00000000000E+00  0.00000000000E+00 -0.12979459333E+04  0.12979459333E+04  0.25500000920E-02 0.  1.
    10030    2    1    2    0    0  0.00000000000E+00  0.00000000000E+00  0.21556122969E+03  0.28114530962E+04  0.28031771026E+04 0.  0.
        1    1    3    3  502    0  0.23235659017E+03  0.47666523365E+03 -0.11934514715E+04  0.13059577883E+04  0.50400001928E-02 0.  1.
       -1    1    3    3    0  502 -0.23235659017E+03 -0.47666523365E+03  0.14090127012E+04  0.15054953079E+04  0.50400001928E-02 0. -1.
</event>
<event>
 5   0  0.5282098E-07  0.2802240E+04  0.7818609E-02  0.8302573E-01
       -1   -1    0    0    0  501  0.00000000000E+00  0.00000000000E+00  0.82543185769E+03  0.82543185771E+03  0.50400001928E-02 0. -1.
        1   -1    0    0  501    0  0.00000000000E+00  0.00000000000E+00 -0.23783149708E+04  0.23783149708E+04  0.50400001928E-02 0.  1.
    10030    2    1    2    0    0  0.00000000000E+00  0.00000000000E+00 -0.15528831131E+04  0.32037468285E+04  0.28022397789E+04 0.  0.
        4    1    3    3  502    0 -0.81803608356E+03 -0.10952471242E+04 -0.42519929409E+03  0.14316233267E+04  0.12699999809E+01 0. -1.
       -4    1    3    3    0  502  0.81803608356E+03  0.10952471242E+04 -0.11276838190E+04  0.17721235018E+04  0.12699999809E+01 0.  1.
</event>
<event>
 5   0  0.1439207E-06  0.2805773E+04  0.7818609E-02  0.8301478E-01
        2   -1    0    0  501    0  0.00000000000E+00  0.00000000000E+00  0.10181103177E+04  0.10181103177E+04  0.25500000920E-02 0. -1.
       -2   -1    0    0    0  501  0.00000000000E+00  0.00000000000E+00 -0.19330820457E+04  0.19330820457E+04  0.25500000920E-02 0.  1.
    10030    2    1    2    0    0  0.00000000000E+00  0.00000000000E+00 -0.91497172797E+03  0.29511923634E+04  0.28057731738E+04 0.  0.
        5    1    3    3  502    0 -0.13087690448E+03 -0.98986214598E+03  0.57903920698E+03  0.11542375515E+04  0.46999998093E+01 0. -1.
       -5    1    3    3    0  502  0.13087690448E+03  0.98986214598E+03 -0.14940109350E+04  0.17969548119E+04  0.46999998093E+01 0.  1.
</event>
<event>
 5   0  0.5282098E-07  0.2771788E+04  0.7818609E-02  0.8312081E-01
        1   -1    0    0  501    0  0.00000000000E+00  0.00000000000E+00  0.14220502379E+04  0.14220502379E+04  0.50400001928E-02 0.  1.
       -1   -1    0    0    0  501  0.00000000000E+00  0.00000000000E+00 -0.13506565995E+04  0.13506565995E+04  0.50400001928E-02 0. -1.
    10030    2    1    2    0    0  0.00000000000E+00  0.00000000000E+00  0.71393638413E+02  0.27727068374E+04  0.27717875378E+04 0.  0.
        4    1    3    3  502    0 -0.12128720795E+04  0.62265869279E+03  0.28465161089E+03  0.13927636847E+04  0.12699999809E+01 0. -1.
       -4    1    3    3    0  502  0.12128720795E+04 -0.62265869279E+03 -0.21325797248E+03  0.13799431527E+04  0.12699999809E+01 0.  1.
</event>
<event>
 5   0  0.5362952E-07  0.2793741E+04  0.7818609E-02  0.8305214E-01
       -1   -1    0    0    0  501  0.00000000000E+00  0.00000000000E+00  0.11257706502E+04  0.11257706502E+04  0.50400001928E-02 0.  1.
        1   -1    0    0  501    0  0.00000000000E+00  0.00000000000E+00 -0.17332548391E+04  0.17332548391E+04  0.50400001928E-02 0. -1.
    10030    2    1    2    0    0  0.00000000000E+00  0.00000000000E+00 -0.60748418891E+03  0.28590254893E+04  0.27937411671E+04 0.  0.
        1    1    3    3  502    0  0.83566330754E+03 -0.72915051168E+03 -0.11728544330E+04  0.16141812641E+04  0.50400001928E-02 0. -1.
       -1    1    3    3    0  502 -0.83566330754E+03  0.72915051168E+03  0.56537024407E+03  0.12448442253E+04  0.50400001928E-02 0.  1.
</event>
<event>
 5   0  0.5362952E-07  0.2803938E+04  0.7818609E-02  0.8302047E-01
       -1   -1    0    0    0  501  0.00000000000E+00  0.00000000000E+00  0.13518936477E+04  0.13518936477E+04  0.50400001928E-02 0. -1.
        1   -1    0    0  501    0  0.00000000000E+00  0.00000000000E+00 -0.14538991062E+04  0.14538991062E+04  0.50400001928E-02 0.  1.
    10030    2    1    2    0    0  0.00000000000E+00  0.00000000000E+00 -0.10200545849E+03  0.28057927538E+04  0.28039379208E+04 0.  0.
        1    1    3    3  502    0  0.67226687447E+03 -0.18105242135E+03  0.11666811397E+04  0.13586271054E+04  0.50400001928E-02 0. -1.
       -1    1    3    3    0  502 -0.67226687447E+03  0.18105242135E+03 -0.12686865981E+04  0.14471656485E+04  0.50400001928E-02 0.  1.
</event>
<event>
 5   0  0.5551565E-07  0.2800378E+04  0.7818609E-02  0.8303151E-01
       -1   -1    0    0    0  501  0.00000000000E+00  0.00000000000E+00  0.13402027862E+04  0.13402027862E+04  0.50400001928E-02 0.  1.
        1   -1    0    0  501    0  0.00000000000E+00  0.00000000000E+00 -0.14628599673E+04  0.14628599673E+04  0.50400001928E-02 0. -1.
    10030    2    1    2    0    0  0.00000000000E+00  0.00000000000E+00 -0.12265718116E+03  0.28030627535E+04  0.28003778345E+04 0.  0.
        3    1    3    3  502    0 -0.54908181667E+03 -0.23237024130E+03  0.12067886880E+04  0.13460407565E+04  0.10100000352E+00 0.  1.
       -3    1    3    3    0  502  0.54908181667E+03  0.23237024130E+03 -0.13294458692E+04  0.14570219970E+04  0.10100000352E+00 0. -1.
</event>
<event>
 5   0  0.1439207E-06  0.2800341E+04  0.7818609E-02  0.8303163E-01
       -2   -1    0    0    0  501  0.00000000000E+00  0.00000000000E+00  0.13164834154E+04  0.13164834154E+04  0.25500000920E-02 0.  1.
        2   -1    0    0  501    0  0.00000000000E+00  0.00000000000E+00 -0.14891771042E+04  0.14891771042E+04  0.25500000920E-02 0. -1.
    10030    2    1    2    0    0  0.00000000000E+00  0.00000000000E+00 -0.17269368884E+03  0.28056605196E+04  0.28003406651E+04 0.  0.
        5    1    3    3  502    0 -0.91915867056E+03 -0.98689194361E+03 -0.46342135677E+03  0.14260399062E+04  0.46999998093E+01 0. -1.
       -5    1    3    3    0  502  0.91915867056E+03  0.98689194361E+03  0.29072766793E+03  0.13796206134E+04  0.46999998093E+01 0.  1.
</event>
<event>
 5   0  0.1461146E-06  0.2802387E+04  0.7818609E-02  0.8302528E-01
        2   -1    0    0  501    0  0.00000000000E+00  0.00000000000E+00  0.20952259871E+04  0.20952259871E+04  0.25500000920E-02 0.  1.
       -2   -1    0    0    0  501  0.00000000000E+00  0.00000000000E+00 -0.93705545258E+03  0.93705545258E+03  0.25500000920E-02 0. -1.
    10030    2    1    2    0    0  0.00000000000E+00  0.00000000000E+00  0.11581705345E+04  0.30322814397E+04  0.28023867939E+04 0.  0.
        1    1    3    3  502    0 -0.26640745928E+03 -0.13592036495E+04  0.34971562830E+03  0.14285336944E+04  0.50400001928E-02 0.  1.
       -1    1    3    3    0  502  0.26640745928E+03  0.13592036495E+04  0.80845490625E+03  0.16037477453E+04  0.50400001928E-02 0. -1.
</event>
<event>
 5   0  0.5282098E-07  0.2810077E+04  0.7818609E-02  0.8300147E-01
       -1   -1    0    0    0  501  0.00000000000E+00  0.00000000000E+00  0.86452821586E+03  0.86452821587E+03  0.50400001928E-02 0.  1.
        1   -1    0    0  501    0  0.00000000000E+00  0.00000000000E+00 -0.22834797897E+04  0.22834797897E+04  0.50400001928E-02 0. -1.
    10030    2    1    2    0    0  0.00000000000E+00  0.00000000000E+00 -0.14189515738E+04  0.31480080056E+04  0.28100766598E+04 0.  0.
        4    1    3    3  502    0  0.61135444156E+03 -0.93333327544E+03  0.24719077765E+03  0.11427905100E+04  0.12699999809E+01 0.  1.
       -4    1    3    3    0  502 -0.61135444156E+03  0.93333327544E+03 -0.16661423515E+04  0.20052174956E+04  0.12699999809E+01 0. -1.
</event>
<event>
 5   0  0.5551565E-07  0.2801596E+04  0.7818609E-02  0.8302773E-01
       -1   -1    0    0    0  501  0.00000000000E+00  0.00000000000E+00  0.11320771867E+04  0.11320771867E+04  0.50400001928E-02 0.  1.
        1   -1    0    0  501    0  0.00000000000E+00  0.00000000000E+00 -0.17333055100E+04  0.17333055100E+04  0.50400001928E-02 0. -1.
    10030    2    1    2    0    0  0.00000000000E+00  0.00000000000E+00 -0.60122832330E+03  0.28653826968E+04  0.28015964203E+04 0.  0.
        3    1    3    3  502    0  0.13370109434E+04 -0.34321997150E+03 -0.54444811295E+03  0.14838537561E+04  0.10100000352E+00 0.  1.
       -3    1    3    3    0  502 -0.13370109434E+04  0.34321997150E+03 -0.56780210344E+02  0.13815289407E+04  0.10100000352E+00 0. -1.
</event>
<event>
 5   0  0.1439207E-06  0.2886438E+04  0.7818609E-02  0.8276924E-01
        2   -1    0    0  501    0  0.00000000000E+00  0.00000000000E+00  0.14065232627E+04  0.14065232627E+04  0.25500000920E-02 0.  1.
       -2   -1    0    0    0  501  0.00000000000E+00  0.00000000000E+00 -0.14808720631E+04  0.14808720631E+04  0.25500000920E-02 0. -1.
    10030    2    1    2    0    0  0.00000000000E+00  0.00000000000E+00 -0.74348800406E+02  0.28873953257E+04  0.28864379472E+04 0.  0.
        5    1    3    3  502    0 -0.81757957214E+03  0.11892085040E+04 -0.22827645423E+02  0.14433282420E+04  0.46999998093E+01 0.  1.
       -5    1    3    3    0  502  0.81757957214E+03 -0.11892085040E+04 -0.51521154983E+02  0.14440670837E+04  0.46999998093E+01 0. -1.
</event>
<event>
 5   0  0.5551565E-07  0.2799758E+04  0.7818609E-02  0.8303344E-01
       -1   -1    0    0    0  501  0.00000000000E+00  0.00000000000E+00  0.10154661193E+04  0.10154661193E+04  0.50400001928E-02 0. -1.
        1   -1    0    0  501    0  0.00000000000E+00  0.00000000000E+00 -0.19298140613E+04  0.19298140614E+04  0.50400001928E-02 0.  1.
    10030    2    1    2    0    0  0.00000000000E+00  0.00000000000E+00 -0.91434794207E+03  0.29452801806E+04  0.27997577008E+04 0.  0.
        3    1    3    3  502    0 -0.52796940615E+03 -0.10709448966E+04 -0.12258992299E+04  0.17112871172E+04  0.10100000352E+00 0.  1.
       -3    1    3    3    0  502  0.52796940615E+03  0.10709448966E+04  0.31155128783E+03  0.12339930634E+04  0.10100000352E+00 0. -1.
</event>
<event>
 5   0  0.5551565E-07  0.2800939E+04  0.7818609E-02  0.8302977E-01
        1   -1    0    0  501    0  0.00000000000E+00  0.00000000000E+00  0.14467119220E+04  0.14467119220E+04  0.50400001928E-02 0. -1.
       -1   -1    0    0    0  501  0.00000000000E+00  0.00000000000E+00 -0.13557052660E+04  0.13557052660E+04  0.50400001928E-02 0.  1.
    10030    2    1    2    0    0  0.00000000000E+00  0.00000000000E+00  0.91006656027E+02  0.28024171879E+04  0.28009391075E+04 0.  0.
        3    1    3    3  502    0  0.42845949612E+03 -0.87183959968E+03  0.10548137089E+04  0.14339852851E+04  0.10100000352E+00 0. -1.
       -3    1    3    3    0  502 -0.42845949612E+03  0.87183959968E+03 -0.96380705282E+03  0.13684319028E+04  0.10100000352E+00 0.  1.
</event>
<event>
 5   0  0.1394410E-06  0.2802137E+04  0.7818609E-02  0.8302605E-01
       -2   -1    0    0    0  501  0.00000000000E+00  0.00000000000E+00  0.87058248239E+03  0.87058248239E+03  0.25500000920E-02 0.  1.
        2   -1    0    0  501    0  0.00000000000E+00  0.00000000000E+00 -0.22548039528E+04  0.22548039528E+04  0.25500000920E-02 0. -1.
    10030    2    1    2    0    0  0.00000000000E+00  0.00000000000E+00 -0.13842214704E+04  0.31253864352E+04  0.28021369149E+04 0.  0.
        4    1    3    3  502    0  0.57668628354E+02  0.70018880521E+03  0.65991376924E+03  0.96388683432E+03  0.12699999809E+01 0.  1.
       -4    1    3    3    0  502 -0.57668628354E+02 -0.70018880521E+03 -0.20441352396E+04  0.21614996009E+04  0.12699999809E+01 0. -1.
</event>
<event>
 5   0  0.1377807E-06  0.2803053E+04  0.7818609E-02  0.8302321E-01
        2   -1    0    0  501    0  0.00000000000E+00  0.00000000000E+00  0.13265690018E+04  0.13265690019E+04  0.25500000920E-02 0. -1.
       -2   -1    0    0    0  501  0.00000000000E+00  0.00000000000E+00 -0.14807198974E+04  0.14807198974E+04  0.25500000920E-02 0.  1.
    10030    2    1    2    0    0  0.00000000000E+00  0.00000000000E+00 -0.15415089554E+03  0.28072888992E+04  0.28030534182E+04 0.  0.
        2    1    3    3  502    0 -0.10291996302E+04 -0.56743679945E+02 -0.10281447147E+04  0.14558685649E+04  0.25500000920E-02 0.  1.
       -2    1    3    3    0  502  0.10291996302E+04  0.56743679945E+02  0.87399381916E+03  0.13514203343E+04  0.25500000920E-02 0. -1.
</event>
<event>
 5   0  0.5214658E-07  0.2789693E+04  0.7818609E-02  0.8306475E-01
        1   -1    0    0  501    0  0.00000000000E+00  0.00000000000E+00  0.17371218559E+04  0.17371218559E+04  0.50400001928E-02 0. -1.
       -1   -1    0    0    0  501  0.00000000000E+00  0.00000000000E+00 -0.11200117484E+04  0.11200117484E+04  0.50400001928E-02 0.  1.
    10030    2    1    2    0    0  0.00000000000E+00  0.00000000000E+00  0.61711010752E+03  0.28571336043E+04  0.27896930921E+04 0.  0.
        2    1    3    3  502    0  0.93457631397E+03 -0.85759701778E+03 -0.28572356490E+03  0.13002090167E+04  0.25500000920E-02 0.  1.
       -2    1    3    3    0  502 -0.93457631397E+03  0.85759701778E+03  0.90283367242E+03  0.15569245876E+04  0.25500000920E-02 0. -1.
</event>
<event>
 5   0  0.1377807E-06  0.2801793E+04  0.7818609E-02  0.8302712E-01
       -2   -1    0    0    0  501  0.00000000000E+00  0.00000000000E+00  0.10581035080E+04  0.10581035080E+04  0.25500000920E-02 0. -1.
        2   -1    0    0  501    0  0.00000000000E+00  0.00000000000E+00 -0.18547440981E+04  0.18547440981E+04  0.25500000920E-02 0.  1.
    10030    2    1    2    0    0  0.00000000000E+00  0.00000000000E+00 -0.79664059017E+03  0.29128476061E+04  0.28017931663E+04 0.  0.
        2    1    3    3  502    0 -0.85496189611E+02  0.10463591292E+04 -0.13626272268E+04  0.17201540585E+04  0.25500000920E-02 0.  1.
       -2    1    3    3    0  502  0.85496189611E+02 -0.10463591292E+04  0.56598663659E+03  0.11926935476E+04  0.25500000920E-02 0. -1.
</event>
<event>
 5   0  0.5214658E-07  0.2798746E+04  0.7818609E-02  0.8303658E-01
        1   -1    0    0  501    0  0.00000000000E+00  0.00000000000E+00  0.16964783506E+04  0.16964783506E+04  0.50400001928E-02 0. -1.
       -1   -1    0    0    0  501  0.00000000000E+00  0.00000000000E+00 -0.11543000089E+04  0.11543000089E+04  0.50400001928E-02 0.  1.
    10030    2    1    2    0    0  0.00000000000E+00  0.00000000000E+00  0.54217834168E+03  0.28507783595E+04  0.27987461301E+04 0.  0.
        2    1    3    3  502    0 -0.36445419379E+03  0.22140876569E+03  0.16286830589E+04  0.16835846303E+04  0.25500000920E-02 0. -1.
       -2    1    3    3    0  502  0.36445419379E+03 -0.22140876569E+03 -0.10865047172E+04  0.11671937292E+04  0.25500000920E-02 0.  1.
</event>
<event>
 5   0  0.5362952E-07  0.2801893E+04  0.7818609E-02  0.8302681E-01
        1   -1    0    0  501    0  0.00000000000E+00  0.00000000000E+00  0.12071246451E+04  0.12071246451E+04  0.50400001928E-02 0. -1.
       -1   -1    0    0    0  501  0.00000000000E+00  0.00000000000E+00 -0.16258888844E+04  0.16258888844E+04  0.50400001928E-02 0.  1.
    10030    2    1    2    0    0  0.00000000000E+00  0.00000000000E+00 -0.41876423937E+03  0.28330135295E+04  0.28018926050E+04 0.  0.
        1    1    3    3  502    0 -0.53335994649E+03  0.35245665442E+03  0.10510398537E+04  0.12301964477E+04  0.50400001928E-02 0. -1.
       -1    1    3    3    0  502  0.53335994649E+03 -0.35245665442E+03 -0.14698040931E+04  0.16028170818E+04  0.50400001928E-02 0.  1.
</event>
<event>
 5   0  0.1377807E-06  0.2803377E+04  0.7818609E-02  0.8302221E-01
       -2   -1    0    0    0  501  0.00000000000E+00  0.00000000000E+00  0.16339761086E+04  0.16339761086E+04  0.25500000920E-02 0.  1.
        2   -1    0    0  501    0  0.00000000000E+00  0.00000000000E+00 -0.12024233658E+04  0.12024233658E+04  0.25500000920E-02 0. -1.
    10030    2    1    2    0    0  0.00000000000E+00  0.00000000000E+00  0.43155274280E+03  0.28363994745E+04  0.28033772862E+04 0.  0.
        2    1    3    3  502    0 -0.11378323044E+04  0.36879832732E+03  0.95517637062E+03  0.15306980297E+04  0.25500000920E-02 0.  1.
       -2    1    3    3    0  502  0.11378323044E+04 -0.36879832732E+03 -0.52362362782E+03  0.13057014448E+04  0.25500000920E-02 0. -1.
</event>
<event>
 5   0  0.1394410E-06  0.2802362E+04  0.7818609E-02  0.8302535E-01
        2   -1    0    0  501    0  0.00000000000E+00  0.00000000000E+00  0.14075544156E+04  0.14075544156E+04  0.25500000920E-02 0. -1.
       -2   -1    0    0    0  501  0.00000000000E+00  0.00000000000E+00 -0.13948366211E+04  0.13948366211E+04  0.25500000920E-02 0.  1.
    10030    2    1    2    0    0  0.00000000000E+00  0.00000000000E+00  0.12717794584E+02  0.28023910367E+04  0.28023621786E+04 0.  0.
        4    1    3    3  502    0 -0.23431375570E+03 -0.87682012905E+03 -0.10611680710E+04  0.13963508737E+04  0.12699999809E+01 0.  1.
       -4    1    3    3    0  502  0.23431375570E+03  0.87682012905E+03  0.10738858655E+04  0.14060401630E+04  0.12699999809E+01 0. -1.
</event>
<event>
 5   0  0.1461146E-06  0.2825146E+04  0.7818609E-02  0.8295504E-01
        2   -1    0    0  501    0  0.00000000000E+00  0.00000000000E+00  0.14414330396E+04  0.14414330396E+04  0.25500000920E-02 0. -1.
       -2   -1    0    0    0  501  0.00000000000E+00  0.00000000000E+00 -0.13842912077E+04  0.13842912077E+04  0.25500000920E-02 0.  1.
    10030    2    1    2    0    0  0.00000000000E+00  0.00000000000E+00  0.57141831912E+02  0.28257242472E+04  0.28251464267E+04 0.  0.
        1    1    3    3  502    0  0.13924844507E+04  0.16369791267E+03  0.20051631735E+03  0.14163392057E+04  0.50400001928E-02 0.  1.
       -1    1    3    3    0  502 -0.13924844507E+04 -0.16369791267E+03 -0.14337448543E+03  0.14093850415E+04  0.50400001928E-02 0. -1.
</event>
<event>
 5   0  0.1461146E-06  0.2791890E+04  0.7818609E-02  0.8305791E-01
        2   -1    0    0  501    0  0.00000000000E+00  0.00000000000E+00  0.24807482917E+04  0.24807482917E+04  0.25500000920E-02 0. -1.
       -2   -1    0    0    0  501  0.00000000000E+00  0.00000000000E+00 -0.78551373360E+03  0.78551373360E+03  0.25500000920E-02 0.  1.
    10030    2    1    2    0    0  0.00000000000E+00  0.00000000000E+00  0.16952345581E+04  0.32662620253E+04  0.27918895772E+04 0.  0.
        1    1    3    3  502    0  0.62576965478E+02  0.13921321389E+04  0.94347920824E+03  0.16828846619E+04  0.50400001928E-02 0. -1.
       -1    1    3    3    0  502 -0.62576965478E+02 -0.13921321389E+04  0.75175534988E+03  0.15833773634E+04  0.50400001928E-02 0.  1.
</event>
<event>
 5   0  0.5214658E-07  0.2801804E+04  0.7818609E-02  0.8302709E-01
       -1   -1    0    0    0  501  0.00000000000E+00  0.00000000000E+00  0.19282168956E+04  0.19282168956E+04  0.50400001928E-02 0.  1.
        1   -1    0    0  501    0  0.00000000000E+00  0.00000000000E+00 -0.10177933890E+04  0.10177933890E+04  0.50400001928E-02 0. -1.
    10030    2    1    2    0    0  0.00000000000E+00  0.00000000000E+00  0.91042350659E+03  0.29460102846E+04  0.28018039967E+04 0.  0.
        2    1    3    3  502    0  0.50303673803E+03 -0.12732207605E+04  0.14260636195E+03  0.13763987937E+04  0.25500000920E-02 0.  1.
       -2    1    3    3    0  502 -0.50303673803E+03  0.12732207605E+04  0.76781714464E+03  0.15696114909E+04  0.25500000920E-02 0. -1.
</event>
<event>
 5   0  0.5214658E-07  0.2798576E+04  0.7818609E-02  0.8303711E-01
        1   -1    0    0  501    0  0.00000000000E+00  0.00000000000E+00  0.16019857172E+04  0.16019857172E+04  0.50400001928E-02 0. -1.
       -1   -1    0    0    0  501  0.00000000000E+00  0.00000000000E+00 -0.12222375668E+04  0.12222375668E+04  0.50400001928E-02 0.  1.
    10030    2    1    2    0    0  0.00000000000E+00  0.00000000000E+00  0.37974815040E+03  0.28242232839E+04  0.27985761558E+04 0.  0.
        2    1    3    3  502    0  0.11251395459E+04 -0.57999966443E+03  0.79171901208E+03  0.14930363702E+04  0.25500000920E-02 0. -1.
       -2    1    3    3    0  502 -0.11251395459E+04  0.57999966443E+03 -0.41197086168E+03  0.13311869138E+04  0.25500000920E-02 0.  1.
</event>
<event>
 5   0  0.1461146E-06  0.2793727E+04  0.7818609E-02  0.8305219E-01
        2   -1    0    0  501    0  0.00000000000E+00  0.00000000000E+00  0.12484751545E+04  0.12484751545E+04  0.25500000920E-02 0. -1.
       -2   -1    0    0    0  501  0.00000000000E+00  0.00000000000E+00 -0.15628886846E+04  0.15628886846E+04  0.25500000920E-02 0.  1.
    10030    2    1    2    0    0  0.00000000000E+00  0.00000000000E+00 -0.31441353015E+03  0.28113638391E+04  0.27937270389E+04 0.  0.
        1    1    3    3  502    0 -0.23199303520E+03  0.70170046456E+03 -0.13500266190E+04  0.15390829030E+04  0.50400001928E-02 0.  1.
       -1    1    3    3    0  502  0.23199303520E+03 -0.70170046456E+03  0.10356130889E+04  0.12722809360E+04  0.50400001928E-02 0. -1.
</event>
<event>
 5   0  0.1439207E-06  0.2798044E+04  0.7818609E-02  0.8303876E-01
        2   -1    0    0  501    0  0.00000000000E+00  0.00000000000E+00  0.14123494563E+04  0.14123494564E+04  0.25500000920E-02 0. -1.
       -2   -1    0    0    0  501  0.00000000000E+00  0.00000000000E+00 -0.13858203656E+04  0.13858203656E+04  0.25500000920E-02 0.  1.
    10030    2    1    2    0    0  0.00000000000E+00  0.00000000000E+00  0.26529090750E+02  0.27981698220E+04  0.27980440597E+04 0.  0.
        5    1    3    3  502    0  0.35081173887E+03  0.54625447622E+03 -0.12260561475E+04  0.13873350698E+04  0.46999998093E+01 0.  1.
       -5    1    3    3    0  502 -0.35081173887E+03 -0.54625447622E+03  0.12525852383E+04  0.14108347522E+04  0.46999998093E+01 0. -1.
</event>
<event>
 5   0  0.1394410E-06  0.2801857E+04  0.7818609E-02  0.8302692E-01
       -2   -1    0    0    0  501  0.00000000000E+00  0.00000000000E+00  0.10223887680E+04  0.10223887680E+04  0.25500000920E-02 0.  1.
        2   -1    0    0  501    0  0.00000000000E+00  0.00000000000E+00 -0.19196223940E+04  0.19196223940E+04  0.25500000920E-02 0. -1.
    10030    2    1    2    0    0  0.00000000000E+00  0.00000000000E+00 -0.89723362600E+03  0.29420111621E+04  0.28018567947E+04 0.  0.
        4    1    3    3  502    0  0.51018694271E+03  0.12857843875E+04 -0.68120687832E+03  0.15419392438E+04  0.12699999809E+01 0.  1.
       -4    1    3    3    0  502 -0.51018694271E+03 -0.12857843875E+04 -0.21602674768E+03  0.14000719183E+04  0.12699999809E+01 0. -1.
</event>
<event>
 5   0  0.5362952E-07  0.2793268E+04  0.7818609E-02  0.8305361E-01
       -1   -1    0    0    0  501  0.00000000000E+00  0.00000000000E+00  0.90498178319E+03  0.90498178321E+03  0.50400001928E-02 0.  1.
        1   -1    0    0  501    0  0.00000000000E+00  0.00000000000E+00 -0.21553878847E+04  0.21553878847E+04  0.50400001928E-02 0. -1.
    10030    2    1    2    0    0  0.00000000000E+00  0.00000000000E+00 -0.12504061015E+04  0.30603696679E+04  0.27932681729E+04 0.  0.
        1    1    3    3  502    0  0.39273580696E+03  0.42282930198E+03 -0.20186535791E+04  0.20995209704E+04  0.50400001928E-02 0. -1.
       -1    1    3    3    0  502 -0.39273580696E+03 -0.42282930198E+03  0.76824747759E+03  0.96084869752E+03  0.50400001928E-02 0.  1.
</event>
<event>
 5   0  0.1499888E-06  0.2801030E+04  0.7818609E-02  0.8302949E-01
        2   -1    0    0  501    0  0.00000000000E+00  0.00000000000E+00  0.14353389133E+04  0.14353389133E+04  0.25500000920E-02 0. -1.
       -2   -1    0    0    0  501  0.00000000000E+00  0.00000000000E+00 -0.13665362988E+04  0.13665362988E+04  0.25500000920E-02 0.  1.
    10030    2    1    2    0    0  0.00000000000E+00  0.00000000000E+00  0.68802614434E+02  0.28018752121E+04  0.28010303291E+04 0.  0.
        3    1    3    3  502    0  0.28513913778E+03  0.47621560927E+02  0.14051688298E+04  0.14345980592E+04  0.10100000352E+00 0. -1.
       -3    1    3    3    0  502 -0.28513913778E+03 -0.47621560927E+02 -0.13363662154E+04  0.13672771529E+04  0.10100000352E+00 0.  1.
</event>
<event>
 5   0  0.1461146E-06  0.2796951E+04  0.7818609E-02  0.8304216E-01
       -2   -1    0    0    0  501  0.00000000000E+00  0.00000000000E+00  0.11624128450E+04  0.11624128450E+04  0.25500000920E-02 0.  1.
        2   -1    0    0  501    0  0.00000000000E+00  0.00000000000E+00 -0.16824778994E+04  0.16824778994E+04  0.25500000920E-02 0. -1.
    10030    2    1    2    0    0  0.00000000000E+00  0.00000000000E+00 -0.52006505433E+03  0.28448907444E+04  0.27969511413E+04 0.  0.
        1    1    3    3  502    0 -0.12939161610E+04 -0.46302811358E+03  0.34830061474E+01  0.13742729704E+04  0.50400001928E-02 0.  1.
       -1    1    3    3    0  502  0.12939161610E+04  0.46302811358E+03 -0.52354806048E+03  0.14706177741E+04  0.50400001928E-02 0. -1.
</event>
<event>
 5   0  0.5282098E-07  0.2811529E+04  0.7818609E-02  0.8299698E-01
       -1   -1    0    0    0  501  0.00000000000E+00  0.00000000000E+00  0.10486271981E+04  0.10486271981E+04  0.50400001928E-02 0.  1.
        1   -1    0    0  501    0  0.00000000000E+00  0.00000000000E+00 -0.18845336311E+04  0.18845336311E+04  0.50400001928E-02 0. -1.
    10030    2    1    2    0    0  0.00000000000E+00  0.00000000000E+00 -0.83590643304E+03  0.29331608292E+04  0.28115285673E+04 0.  0.
        4    1    3    3  502    0  0.52197007300E+03  0.12522582481E+04 -0.80207786934E+03  0.15760501256E+04  0.12699999809E+01 0.  1.
       -4    1    3    3    0  502 -0.52197007300E+03 -0.12522582481E+04 -0.33828563699E+02  0.13571107036E+04  0.12699999809E+01 0. -1.
</event>
<event>
 5   0  0.1499888E-06  0.2799317E+04  0.7818609E-02  0.8303480E-01
        2   -1    0    0  501    0  0.00000000000E+00  0.00000000000E+00  0.99651248960E+03  0.99651248960E+03  0.25500000920E-02 0. -1.
       -2   -1    0    0    0  501  0.00000000000E+00  0.00000000000E+00 -0.19659002454E+04  0.19659002454E+04  0.25500000920E-02 0.  1.
    10030    2    1    2    0    0  0.00000000000E+00  0.00000000000E+00 -0.96938775584E+03  0.29624127350E+04  0.27993171652E+04 0.  0.
        3    1    3    3  502    0  0.10960832210E+04  0.71484235076E+03 -0.10102639249E+04  0.16531881992E+04  0.10100000352E+00 0.  1.
       -3    1    3    3    0  502 -0.10960832210E+04 -0.71484235076E+03  0.40876169033E+02  0.13092245358E+04  0.10100000352E+00 0. -1.
</event>
<event>
 5   0  0.1461146E-06  0.2808688E+04  0.7818609E-02  0.8300576E-01
        2   -1    0    0  501    0  0.00000000000E+00  0.00000000000E+00  0.14762707622E+04  0.14762707622E+04  0.25500000920E-02 0.  1.
       -2   -1    0    0    0  501  0.00000000000E+00  0.00000000000E+00 -0.13359217048E+04  0.13359217048E+04  0.25500000920E-02 0. -1.
    10030    2    1    2    0    0  0.00000000000E+00  0.00000000000E+00  0.14034905746E+03  0.28121924670E+04  0.28086880591E+04 0.  0.
        1    1    3    3  502    0 -0.89120625068E+03  0.56399879753E+03 -0.85825743638E+03  0.13597606598E+04  0.50400001928E-02 0. -1.
       -1    1    3    3    0  502  0.89120625068E+03 -0.56399879753E+03  0.99860649384E+03  0.14524318072E+04  0.50400001928E-02 0.  1.
</event>
<event>
 5   0  0.5214658E-07  0.2791752E+04  0.7818609E-02  0.8305834E-01
       -1   -1    0    0    0  501  0.00000000000E+00  0.00000000000E+00  0.13900807208E+04  0.13900807208E+04  0.50400001928E-02 0. -1.
        1   -1    0    0  501    0  0.00000000000E+00  0.00000000000E+00 -0.14016956801E+04  0.14016956801E+04  0.50400001928E-02 0.  1.
    10030    2    1    2    0    0  0.00000000000E+00  0.00000000000E+00 -0.11614959321E+02  0.27917764009E+04  0.27917522392E+04 0.  0.
        2    1    3    3  502    0 -0.18032002062E+03  0.27106153534E+03 -0.13631992314E+04  0.14015355188E+04  0.25500000920E-02 0.  1.
       -2    1    3    3    0  502  0.18032002062E+03 -0.27106153534E+03  0.13515842721E+04  0.13902408821E+04  0.25500000920E-02 0. -1.
</event>
<event>
 5   0  0.1439207E-06  0.2779923E+04  0.7818609E-02  0.8309529E-01
       -2   -1    0    0    0  501  0.00000000000E+00  0.00000000000E+00  0.82013936605E+03  0.82013936605E+03  0.25500000920E-02 0. -1.
        2   -1    0    0  501    0  0.00000000000E+00  0.00000000000E+00 -0.23556890388E+04  0.23556890389E+04  0.25500000920E-02 0.  1.
    10030    2    1    2    0    0  0.00000000000E+00  0.00000000000E+00 -0.15355496728E+04  0.31758284049E+04  0.27799232471E+04 0.  0.
        5    1    3    3  502    0  0.48418894698E+03  0.12076037831E+04 -0.20901155311E+03  0.13177457086E+04  0.46999998093E+01 0. -1.
       -5    1    3    3    0  502 -0.48418894698E+03 -0.12076037831E+04 -0.13265381197E+04  0.18580826963E+04  0.46999998093E+01 0.  1.
</event>
<event>
 5   0  0.5362952E-07  0.2801484E+04  0.7818609E-02  0.8302808E-01
       -1   -1    0    0    0  501  0.00000000000E+00  0.00000000000E+00  0.12562772683E+04  0.12562772683E+04  0.50400001928E-02 0.  1.
        1   -1    0    0  501    0  0.00000000000E+00  0.00000000000E+00 -0.15618195382E+04  0.15618195382E+04  0.50400001928E-02 0. -1.
    10030    2    1    2    0    0  0.00000000000E+00  0.00000000000E+00 -0.30554226988E+03  0.28180968065E+04  0.28014841660E+04 0.  0.
        1    1    3    3  502    0 -0.10037135324E+03  0.13371546915E+04  0.25462590348E+03  0.13648778071E+04  0.50400001928E-02 0.  1.
       -1    1    3    3    0  502  0.10037135324E+03 -0.13371546915E+04 -0.56016817336E+03  0.14532189994E+04  0.50400001928E-02 0. -1.
</event>
<event>
 5   0  0.1461146E-06  0.2800671E+04  0.7818609E-02  0.8303060E-01
       -2   -1    0    0    0  501  0.00000000000E+00  0.00000000000E+00  0.12239457314E+04  0.12239457314E+04  0.25500000920E-02 0. -1.
        2   -1    0    0  501    0  0.00000000000E+00  0.00000000000E+00 -0.16021457093E+04  0.16021457093E+04  0.25500000920E-02 0.  1.
    10030    2    1    2    0    0  0.00000000000E+00  0.00000000000E+00 -0.37819997790E+03  0.28260914408E+04  0.28006709211E+04 0.  0.
        1    1    3    3  502    0  0.12916495735E+04  0.40500355296E+03  0.17269710365E+03  0.13646284433E+04  0.50400001928E-02 0. -1.
       -1    1    3    3    0  502 -0.12916495735E+04 -0.40500355296E+03 -0.55089708155E+03  0.14614629975E+04  0.50400001928E-02 0.  1.
</event>
<event>
 5   0  0.1377807E-06  0.2803968E+04  0.7818609E-02  0.8302037E-01
       -2   -1    0    0    0  501  0.00000000000E+00  0.00000000000E+00  0.21795697541E+04  0.21795697541E+04  0.25500000920E-02 0. -1.
        2   -1    0    0  501    0  0.00000000000E+00  0.00000000000E+00 -0.90181089896E+03  0.90181089896E+03  0.25500000920E-02 0.  1.
    10030    2    1    2    0    0  0.00000000000E+00  0.00000000000E+00  0.12777588552E+04  0.30813806531E+04  0.28039684444E+04 0.  0.
        2    1    3    3  502    0 -0.67513208677E+03  0.10414932145E+04  0.13553384827E+04  0.18377850400E+04  0.25500000920E-02 0. -1.
       -2    1    3    3    0  502  0.67513208677E+03 -0.10414932145E+04 -0.77579627545E+02  0.12435956131E+04  0.25500000920E-02 0.  1.
</event>
<event>
 5   0  0.5297741E-07  0.2795581E+04  0.7818609E-02  0.8304641E-01
       -1   -1    0    0    0  501  0.00000000000E+00  0.00000000000E+00  0.13688538998E+04  0.13688538998E+04  0.50400001928E-02 0. -1.
        1   -1    0    0  501    0  0.00000000000E+00  0.00000000000E+00 -0.14273392787E+04  0.14273392787E+04  0.50400001928E-02 0.  1.
    10030    2    1    2    0    0  0.00000000000E+00  0.00000000000E+00 -0.58485378951E+02  0.27961931785E+04  0.27955814694E+04 0.  0.
        5    1    3    3  502    0 -0.86166609497E+03  0.75673964991E+03 -0.82858806008E+03  0.14148157549E+04  0.46999998093E+01 0.  1.
       -5    1    3    3    0  502  0.86166609497E+03 -0.75673964991E+03  0.77010268113E+03  0.13813774236E+04  0.46999998093E+01 0. -1.
</event>
<event>
 5   0  0.5551565E-07  0.2802407E+04  0.7818609E-02  0.8302522E-01
        1   -1    0    0  501    0  0.00000000000E+00  0.00000000000E+00  0.34677470606E+04  0.34677470606E+04  0.50400001928E-02 0.  1.
       -1   -1    0    0    0  501  0.00000000000E+00  0.00000000000E+00 -0.56618045590E+03  0.56618045592E+03  0.50400001928E-02 0. -1.
    10030    2    1    2    0    0  0.00000000000E+00  0.00000000000E+00  0.29015666047E+04  0.40339275165E+04  0.28024065456E+04 0.  0.
        3    1    3    3  502    0 -0.49892537655E+03 -0.59836078180E+03 -0.22567283147E+03  0.81110442831E+03  0.10100000352E+00 0. -1.
       -3    1    3    3    0  502  0.49892537655E+03  0.59836078180E+03  0.31272394361E+04  0.32228230882E+04  0.10100000352E+00 0.  1.
</event>
<event>
 5   0  0.1499888E-06  0.2800111E+04  0.7818609E-02  0.8303234E-01
        2   -1    0    0  501    0  0.00000000000E+00  0.00000000000E+00  0.15479916511E+04  0.15479916511E+04  0.25500000920E-02 0. -1.
       -2   -1    0    0    0  501  0.00000000000E+00  0.00000000000E+00 -0.12662570996E+04  0.12662570996E+04  0.25500000920E-02 0.  1.
    10030    2    1    2    0    0  0.00000000000E+00  0.00000000000E+00  0.28173455143E+03  0.28142487507E+04  0.28001110109E+04 0.  0.
        3    1    3    3  502    0  0.99456798043E+03 -0.19710494727E+03 -0.82948115361E+03  0.13099827565E+04  0.10100000352E+00 0.  1.
       -3    1    3    3    0  502 -0.99456798043E+03  0.19710494727E+03  0.11112157050E+04  0.15042659942E+04  0.10100000352E+00 0. -1.
</event>
<event>
 5   0  0.1439207E-06  0.2801444E+04  0.7818609E-02  0.8302820E-01
       -2   -1    0    0    0  501  0.00000000000E+00  0.00000000000E+00  0.92594210765E+03  0.92594210765E+03  0.25500000920E-02 0.  1.
        2   -1    0    0  501    0  0.00000000000E+00  0.00000000000E+00 -0.21189469317E+04  0.21189469317E+04  0.25500000920E-02 0. -1.
    10030    2    1    2    0    0  0.00000000000E+00  0.00000000000E+00 -0.11930048241E+04  0.30448890394E+04  0.28014440476E+04 0.  0.
        5    1    3    3  502    0  0.52590187239E+03 -0.41843928475E+03 -0.19322558123E+04  0.20458002905E+04  0.46999998093E+01 0. -1.
       -5    1    3    3    0  502 -0.52590187239E+03  0.41843928475E+03  0.73925098828E+03  0.99908874884E+03  0.46999998093E+01 0.  1.
</event>
<event>
 5   0  0.5297741E-07  0.2798300E+04  0.7818609E-02  0.8303796E-01
        1   -1    0    0  501    0  0.00000000000E+00  0.00000000000E+00  0.16374183963E+04  0.16374183963E+04  0.50400001928E-02 0. -1.
       -1   -1    0    0    0  501  0.00000000000E+00  0.00000000000E+00 -0.11955533107E+04  0.11955533107E+04  0.50400001928E-02 0.  1.
    10030    2    1    2    0    0  0.00000000000E+00  0.00000000000E+00  0.44186508558E+03  0.28329717070E+04  0.27983001874E+04 0.  0.
        5    1    3    3  502    0 -0.54251633758E+03 -0.53166845318E+03  0.14104818060E+04  0.16020225765E+04  0.46999998093E+01 0. -1.
       -5    1    3    3    0  502  0.54251633758E+03  0.53166845318E+03 -0.96861672045E+03  0.12309491305E+04  0.46999998093E+01 0.  1.
</event>
<event>
 5   0  0.1461146E-06  0.2799630E+04  0.7818609E-02  0.8303383E-01
        2   -1    0    0  501    0  0.00000000000E+00  0.00000000000E+00  0.17599561341E+04  0.17599561341E+04  0.25500000920E-02 0.  1.
       -2   -1    0    0    0  501  0.00000000000E+00  0.00000000000E+00 -0.11133698745E+04  0.11133698745E+04  0.25500000920E-02 0. -1.
    10030    2    1    2    0    0  0.00000000000E+00  0.00000000000E+00  0.64658625953E+03  0.28733260086E+04  0.27996300757E+04 0.  0.
        1    1    3    3  502    0  0.67154042597E+03  0.12281684017E+04  0.33444060980E+03  0.14391715284E+04  0.50400001928E-02 0. -1.
       -1    1    3    3    0  502 -0.67154042597E+03 -0.12281684017E+04  0.31214564973E+03  0.14341544802E+04  0.50400001928E-02 0.  1.
</event>
<event>
 5   0  0.5362952E-07  0.2800698E+04  0.7818609E-02  0.8303052E-01
       -1   -1    0    0    0  501  0.00000000000E+00  0.00000000000E+00  0.10768855406E+04  0.10768855406E+04  0.50400001928E-02 0. -1.
        1   -1    0    0  501    0  0.00000000000E+00  0.00000000000E+00 -0.18209708691E+04  0.18209708691E+04  0.50400001928E-02 0.  1.
    10030    2    1    2    0    0  0.00000000000E+00  0.00000000000E+00 -0.74408532849E+03  0.28978564097E+04  0.28006979121E+04 0.  0.
        1    1    3    3  502    0  0.60975544820E+03 -0.69887877010E+02 -0.16743938095E+04  0.17833341390E+04  0.50400001928E-02 0.  1.
       -1    1    3    3    0  502 -0.60975544820E+03  0.69887877010E+02  0.93030848101E+03  0.11145222707E+04  0.50400001928E-02 0. -1.
</event>
<event>
 5   0  0.1499888E-06  0.2807535E+04  0.7818609E-02  0.8300933E-01
       -2   -1    0    0    0  501  0.00000000000E+00  0.00000000000E+00  0.10032668666E+04  0.10032668666E+04  0.25500000920E-02 0.  1.
        2   -1    0    0  501    0  0.00000000000E+00  0.00000000000E+00 -0.19641466989E+04  0.19641466989E+04  0.25500000920E-02 0. -1.
    10030    2    1    2    0    0  0.00000000000E+00  0.00000000000E+00 -0.96087983236E+03  0.29674135655E+04  0.28075350784E+04 0.  0.
        3    1    3    3  502    0 -0.74381064524E+03 -0.10509291326E+04  0.11074835342E+03  0.12922737813E+04  0.10100000352E+00 0.  1.
       -3    1    3    3    0  502  0.74381064524E+03  0.10509291326E+04 -0.10716281858E+04  0.16751397842E+04  0.10100000352E+00 0. -1.
</event>
<event>
 5   0  0.1394410E-06  0.2803491E+04  0.7818609E-02  0.8302185E-01
       -2   -1    0    0    0  501  0.00000000000E+00  0.00000000000E+00  0.15601136605E+04  0.15601136605E+04  0.25500000920E-02 0.  1.
        2   -1    0    0  501    0  0.00000000000E+00  0.00000000000E+00 -0.12594532254E+04  0.12594532254E+04  0.25500000920E-02 0. -1.
    10030    2    1    2    0    0  0.00000000000E+00  0.00000000000E+00  0.30066043508E+03  0.28195668859E+04  0.28034908109E+04 0.  0.
        4    1    3    3  502    0 -0.12614936323E+04 -0.60316642450E+03  0.51212314336E+02  0.13992141488E+04  0.12699999809E+01 0. -1.
       -4    1    3    3    0  502  0.12614936323E+04  0.60316642450E+03  0.24944812074E+03  0.14203527372E+04  0.12699999809E+01 0.  1.
</event>
<event>
 5   0  0.1377807E-06  0.2871510E+04  0.7818609E-02  0.8281405E-01
        2   -1    0    0  501    0  0.00000000000E+00  0.00000000000E+00  0.16509385359E+04  0.16509385359E+04  0.25500000920E-02 0. -1.
       -2   -1    0    0    0  501  0.00000000000E+00  0.00000000000E+00 -0.12486182839E+04  0.12486182839E+04  0.25500000920E-02 0.  1.
    10030    2    1    2    0    0  0.00000000000E+00  0.00000000000E+00  0.40232025199E+03  0.28995568198E+04  0.28715097363E+04 0.  0.
        2    1    3    3  502    0 -0.12488333268E+04  0.50454346413E+03  0.70325242190E+03  0.15194448836E+04  0.25500000920E-02 0. -1.
       -2    1    3    3    0  502  0.12488333268E+04 -0.50454346413E+03 -0.30093216991E+03  0.13801119362E+04  0.25500000920E-02 0.  1.
</event>
<event>
 5   0  0.1377807E-06  0.2788261E+04  0.7818609E-02  0.8306922E-01
        2   -1    0    0  501    0  0.00000000000E+00  0.00000000000E+00  0.11513491205E+04  0.11513491205E+04  0.25500000920E-02 0.  1.
       -2   -1    0    0    0  501  0.00000000000E+00  0.00000000000E+00 -0.16881062905E+04  0.16881062905E+04  0.25500000920E-02 0. -1.
    10030    2    1    2    0    0  0.00000000000E+00  0.00000000000E+00 -0.53675717005E+03  0.28394554110E+04  0.27882608865E+04 0.  0.
        2    1    3    3  502    0 -0.70213910083E+03  0.50461534266E+03  0.84530200740E+03  0.12092028137E+04  0.25500000920E-02 0.  1.
       -2    1    3    3    0  502  0.70213910083E+03 -0.50461534266E+03 -0.13820591775E+04  0.16302525973E+04  0.25500000920E-02 0. -1.
</event>
<event>
 5   0  0.1461146E-06  0.2798927E+04  0.7818609E-02  0.8303601E-01
        2   -1    0    0  501    0  0.00000000000E+00  0.00000000000E+00  0.15843363886E+04  0.15843363886E+04  0.25500000920E-02 0.  1.
       -2   -1    0    0    0  501  0.00000000000E+00  0.00000000000E+00 -0.12361632866E+04  0.12361632866E+04  0.25500000920E-02 0. -1.
    10030    2    1    2    0    0  0.00000000000E+00  0.00000000000E+00  0.34817310193E+03  0.28204996752E+04  0.27989272783E+04 0.  0.
        1    1    3    3  502    0 -0.79845034106E+03 -0.41135231699E+03 -0.90738809005E+03  0.12767485351E+04  0.50400001928E-02 0. -1.
       -1    1    3    3    0  502  0.79845034106E+03  0.41135231699E+03  0.12555611920E+04  0.15437511401E+04  0.50400001928E-02 0.  1.
</event>
<event>
 5   0  0.5297741E-07  0.2814403E+04  0.7818609E-02  0.8298811E-01
        1   -1    0    0  501    0  0.00000000000E+00  0.00000000000E+00  0.13979844690E+04  0.13979844690E+04  0.50400001928E-02 0.  1.
       -1   -1    0    0    0  501  0.00000000000E+00  0.00000000000E+00 -0.14164796322E+04  0.14164796322E+04  0.50400001928E-02 0. -1.
    10030    2    1    2    0    0  0.00000000000E+00  0.00000000000E+00 -0.18495163210E+02  0.28144641012E+04  0.28144033303E+04 0.  0.
        5    1    3    3  502    0  0.11662695519E+04 -0.62305100019E+03 -0.49073198542E+03  0.14103961104E+04  0.46999998093E+01 0. -1.
       -5    1    3    3    0  502 -0.11662695519E+04  0.62305100019E+03  0.47223682221E+03  0.14040679908E+04  0.46999998093E+01 0.  1.
</event>
<event>
 5   0  0.5362952E-07  0.2769966E+04  0.7818609E-02  0.8312654E-01
        1   -1    0    0  501    0  0.00000000000E+00  0.00000000000E+00  0.20012591914E+04  0.20012591914E+04  0.50400001928E-02 0. -1.
       -1   -1    0    0    0  501  0.00000000000E+00  0.00000000000E+00 -0.95848538994E+03  0.95848538996E+03  0.50400001928E-02 0.  1.
    10030    2    1    2    0    0  0.00000000000E+00  0.00000000000E+00  0.10427738015E+04  0.29597445814E+04  0.27699658456E+04 0.  0.
        1    1    3    3  502    0 -0.40461111242E+03  0.12649914548E+04  0.10171263009E+03  0.13320131351E+04  0.50400001928E-02 0.  1.
       -1    1    3    3    0  502  0.40461111242E+03 -0.12649914548E+04  0.94106117141E+03  0.16277314463E+04  0.50400001928E-02 0. -1.
</event>
<event>
 5   0  0.1461146E-06  0.2811263E+04  0.7818609E-02  0.8299780E-01
        2   -1    0    0  501    0  0.00000000000E+00  0.00000000000E+00  0.10499368831E+04  0.10499368831E+04  0.25500000920E-02 0.  1.
       -2   -1    0    0    0  501  0.00000000000E+00  0.00000000000E+00 -0.18818270273E+04  0.18818270273E+04  0.25500000920E-02 0. -1.
    10030    2    1    2    0    0  0.00000000000E+00  0.00000000000E+00 -0.83189014420E+03  0.29317639103E+04  0.28112627792E+04 0.  0.
        1    1    3    3  502    0  0.18365777311E+03  0.58276515370E+03 -0.17360862106E+04  0.18404729644E+04  0.50400001928E-02 0. -1.
       -1    1    3    3    0  502 -0.18365777311E+03 -0.58276515370E+03  0.90419606644E+03  0.10912909459E+04  0.50400001928E-02 0.  1.
</event>
<event>
 5   0  0.5214658E-07  0.2798281E+04  0.7818609E-02  0.8303802E-01
       -1   -1    0    0    0  501  0.00000000000E+00  0.00000000000E+00  0.11495925028E+04  0.11495925029E+04  0.50400001928E-02 0.  1.
        1   -1    0    0  501    0  0.00000000000E+00  0.00000000000E+00 -0.17028592410E+04  0.17028592410E+04  0.50400001928E-02 0. -1.
    10030    2    1    2    0    0  0.00000000000E+00  0.00000000000E+00 -0.55326673813E+03  0.28524517438E+04  0.27982810558E+04 0.  0.
        2    1    3    3  502    0  0.92393434447E+03 -0.17822402893E+03  0.77887082104E+03  0.12214983558E+04  0.25500000920E-02 0.  1.
       -2    1    3    3    0  502 -0.92393434447E+03  0.17822402893E+03 -0.13321375592E+04  0.16309533880E+04  0.25500000920E-02 0. -1.
</event>
<event>
 5   0  0.5551565E-07  0.2798226E+04  0.7818609E-02  0.8303819E-01
       -1   -1    0    0    0  501  0.00000000000E+00  0.00000000000E+00  0.11096005243E+04  0.11096005243E+04  0.50400001928E-02 0.  1.
        1   -1    0    0  501    0  0.00000000000E+00  0.00000000000E+00 -0.17641642090E+04  0.17641642090E+04  0.50400001928E-02 0. -1.
    10030    2    1    2    0    0  0.00000000000E+00  0.00000000000E+00 -0.65456368468E+03  0.28737647334E+04  0.27982262463E+04 0.  0.
        3    1    3    3  502    0  0.50335919832E+03 -0.12845800191E+04 -0.88627058737E+02  0.13825234442E+04  0.10100000352E+00 0.  1.
       -3    1    3    3    0  502 -0.50335919832E+03  0.12845800191E+04 -0.56593662594E+03  0.14912412892E+04  0.10100000352E+00 0. -1.
</event>
<event>
 5   0  0.5282098E-07  0.2754919E+04  0.7818609E-02  0.8317402E-01
        1   -1    0    0  501    0  0.00000000000E+00  0.00000000000E+00  0.23286997286E+04  0.23286997286E+04  0.50400001928E-02 0. -1.
       -1   -1    0    0    0  501  0.00000000000E+00  0.00000000000E+00 -0.81478727893E+03  0.81478727894E+03  0.50400001928E-02 0.  1.
    10030    2    1    2    0    0  0.00000000000E+00  0.00000000000E+00  0.15139124496E+04  0.31434870075E+04  0.27549191751E+04 0.  0.
        4    1    3    3  502    0 -0.23653047200E+03  0.14829349178E+03 -0.78216755504E+03  0.83049703247E+03  0.12699999809E+01 0.  1.
       -4    1    3    3    0  502  0.23653047200E+03 -0.14829349178E+03  0.22960800047E+04  0.23129899750E+04  0.12699999809E+01 0. -1.
</event>
<event>
 5   0  0.1461146E-06  0.2799005E+04  0.7818609E-02  0.8303577E-01
       -2   -1    0    0    0  501  0.00000000000E+00  0.00000000000E+00  0.11008438273E+04  0.11008438273E+04  0.25500000920E-02 0.  1.
        2   -1    0    0  501    0  0.00000000000E+00  0.00000000000E+00 -0.17791868271E+04  0.17791868271E+04  0.25500000920E-02 0. -1.
    10030    2    1    2    0    0  0.00000000000E+00  0.00000000000E+00 -0.67834299983E+03  0.28800306544E+04  0.27990047061E+04 0.  0.
        1    1    3    3  502    0 -0.93190976807E+03  0.37539350258E+03  0.66331695163E+03  0.12038959573E+04  0.50400001928E-02 0.  1.
       -1    1    3    3    0  502  0.93190976807E+03 -0.37539350258E+03 -0.13416599515E+04  0.16761346971E+04  0.50400001928E-02 0. -1.
</event>
<event>
 5   0  0.5214658E-07  0.2793513E+04  0.7818609E-02  0.8305285E-01
        1   -1    0    0  501    0  0.00000000000E+00  0.00000000000E+00  0.18490196851E+04  0.18490196851E+04  0.50400001928E-02 0. -1.
       -1   -1    0    0    0  501  0.00000000000E+00  0.00000000000E+00 -0.10551149429E+04  0.10551149429E+04  0.50400001928E-02 0.  1.
    10030    2    1    2    0    0  0.00000000000E+00  0.00000000000E+00  0.79390474227E+03  0.29041346280E+04  0.27935126987E+04 0.  0.
        2    1    3    3  502    0  0.13697864035E+04 -0.11489725055E+03  0.65458043830E+03  0.15224952281E+04  0.25500000920E-02 0. -1.
       -2    1    3    3    0  502 -0.13697864035E+04  0.11489725055E+03  0.13932430397E+03  0.13816393998E+04  0.25500000920E-02 0.  1.
</event>
<event>
 5   0  0.5297741E-07  0.2798384E+04  0.7818609E-02  0.8303770E-01
        1   -1    0    0  501    0  0.00000000000E+00  0.00000000000E+00  0.11485229492E+04  0.11485229493E+04  0.50400001928E-02 0. -1.
       -1   -1    0    0    0  501  0.00000000000E+00  0.00000000000E+00 -0.17045707295E+04  0.17045707295E+04  0.50400001928E-02 0.  1.
    10030    2    1    2    0    0  0.00000000000E+00  0.00000000000E+00 -0.55604778023E+03  0.28530936787E+04  0.27983842491E+04 0.  0.
        5    1    3    3  502    0 -0.95443462726E+03  0.18165487475E+03 -0.13045711542E+04  0.16266136412E+04  0.46999998093E+01 0.  1.
       -5    1    3    3    0  502  0.95443462726E+03 -0.18165487475E+03  0.74852337397E+03  0.12264800376E+04  0.46999998093E+01 0. -1.
</event>
<event>
 5   0  0.5297741E-07  0.2817877E+04  0.7818609E-02  0.8297740E-01
        1   -1    0    0  501    0  0.00000000000E+00  0.00000000000E+00  0.17410804120E+04  0.17410804120E+04  0.50400001928E-02 0.  1.
       -1   -1    0    0    0  501  0.00000000000E+00  0.00000000000E+00 -0.11401582936E+04  0.11401582936E+04  0.50400001928E-02 0. -1.
    10030    2    1    2    0    0  0.00000000000E+00  0.00000000000E+00  0.60092211844E+03  0.28812387056E+04  0.28178766982E+04 0.  0.
        5    1    3    3  502    0 -0.32492565624E+03 -0.25843452757E+03  0.16771081745E+04  0.17277381185E+04  0.46999998093E+01 0.  1.
       -5    1    3    3    0  502  0.32492565624E+03  0.25843452757E+03 -0.10761860561E+04  0.11535005871E+04  0.46999998093E+01 0. -1.
</event>
<event>
 5   0  0.1461146E-06  0.2867076E+04  0.7818609E-02  0.8282741E-01
        2   -1    0    0  501    0  0.00000000000E+00  0.00000000000E+00  0.16778568660E+04  0.16778568660E+04  0.25500000920E-02 0. -1.
       -2   -1    0    0    0  501  0.00000000000E+00  0.00000000000E+00 -0.12247955629E+04  0.12247955629E+04  0.25500000920E-02 0.  1.
    10030    2    1    2    0    0  0.00000000000E+00  0.00000000000E+00  0.45306130311E+03  0.29026524289E+04  0.28670763119E+04 0.  0.
        1    1    3    3  502    0  0.62133365081E+03  0.32898965833E+03  0.14913291279E+04  0.16487426327E+04  0.50400001928E-02 0. -1.
       -1    1    3    3    0  502 -0.62133365081E+03 -0.32898965833E+03 -0.10382678248E+04  0.12539097962E+04  0.50400001928E-02 0.  1.
</event>
<event>
 5   0  0.5297741E-07  0.2805051E+04  0.7818609E-02  0.8301702E-01
       -1   -1    0    0    0  501  0.00000000000E+00  0.00000000000E+00  0.10578735171E+04  0.10578735172E+04  0.50400001928E-02 0. -1.
        1   -1    0    0  501    0  0.00000000000E+00  0.00000000000E+00 -0.18594634991E+04  0.18594634991E+04  0.50400001928E-02 0.  1.
    10030    2    1    2    0    0  0.00000000000E+00  0.00000000000E+00 -0.80158998192E+03  0.29173370162E+04  0.28050505819E+04 0.  0.
        5    1    3    3  502    0  0.44680269786E+03  0.53659801131E+03  0.86423607948E+03  0.11110788305E+04  0.46999998093E+01 0. -1.
       -5    1    3    3    0  502 -0.44680269786E+03 -0.53659801131E+03 -0.16658260614E+04  0.18062581857E+04  0.46999998093E+01 0.  1.
</event>
<event>
 5   0  0.1377807E-06  0.2860295E+04  0.7818609E-02  0.8284790E-01
        2   -1    0    0  501    0  0.00000000000E+00  0.00000000000E+00  0.18999847924E+04  0.18999847924E+04  0.25500000920E-02 0. -1.
       -2   -1    0    0    0  501  0.00000000000E+00  0.00000000000E+00 -0.10764939537E+04  0.10764939537E+04  0.25500000920E-02 0.  1.
    10030    2    1    2    0    0  0.00000000000E+00  0.00000000000E+00  0.82349083867E+03  0.29764787461E+04  0.28602951884E+04 0.  0.
        2    1    3    3  502    0 -0.33202655666E+03 -0.11102518438E+04  0.12838946098E+04  0.17295335094E+04  0.25500000920E-02 0. -1.
       -2    1    3    3    0  502  0.33202655666E+03  0.11102518438E+04 -0.46040377116E+03  0.12469452367E+04  0.25500000920E-02 0.  1.
</event>
<event>
 5   0  0.5214658E-07  0.2798075E+04  0.7818609E-02  0.8303866E-01
        1   -1    0    0  501    0  0.00000000000E+00  0.00000000000E+00  0.24122197121E+04  0.24122197121E+04  0.50400001928E-02 0. -1.
       -1   -1    0    0    0  501  0.00000000000E+00  0.00000000000E+00 -0.81141261462E+03  0.81141261464E+03  0.50400001928E-02 0.  1.
    10030    2    1    2    0    0  0.00000000000E+00  0.00000000000E+00  0.16008070975E+04  0.32236323268E+04  0.27980746979E+04 0.  0.
        2    1    3    3  502    0  0.60096031169E+03  0.11358161237E+04  0.16302216391E+03  0.12953021999E+04  0.25500000920E-02 0.  1.
       -2    1    3    3    0  502 -0.60096031169E+03 -0.11358161237E+04  0.14377849336E+04  0.19283301269E+04  0.25500000920E-02 0. -1.
</event>
<event>
 5   0  0.1439207E-06  0.2796322E+04  0.7818609E-02  0.8304411E-01
       -2   -1    0    0    0  501  0.00000000000E+00  0.00000000000E+00  0.14907913219E+04  0.14907913219E+04  0.25500000920E-02 0.  1.
        2   -1    0    0  501    0  0.00000000000E+00  0.00000000000E+00 -0.13112861188E+04  0.13112861188E+04  0.25500000920E-02 0. -1.
    10030    2    1    2    0    0  0.00000000000E+00  0.00000000000E+00  0.17950520311E+03  0.28020774407E+04  0.27963218459E+04 0.  0.
        5    1    3    3  502    0  0.97968687330E+03 -0.89194518369E+02  0.10853214982E+04  0.14648163285E+04  0.46999998093E+01 0.  1.
       -5    1    3    3    0  502 -0.97968687330E+03  0.89194518369E+02 -0.90581629506E+03  0.13372611122E+04  0.46999998093E+01 0. -1.
</event>
<event>
 5   0  0.1394410E-06  0.2800461E+04  0.7818609E-02  0.8303125E-01
       -2   -1    0    0    0  501  0.00000000000E+00  0.00000000000E+00  0.11481725871E+04  0.11481725871E+04  0.25500000920E-02 0. -1.
        2   -1    0    0  501    0  0.00000000000E+00  0.00000000000E+00 -0.17076227227E+04  0.17076227227E+04  0.25500000920E-02 0.  1.
    10030    2    1    2    0    0  0.00000000000E+00  0.00000000000E+00 -0.55945013559E+03  0.28557953098E+04  0.28004611045E+04 0.  0.
        4    1    3    3  502    0 -0.12269567837E+04 -0.45730010658E+03  0.22615930535E+03  0.13287949356E+04  0.12699999809E+01 0. -1.
       -4    1    3    3    0  502  0.12269567837E+04  0.45730010658E+03 -0.78560944094E+03  0.15270003743E+04  0.12699999809E+01 0.  1.
</event>
<event>
 5   0  0.1394410E-06  0.2801313E+04  0.7818609E-02  0.8302861E-01
        2   -1    0    0  501    0  0.00000000000E+00  0.00000000000E+00  0.22492878952E+04  0.22492878952E+04  0.25500000920E-02 0.  1.
       -2   -1    0    0    0  501  0.00000000000E+00  0.00000000000E+00 -0.87220430776E+03  0.87220430776E+03  0.25500000920E-02 0. -1.
    10030    2    1    2    0    0  0.00000000000E+00  0.00000000000E+00  0.13770835875E+04  0.31214922030E+04  0.28013129719E+04 0.  0.
        4    1    3    3  502    0  0.96164534113E+03  0.29255944472E+03 -0.39838779106E+03  0.10812341263E+04  0.12699999809E+01 0.  1.
       -4    1    3    3    0  502 -0.96164534113E+03 -0.29255944472E+03  0.17754713785E+04  0.20402580767E+04  0.12699999809E+01 0. -1.
</event>
<event>
 5   0  0.5297741E-07  0.2800177E+04  0.7818609E-02  0.8303213E-01
       -1   -1    0    0    0  501  0.00000000000E+00  0.00000000000E+00  0.24560498035E+04  0.24560498035E+04  0.50400001928E-02 0. -1.
        1   -1    0    0  501    0  0.00000000000E+00  0.00000000000E+00 -0.79813039638E+03  0.79813039639E+03  0.50400001928E-02 0.  1.
    10030    2    1    2    0    0  0.00000000000E+00  0.00000000000E+00  0.16579194071E+04  0.32541801999E+04  0.28001771395E+04 0.  0.
        5    1    3    3  502    0  0.47423662163E+03 -0.68613543078E+03 -0.47788209141E+03  0.96128850298E+03  0.46999998093E+01 0.  1.
       -5    1    3    3    0  502 -0.47423662163E+03  0.68613543078E+03  0.21358014985E+04  0.22928916969E+04  0.46999998093E+01 0. -1.
</event>
<event>
 5   0  0.4710000E-07  0.2791326E+04  0.7818609E-02  0.8305966E-01
        3   -1    0    0  501    0  0.00000000000E+00  0.00000000000E+00  0.21473005506E+04  0.21473005530E+04  0.10100000352E+00 0. -1.
       -3   -1    0    0    0  501  0.00000000000E+00  0.00000000000E+00 -0.90712769493E+03  0.90712770056E+03  0.10100000352E+00 0.  1.
    10030    2    1    2    0    0  0.00000000000E+00  0.00000000000E+00  0.12401728557E+04  0.30544282535E+04  0.27913264309E+04 0.  0.
        4    1    3    3  502    0  0.78952767737E+03  0.35372671637E+03  0.18184839381E+04  0.20137929360E+04  0.12699999809E+01 0. -1.
       -4    1    3    3    0  502 -0.78952767737E+03 -0.35372671637E+03 -0.57831108238E+03  0.10406353175E+04  0.12699999809E+01 0.  1.
</event>
<event>
 5   0  0.5297741E-07  0.2793081E+04  0.7818609E-02  0.8305420E-01
        1   -1    0    0  501    0  0.00000000000E+00  0.00000000000E+00  0.10320385982E+04  0.10320385982E+04  0.50400001928E-02 0.  1.
       -1   -1    0    0    0  501  0.00000000000E+00  0.00000000000E+00 -0.18897793221E+04  0.18897793221E+04  0.50400001928E-02 0. -1.
    10030    2    1    2    0    0  0.00000000000E+00  0.00000000000E+00 -0.85774072389E+03  0.29218179203E+04  0.27930808814E+04 0.  0.
        5    1    3    3  502    0 -0.72076951484E+03  0.25604417223E+03 -0.16511581437E+04  0.18197287208E+04  0.46999998093E+01 0. -1.
       -5    1    3    3    0  502  0.72076951484E+03 -0.25604417223E+03  0.79341741981E+03  0.11020891995E+04  0.46999998093E+01 0.  1.
</event>
<event>
 5   0  0.1394410E-06  0.2799650E+04  0.7818609E-02  0.8303377E-01
        2   -1    0    0  501    0  0.00000000000E+00  0.00000000000E+00  0.17433623923E+04  0.17433623923E+04  0.25500000920E-02 0. -1.
       -2   -1    0    0    0  501  0.00000000000E+00  0.00000000000E+00 -0.11239832729E+04  0.11239832729E+04  0.25500000920E-02 0.  1.
    10030    2    1    2    0    0  0.00000000000E+00  0.00000000000E+00  0.61937911942E+03  0.28673456652E+04  0.27996500978E+04 0.  0.
        4    1    3    3  502    0 -0.10885819934E+04  0.25717925973E+03 -0.55230053552E+03  0.12474732151E+04  0.12699999809E+01 0. -1.
       -4    1    3    3    0  502  0.10885819934E+04 -0.25717925973E+03  0.11716796549E+04  0.16198724501E+04  0.12699999809E+01 0.  1.
</event>
<event>
 5   0  0.1439207E-06  0.2800185E+04  0.7818609E-02  0.8303211E-01
       -2   -1    0    0    0  501  0.00000000000E+00  0.00000000000E+00  0.12074324018E+04  0.12074324018E+04  0.25500000920E-02 0. -1.
        2   -1    0    0  501    0  0.00000000000E+00  0.00000000000E+00 -0.16234942051E+04  0.16234942051E+04  0.25500000920E-02 0.  1.
    10030    2    1    2    0    0  0.00000000000E+00  0.00000000000E+00 -0.41606180325E+03  0.28309266069E+04  0.28001853563E+04 0.  0.
        5    1    3    3  502    0 -0.84632417508E+03 -0.36888482081E+03  0.85609124906E+03  0.12590690756E+04  0.46999998093E+01 0. -1.
       -5    1    3    3    0  502  0.84632417508E+03  0.36888482081E+03 -0.12721530523E+04  0.15718575313E+04  0.46999998093E+01 0.  1.
</event>
<event>
 5   0  0.5551565E-07  0.2817879E+04  0.7818609E-02  0.8297739E-01
       -1   -1    0    0    0  501  0.00000000000E+00  0.00000000000E+00  0.11724071652E+04  0.11724071652E+04  0.50400001928E-02 0. -1.
        1   -1    0    0  501    0  0.00000000000E+00  0.00000000000E+00 -0.16931922083E+04  0.16931922083E+04  0.50400001928E-02 0.  1.
    10030    2    1    2    0    0  0.00000000000E+00  0.00000000000E+00 -0.52078504308E+03  0.28655993735E+04  0.28178791152E+04 0.  0.
        3    1    3    3  502    0  0.42960486573E+03  0.12541441884E+04 -0.74562356290E+03  0.15209840544E+04  0.10100000352E+00 0.  1.
       -3    1    3    3    0  502 -0.42960486573E+03 -0.12541441884E+04  0.22483851982E+03  0.13446153191E+04  0.10100000352E+00 0. -1.
</event>
<event>
 5   0  0.1394410E-06  0.2800990E+04  0.7818609E-02  0.8302961E-01
       -2   -1    0    0    0  501  0.00000000000E+00  0.00000000000E+00  0.12430784288E+04  0.12430784288E+04  0.25500000920E-02 0. -1.
        2   -1    0    0  501    0  0.00000000000E+00  0.00000000000E+00 -0.15778455395E+04  0.15778455395E+04  0.25500000920E-02 0.  1.
    10030    2    1    2    0    0  0.00000000000E+00  0.00000000000E+00 -0.33476711068E+03  0.28209239684E+04  0.28009896495E+04 0.  0.
        4    1    3    3  502    0  0.57147194464E+02  0.11423878613E+04  0.64649420868E+03  0.13138767835E+04  0.12699999809E+01 0. -1.
       -4    1    3    3    0  502 -0.57147194464E+02 -0.11423878613E+04 -0.98126131936E+03  0.15070471848E+04  0.12699999809E+01 0.  1.
</event>
<event>
 5   0  0.1461146E-06  0.2804920E+04  0.7818609E-02  0.8301743E-01
        2   -1    0    0  501    0  0.00000000000E+00  0.00000000000E+00  0.16065062182E+04  0.16065062182E+04  0.25500000920E-02 0.  1.
       -2   -1    0    0    0  501  0.00000000000E+00  0.00000000000E+00 -0.12243301982E+04  0.12243301982E+04  0.25500000920E-02 0. -1.
    10030    2    1    2    0    0  0.00000000000E+00  0.00000000000E+00  0.38217601999E+03  0.28308364164E+04  0.28049200178E+04 0.  0.
        1    1    3    3  502    0  0.51726015822E+03 -0.11650247986E+04  0.78134499607E+03  0.14951056336E+04  0.50400001928E-02 0. -1.
       -1    1    3    3    0  502 -0.51726015822E+03  0.11650247986E+04 -0.39916897608E+03  0.13357307828E+04  0.50400001928E-02 0.  1.
</event>
<event>
 5   0  0.5551565E-07  0.2799286E+04  0.7818609E-02  0.8303490E-01
        1   -1    0    0  501    0  0.00000000000E+00  0.00000000000E+00  0.12902006162E+04  0.12902006162E+04  0.50400001928E-02 0.  1.
       -1   -1    0    0    0  501  0.00000000000E+00  0.00000000000E+00 -0.15183688767E+04  0.15183688767E+04  0.50400001928E-02 0. -1.
    10030    2    1    2    0    0  0.00000000000E+00  0.00000000000E+00 -0.22816826046E+03  0.28085694929E+04  0.27992859521E+04 0.  0.
        3    1    3    3  502    0 -0.17277108050E+03  0.19669257162E+03  0.12654166758E+04  0.12922140642E+04  0.10100000352E+00 0.  1.
       -3    1    3    3    0  502  0.17277108050E+03 -0.19669257162E+03 -0.14935849363E+04  0.15163554287E+04  0.10100000352E+00 0. -1.
</event>
<event>
 5   0  0.1499888E-06  0.2796549E+04  0.7818609E-02  0.8304340E-01
        2   -1    0    0  501    0  0.00000000000E+00  0.00000000000E+00  0.15640168856E+04  0.15640168856E+04  0.25500000920E-02 0. -1.
       -2   -1    0    0    0  501  0.00000000000E+00  0.00000000000E+00 -0.12500964071E+04  0.12500964071E+04  0.25500000920E-02 0.  1.
    10030    2    1    2    0    0  0.00000000000E+00  0.00000000000E+00  0.31392047848E+03  0.28141132927E+04  0.27965492231E+04 0.  0.
        3    1    3    3  502    0  0.15411201777E+03 -0.32318074514E+03 -0.12031856079E+04  0.12553294091E+04  0.10100000352E+00 0.  1.
       -3    1    3    3    0  502 -0.15411201777E+03  0.32318074514E+03  0.15171060864E+04  0.15587838836E+04  0.10100000352E+00 0. -1.
</event>
<event>
 5   0  0.5551565E-07  0.2794640E+04  0.7818609E-02  0.8304934E-01
       -1   -1    0    0    0  501  0.00000000000E+00  0.00000000000E+00  0.11474684482E+04  0.11474684482E+04  0.50400001928E-02 0.  1.
        1   -1    0    0  501    0  0.00000000000E+00  0.00000000000E+00 -0.17015748015E+04  0.17015748015E+04  0.50400001928E-02 0. -1.
    10030    2    1    2    0    0  0.00000000000E+00  0.00000000000E+00 -0.55410635339E+03  0.28490432497E+04  0.27946401535E+04 0.  0.
        3    1    3    3  502    0 -0.61848473752E+03  0.26790315347E+03 -0.15248940045E+04  0.16672124056E+04  0.10100000352E+00 0. -1.
       -3    1    3    3    0  502  0.61848473752E+03 -0.26790315347E+03  0.97078765115E+03  0.11818308441E+04  0.10100000352E+00 0.  1.
</event>
<event>
 5   0  0.5297741E-07  0.2794574E+04  0.7818609E-02  0.8304955E-01
       -1   -1    0    0    0  501  0.00000000000E+00  0.00000000000E+00  0.16756282922E+04  0.16756282922E+04  0.50400001928E-02 0. -1.
        1   -1    0    0  501    0  0.00000000000E+00  0.00000000000E+00 -0.11651813548E+04  0.11651813548E+04  0.50400001928E-02 0.  1.
    10030    2    1    2    0    0  0.00000000000E+00  0.00000000000E+00  0.51044693746E+03  0.28408096470E+04  0.27945739165E+04 0.  0.
        5    1    3    3  502    0  0.53360240818E+03  0.10089674800E+04 -0.56411534631E+03  0.12731830660E+04  0.46999998093E+01 0. -1.
       -5    1    3    3    0  502 -0.53360240818E+03 -0.10089674800E+04  0.10745622838E+04  0.15676265810E+04  0.46999998093E+01 0.  1.
</event>
<event>
 5   0  0.5362952E-07  0.2802112E+04  0.7818609E-02  0.8302613E-01
        1   -1    0    0  501    0  0.00000000000E+00  0.00000000000E+00  0.21334005519E+04  0.21334005519E+04  0.50400001928E-02 0.  1.
       -1   -1    0    0    0  501  0.00000000000E+00  0.00000000000E+00 -0.92010769291E+03  0.92010769292E+03  0.50400001928E-02 0. -1.
    10030    2    1    2    0    0  0.00000000000E+00  0.00000000000E+00  0.12132928590E+04  0.30535082448E+04  0.28021122461E+04 0.  0.
        1    1    3    3  502    0 -0.24029207596E+03 -0.10829897919E+04 -0.32590595019E+03  0.11562101277E+04  0.50400001928E-02 0. -1.
       -1    1    3    3    0  502  0.24029207596E+03  0.10829897919E+04  0.15391988092E+04  0.18972981171E+04  0.50400001928E-02 0.  1.
</event>
<event>
 5   0  0.5362952E-07  0.2798917E+04  0.7818609E-02  0.8303605E-01
       -1   -1    0    0    0  501  0.00000000000E+00  0.00000000000E+00  0.25724643026E+04  0.25724643026E+04  0.50400001928E-02 0. -1.
        1   -1    0    0  501    0  0.00000000000E+00  0.00000000000E+00 -0.76132588638E+03  0.76132588639E+03  0.50400001928E-02 0.  1.
    10030    2    1    2    0    0  0.00000000000E+00  0.00000000000E+00  0.18111384162E+04  0.33337901890E+04  0.27989166943E+04 0.  0.
        1    1    3    3  502    0  0.13605947391E+04 -0.31415240988E+03  0.10158594554E+04  0.17268121536E+04  0.50400001928E-02 0. -1.
       -1    1    3    3    0  502 -0.13605947391E+04  0.31415240988E+03  0.79527896079E+03  0.16069780354E+04  0.50400001928E-02 0.  1.
</event>
<event>
 5   0  0.1499888E-06  0.2798916E+04  0.7818609E-02  0.8303605E-01
       -2   -1    0    0    0  501  0.00000000000E+00  0.00000000000E+00  0.11573580721E+04  0.11573580721E+04  0.25500000920E-02 0. -1.
        2   -1    0    0  501    0  0.00000000000E+00  0.00000000000E+00 -0.16922006613E+04  0.16922006613E+04  0.25500000920E-02 0.  1.
    10030    2    1    2    0    0  0.00000000000E+00  0.00000000000E+00 -0.53484258927E+03  0.28495587334E+04  0.27989155721E+04 0.  0.
        3    1    3    3  502    0 -0.66736239197E+03  0.10022166661E+04  0.45869539977E+03  0.12884922538E+04  0.10100000352E+00 0. -1.
       -3    1    3    3    0  502  0.66736239197E+03 -0.10022166661E+04 -0.99353798904E+03  0.15610664797E+04  0.10100000352E+00 0.  1.
</event>
<event>
 5   0  0.5362952E-07  0.2793535E+04  0.7818609E-02  0.8305278E-01
       -1   -1    0    0    0  501  0.00000000000E+00  0.00000000000E+00  0.22065555855E+04  0.22065555855E+04  0.50400001928E-02 0. -1.
        1   -1    0    0  501    0  0.00000000000E+00  0.00000000000E+00 -0.88416495675E+03  0.88416495676E+03  0.50400001928E-02 0.  1.
    10030    2    1    2    0    0  0.00000000000E+00  0.00000000000E+00  0.13223906288E+04  0.30907205423E+04  0.27935347672E+04 0.  0.
        1    1    3    3  502    0 -0.43622183167E+03  0.12940127927E+04  0.33636195391E+03  0.14063776016E+04  0.50400001928E-02 0.  1.
       -1    1    3    3    0  502  0.43622183167E+03 -0.12940127927E+04  0.98602867485E+03  0.16843429407E+04  0.50400001928E-02 0. -1.
</event>
<event>
 5   0  0.5214658E-07  0.2803462E+04  0.7818609E-02  0.8302194E-01
        1   -1    0    0  501    0  0.00000000000E+00  0.00000000000E+00  0.21159130866E+04  0.21159130866E+04  0.50400001928E-02 0.  1.
       -1   -1    0    0    0  501  0.00000000000E+00  0.00000000000E+00 -0.92860621524E+03  0.92860621525E+03  0.50400001928E-02 0. -1.
    10030    2    1    2    0    0  0.00000000000E+00  0.00000000000E+00  0.11873068714E+04  0.30445193019E+04  0.28034621761E+04 0.  0.
        2    1    3    3  502    0 -0.19515327848E+03  0.10408068162E+04  0.15910389956E+04  0.19112217863E+04  0.25500000920E-02 0.  1.
       -2    1    3    3    0  502  0.19515327848E+03 -0.10408068162E+04 -0.40373212418E+03  0.11332975156E+04  0.25500000920E-02 0. -1.
</event>
<event>
 5   0  0.5297741E-07  0.2802060E+04  0.7818609E-02  0.8302629E-01
        1   -1    0    0  501    0  0.00000000000E+00  0.00000000000E+00  0.21246402321E+04  0.21246402321E+04  0.50400001928E-02 0. -1.
       -1   -1    0    0    0  501  0.00000000000E+00  0.00000000000E+00 -0.92386707292E+03  0.92386707293E+03  0.50400001928E-02 0.  1.
    10030    2    1    2    0    0  0.00000000000E+00  0.00000000000E+00  0.12007731592E+04  0.30485073051E+04  0.28020600652E+04 0.  0.
        5    1    3    3  502    0  0.39109644639E+02 -0.87766807472E+03  0.17877169038E+04  0.19919298763E+04  0.46999998093E+01 0. -1.
       -5    1    3    3    0  502 -0.39109644639E+02  0.87766807472E+03 -0.58694374463E+03  0.10565774288E+04  0.46999998093E+01 0.  1.
</event>
<event>
 5   0  0.1394410E-06  0.2801860E+04  0.7818609E-02  0.8302691E-01
       -2   -1    0    0    0  501  0.00000000000E+00  0.00000000000E+00  0.11341878009E+04  0.11341878009E+04  0.25500000920E-02 0. -1.
        2   -1    0    0  501    0  0.00000000000E+00  0.00000000000E+00 -0.17304057767E+04  0.17304057767E+04  0.25500000920E-02 0.  1.
    10030    2    1    2    0    0  0.00000000000E+00  0.00000000000E+00 -0.59621797580E+03  0.28645935777E+04  0.28018601840E+04 0.  0.
        4    1    3    3  502    0 -0.11017753357E+04 -0.60941818341E+03 -0.92611285042E+03  0.15630054501E+04  0.12699999809E+01 0. -1.
       -4    1    3    3    0  502  0.11017753357E+04  0.60941818341E+03  0.32989487462E+03  0.13015881275E+04  0.12699999809E+01 0.  1.
</event>
<event>
 5   0  0.1499888E-06  0.2813778E+04  0.7818609E-02  0.8299004E-01
        2   -1    0    0  501    0  0.00000000000E+00  0.00000000000E+00  0.22939306521E+04  0.22939306521E+04  0.25500000920E-02 0.  1.
       -2   -1    0    0    0  501  0.00000000000E+00  0.00000000000E+00 -0.86285809310E+03  0.86285809310E+03  0.25500000920E-02 0. -1.
    10030    2    1    2    0    0  0.00000000000E+00  0.00000000000E+00  0.14310725590E+04  0.31567887452E+04  0.28137779786E+04 0.  0.
        3    1    3    3  502    0  0.11896688512E+04 -0.32236263065E+03 -0.45464501604E+02  0.12334085585E+04  0.10100000352E+00 0. -1.
       -3    1    3    3    0  502 -0.11896688512E+04  0.32236263065E+03  0.14765370606E+04  0.19233801867E+04  0.10100000352E+00 0.  1.
</event>
<event>
 5   0  0.5362952E-07  0.2798706E+04  0.7818609E-02  0.8303670E-01
       -1   -1    0    0    0  501  0.00000000000E+00  0.00000000000E+00  0.17279369524E+04  0.17279369525E+04  0.50400001928E-02 0.  1.
        1   -1    0    0  501    0  0.00000000000E+00  0.00000000000E+00 -0.11332525422E+04  0.11332525422E+04  0.50400001928E-02 0. -1.
    10030    2    1    2    0    0  0.00000000000E+00  0.00000000000E+00  0.59468441028E+03  0.28611894946E+04  0.27987060897E+04 0.  0.
        1    1    3    3  502    0  0.30902310842E+03  0.13596032156E+04  0.41904947588E+03  0.14558910154E+04  0.50400001928E-02 0.  1.
       -1    1    3    3    0  502 -0.30902310842E+03 -0.13596032156E+04  0.17563493439E+03  0.14052984792E+04  0.50400001928E-02 0. -1.
</event>
<event>
 5   0  0.5214658E-07  0.2780652E+04  0.7818609E-02  0.8309300E-01
        1   -1    0    0  501    0  0.00000000000E+00  0.00000000000E+00  0.17321714545E+04  0.17321714545E+04  0.50400001928E-02 0.  1.
       -1   -1    0    0    0  501  0.00000000000E+00  0.00000000000E+00 -0.11159440364E+04  0.11159440364E+04  0.50400001928E-02 0. -1.
    10030    2    1    2    0    0  0.00000000000E+00  0.00000000000E+00  0.61622741812E+03  0.28481154910E+04  0.27806520133E+04 0.  0.
        2    1    3    3  502    0  0.56615750843E+03  0.10546648556E+04 -0.41626033519E+03  0.12673298500E+04  0.25500000920E-02 0. -1.
       -2    1    3    3    0  502 -0.56615750843E+03 -0.10546648556E+04  0.10324877533E+04  0.15807856410E+04  0.25500000920E-02 0.  1.
</event>
<event>
 5   0  0.5282098E-07  0.2800461E+04  0.7818609E-02  0.8303125E-01
       -1   -1    0    0    0  501  0.00000000000E+00  0.00000000000E+00  0.11004184047E+04  0.11004184047E+04  0.50400001928E-02 0. -1.
        1   -1    0    0  501    0  0.00000000000E+00  0.00000000000E+00 -0.17817275362E+04  0.17817275362E+04  0.50400001928E-02 0.  1.
    10030    2    1    2    0    0  0.00000000000E+00  0.00000000000E+00 -0.68130913149E+03  0.28821459408E+04  0.28004612284E+04 0.  0.
        4    1    3    3  502    0  0.93172712867E+02 -0.12501688838E+04 -0.98257907899E+03  0.15928172060E+04  0.12699999809E+01 0. -1.
       -4    1    3    3    0  502 -0.93172712867E+02  0.12501688838E+04  0.30126994749E+03  0.12893287348E+04  0.12699999809E+01 0.  1.
</event>
<event>
 5   0  0.5362952E-07  0.2801524E+04  0.7818609E-02  0.8302795E-01
       -1   -1    0    0    0  501  0.00000000000E+00  0.00000000000E+00  0.75367113432E+03  0.75367113434E+03  0.50400001928E-02 0. -1.
        1   -1    0    0  501    0  0.00000000000E+00  0.00000000000E+00 -0.26034350036E+04  0.26034350036E+04  0.50400001928E-02 0.  1.
    10030    2    1    2    0    0  0.00000000000E+00  0.00000000000E+00 -0.18497638693E+04  0.33571061379E+04  0.28015237371E+04 0.  0.
        1    1    3    3  502    0  0.29826283365E+03  0.39109699034E+03  0.64679140771E+03  0.81256181236E+03  0.50400001928E-02 0. -1.
       -1    1    3    3    0  502 -0.29826283365E+03 -0.39109699034E+03 -0.24965552770E+04  0.25445443256E+04  0.50400001928E-02 0.  1.
</event>
<event>
 5   0  0.5362952E-07  0.2795450E+04  0.7818609E-02  0.8304682E-01
        1   -1    0    0  501    0  0.00000000000E+00  0.00000000000E+00  0.12646545753E+04  0.12646545753E+04  0.50400001928E-02 0. -1.
       -1   -1    0    0    0  501  0.00000000000E+00  0.00000000000E+00 -0.15447972220E+04  0.15447972220E+04  0.50400001928E-02 0.  1.
    10030    2    1    2    0    0  0.00000000000E+00  0.00000000000E+00 -0.28014264664E+03  0.28094517973E+04  0.27954497847E+04 0.  0.
        1    1    3    3  502    0  0.12546856648E+04 -0.90656293944E+02 -0.75236854224E+03  0.14657807150E+04  0.50400001928E-02 0.  1.
       -1    1    3    3    0  502 -0.12546856648E+04  0.90656293944E+02  0.47222589561E+03  0.13436710823E+04  0.50400001928E-02 0. -1.
</event>
<event>
 5   0  0.1394410E-06  0.2797612E+04  0.7818609E-02  0.8304010E-01
       -2   -1    0    0    0  501  0.00000000000E+00  0.00000000000E+00  0.15479128494E+04  0.15479128494E+04  0.25500000920E-02 0.  1.
        2   -1    0    0  501    0  0.00000000000E+00  0.00000000000E+00 -0.12640618755E+04  0.12640618755E+04  0.25500000920E-02 0. -1.
    10030    2    1    2    0    0  0.00000000000E+00  0.00000000000E+00  0.28385097391E+03  0.28119747250E+04  0.27976115668E+04 0.  0.
        4    1    3    3  502    0 -0.11318089244E+04 -0.12027451321E+03 -0.67539044131E+03  0.13234845149E+04  0.12699999809E+01 0. -1.
       -4    1    3    3    0  502  0.11318089244E+04  0.12027451321E+03  0.95924141522E+03  0.14884902101E+04  0.12699999809E+01 0.  1.
</event>
<event>
 5   0  0.1394410E-06  0.2806053E+04  0.7818609E-02  0.8301392E-01
        2   -1    0    0  501    0  0.00000000000E+00  0.00000000000E+00  0.18354437311E+04  0.18354437311E+04  0.25500000920E-02 0. -1.
       -2   -1    0    0    0  501  0.00000000000E+00  0.00000000000E+00 -0.10724837336E+04  0.10724837336E+04  0.25500000920E-02 0.  1.
    10030    2    1    2    0    0  0.00000000000E+00  0.00000000000E+00  0.76295999749E+03  0.29079274647E+04  0.28060531324E+04 0.  0.
        4    1    3    3  502    0 -0.13379611661E+04  0.22896187353E+03  0.13747405772E+02  0.13574808380E+04  0.12699999809E+01 0.  1.
       -4    1    3    3    0  502  0.13379611661E+04 -0.22896187353E+03  0.74921259172E+03  0.15504466266E+04  0.12699999809E+01 0. -1.
</event>
<event>
 5   0  0.5362952E-07  0.2811547E+04  0.7818609E-02  0.8299693E-01
       -1   -1    0    0    0  501  0.00000000000E+00  0.00000000000E+00  0.18457500534E+04  0.18457500534E+04  0.50400001928E-02 0. -1.
        1   -1    0    0  501    0  0.00000000000E+00  0.00000000000E+00 -0.10706752013E+04  0.10706752013E+04  0.50400001928E-02 0.  1.
    10030    2    1    2    0    0  0.00000000000E+00  0.00000000000E+00  0.77507485207E+03  0.29164252548E+04  0.28115467701E+04 0.  0.
        1    1    3    3  502    0  0.10523169099E+04 -0.92600372989E+03  0.27705117556E+03  0.14288495864E+04  0.50400001928E-02 0.  1.
       -1    1    3    3    0  502 -0.10523169099E+04  0.92600372989E+03  0.49802367651E+03  0.14875756683E+04  0.50400001928E-02 0. -1.
</event>
<event>
 5   0  0.5282098E-07  0.2801406E+04  0.7818609E-02  0.8302832E-01
        1   -1    0    0  501    0  0.00000000000E+00  0.00000000000E+00  0.16593332149E+04  0.16593332149E+04  0.50400001928E-02 0.  1.
       -1   -1    0    0    0  501  0.00000000000E+00  0.00000000000E+00 -0.11823839424E+04  0.11823839424E+04  0.50400001928E-02 0. -1.
    10030    2    1    2    0    0  0.00000000000E+00  0.00000000000E+00  0.47694927258E+03  0.28417171573E+04  0.28014060387E+04 0.  0.
        4    1    3    3  502    0  0.12261556271E+04  0.30936457840E+03  0.84947347676E+03  0.15234076489E+04  0.12699999809E+01 0.  1.
       -4    1    3    3    0  502 -0.12261556271E+04 -0.30936457840E+03 -0.37252420418E+03  0.13183095084E+04  0.12699999809E+01 0. -1.
</event>
<event>
 5   0  0.1394410E-06  0.2803483E+04  0.7818609E-02  0.8302188E-01
        2   -1    0    0  501    0  0.00000000000E+00  0.00000000000E+00  0.21903791260E+04  0.21903791260E+04  0.25500000920E-02 0.  1.
       -2   -1    0    0    0  501  0.00000000000E+00  0.00000000000E+00 -0.89704995018E+03  0.89704995018E+03  0.25500000920E-02 0. -1.
    10030    2    1    2    0    0  0.00000000000E+00  0.00000000000E+00  0.12933291758E+04  0.30874290762E+04  0.28034831805E+04 0.  0.
        4    1    3    3  502    0  0.12385624381E+04  0.53343187646E+03  0.22544513205E+03  0.13672650073E+04  0.12699999809E+01 0. -1.
       -4    1    3    3    0  502 -0.12385624381E+04 -0.53343187646E+03  0.10678840438E+04  0.17201640688E+04  0.12699999809E+01 0.  1.
</event>
<event>
 5   0  0.1394410E-06  0.2800806E+04  0.7818609E-02  0.8303018E-01
        2   -1    0    0  501    0  0.00000000000E+00  0.00000000000E+00  0.14529222165E+04  0.14529222166E+04  0.25500000920E-02 0. -1.
       -2   -1    0    0    0  501  0.00000000000E+00  0.00000000000E+00 -0.13497819798E+04  0.13497819798E+04  0.25500000920E-02 0.  1.
    10030    2    1    2    0    0  0.00000000000E+00  0.00000000000E+00  0.10314023675E+03  0.28027041964E+04  0.28008057597E+04 0.  0.
        4    1    3    3  502    0  0.52137446770E+03 -0.90127919890E+03  0.98868290068E+03  0.14358380901E+04  0.12699999809E+01 0. -1.
       -4    1    3    3    0  502 -0.52137446770E+03  0.90127919890E+03 -0.88554266393E+03  0.13668661063E+04  0.12699999809E+01 0.  1.
</event>
<event>
 5   0  0.1439207E-06  0.2793192E+04  0.7818609E-02  0.8305385E-01
       -2   -1    0    0    0  501  0.00000000000E+00  0.00000000000E+00  0.87759809742E+03  0.87759809742E+03  0.25500000920E-02 0.  1.
        2   -1    0    0  501    0  0.00000000000E+00  0.00000000000E+00 -0.22225209553E+04  0.22225209553E+04  0.25500000920E-02 0. -1.
    10030    2    1    2    0    0  0.00000000000E+00  0.00000000000E+00 -0.13449228579E+04  0.31001190527E+04  0.27931918386E+04 0.  0.
        5    1    3    3  502    0  0.41771149837E+03  0.42657282073E+03  0.72881313331E+03  0.94214539246E+03  0.46999998093E+01 0.  1.
       -5    1    3    3    0  502 -0.41771149837E+03 -0.42657282073E+03 -0.20737359912E+04  0.21579736603E+04  0.46999998093E+01 0. -1.
</event>
<event>
 5   0  0.1461146E-06  0.2876124E+04  0.7818609E-02  0.8280017E-01
        2   -1    0    0  501    0  0.00000000000E+00  0.00000000000E+00  0.17342497497E+04  0.17342497497E+04  0.25500000920E-02 0. -1.
       -2   -1    0    0    0  501  0.00000000000E+00  0.00000000000E+00 -0.11924591751E+04  0.11924591751E+04  0.25500000920E-02 0.  1.
    10030    2    1    2    0    0  0.00000000000E+00  0.00000000000E+00  0.54179057457E+03  0.29267089249E+04  0.28761237985E+04 0.  0.
        1    1    3    3  502    0  0.77208102199E+03 -0.10379726577E+04  0.91005529983E+03  0.15816753749E+04  0.50400001928E-02 0. -1.
       -1    1    3    3    0  502 -0.77208102199E+03  0.10379726577E+04 -0.36826472526E+03  0.13450335500E+04  0.50400001928E-02 0.  1.
</event>
<event>
 5   0  0.5297741E-07  0.2799228E+04  0.7818609E-02  0.8303508E-01
        1   -1    0    0  501    0  0.00000000000E+00  0.00000000000E+00  0.19649696252E+04  0.19649696252E+04  0.50400001928E-02 0. -1.
       -1   -1    0    0    0  501  0.00000000000E+00  0.00000000000E+00 -0.99692121320E+03  0.99692121321E+03  0.50400001928E-02 0.  1.
    10030    2    1    2    0    0  0.00000000000E+00  0.00000000000E+00  0.96804841196E+03  0.29618908384E+04  0.27992283956E+04 0.  0.
        5    1    3    3  502    0  0.59533156953E+03  0.78119188061E+03 -0.57102177857E+03  0.11361198852E+04  0.46999998093E+01 0.  1.
       -5    1    3    3    0  502 -0.59533156953E+03 -0.78119188061E+03  0.15390701905E+04  0.18257709532E+04  0.46999998093E+01 0. -1.
</event>
<event>
 5   0  0.1439207E-06  0.2793952E+04  0.7818609E-02  0.8305149E-01
        2   -1    0    0  501    0  0.00000000000E+00  0.00000000000E+00  0.15830801093E+04  0.15830801093E+04  0.25500000920E-02 0. -1.
       -2   -1    0    0    0  501  0.00000000000E+00  0.00000000000E+00 -0.12327498248E+04  0.12327498248E+04  0.25500000920E-02 0.  1.
    10030    2    1    2    0    0  0.00000000000E+00  0.00000000000E+00  0.35033028445E+03  0.28158299341E+04  0.27939518445E+04 0.  0.
        5    1    3    3  502    0  0.33514985672E+03  0.84619222165E+03 -0.89292265441E+03  0.12750292778E+04  0.46999998093E+01 0.  1.
       -5    1    3    3    0  502 -0.33514985672E+03 -0.84619222165E+03  0.12432529389E+04  0.15408006563E+04  0.46999998093E+01 0. -1.
</event>
<event>
 5   0  0.5214658E-07  0.2796715E+04  0.7818609E-02  0.8304289E-01
       -1   -1    0    0    0  501  0.00000000000E+00  0.00000000000E+00  0.11208275357E+04  0.11208275358E+04  0.50400001928E-02 0. -1.
        1   -1    0    0  501    0  0.00000000000E+00  0.00000000000E+00 -0.17446070720E+04  0.17446070720E+04  0.50400001928E-02 0.  1.
    10030    2    1    2    0    0  0.00000000000E+00  0.00000000000E+00 -0.62377953625E+03  0.28654346078E+04  0.27967149625E+04 0.  0.
        2    1    3    3  502    0  0.16255767393E+03  0.13408636134E+04  0.59032614754E+02  0.13519708121E+04  0.25500000920E-02 0. -1.
       -2    1    3    3    0  502 -0.16255767393E+03 -0.13408636134E+04 -0.68281215100E+03  0.15134637957E+04  0.25500000920E-02 0.  1.
</event>
<event>
 5   0  0.1439207E-06  0.2805543E+04  0.7818609E-02  0.8301549E-01
        2   -1    0    0  501    0  0.00000000000E+00  0.00000000000E+00  0.13130259379E+04  0.13130259379E+04  0.25500000920E-02 0. -1.
       -2   -1    0    0    0  501  0.00000000000E+00  0.00000000000E+00 -0.14986514089E+04  0.14986514089E+04  0.25500000920E-02 0.  1.
    10030    2    1    2    0    0  0.00000000000E+00  0.00000000000E+00 -0.18562547102E+03  0.28116773467E+04  0.28055432071E+04 0.  0.
        5    1    3    3  502    0  0.79109331626E+03  0.10034031249E+04 -0.67295630825E+03  0.14441394493E+04  0.46999998093E+01 0. -1.
       -5    1    3    3    0  502 -0.79109331626E+03 -0.10034031249E+04  0.48733083723E+03  0.13675378975E+04  0.46999998093E+01 0.  1.
</event>
<event>
 5   0  0.5551565E-07  0.2802354E+04  0.7818609E-02  0.8302538E-01
       -1   -1    0    0    0  501  0.00000000000E+00  0.00000000000E+00  0.22713342445E+04  0.22713342445E+04  0.50400001928E-02 0.  1.
        1   -1    0    0  501    0  0.00000000000E+00  0.00000000000E+00 -0.86438055060E+03  0.86438055061E+03  0.50400001928E-02 0. -1.
    10030    2    1    2    0    0  0.00000000000E+00  0.00000000000E+00  0.14069536939E+04  0.31357147951E+04  0.28023541139E+04 0.  0.
        3    1    3    3  502    0 -0.98441062095E+03  0.99469835226E+03  0.78106548400E+03  0.16026703913E+04  0.10100000352E+00 0. -1.
       -3    1    3    3    0  502  0.98441062095E+03 -0.99469835226E+03  0.62588820993E+03  0.15330444038E+04  0.10100000352E+00 0.  1.
</event>
<event>
 5   0  0.5282098E-07  0.2799043E+04  0.7818609E-02  0.8303566E-01
       -1   -1    0    0    0  501  0.00000000000E+00  0.00000000000E+00  0.14940440731E+04  0.14940440731E+04  0.50400001928E-02 0.  1.
        1   -1    0    0  501    0  0.00000000000E+00  0.00000000000E+00 -0.13109790446E+04  0.13109790446E+04  0.50400001928E-02 0. -1.
    10030    2    1    2    0    0  0.00000000000E+00  0.00000000000E+00  0.18306502847E+03  0.28050231177E+04  0.27990430304E+04 0.  0.
        4    1    3    3  502    0  0.89177860026E+03 -0.72764289050E+03 -0.70636299111E+03  0.13504382756E+04  0.12699999809E+01 0. -1.
       -4    1    3    3    0  502 -0.89177860026E+03  0.72764289050E+03  0.88942801958E+03  0.14545848421E+04  0.12699999809E+01 0.  1.
</event>
<event>
 5   0  0.5551565E-07  0.2801360E+04  0.7818609E-02  0.8302846E-01
       -1   -1    0    0    0  501  0.00000000000E+00  0.00000000000E+00  0.12367423240E+04  0.12367423240E+04  0.50400001928E-02 0.  1.
        1   -1    0    0  501    0  0.00000000000E+00  0.00000000000E+00 -0.15863481931E+04  0.15863481931E+04  0.50400001928E-02 0. -1.
    10030    2    1    2    0    0  0.00000000000E+00  0.00000000000E+00 -0.34960586913E+03  0.28230905171E+04  0.28013596348E+04 0.  0.
        3    1    3    3  502    0 -0.10683735693E+04 -0.90387641357E+03 -0.11527453267E+03  0.14041733806E+04  0.10100000352E+00 0.  1.
       -3    1    3    3    0  502  0.10683735693E+04  0.90387641357E+03 -0.23433133646E+03  0.14189171365E+04  0.10100000352E+00 0. -1.
</event>
<event>
 5   0  0.5551565E-07  0.2801394E+04  0.7818609E-02  0.8302836E-01
       -1   -1    0    0    0  501  0.00000000000E+00  0.00000000000E+00  0.86649087308E+03  0.86649087310E+03  0.50400001928E-02 0.  1.
        1   -1    0    0  501    0  0.00000000000E+00  0.00000000000E+00 -0.22642501476E+04  0.22642501476E+04  0.50400001928E-02 0. -1.
    10030    2    1    2    0    0  0.00000000000E+00  0.00000000000E+00 -0.13977592745E+04  0.31307410207E+04  0.28013940010E+04 0.  0.
        3    1    3    3  502    0 -0.41256034205E+03 -0.75283035892E+03  0.53803481183E+03  0.10131342725E+04  0.10100000352E+00 0.  1.
       -3    1    3    3    0  502  0.41256034205E+03  0.75283035892E+03 -0.19357940863E+04  0.21176067482E+04  0.10100000352E+00 0. -1.
</event>
<event>
 5   0  0.1377807E-06  0.2802551E+04  0.7818609E-02  0.8302477E-01
        2   -1    0    0  501    0  0.00000000000E+00  0.00000000000E+00  0.24435174767E+04  0.24435174767E+04  0.25500000920E-02 0. -1.
       -2   -1    0    0    0  501  0.00000000000E+00  0.00000000000E+00 -0.80358446457E+03  0.80358446457E+03  0.25500000920E-02 0.  1.
    10030    2    1    2    0    0  0.00000000000E+00  0.00000000000E+00  0.16399330121E+04  0.32471019413E+04  0.28025507547E+04 0.  0.
        2    1    3    3  502    0 -0.11647881178E+04  0.48658123743E+03  0.15248060447E+04  0.19795267449E+04  0.25500000920E-02 0. -1.
       -2    1    3    3    0  502  0.11647881178E+04 -0.48658123743E+03  0.11512696748E+03  0.12675751964E+04  0.25500000920E-02 0.  1.
</event>
<event>
 5   0  0.5297741E-07  0.2804270E+04  0.7818609E-02  0.8301944E-01
        1   -1    0    0  501    0  0.00000000000E+00  0.00000000000E+00  0.19173968477E+04  0.19173968477E+04  0.50400001928E-02 0. -1.
       -1   -1    0    0    0  501  0.00000000000E+00  0.00000000000E+00 -0.10253393766E+04  0.10253393766E+04  0.50400001928E-02 0.  1.
    10030    2    1    2    0    0  0.00000000000E+00  0.00000000000E+00  0.89205747106E+03  0.29427362243E+04  0.28042699503E+04 0.  0.
        5    1    3    3  502    0  0.41856512011E+03  0.13373585797E+04  0.39641120090E+03  0.14563271132E+04  0.46999998093E+01 0.  1.
       -5    1    3    3    0  502 -0.41856512011E+03 -0.13373585797E+04  0.49564627016E+03  0.14864091111E+04  0.46999998093E+01 0. -1.
</event>
<event>
 5   0  0.5214658E-07  0.2801441E+04  0.7818609E-02  0.8302821E-01
       -1   -1    0    0    0  501  0.00000000000E+00  0.00000000000E+00  0.73399035129E+03  0.73399035131E+03  0.50400001928E-02 0.  1.
        1   -1    0    0  501    0  0.00000000000E+00  0.00000000000E+00 -0.26730845319E+04  0.26730845319E+04  0.50400001928E-02 0. -1.
    10030    2    1    2    0    0  0.00000000000E+00  0.00000000000E+00 -0.19390941807E+04  0.34070748833E+04  0.28014412395E+04 0.  0.
        2    1    3    3  502    0  0.67049604569E+03 -0.95292579825E+03 -0.19150377925E+04  0.22416516837E+04  0.25500000920E-02 0. -1.
       -2    1    3    3    0  502 -0.67049604569E+03  0.95292579825E+03 -0.24056388153E+02  0.11654231996E+04  0.25500000920E-02 0.  1.
</event>
<event>
 5   0  0.5551565E-07  0.2802082E+04  0.7818609E-02  0.8302622E-01
        1   -1    0    0  501    0  0.00000000000E+00  0.00000000000E+00  0.11203147821E+04  0.11203147821E+04  0.50400001928E-02 0.  1.
       -1   -1    0    0    0  501  0.00000000000E+00  0.00000000000E+00 -0.17521113650E+04  0.17521113651E+04  0.50400001928E-02 0. -1.
    10030    2    1    2    0    0  0.00000000000E+00  0.00000000000E+00 -0.63179658299E+03  0.28724261471E+04  0.28020822701E+04 0.  0.
        3    1    3    3  502    0  0.49636980226E+03  0.68351893965E+03  0.82989813992E+03  0.11841925748E+04  0.10100000352E+00 0.  1.
       -3    1    3    3    0  502 -0.49636980226E+03 -0.68351893965E+03 -0.14616947229E+04  0.16882335723E+04  0.10100000352E+00 0. -1.
</event>
<event>
 5   0  0.1461146E-06  0.2794324E+04  0.7818609E-02  0.8305033E-01
       -2   -1    0    0    0  501  0.00000000000E+00  0.00000000000E+00  0.13426459791E+04  0.13426459791E+04  0.25500000920E-02 0. -1.
        2   -1    0    0  501    0  0.00000000000E+00  0.00000000000E+00 -0.14538919671E+04  0.14538919671E+04  0.25500000920E-02 0.  1.
    10030    2    1    2    0    0  0.00000000000E+00  0.00000000000E+00 -0.11124598797E+03  0.27965379463E+04  0.27943243933E+04 0.  0.
        1    1    3    3  502    0  0.11459462504E+04  0.44323008238E+03 -0.72129385575E+03  0.14247492906E+04  0.50400001928E-02 0.  1.
       -1    1    3    3    0  502 -0.11459462504E+04 -0.44323008238E+03  0.61004786778E+03  0.13717886556E+04  0.50400001928E-02 0. -1.
</event>
<event>
 5   0  0.1377807E-06  0.2805874E+04  0.7818609E-02  0.8301447E-01
        2   -1    0    0  501    0  0.00000000000E+00  0.00000000000E+00  0.16321376362E+04  0.16321376362E+04  0.25500000920E-02 0. -1.
       -2   -1    0    0    0  501  0.00000000000E+00  0.00000000000E+00 -0.12059228521E+04  0.12059228521E+04  0.25500000920E-02 0.  1.
    10030    2    1    2    0    0  0.00000000000E+00  0.00000000000E+00  0.42621478409E+03  0.28380604883E+04  0.28058738912E+04 0.  0.
        2    1    3    3  502    0  0.27375683597E+03  0.12342993077E+04 -0.40197559625E+03  0.13266581950E+04  0.25500000920E-02 0.  1.
       -2    1    3    3    0  502 -0.27375683597E+03 -0.12342993077E+04  0.82819038034E+03  0.15114022933E+04  0.25500000920E-02 0. -1.
</event>
<event>
 5   0  0.5551565E-07  0.2805231E+04  0.7818609E-02  0.8301646E-01
       -1   -1    0    0    0  501  0.00000000000E+00  0.00000000000E+00  0.11433309332E+04  0.11433309332E+04  0.50400001928E-02 0.  1.
        1   -1    0    0  501    0  0.00000000000E+00  0.00000000000E+00 -0.17207008963E+04  0.17207008963E+04  0.50400001928E-02 0. -1.
    10030    2    1    2    0    0  0.00000000000E+00  0.00000000000E+00 -0.57736996309E+03  0.28640318295E+04  0.28052312287E+04 0.  0.
        3    1    3    3  502    0  0.76296266227E+03  0.11554749790E+04 -0.60171863944E+02  0.13859491746E+04  0.10100000352E+00 0.  1.
       -3    1    3    3    0  502 -0.76296266227E+03 -0.11554749790E+04 -0.51719809915E+03  0.14780826550E+04  0.10100000352E+00 0. -1.
</event>
<event>
 5   0  0.1461146E-06  0.2804375E+04  0.7818609E-02  0.8301911E-01
       -2   -1    0    0    0  501  0.00000000000E+00  0.00000000000E+00  0.19483200755E+04  0.19483200755E+04  0.25500000920E-02 0. -1.
        2   -1    0    0  501    0  0.00000000000E+00  0.00000000000E+00 -0.10091412802E+04  0.10091412802E+04  0.25500000920E-02 0.  1.
    10030    2    1    2    0    0  0.00000000000E+00  0.00000000000E+00  0.93917879529E+03  0.29574613557E+04  0.28043753067E+04 0.  0.
        1    1    3    3  502    0  0.12556683197E+04 -0.29123780399E+03  0.10516302578E+04  0.16635650233E+04  0.50400001928E-02 0. -1.
       -1    1    3    3    0  502 -0.12556683197E+04  0.29123780399E+03 -0.11245146246E+03  0.12938963324E+04  0.50400001928E-02 0.  1.
</event>
<event>
 5   0  0.5362952E-07  0.2800359E+04  0.7818609E-02  0.8303157E-01
       -1   -1    0    0    0  501  0.00000000000E+00  0.00000000000E+00  0.17081391716E+04  0.17081391717E+04  0.50400001928E-02 0. -1.
        1   -1    0    0  501    0  0.00000000000E+00  0.00000000000E+00 -0.11477420128E+04  0.11477420128E+04  0.50400001928E-02 0.  1.
    10030    2    1    2    0    0  0.00000000000E+00  0.00000000000E+00  0.56039715882E+03  0.28558811845E+04  0.28003593277E+04 0.  0.
        1    1    3    3  502    0  0.10307561116E+04  0.87015856896E+03 -0.10256806149E+03  0.13528319571E+04  0.50400001928E-02 0.  1.
       -1    1    3    3    0  502 -0.10307561116E+04 -0.87015856896E+03  0.66296522030E+03  0.15030492274E+04  0.50400001928E-02 0. -1.
</event>
<event>
 5   0  0.5551565E-07  0.2799475E+04  0.7818609E-02  0.8303431E-01
       -1   -1    0    0    0  501  0.00000000000E+00  0.00000000000E+00  0.29220811564E+04  0.29220811564E+04  0.50400001928E-02 0.  1.
        1   -1    0    0  501    0  0.00000000000E+00  0.00000000000E+00 -0.67050350981E+03  0.67050350983E+03  0.50400001928E-02 0. -1.
    10030    2    1    2    0    0  0.00000000000E+00  0.00000000000E+00  0.22515776466E+04  0.35925846662E+04  0.27994754304E+04 0.  0.
        3    1    3    3  502    0  0.83047518020E+03  0.10331251050E+04  0.54868728263E+03  0.14346059570E+04  0.10100000352E+00 0. -1.
       -3    1    3    3    0  502 -0.83047518020E+03 -0.10331251050E+04  0.17028903640E+04  0.21579787092E+04  0.10100000352E+00 0.  1.
</event>
<event>
 5   0  0.1394410E-06  0.2799634E+04  0.7818609E-02  0.8303382E-01
       -2   -1    0    0    0  501  0.00000000000E+00  0.00000000000E+00  0.29458262033E+04  0.29458262034E+04  0.25500000920E-02 0.  1.
        2   -1    0    0  501    0  0.00000000000E+00  0.00000000000E+00 -0.66517419750E+03  0.66517419751E+03  0.25500000920E-02 0. -1.
    10030    2    1    2    0    0  0.00000000000E+00  0.00000000000E+00  0.22806520058E+04  0.36110004009E+04  0.27996339624E+04 0.  0.
        4    1    3    3  502    0 -0.27407257534E+03  0.12082569864E+04  0.29998107451E+03  0.12747513403E+04  0.12699999809E+01 0. -1.
       -4    1    3    3    0  502  0.27407257534E+03 -0.12082569864E+04  0.19806709313E+04  0.23362490605E+04  0.12699999809E+01 0.  1.
</event>
<event>
 5   0  0.5214658E-07  0.2835876E+04  0.7818609E-02  0.8292216E-01
        1   -1    0    0  501    0  0.00000000000E+00  0.00000000000E+00  0.15519121295E+04  0.15519121295E+04  0.50400001928E-02 0. -1.
       -1   -1    0    0    0  501  0.00000000000E+00  0.00000000000E+00 -0.12955300556E+04  0.12955300556E+04  0.50400001928E-02 0.  1.
    10030    2    1    2    0    0  0.00000000000E+00  0.00000000000E+00  0.25638207391E+03  0.28474421851E+04  0.28358764483E+04 0.  0.
        2    1    3    3  502    0  0.28268185783E+03  0.12766428148E+04 -0.42251907951E+03  0.13741354671E+04  0.25500000920E-02 0.  1.
       -2    1    3    3    0  502 -0.28268185783E+03 -0.12766428148E+04  0.67890115342E+03  0.14733067181E+04  0.25500000920E-02 0. -1.
</event>
<event>
 5   0  0.1461146E-06  0.2801796E+04  0.7818609E-02  0.8302711E-01
       -2   -1    0    0    0  501  0.00000000000E+00  0.00000000000E+00  0.96686095930E+03  0.96686095930E+03  0.25500000920E-02 0.  1.
        2   -1    0    0  501    0  0.00000000000E+00  0.00000000000E+00 -0.20297800555E+04  0.20297800555E+04  0.25500000920E-02 0. -1.
    10030    2    1    2    0    0  0.00000000000E+00  0.00000000000E+00 -0.10629190962E+04  0.29966410148E+04  0.28017959181E+04 0.  0.
        1    1    3    3  502    0 -0.60062179513E+03  0.12030679546E+04 -0.11120123763E+03  0.13492534082E+04  0.50400001928E-02 0. -1.
       -1    1    3    3    0  502  0.60062179513E+03 -0.12030679546E+04 -0.95171785859E+03  0.16473876067E+04  0.50400001928E-02 0.  1.
</event>
<event>
 5   0  0.1439207E-06  0.2797125E+04  0.7818609E-02  0.8304162E-01
        2   -1    0    0  501    0  0.00000000000E+00  0.00000000000E+00  0.11898082747E+04  0.11898082747E+04  0.25500000920E-02 0.  1.
       -2   -1    0    0    0  501  0.00000000000E+00  0.00000000000E+00 -0.16439427364E+04  0.16439427364E+04  0.25500000920E-02 0. -1.
    10030    2    1    2    0    0  0.00000000000E+00  0.00000000000E+00 -0.45413446175E+03  0.28337510111E+04  0.27971247172E+04 0.  0.
        5    1    3    3  502    0 -0.14858713783E+03  0.13863566004E+04 -0.11658968517E+03  0.13991704706E+04  0.46999998093E+01 0.  1.
       -5    1    3    3    0  502  0.14858713783E+03 -0.13863566004E+04 -0.33754477657E+03  0.14345805405E+04  0.46999998093E+01 0. -1.
</event>
<event>
 5   0  0.1394410E-06  0.2804139E+04  0.7818609E-02  0.8301984E-01
        2   -1    0    0  501    0  0.00000000000E+00  0.00000000000E+00  0.18845862129E+04  0.18845862130E+04  0.25500000920E-02 0.  1.
       -2   -1    0    0    0  501  0.00000000000E+00  0.00000000000E+00 -0.10430933913E+04  0.10430933913E+04  0.25500000920E-02 0. -1.
    10030    2    1    2    0    0  0.00000000000E+00  0.00000000000E+00  0.84149282166E+03  0.29276796042E+04  0.28041393860E+04 0.  0.
        4    1    3    3  502    0  0.40348872869E+03  0.51165601956E+02 -0.98014878613E+03  0.10611853414E+04  0.12699999809E+01 0. -1.
       -4    1    3    3    0  502 -0.40348872869E+03 -0.51165601956E+02  0.18216416078E+04  0.18664942628E+04  0.12699999809E+01 0.  1.
</event>
<event>
 5   0  0.5551565E-07  0.2796816E+04  0.7818609E-02  0.8304258E-01
        1   -1    0    0  501    0  0.00000000000E+00  0.00000000000E+00  0.16120860941E+04  0.16120860942E+04  0.50400001928E-02 0. -1.
       -1   -1    0    0    0  501  0.00000000000E+00  0.00000000000E+00 -0.12130523805E+04  0.12130523805E+04  0.50400001928E-02 0.  1.
    10030    2    1    2    0    0  0.00000000000E+00  0.00000000000E+00  0.39903371364E+03  0.28251384747E+04  0.27968159568E+04 0.  0.
        3    1    3    3  502    0  0.23041833091E+03  0.93040199152E+03  0.12280641482E+04  0.15578453181E+04  0.10100000352E+00 0. -1.
       -3    1    3    3    0  502 -0.23041833091E+03 -0.93040199152E+03 -0.82903043451E+03  0.12672931565E+04  0.10100000352E+00 0.  1.
</event>
<event>
 5   0  0.5551565E-07  0.2795035E+04  0.7818609E-02  0.8304811E-01
        1   -1    0    0  501    0  0.00000000000E+00  0.00000000000E+00  0.17671002345E+04  0.17671002345E+04  0.50400001928E-02 0. -1.
       -1   -1    0    0    0  501  0.00000000000E+00  0.00000000000E+00 -0.11052316394E+04  0.11052316394E+04  0.50400001928E-02 0.  1.
    10030    2    1    2    0    0  0.00000000000E+00  0.00000000000E+00  0.66186859504E+03  0.28723318739E+04  0.27950349473E+04 0.  0.
        3    1    3    3  502    0 -0.77788639669E+03  0.87291209205E+02  0.15206766801E+04  0.17103170984E+04  0.10100000352E+00 0. -1.
       -3    1    3    3    0  502  0.77788639669E+03 -0.87291209205E+02 -0.85880808508E+03  0.11620147755E+04  0.10100000352E+00 0.  1.
</event>
<event>
 5   0  0.1499888E-06  0.2743266E+04  0.7818609E-02  0.8321102E-01
        2   -1    0    0  501    0  0.00000000000E+00  0.00000000000E+00  0.86207953102E+03  0.86207953102E+03  0.25500000920E-02 0. -1.
       -2   -1    0    0    0  501  0.00000000000E+00  0.00000000000E+00 -0.21823707681E+04  0.21823707681E+04  0.25500000920E-02 0.  1.
    10030    2    1    2    0    0  0.00000000000E+00  0.00000000000E+00 -0.13202912370E+04  0.30444502991E+04  0.27432660595E+04 0.  0.
        3    1    3    3  502    0 -0.90313050694E+02  0.11853218583E+04 -0.14195478628E+04  0.18515562372E+04  0.10100000352E+00 0.  1.
       -3    1    3    3    0  502  0.90313050694E+02 -0.11853218583E+04  0.99256625716E+02  0.11928940618E+04  0.10100000352E+00 0. -1.
</event>
<event>
 5   0  0.1394410E-06  0.2797679E+04  0.7818609E-02  0.8303989E-01
       -2   -1    0    0    0  501  0.00000000000E+00  0.00000000000E+00  0.17425165908E+04  0.17425165908E+04  0.25500000920E-02 0. -1.
        2   -1    0    0  501    0  0.00000000000E+00  0.00000000000E+00 -0.11229459702E+04  0.11229459702E+04  0.25500000920E-02 0.  1.
    10030    2    1    2    0    0  0.00000000000E+00  0.00000000000E+00  0.61957062062E+03  0.28654625610E+04  0.27976790263E+04 0.  0.
        4    1    3    3  502    0 -0.36481119888E+03  0.12712510392E+04 -0.15686734639E+03  0.13318315933E+04  0.12699999809E+01 0.  1.
       -4    1    3    3    0  502  0.36481119888E+03 -0.12712510392E+04  0.77643796701E+03  0.15336309677E+04  0.12699999809E+01 0. -1.
</event>
<event>
 5   0  0.5214658E-07  0.2811113E+04  0.7818609E-02  0.8299827E-01
        1   -1    0    0  501    0  0.00000000000E+00  0.00000000000E+00  0.18820447617E+04  0.18820447617E+04  0.50400001928E-02 0.  1.
       -1   -1    0    0    0  501  0.00000000000E+00  0.00000000000E+00 -0.10497031895E+04  0.10497031895E+04  0.50400001928E-02 0. -1.
    10030    2    1    2    0    0  0.00000000000E+00  0.00000000000E+00  0.83234157220E+03  0.29317479511E+04  0.28111125122E+04 0.  0.
        2    1    3    3  502    0 -0.96178622537E+03  0.97268800965E+03  0.75320089161E+03  0.15615589296E+04  0.25500000920E-02 0. -1.
       -2    1    3    3    0  502  0.96178622537E+03 -0.97268800965E+03  0.79140680591E+02  0.13701890215E+04  0.25500000920E-02 0.  1.
</event>
<event>
 5   0  0.5362952E-07  0.2799302E+04  0.7818609E-02  0.8303485E-01
       -1   -1    0    0    0  501  0.00000000000E+00  0.00000000000E+00  0.75682110511E+03  0.75682110512E+03  0.50400001928E-02 0. -1.
        1   -1    0    0  501    0  0.00000000000E+00  0.00000000000E+00 -0.25884887699E+04  0.25884887699E+04  0.50400001928E-02 0.  1.
    10030    2    1    2    0    0  0.00000000000E+00  0.00000000000E+00 -0.18316676648E+04  0.33453098750E+04  0.27993020069E+04 0.  0.
        1    1    3    3  502    0 -0.58537697029E+02 -0.56620211339E+03  0.61224934418E+03  0.83597891998E+03  0.50400001928E-02 0. -1.
       -1    1    3    3    0  502  0.58537697029E+02  0.56620211339E+03 -0.24439170090E+04  0.25093309550E+04  0.50400001928E-02 0.  1.
</event>
<event>
 5   0  0.5214658E-07  0.2797738E+04  0.7818609E-02  0.8303971E-01
        1   -1    0    0  501    0  0.00000000000E+00  0.00000000000E+00  0.18886564635E+04  0.18886564635E+04  0.50400001928E-02 0.  1.
       -1   -1    0    0    0  501  0.00000000000E+00  0.00000000000E+00 -0.10360984305E+04  0.10360984305E+04  0.50400001928E-02 0. -1.
    10030    2    1    2    0    0  0.00000000000E+00  0.00000000000E+00  0.85255803303E+03  0.29247548940E+04  0.27977376557E+04 0.  0.
        2    1    3    3  502    0  0.11501336513E+04 -0.51151008152E+03  0.10642163299E+04  0.16483344249E+04  0.25500000920E-02 0.  1.
       -2    1    3    3    0  502 -0.11501336513E+04  0.51151008152E+03 -0.21165829687E+03  0.12764204691E+04  0.25500000920E-02 0. -1.
</event>
<event>
 5   0  0.1394410E-06  0.2798830E+04  0.7818609E-02  0.8303632E-01
       -2   -1    0    0    0  501  0.00000000000E+00  0.00000000000E+00  0.25183215512E+04  0.25183215512E+04  0.25500000920E-02 0. -1.
        2   -1    0    0  501    0  0.00000000000E+00  0.00000000000E+00 -0.77764589475E+03  0.77764589475E+03  0.25500000920E-02 0.  1.
    10030    2    1    2    0    0  0.00000000000E+00  0.00000000000E+00  0.17406756564E+04  0.32959674459E+04  0.27988300527E+04 0.  0.
        4    1    3    3  502    0 -0.53551844379E+03  0.90604470460E+03  0.19564767053E+04  0.22215984609E+04  0.12699999809E+01 0. -1.
       -4    1    3    3    0  502  0.53551844379E+03 -0.90604470460E+03 -0.21580104885E+03  0.10743689850E+04  0.12699999809E+01 0.  1.
</event>
<event>
 5   0  0.1394410E-06  0.2839830E+04  0.7818609E-02  0.8291008E-01
        2   -1    0    0  501    0  0.00000000000E+00  0.00000000000E+00  0.15546345102E+04  0.15546345102E+04  0.25500000920E-02 0.  1.
       -2   -1    0    0    0  501  0.00000000000E+00  0.00000000000E+00 -0.12968695513E+04  0.12968695514E+04  0.25500000920E-02 0. -1.
    10030    2    1    2    0    0  0.00000000000E+00  0.00000000000E+00  0.25776495888E+03  0.28515040616E+04  0.28398296849E+04 0.  0.
        4    1    3    3  502    0 -0.14993075178E+03  0.83145497136E+03  0.12747837888E+04  0.15293370854E+04  0.12699999809E+01 0.  1.
       -4    1    3    3    0  502  0.14993075178E+03 -0.83145497136E+03 -0.10170188299E+04  0.13221669762E+04  0.12699999809E+01 0. -1.
</event>
<event>
 5   0  0.1439207E-06  0.2821737E+04  0.7818609E-02  0.8296551E-01
        2   -1    0    0  501    0  0.00000000000E+00  0.00000000000E+00  0.21121452339E+04  0.21121452339E+04  0.25500000920E-02 0. -1.
       -2   -1    0    0    0  501  0.00000000000E+00  0.00000000000E+00 -0.94243058814E+03  0.94243058814E+03  0.25500000920E-02 0.  1.
    10030    2    1    2    0    0  0.00000000000E+00  0.00000000000E+00  0.11697146458E+04  0.30545758221E+04  0.28217372486E+04 0.  0.
        5    1    3    3  502    0  0.34927785023E+02  0.36821191369E+03 -0.88900653628E+03  0.96288871377E+03  0.46999998093E+01 0.  1.
       -5    1    3    3    0  502 -0.34927785023E+02 -0.36821191369E+03  0.20587211821E+04  0.20916871083E+04  0.46999998093E+01 0. -1.
</event>
<event>
 5   0  0.5551565E-07  0.2715074E+04  0.7818609E-02  0.8330131E-01
        1   -1    0    0  501    0  0.00000000000E+00  0.00000000000E+00  0.12384078612E+04  0.12384078612E+04  0.50400001928E-02 0. -1.
       -1   -1    0    0    0  501  0.00000000000E+00  0.00000000000E+00 -0.14881258072E+04  0.14881258072E+04  0.50400001928E-02 0.  1.
    10030    2    1    2    0    0  0.00000000000E+00  0.00000000000E+00 -0.24971794606E+03  0.27265336684E+04  0.27150739939E+04 0.  0.
        3    1    3    3  502    0  0.70823983279E+03 -0.10273694155E+04  0.41201430495E+03  0.13140956489E+04  0.10100000352E+00 0. -1.
       -3    1    3    3    0  502 -0.70823983279E+03  0.10273694155E+04 -0.66173225100E+03  0.14124380195E+04  0.10100000352E+00 0.  1.
</event>
<event>
 5   0  0.5214658E-07  0.2798701E+04  0.7818609E-02  0.8303672E-01
        1   -1    0    0  501    0  0.00000000000E+00  0.00000000000E+00  0.95573877021E+03  0.95573877022E+03  0.50400001928E-02 0.  1.
       -1   -1    0    0    0  501  0.00000000000E+00  0.00000000000E+00 -0.20488677438E+04  0.20488677438E+04  0.50400001928E-02 0. -1.
    10030    2    1    2    0    0  0.00000000000E+00  0.00000000000E+00 -0.10931289736E+04  0.30046065140E+04  0.27987013687E+04 0.  0.
        2    1    3    3  502    0 -0.20512593629E+03  0.34510984417E+03  0.89258422391E+03  0.97871551079E+03  0.25500000920E-02 0.  1.
       -2    1    3    3    0  502  0.20512593629E+03 -0.34510984417E+03 -0.19857131975E+04  0.20258910032E+04  0.25500000920E-02 0. -1.
</event>
<event>
 5   0  0.1461146E-06  0.2795076E+04  0.7818609E-02  0.8304799E-01
        2   -1    0    0  501    0  0.00000000000E+00  0.00000000000E+00  0.18740100360E+04  0.18740100360E+04  0.25500000920E-02 0. -1.
       -2   -1    0    0    0  501  0.00000000000E+00  0.00000000000E+00 -0.10422098791E+04  0.10422098791E+04  0.25500000920E-02 0.  1.
    10030    2    1    2    0    0  0.00000000000E+00  0.00000000000E+00  0.83180015685E+03  0.29162199151E+04  0.27950755074E+04 0.  0.
        1    1    3    3  502    0 -0.10184565612E+03 -0.80437378257E+03 -0.77173400333E+03  0.11193583393E+04  0.50400001928E-02 0.  1.
       -1    1    3    3    0  502  0.10184565612E+03  0.80437378257E+03  0.16035341602E+04  0.17968615758E+04  0.50400001928E-02 0. -1.
</event>
<event>
 5   0  0.5282098E-07  0.2797486E+04  0.7818609E-02  0.8304049E-01
       -1   -1    0    0    0  501  0.00000000000E+00  0.00000000000E+00  0.26028332091E+04  0.26028332091E+04  0.50400001928E-02 0. -1.
        1   -1    0    0  501    0  0.00000000000E+00  0.00000000000E+00 -0.75167414333E+03  0.75167414335E+03  0.50400001928E-02 0.  1.
    10030    2    1    2    0    0  0.00000000000E+00  0.00000000000E+00  0.18511590658E+04  0.33545073525E+04  0.27974863165E+04 0.  0.
        4    1    3    3  502    0 -0.42791425089E+03 -0.84272270557E+03  0.21619993068E+04  0.23595624128E+04  0.12699999809E+01 0. -1.
       -4    1    3    3    0  502  0.42791425089E+03  0.84272270557E+03 -0.31084024099E+03  0.99494493964E+03  0.12699999809E+01 0.  1.
</event>
<event>
 5   0  0.1394410E-06  0.2806814E+04  0.7818609E-02  0.8301156E-01
        2   -1    0    0  501    0  0.00000000000E+00  0.00000000000E+00  0.14759801902E+04  0.14759801902E+04  0.25500000920E-02 0.  1.
       -2   -1    0    0    0  501  0.00000000000E+00  0.00000000000E+00 -0.13344025745E+04  0.13344025745E+04  0.25500000920E-02 0. -1.
    10030    2    1    2    0    0  0.00000000000E+00  0.00000000000E+00  0.14157761571E+03  0.28103827647E+04  0.28068143977E+04 0.  0.
        4    1    3    3  502    0 -0.54924136548E+03  0.14242080607E+03  0.13560095344E+04  0.14699364728E+04  0.12699999809E+01 0.  1.
       -4    1    3    3    0  502  0.54924136548E+03 -0.14242080607E+03 -0.12144319187E+04  0.13404462920E+04  0.12699999809E+01 0. -1.
</event>
<event>
 5   0  0.1377807E-06  0.2819955E+04  0.7818609E-02  0.8297100E-01
        2   -1    0    0  501    0  0.00000000000E+00  0.00000000000E+00  0.13775143199E+04  0.13775143199E+04  0.25500000920E-02 0.  1.
       -2   -1    0    0    0  501  0.00000000000E+00  0.00000000000E+00 -0.14432052342E+04  0.14432052342E+04  0.25500000920E-02 0. -1.
    10030    2    1    2    0    0  0.00000000000E+00  0.00000000000E+00 -0.65690914315E+02  0.28207195541E+04  0.28199545221E+04 0.  0.
        2    1    3    3  502    0 -0.50397916078E+03  0.73572542350E+03 -0.11252722229E+04  0.14358009851E+04  0.25500000920E-02 0. -1.
       -2    1    3    3    0  502  0.50397916078E+03 -0.73572542350E+03  0.10595813085E+04  0.13849185690E+04  0.25500000920E-02 0.  1.
</event>
<event>
 5   0  0.5282098E-07  0.2797658E+04  0.7818609E-02  0.8303996E-01
       -1   -1    0    0    0  501  0.00000000000E+00  0.00000000000E+00  0.89185369101E+03  0.89185369103E+03  0.50400001928E-02 0.  1.
        1   -1    0    0  501    0  0.00000000000E+00  0.00000000000E+00 -0.21939955569E+04  0.21939955570E+04  0.50400001928E-02 0. -1.
    10030    2    1    2    0    0  0.00000000000E+00  0.00000000000E+00 -0.13021418659E+04  0.30858492480E+04  0.27976583319E+04 0.  0.
        4    1    3    3  502    0  0.43966901875E+03  0.47661179693E+03 -0.20182062808E+04  0.21198174109E+04  0.12699999809E+01 0. -1.
       -4    1    3    3    0  502 -0.43966901875E+03 -0.47661179693E+03  0.71606441486E+03  0.96603183703E+03  0.12699999809E+01 0.  1.
</event>
<event>
 5   0  0.1394410E-06  0.2807842E+04  0.7818609E-02  0.8300838E-01
        2   -1    0    0  501    0  0.00000000000E+00  0.00000000000E+00  0.15659529940E+04  0.15659529940E+04  0.25500000920E-02 0.  1.
       -2   -1    0    0    0  501  0.00000000000E+00  0.00000000000E+00 -0.12586548209E+04  0.12586548209E+04  0.25500000920E-02 0. -1.
    10030    2    1    2    0    0  0.00000000000E+00  0.00000000000E+00  0.30729817311E+03  0.28246078148E+04  0.28078420790E+04 0.  0.
        4    1    3    3  502    0 -0.96155238378E+03  0.10221724960E+04  0.11375026723E+03  0.14079631865E+04  0.12699999809E+01 0. -1.
       -4    1    3    3    0  502  0.96155238378E+03 -0.10221724960E+04  0.19354790588E+03  0.14166446284E+04  0.12699999809E+01 0.  1.
</event>
<event>
 5   0  0.5551565E-07  0.2811034E+04  0.7818609E-02  0.8299851E-01
       -1   -1    0    0    0  501  0.00000000000E+00  0.00000000000E+00  0.14251170151E+04  0.14251170151E+04  0.50400001928E-02 0. -1.
        1   -1    0    0  501    0  0.00000000000E+00  0.00000000000E+00 -0.13861865442E+04  0.13861865442E+04  0.50400001928E-02 0.  1.
    10030    2    1    2    0    0  0.00000000000E+00  0.00000000000E+00  0.38930470931E+02  0.28113035593E+04  0.28110339950E+04 0.  0.
        3    1    3    3  502    0  0.10066882496E+01  0.97954319312E+03 -0.98858585560E+03  0.13916924533E+04  0.10100000352E+00 0.  1.
       -3    1    3    3    0  502 -0.10066882496E+01 -0.97954319312E+03  0.10275163265E+04  0.14196111059E+04  0.10100000352E+00 0. -1.
</event>
<event>
 5   0  0.1439207E-06  0.2800308E+04  0.7818609E-02  0.8303173E-01
       -2   -1    0    0    0  501  0.00000000000E+00  0.00000000000E+00  0.12294957584E+04  0.12294957584E+04  0.25500000920E-02 0.  1.
        2   -1    0    0  501    0  0.00000000000E+00  0.00000000000E+00 -0.15945000735E+04  0.15945000735E+04  0.25500000920E-02 0. -1.
    10030    2    1    2    0    0  0.00000000000E+00  0.00000000000E+00 -0.36500431516E+03  0.28239958319E+04  0.28003078953E+04 0.  0.
        5    1    3    3  502    0 -0.11430836277E+04 -0.50190649129E+03 -0.82178778982E+03  0.14946262300E+04  0.46999998093E+01 0. -1.
       -5    1    3    3    0  502  0.11430836277E+04  0.50190649129E+03  0.45678347466E+03  0.13293696019E+04  0.46999998093E+01 0.  1.
</event>
<event>
 5   0  0.1439207E-06  0.2801921E+04  0.7818609E-02  0.8302672E-01
       -2   -1    0    0    0  501  0.00000000000E+00  0.00000000000E+00  0.14696036043E+04  0.14696036043E+04  0.25500000920E-02 0. -1.
        2   -1    0    0  501    0  0.00000000000E+00  0.00000000000E+00 -0.13355237405E+04  0.13355237405E+04  0.25500000920E-02 0.  1.
    10030    2    1    2    0    0  0.00000000000E+00  0.00000000000E+00  0.13407986383E+03  0.28051273448E+04  0.28019211286E+04 0.  0.
        5    1    3    3  502    0  0.65691760254E+03  0.32447677166E+03 -0.11284129231E+04  0.13454232519E+04  0.46999998093E+01 0.  1.
       -5    1    3    3    0  502 -0.65691760254E+03 -0.32447677166E+03  0.12624927869E+04  0.14597040929E+04  0.46999998093E+01 0. -1.
</event>
<event>
 5   0  0.1461146E-06  0.2805330E+04  0.7818609E-02  0.8301616E-01
       -2   -1    0    0    0  501  0.00000000000E+00  0.00000000000E+00  0.12349586053E+04  0.12349586053E+04  0.25500000920E-02 0. -1.
        2   -1    0    0  501    0  0.00000000000E+00  0.00000000000E+00 -0.15931452221E+04  0.15931452221E+04  0.25500000920E-02 0.  1.
    10030    2    1    2    0    0  0.00000000000E+00  0.00000000000E+00 -0.35818661679E+03  0.28281038275E+04  0.28053295005E+04 0.  0.
        1    1    3    3  502    0  0.86218919456E+03  0.85009785440E+02  0.93298107318E+03  0.12732048357E+04  0.50400001928E-02 0. -1.
       -1    1    3    3    0  502 -0.86218919456E+03 -0.85009785440E+02 -0.12911676900E+04  0.15548989917E+04  0.50400001928E-02 0.  1.
</event>
<event>
 5   0  0.5282098E-07  0.2798667E+04  0.7818609E-02  0.8303682E-01
       -1   -1    0    0    0  501  0.00000000000E+00  0.00000000000E+00  0.16738228731E+04  0.16738228731E+04  0.50400001928E-02 0.  1.
        1   -1    0    0  501    0  0.00000000000E+00  0.00000000000E+00 -0.11698575736E+04  0.11698575736E+04  0.50400001928E-02 0. -1.
    10030    2    1    2    0    0  0.00000000000E+00  0.00000000000E+00  0.50396529946E+03  0.28436804467E+04  0.27986670863E+04 0.  0.
        4    1    3    3  502    0 -0.18039322910E+03  0.47570380234E+03 -0.10725546340E+04  0.11871018829E+04  0.12699999809E+01 0. -1.
       -4    1    3    3    0  502  0.18039322910E+03 -0.47570380234E+03  0.15765199334E+04  0.16565785638E+04  0.12699999809E+01 0.  1.
</event>
<event>
 5   0  0.5551565E-07  0.2801166E+04  0.7818609E-02  0.8302906E-01
       -1   -1    0    0    0  501  0.00000000000E+00  0.00000000000E+00  0.10986513408E+04  0.10986513408E+04  0.50400001928E-02 0. -1.
        1   -1    0    0  501    0  0.00000000000E+00  0.00000000000E+00 -0.17854918057E+04  0.17854918057E+04  0.50400001928E-02 0.  1.
    10030    2    1    2    0    0  0.00000000000E+00  0.00000000000E+00 -0.68684046489E+03  0.28841431465E+04  0.28011661616E+04 0.  0.
        3    1    3    3  502    0  0.72956615929E+03 -0.11704105943E+04 -0.59458311474E+03  0.15018844265E+04  0.10100000352E+00 0.  1.
       -3    1    3    3    0  502 -0.72956615929E+03  0.11704105943E+04 -0.92257350156E+02  0.13822587200E+04  0.10100000352E+00 0. -1.
</event>
<event>
 5   0  0.5551565E-07  0.2828322E+04  0.7818609E-02  0.8294529E-01
       -1   -1    0    0    0  501  0.00000000000E+00  0.00000000000E+00  0.16067034719E+04  0.16067034719E+04  0.50400001928E-02 0.  1.
        1   -1    0    0  501    0  0.00000000000E+00  0.00000000000E+00 -0.12446923453E+04  0.12446923453E+04  0.50400001928E-02 0. -1.
    10030    2    1    2    0    0  0.00000000000E+00  0.00000000000E+00  0.36201112666E+03  0.28513958172E+04  0.28283221264E+04 0.  0.
        3    1    3    3  502    0 -0.46989389438E+03 -0.33865419837E+03  0.14816328691E+04  0.15908245997E+04  0.10100000352E+00 0.  1.
       -3    1    3    3    0  502  0.46989389438E+03  0.33865419837E+03 -0.11196217424E+04  0.12605712175E+04  0.10100000352E+00 0. -1.
</event>
<event>
 5   0  0.1394410E-06  0.2800439E+04  0.7818609E-02  0.8303132E-01
       -2   -1    0    0    0  501  0.00000000000E+00  0.00000000000E+00  0.13097119104E+04  0.13097119105E+04  0.25500000920E-02 0.  1.
        2   -1    0    0  501    0  0.00000000000E+00  0.00000000000E+00 -0.14969816650E+04  0.14969816650E+04  0.25500000920E-02 0. -1.
    10030    2    1    2    0    0  0.00000000000E+00  0.00000000000E+00 -0.18726975454E+03  0.28066935754E+04  0.28004390487E+04 0.  0.
        4    1    3    3  502    0 -0.56927575281E+03  0.12244800201E+04 -0.46484960562E+03  0.14281151813E+04  0.12699999809E+01 0. -1.
       -4    1    3    3    0  502  0.56927575281E+03 -0.12244800201E+04  0.27757985107E+03  0.13785783942E+04  0.12699999809E+01 0.  1.
</event>
<event>
 5   0  0.5297741E-07  0.2795683E+04  0.7818609E-02  0.8304610E-01
       -1   -1    0    0    0  501  0.00000000000E+00  0.00000000000E+00  0.13237887844E+04  0.13237887844E+04  0.50400001928E-02 0.  1.
        1   -1    0    0  501    0  0.00000000000E+00  0.00000000000E+00 -0.14760362989E+04  0.14760362989E+04  0.50400001928E-02 0. -1.
    10030    2    1    2    0    0  0.00000000000E+00  0.00000000000E+00 -0.15224751451E+03  0.27998250832E+04  0.27956825984E+04 0.  0.
        5    1    3    3  502    0  0.63524794202E+03  0.74726269964E+03 -0.10735898796E+04  0.14541522650E+04  0.46999998093E+01 0. -1.
       -5    1    3    3    0  502 -0.63524794202E+03 -0.74726269964E+03  0.92134236511E+03  0.13456728183E+04  0.46999998093E+01 0.  1.
</event>
<event>
 5   0  0.5282098E-07  0.2805495E+04  0.7818609E-02  0.8301564E-01
        1   -1    0    0  501    0  0.00000000000E+00  0.00000000000E+00  0.14144588563E+04  0.14144588563E+04  0.50400001928E-02 0.  1.
       -1   -1    0    0    0  501  0.00000000000E+00  0.00000000000E+00 -0.13911333977E+04  0.13911333977E+04  0.50400001928E-02 0. -1.
    10030    2    1    2    0    0  0.00000000000E+00  0.00000000000E+00  0.23325458574E+02  0.28055922540E+04  0.28054952894E+04 0.  0.
        4    1    3    3  502    0 -0.10290884620E+03  0.35886275679E+03 -0.13405402946E+04  0.13915540245E+04  0.12699999809E+01 0. -1.
       -4    1    3    3    0  502  0.10290884620E+03 -0.35886275679E+03  0.13638657532E+04  0.14140382295E+04  0.12699999809E+01 0.  1.
</event>
<event>
 5   0  0.5214658E-07  0.2800685E+04  0.7818609E-02  0.8303056E-01
       -1   -1    0    0    0  501  0.00000000000E+00  0.00000000000E+00  0.89227455407E+03  0.89227455408E+03  0.50400001928E-02 0.  1.
        1   -1    0    0  501    0  0.00000000000E+00  0.00000000000E+00 -0.21977077437E+04  0.21977077437E+04  0.50400001928E-02 0. -1.
    10030    2    1    2    0    0  0.00000000000E+00  0.00000000000E+00 -0.13054331897E+04  0.30899822978E+04  0.28006846999E+04 0.  0.
        2    1    3    3  502    0 -0.77695304385E+03 -0.97825159080E+03  0.45353344853E+02  0.12500756510E+04  0.25500000920E-02 0.  1.
       -2    1    3    3    0  502  0.77695304385E+03  0.97825159080E+03 -0.13507865345E+04  0.18399066468E+04  0.25500000920E-02 0. -1.
</event>
<event>
 5   0  0.1499888E-06  0.2789041E+04  0.7818609E-02  0.8306679E-01
       -2   -1    0    0    0  501  0.00000000000E+00  0.00000000000E+00  0.11192774597E+04  0.11192774597E+04  0.25500000920E-02 0.  1.
        2   -1    0    0  501    0  0.00000000000E+00  0.00000000000E+00 -0.17374495247E+04  0.17374495247E+04  0.25500000920E-02 0. -1.
    10030    2    1    2    0    0  0.00000000000E+00  0.00000000000E+00 -0.61817206502E+03  0.28567269844E+04  0.27890414771E+04 0.  0.
        3    1    3    3  502    0 -0.29426126222E+03  0.20559260406E+02 -0.17051287744E+04  0.17304555820E+04  0.10100000352E+00 0. -1.
       -3    1    3    3    0  502  0.29426126222E+03 -0.20559260406E+02  0.10869567094E+04  0.11262714024E+04  0.10100000352E+00 0.  1.
</event>
<event>
 5   0  0.1394410E-06  0.2800571E+04  0.7818609E-02  0.8303091E-01
       -2   -1    0    0    0  501  0.00000000000E+00  0.00000000000E+00  0.10805235324E+04  0.10805235324E+04  0.25500000920E-02 0. -1.
        2   -1    0    0  501    0  0.00000000000E+00  0.00000000000E+00 -0.18146752807E+04  0.18146752807E+04  0.25500000920E-02 0.  1.
    10030    2    1    2    0    0  0.00000000000E+00  0.00000000000E+00 -0.73415174824E+03  0.28951988131E+04  0.28005709022E+04 0.  0.
        4    1    3    3  502    0  0.61664878969E+03  0.10987987819E+04 -0.99860427257E+03  0.16077395930E+04  0.12699999809E+01 0.  1.
       -4    1    3    3    0  502 -0.61664878969E+03 -0.10987987819E+04  0.26445252433E+03  0.12874592201E+04  0.12699999809E+01 0. -1.
</event>
<event>
 5   0  0.1461146E-06  0.2789937E+04  0.7818609E-02  0.8306399E-01
       -2   -1    0    0    0  501  0.00000000000E+00  0.00000000000E+00  0.20137163950E+04  0.20137163950E+04  0.25500000920E-02 0.  1.
        2   -1    0    0  501    0  0.00000000000E+00  0.00000000000E+00 -0.96634094134E+03  0.96634094134E+03  0.25500000920E-02 0. -1.
    10030    2    1    2    0    0  0.00000000000E+00  0.00000000000E+00  0.10473754537E+04  0.29800573363E+04  0.27899366278E+04 0.  0.
        1    1    3    3  502    0  0.63726153265E+03  0.59475130820E+03 -0.63961270552E+03  0.10811733407E+04  0.50400001928E-02 0. -1.
       -1    1    3    3    0  502 -0.63726153265E+03 -0.59475130820E+03  0.16869881592E+04  0.18988839956E+04  0.50400001928E-02 0.  1.
</event>
<event>
 5   0  0.1499888E-06  0.2799223E+04  0.7818609E-02  0.8303510E-01
        2   -1    0    0  501    0  0.00000000000E+00  0.00000000000E+00  0.19796618202E+04  0.19796618202E+04  0.25500000920E-02 0. -1.
       -2   -1    0    0    0  501  0.00000000000E+00  0.00000000000E+00 -0.98951847109E+03  0.98951847110E+03  0.25500000920E-02 0.  1.
    10030    2    1    2    0    0  0.00000000000E+00  0.00000000000E+00  0.99014334906E+03  0.29691802913E+04  0.27992227047E+04 0.  0.
        3    1    3    3  502    0  0.46797686779E+03  0.11194906224E+04 -0.24488727289E+03  0.12378333446E+04  0.10100000352E+00 0.  1.
       -3    1    3    3    0  502 -0.46797686779E+03 -0.11194906224E+04  0.12350306220E+04  0.17313469467E+04  0.10100000352E+00 0. -1.
</event>
<event>
 5   0  0.5297741E-07  0.2799157E+04  0.7818609E-02  0.8303530E-01
        1   -1    0    0  501    0  0.00000000000E+00  0.00000000000E+00  0.12963234002E+04  0.12963234002E+04  0.50400001928E-02 0.  1.
       -1   -1    0    0    0  501  0.00000000000E+00  0.00000000000E+00 -0.15110581367E+04  0.15110581367E+04  0.50400001928E-02 0. -1.
    10030    2    1    2    0    0  0.00000000000E+00  0.00000000000E+00 -0.21473473654E+03  0.28073815370E+04  0.27991570315E+04 0.  0.
        5    1    3    3  502    0 -0.11326996423E+04  0.44388118856E+03 -0.80132447232E+03  0.14567710833E+04  0.46999998093E+01 0. -1.
       -5    1    3    3    0  502  0.11326996423E+04 -0.44388118856E+03  0.58658973579E+03  0.13506104536E+04  0.46999998093E+01 0.  1.
</event>
<event>
 5   0  0.5282098E-07  0.2794090E+04  0.7818609E-02  0.8305105E-01
        1   -1    0    0  501    0  0.00000000000E+00  0.00000000000E+00  0.13702498169E+04  0.13702498169E+04  0.50400001928E-02 0. -1.
       -1   -1    0    0    0  501  0.00000000000E+00  0.00000000000E+00 -0.14243645970E+04  0.14243645970E+04  0.50400001928E-02 0.  1.
    10030    2    1    2    0    0  0.00000000000E+00  0.00000000000E+00 -0.54114780108E+02  0.27946144139E+04  0.27940904268E+04 0.  0.
        4    1    3    3  502    0  0.45111609156E+03 -0.13187715115E+04  0.68195377892E+02  0.13954627369E+04  0.12699999809E+01 0. -1.
       -4    1    3    3    0  502 -0.45111609156E+03  0.13187715115E+04 -0.12231015800E+03  0.13991516770E+04  0.12699999809E+01 0.  1.
</event>
<event>
 5   0  0.5297741E-07  0.2801537E+04  0.7818609E-02  0.8302791E-01
        1   -1    0    0  501    0  0.00000000000E+00  0.00000000000E+00  0.14606050552E+04  0.14606050552E+04  0.50400001928E-02 0. -1.
       -1   -1    0    0    0  501  0.00000000000E+00  0.00000000000E+00 -0.13433831945E+04  0.13433831945E+04  0.50400001928E-02 0.  1.
    10030    2    1    2    0    0  0.00000000000E+00  0.00000000000E+00  0.11722186067E+03  0.28039882497E+04  0.28015369246E+04 0.  0.
        5    1    3    3  502    0  0.64288024139E+03  0.42370152566E+02 -0.11862779976E+04  0.13499510407E+04  0.46999998093E+01 0.  1.
       -5    1    3    3    0  502 -0.64288024139E+03 -0.42370152566E+02  0.13034998583E+04  0.14540372090E+04  0.46999998093E+01 0. -1.
</event>
<event>
 5   0  0.5362952E-07  0.2800474E+04  0.7818609E-02  0.8303121E-01
       -1   -1    0    0    0  501  0.00000000000E+00  0.00000000000E+00  0.14880367729E+04  0.14880367729E+04  0.50400001928E-02 0.  1.
        1   -1    0    0  501    0  0.00000000000E+00  0.00000000000E+00 -0.13176177303E+04  0.13176177303E+04  0.50400001928E-02 0. -1.
    10030    2    1    2    0    0  0.00000000000E+00  0.00000000000E+00  0.17041904260E+03  0.28056545032E+04  0.28004739851E+04 0.  0.
        1    1    3    3  502    0  0.37595842509E+03  0.17433227546E+03  0.14251915546E+04  0.14842194740E+04  0.50400001928E-02 0.  1.
       -1    1    3    3    0  502 -0.37595842509E+03 -0.17433227546E+03 -0.12547725120E+04  0.13214350292E+04  0.50400001928E-02 0. -1.
</event>
<event>
 5   0  0.1394410E-06  0.2798790E+04  0.7818609E-02  0.8303644E-01
       -2   -1    0    0    0  501  0.00000000000E+00  0.00000000000E+00  0.11747308041E+04  0.11747308042E+04  0.25500000920E-02 0. -1.
        2   -1    0    0  501    0  0.00000000000E+00  0.00000000000E+00 -0.16670260299E+04  0.16670260300E+04  0.25500000920E-02 0.  1.
    10030    2    1    2    0    0  0.00000000000E+00  0.00000000000E+00 -0.49229522580E+03  0.28417568341E+04  0.27987903306E+04 0.  0.
        4    1    3    3  502    0 -0.65748614338E+03  0.11698697433E+03  0.10025003393E+04  0.12045673597E+04  0.12699999809E+01 0. -1.
       -4    1    3    3    0  502  0.65748614338E+03 -0.11698697433E+03 -0.14947955651E+04  0.16371894744E+04  0.12699999809E+01 0.  1.
</event>
<event>
 5   0  0.1461146E-06  0.2807538E+04  0.7818609E-02  0.8300932E-01
        2   -1    0    0  501    0  0.00000000000E+00  0.00000000000E+00  0.17836832828E+04  0.17836832828E+04  0.25500000920E-02 0.  1.
       -2   -1    0    0    0  501  0.00000000000E+00  0.00000000000E+00 -0.11047740591E+04  0.11047740591E+04  0.25500000920E-02 0. -1.
    10030    2    1    2    0    0  0.00000000000E+00  0.00000000000E+00  0.67890922367E+03  0.28884573419E+04  0.28075377259E+04 0.  0.
        1    1    3    3  502    0 -0.61418843342E+03 -0.28595055012E+03  0.16043504341E+04  0.17415325045E+04  0.50400001928E-02 0.  1.
       -1    1    3    3    0  502  0.61418843342E+03  0.28595055012E+03 -0.92544121038E+03  0.11469248375E+04  0.50400001928E-02 0. -1.
</event>
<event>
 5   0  0.1377807E-06  0.2790962E+04  0.7818609E-02  0.8306080E-01
       -2   -1    0    0    0  501  0.00000000000E+00  0.00000000000E+00  0.14308031427E+04  0.14308031427E+04  0.25500000920E-02 0. -1.
        2   -1    0    0  501    0  0.00000000000E+00  0.00000000000E+00 -0.13610305840E+04  0.13610305840E+04  0.25500000920E-02 0.  1.
    10030    2    1    2    0    0  0.00000000000E+00  0.00000000000E+00  0.69772558767E+02  0.27918337267E+04  0.27909617245E+04 0.  0.
        2    1    3    3  502    0  0.50681127435E+03 -0.12765399819E+04 -0.21208120587E+03  0.13897447360E+04  0.25500000920E-02 0. -1.
       -2    1    3    3    0  502 -0.50681127435E+03  0.12765399819E+04  0.28185376464E+03  0.14020889907E+04  0.25500000920E-02 0.  1.
</event>
<event>
 5   0  0.5551565E-07  0.2800361E+04  0.7818609E-02  0.8303156E-01
       -1   -1    0    0    0  501  0.00000000000E+00  0.00000000000E+00  0.12878236786E+04  0.12878236786E+04  0.50400001928E-02 0. -1.
        1   -1    0    0  501    0  0.00000000000E+00  0.00000000000E+00 -0.15223400887E+04  0.15223400888E+04  0.50400001928E-02 0.  1.
    10030    2    1    2    0    0  0.00000000000E+00  0.00000000000E+00 -0.23451641017E+03  0.28101637673E+04  0.28003611290E+04 0.  0.
        3    1    3    3  502    0 -0.88384277588E+02  0.10294775762E+04  0.83096732082E+03  0.13259496819E+04  0.10100000352E+00 0. -1.
       -3    1    3    3    0  502  0.88384277588E+02 -0.10294775762E+04 -0.10654837310E+04  0.14842140855E+04  0.10100000352E+00 0.  1.
</event>
<event>
 5   0  0.1499888E-06  0.2805010E+04  0.7818609E-02  0.8301715E-01
        2   -1    0    0  501    0  0.00000000000E+00  0.00000000000E+00  0.19689543270E+04  0.19689543270E+04  0.25500000920E-02 0. -1.
       -2   -1    0    0    0  501  0.00000000000E+00  0.00000000000E+00 -0.99901778489E+03  0.99901778490E+03  0.25500000920E-02 0.  1.
    10030    2    1    2    0    0  0.00000000000E+00  0.00000000000E+00  0.96993654215E+03  0.29679721119E+04  0.28050100822E+04 0.  0.
        3    1    3    3  502    0 -0.10635736140E+04 -0.51311853090E+03  0.12855923646E+04  0.17456308880E+04  0.10100000352E+00 0. -1.
       -3    1    3    3    0  502  0.10635736140E+04  0.51311853090E+03 -0.31565582245E+03  0.12223412239E+04  0.10100000352E+00 0.  1.
</event>
<event>
 5   0  0.1439207E-06  0.2835092E+04  0.7818609E-02  0.8292456E-01
        2   -1    0    0  501    0  0.00000000000E+00  0.00000000000E+00  0.26923496605E+04  0.26923496605E+04  0.25500000920E-02 0.  1.
       -2   -1    0    0    0  501  0.00000000000E+00  0.00000000000E+00 -0.74635055325E+03  0.74635055326E+03  0.25500000920E-02 0. -1.
    10030    2    1    2    0    0  0.00000000000E+00  0.00000000000E+00  0.19459991072E+04  0.34387002137E+04  0.28350919975E+04 0.  0.
        5    1    3    3  502    0 -0.15110360735E+03  0.38502522112E+02  0.26819061846E+04  0.26864395801E+04  0.46999998093E+01 0.  1.
       -5    1    3    3    0  502  0.15110360735E+03 -0.38502522112E+02 -0.73590707740E+03  0.75226063364E+03  0.46999998093E+01 0. -1.
</event>
<event>
 5   0  0.1461146E-06  0.2800805E+04  0.7818609E-02  0.8303019E-01
       -2   -1    0    0    0  501  0.00000000000E+00  0.00000000000E+00  0.19252324151E+04  0.19252324151E+04  0.25500000920E-02 0.  1.
        2   -1    0    0  501    0  0.00000000000E+00  0.00000000000E+00 -0.10186441799E+04  0.10186441799E+04  0.25500000920E-02 0. -1.
    10030    2    1    2    0    0  0.00000000000E+00  0.00000000000E+00  0.90658823512E+03  0.29438765950E+04  0.28008047377E+04 0.  0.
        1    1    3    3  502    0 -0.80943858712E+03  0.47942965981E+03 -0.63704021604E+03  0.11361618995E+04  0.50400001928E-02 0. -1.
       -1    1    3    3    0  502  0.80943858712E+03 -0.47942965981E+03  0.15436284512E+04  0.18077146955E+04  0.50400001928E-02 0.  1.
</event>
<event>
 5   0  0.5551565E-07  0.2793816E+04  0.7818609E-02  0.8305191E-01
        1   -1    0    0  501    0  0.00000000000E+00  0.00000000000E+00  0.17795211586E+04  0.17795211586E+04  0.50400001928E-02 0.  1.
       -1   -1    0    0    0  501  0.00000000000E+00  0.00000000000E+00 -0.10965600355E+04  0.10965600355E+04  0.50400001928E-02 0. -1.
    10030    2    1    2    0    0  0.00000000000E+00  0.00000000000E+00  0.68296112307E+03  0.28760811941E+04  0.27938158743E+04 0.  0.
        3    1    3    3  502    0  0.12161973625E+04 -0.36581790662E+03 -0.25736392175E+03  0.12958375530E+04  0.10100000352E+00 0.  1.
       -3    1    3    3    0  502 -0.12161973625E+04  0.36581790662E+03  0.94032504482E+03  0.15802436412E+04  0.10100000352E+00 0. -1.
</event>
<event>
 5   0  0.5282098E-07  0.2800507E+04  0.7818609E-02  0.8303111E-01
        1   -1    0    0  501    0  0.00000000000E+00  0.00000000000E+00  0.15145861829E+04  0.15145861829E+04  0.50400001928E-02 0. -1.
       -1   -1    0    0    0  501  0.00000000000E+00  0.00000000000E+00 -0.12945512241E+04  0.12945512241E+04  0.50400001928E-02 0.  1.
    10030    2    1    2    0    0  0.00000000000E+00  0.00000000000E+00  0.22003495881E+03  0.28091374070E+04  0.28005066664E+04 0.  0.
        4    1    3    3  502    0  0.88393920616E+02 -0.12261494265E+04  0.78249531406E+03  0.14572427494E+04  0.12699999809E+01 0. -1.
       -4    1    3    3    0  502 -0.88393920616E+02  0.12261494265E+04 -0.56246035525E+03  0.13518946576E+04  0.12699999809E+01 0.  1.
</event>
<event>
 5   0  0.5551565E-07  0.2802740E+04  0.7818609E-02  0.8302418E-01
        1   -1    0    0  501    0  0.00000000000E+00  0.00000000000E+00  0.14108701938E+04  0.14108701938E+04  0.50400001928E-02 0.  1.
       -1   -1    0    0    0  501  0.00000000000E+00  0.00000000000E+00 -0.13919336319E+04  0.13919336319E+04  0.50400001928E-02 0. -1.
    10030    2    1    2    0    0  0.00000000000E+00  0.00000000000E+00  0.18936561954E+02  0.28028038257E+04  0.28027398545E+04 0.  0.
        3    1    3    3  502    0  0.10902493479E+04 -0.75795200494E+02 -0.86773422403E+03  0.13954752763E+04  0.10100000352E+00 0. -1.
       -3    1    3    3    0  502 -0.10902493479E+04  0.75795200494E+02  0.88667078598E+03  0.14073285494E+04  0.10100000352E+00 0.  1.
</event>
<event>
 5   0  0.1394410E-06  0.2801382E+04  0.7818609E-02  0.8302840E-01
        2   -1    0    0  501    0  0.00000000000E+00  0.00000000000E+00  0.12819667921E+04  0.12819667921E+04  0.25500000920E-02 0. -1.
       -2   -1    0    0    0  501  0.00000000000E+00  0.00000000000E+00 -0.15304101381E+04  0.15304101381E+04  0.25500000920E-02 0.  1.
    10030    2    1    2    0    0  0.00000000000E+00  0.00000000000E+00 -0.24844334600E+03  0.28123769303E+04  0.28013817844E+04 0.  0.
        4    1    3    3  502    0  0.67705319539E+03 -0.66729006733E+02  0.11049529051E+04  0.12976040710E+04  0.12699999809E+01 0. -1.
       -4    1    3    3    0  502 -0.67705319539E+03  0.66729006733E+02 -0.13533962511E+04  0.15147728593E+04  0.12699999809E+01 0.  1.
</event>
<event>
 5   0  0.1439207E-06  0.2792523E+04  0.7818609E-02  0.8305594E-01
       -2   -1    0    0    0  501  0.00000000000E+00  0.00000000000E+00  0.15681725641E+04  0.15681725641E+04  0.25500000920E-02 0. -1.
        2   -1    0    0  501    0  0.00000000000E+00  0.00000000000E+00 -0.12431959674E+04  0.12431959674E+04  0.25500000920E-02 0.  1.
    10030    2    1    2    0    0  0.00000000000E+00  0.00000000000E+00  0.32497659673E+03  0.28113685315E+04  0.27925227361E+04 0.  0.
        5    1    3    3  502    0  0.45463364244E+03 -0.76814056249E+03 -0.91843915485E+03  0.12807358212E+04  0.46999998093E+01 0.  1.
       -5    1    3    3    0  502 -0.45463364244E+03  0.76814056249E+03  0.12434157516E+04  0.15306327103E+04  0.46999998093E+01 0. -1.
</event>
<event>
 5   0  0.1377807E-06  0.2735392E+04  0.7818609E-02  0.8323612E-01
       -2   -1    0    0    0  501  0.00000000000E+00  0.00000000000E+00  0.12873266202E+04  0.12873266202E+04  0.25500000920E-02 0. -1.
        2   -1    0    0  501    0  0.00000000000E+00  0.00000000000E+00 -0.14530831390E+04  0.14530831390E+04  0.25500000920E-02 0.  1.
    10030    2    1    2    0    0  0.00000000000E+00  0.00000000000E+00 -0.16575651884E+03  0.27404097592E+04  0.27353921885E+04 0.  0.
        2    1    3    3  502    0  0.11084676021E+04 -0.72685169088E+03 -0.42051099104E+03  0.13906269446E+04  0.25500000920E-02 0. -1.
       -2    1    3    3    0  502 -0.11084676021E+04  0.72685169088E+03  0.25475447219E+03  0.13497828146E+04  0.25500000920E-02 0.  1.
</event>
<event>
 5   0  0.1499888E-06  0.2784605E+04  0.7818609E-02  0.8308064E-01
        2   -1    0    0  501    0  0.00000000000E+00  0.00000000000E+00  0.10563496375E+04  0.10563496375E+04  0.25500000920E-02 0. -1.
       -2   -1    0    0    0  501  0.00000000000E+00  0.00000000000E+00 -0.18350994633E+04  0.18350994633E+04  0.25500000920E-02 0.  1.
    10030    2    1    2    0    0  0.00000000000E+00  0.00000000000E+00 -0.77874982580E+03  0.28914491007E+04  0.27846052882E+04 0.  0.
        3    1    3    3  502    0 -0.62495289251E+03 -0.95231334454E+03 -0.12207450326E+04  0.16696362684E+04  0.10100000352E+00 0.  1.
       -3    1    3    3    0  502  0.62495289251E+03  0.95231334454E+03  0.44199520681E+03  0.12218128323E+04  0.10100000352E+00 0. -1.
</event>
<event>
 5   0  0.1377807E-06  0.2810001E+04  0.7818609E-02  0.8300170E-01
        2   -1    0    0  501    0  0.00000000000E+00  0.00000000000E+00  0.13612951186E+04  0.13612951186E+04  0.25500000920E-02 0. -1.
       -2   -1    0    0    0  501  0.00000000000E+00  0.00000000000E+00 -0.14501090285E+04  0.14501090285E+04  0.25500000920E-02 0.  1.
    10030    2    1    2    0    0  0.00000000000E+00  0.00000000000E+00 -0.88813909916E+02  0.28114041470E+04  0.28100009551E+04 0.  0.
        2    1    3    3  502    0 -0.26831473865E+03  0.96918992477E+03  0.93725802756E+03  0.13746906996E+04  0.25500000920E-02 0. -1.
       -2    1    3    3    0  502  0.26831473865E+03 -0.96918992477E+03 -0.10260719375E+04  0.14367134475E+04  0.25500000920E-02 0.  1.
</event>
<event>
 5   0  0.1499888E-06  0.2800021E+04  0.7818609E-02  0.8303262E-01
        2   -1    0    0  501    0  0.00000000000E+00  0.00000000000E+00  0.11583671680E+04  0.11583671680E+04  0.25500000920E-02 0.  1.
       -2   -1    0    0    0  501  0.00000000000E+00  0.00000000000E+00 -0.16920624530E+04  0.16920624530E+04  0.25500000920E-02 0. -1.
    10030    2    1    2    0    0  0.00000000000E+00  0.00000000000E+00 -0.53369528501E+03  0.28504296211E+04  0.28000211370E+04 0.  0.
        3    1    3    3  502    0 -0.20683193255E+03 -0.11227702840E+04 -0.10917673811E+04  0.15796672383E+04  0.10100000352E+00 0. -1.
       -3    1    3    3    0  502  0.20683193255E+03  0.11227702840E+04  0.55807209613E+03  0.12707623828E+04  0.10100000352E+00 0.  1.
</event>
<event>
 5   0  0.1499888E-06  0.2797792E+04  0.7818609E-02  0.8303954E-01
       -2   -1    0    0    0  501  0.00000000000E+00  0.00000000000E+00  0.19255374055E+04  0.19255374055E+04  0.25500000920E-02 0. -1.
        2   -1    0    0  501    0  0.00000000000E+00  0.00000000000E+00 -0.10162930975E+04  0.10162930975E+04  0.25500000920E-02 0.  1.
    10030    2    1    2    0    0  0.00000000000E+00  0.00000000000E+00  0.90924430804E+03  0.29418305029E+04  0.27977922540E+04 0.  0.
        3    1    3    3  502    0 -0.42087387521E+03 -0.59677419356E+03  0.17092117462E+04  0.18586766961E+04  0.10100000352E+00 0. -1.
       -3    1    3    3    0  502  0.42087387521E+03  0.59677419356E+03 -0.79996743820E+03  0.10831538069E+04  0.10100000352E+00 0.  1.
</event>
<event>
 5   0  0.1394410E-06  0.2801018E+04  0.7818609E-02  0.8302952E-01
       -2   -1    0    0    0  501  0.00000000000E+00  0.00000000000E+00  0.17454020040E+04  0.17454020040E+04  0.25500000920E-02 0. -1.
        2   -1    0    0  501    0  0.00000000000E+00  0.00000000000E+00 -0.11237673050E+04  0.11237673050E+04  0.25500000920E-02 0.  1.
    10030    2    1    2    0    0  0.00000000000E+00  0.00000000000E+00  0.62163469899E+03  0.28691693090E+04  0.28010181764E+04 0.  0.
        4    1    3    3  502    0 -0.34564687404E+03  0.12942381819E+04  0.72929111417E+03  0.15252512498E+04  0.12699999809E+01 0. -1.
       -4    1    3    3    0  502  0.34564687404E+03 -0.12942381819E+04 -0.10765641518E+03  0.13439180591E+04  0.12699999809E+01 0.  1.
</event>
<event>
 5   0  0.5297741E-07  0.2799512E+04  0.7818609E-02  0.8303420E-01
        1   -1    0    0  501    0  0.00000000000E+00  0.00000000000E+00  0.19008211485E+04  0.19008211485E+04  0.50400001928E-02 0. -1.
       -1   -1    0    0    0  501  0.00000000000E+00  0.00000000000E+00 -0.10307736869E+04  0.10307736869E+04  0.50400001928E-02 0.  1.
    10030    2    1    2    0    0  0.00000000000E+00  0.00000000000E+00  0.87004746159E+03  0.29315948354E+04  0.27995116884E+04 0.  0.
        5    1    3    3  502    0 -0.43816901482E+03  0.45070565494E+03 -0.87465017693E+03  0.10771084880E+04  0.46999998093E+01 0.  1.
       -5    1    3    3    0  502  0.43816901482E+03 -0.45070565494E+03  0.17446976385E+04  0.18544863474E+04  0.46999998093E+01 0. -1.
</event>
<event>
 5   0  0.5214658E-07  0.2798886E+04  0.7818609E-02  0.8303614E-01
        1   -1    0    0  501    0  0.00000000000E+00  0.00000000000E+00  0.10327245143E+04  0.10327245143E+04  0.50400001928E-02 0.  1.
       -1   -1    0    0    0  501  0.00000000000E+00  0.00000000000E+00 -0.18963824163E+04  0.18963824163E+04  0.50400001928E-02 0. -1.
    10030    2    1    2    0    0  0.00000000000E+00  0.00000000000E+00 -0.86365790198E+03  0.29291069306E+04  0.27988859283E+04 0.  0.
        2    1    3    3  502    0  0.99730113832E+03 -0.95922636216E+03 -0.21301781580E+03  0.14000362010E+04  0.25500000920E-02 0. -1.
       -2    1    3    3    0  502 -0.99730113832E+03  0.95922636216E+03 -0.65064008618E+03  0.15290707296E+04  0.25500000920E-02 0.  1.
</event>
<event>
 5   0  0.5214658E-07  0.2799396E+04  0.7818609E-02  0.8303456E-01
        1   -1    0    0  501    0  0.00000000000E+00  0.00000000000E+00  0.13349306475E+04  0.13349306476E+04  0.50400001928E-02 0. -1.
       -1   -1    0    0    0  501  0.00000000000E+00  0.00000000000E+00 -0.14676075358E+04  0.14676075358E+04  0.50400001928E-02 0.  1.
    10030    2    1    2    0    0  0.00000000000E+00  0.00000000000E+00 -0.13267688830E+03  0.28025381834E+04  0.27993958478E+04 0.  0.
        2    1    3    3  502    0 -0.10587988800E+03 -0.68706711190E+03 -0.12825611793E+04  0.14588471290E+04  0.25500000920E-02 0.  1.
       -2    1    3    3    0  502  0.10587988800E+03  0.68706711190E+03  0.11498842911E+04  0.13436910544E+04  0.25500000920E-02 0. -1.
</event>
<event>
 5   0  0.5551565E-07  0.2798874E+04  0.7818609E-02  0.8303618E-01
       -1   -1    0    0    0  501  0.00000000000E+00  0.00000000000E+00  0.15406827350E+04  0.15406827350E+04  0.50400001928E-02 0.  1.
        1   -1    0    0  501    0  0.00000000000E+00  0.00000000000E+00 -0.12711404975E+04  0.12711404975E+04  0.50400001928E-02 0. -1.
    10030    2    1    2    0    0  0.00000000000E+00  0.00000000000E+00  0.26954223751E+03  0.28118232325E+04  0.27988742153E+04 0.  0.
        3    1    3    3  502    0  0.31847015260E+03  0.53133349887E+03  0.13954415689E+04  0.15267598723E+04  0.10100000352E+00 0.  1.
       -3    1    3    3    0  502 -0.31847015260E+03 -0.53133349887E+03 -0.11258993314E+04  0.12850633602E+04  0.10100000352E+00 0. -1.
</event>
<event>
 5   0  0.1461146E-06  0.2796427E+04  0.7818609E-02  0.8304379E-01
        2   -1    0    0  501    0  0.00000000000E+00  0.00000000000E+00  0.17062399554E+04  0.17062399554E+04  0.25500000920E-02 0. -1.
       -2   -1    0    0    0  501  0.00000000000E+00  0.00000000000E+00 -0.11457946636E+04  0.11457946636E+04  0.25500000920E-02 0.  1.
    10030    2    1    2    0    0  0.00000000000E+00  0.00000000000E+00  0.56044529181E+03  0.28520346190E+04  0.27964267455E+04 0.  0.
        1    1    3    3  502    0  0.55348198274E+03 -0.63044544094E+03  0.14210348841E+04  0.16501951100E+04  0.50400001928E-02 0. -1.
       -1    1    3    3    0  502 -0.55348198274E+03  0.63044544094E+03 -0.86058959226E+03  0.12018395091E+04  0.50400001928E-02 0.  1.
</event>
<event>
 5   0  0.5551565E-07  0.2794515E+04  0.7818609E-02  0.8304973E-01
        1   -1    0    0  501    0  0.00000000000E+00  0.00000000000E+00  0.16584327392E+04  0.16584327392E+04  0.50400001928E-02 0. -1.
       -1   -1    0    0    0  501  0.00000000000E+00  0.00000000000E+00 -0.11772132020E+04  0.11772132020E+04  0.50400001928E-02 0.  1.
    10030    2    1    2    0    0  0.00000000000E+00  0.00000000000E+00  0.48121953713E+03  0.28356459412E+04  0.27945152819E+04 0.  0.
        3    1    3    3  502    0 -0.38891521949E+03  0.76500361203E+03  0.13594918618E+04  0.16077013737E+04  0.10100000352E+00 0. -1.
       -3    1    3    3    0  502  0.38891521949E+03 -0.76500361203E+03 -0.87827232470E+03  0.12279445675E+04  0.10100000352E+00 0.  1.
</event>
<event>
 5   0  0.1499888E-06  0.2781754E+04  0.7818609E-02  0.8308955E-01
        2   -1    0    0  501    0  0.00000000000E+00  0.00000000000E+00  0.20789799808E+04  0.20789799808E+04  0.25500000920E-02 0. -1.
       -2   -1    0    0    0  501  0.00000000000E+00  0.00000000000E+00 -0.93052322569E+03  0.93052322570E+03  0.25500000920E-02 0.  1.
    10030    2    1    2    0    0  0.00000000000E+00  0.00000000000E+00  0.11484567551E+04  0.30095032065E+04  0.27817542364E+04 0.  0.
        3    1    3    3  502    0 -0.11148925709E+04  0.31276389841E+03 -0.25939799207E+03  0.11866313788E+04  0.10100000352E+00 0.  1.
       -3    1    3    3    0  502  0.11148925709E+04 -0.31276389841E+03  0.14078547472E+04  0.18228718277E+04  0.10100000352E+00 0. -1.
</event>
<event>
 5   0  0.5362952E-07  0.2815322E+04  0.7818609E-02  0.8298527E-01
        1   -1    0    0  501    0  0.00000000000E+00  0.00000000000E+00  0.11586007605E+04  0.11586007606E+04  0.50400001928E-02 0.  1.
       -1   -1    0    0    0  501  0.00000000000E+00  0.00000000000E+00 -0.17102602977E+04  0.17102602977E+04  0.50400001928E-02 0. -1.
    10030    2    1    2    0    0  0.00000000000E+00  0.00000000000E+00 -0.55165953717E+03  0.28688610583E+04  0.28153215672E+04 0.  0.
        1    1    3    3  502    0 -0.32359328794E+02  0.10352641475E+04  0.69555068161E+03  0.12476416681E+04  0.50400001928E-02 0.  1.
       -1    1    3    3    0  502  0.32359328794E+02 -0.10352641475E+04 -0.12472102188E+04  0.16212193902E+04  0.50400001928E-02 0. -1.
</event>
<event>
 5   0  0.1394410E-06  0.2786511E+04  0.7818609E-02  0.8307468E-01
       -2   -1    0    0    0  501  0.00000000000E+00  0.00000000000E+00  0.92178581352E+03  0.92178581352E+03  0.25500000920E-02 0.  1.
        2   -1    0    0  501    0  0.00000000000E+00  0.00000000000E+00 -0.21058702603E+04  0.21058702604E+04  0.25500000920E-02 0. -1.
    10030    2    1    2    0    0  0.00000000000E+00  0.00000000000E+00 -0.11840844468E+04  0.30276560739E+04  0.27865113178E+04 0.  0.
        4    1    3    3  502    0  0.34110765721E+03 -0.75228116392E+03  0.62705294032E+03  0.10370527403E+04  0.12699999809E+01 0.  1.
       -4    1    3    3    0  502 -0.34110765721E+03  0.75228116392E+03 -0.18111373872E+04  0.19906033335E+04  0.12699999809E+01 0. -1.
</event>
<event>
 5   0  0.1394410E-06  0.2798991E+04  0.7818609E-02  0.8303582E-01
       -2   -1    0    0    0  501  0.00000000000E+00  0.00000000000E+00  0.88906348446E+03  0.88906348446E+03  0.25500000920E-02 0.  1.
        2   -1    0    0  501    0  0.00000000000E+00  0.00000000000E+00 -0.22029779299E+04  0.22029779299E+04  0.25500000920E-02 0. -1.
    10030    2    1    2    0    0  0.00000000000E+00  0.00000000000E+00 -0.13139144454E+04  0.30920414143E+04  0.27989906999E+04 0.  0.
        4    1    3    3  502    0 -0.78384348047E+03 -0.48484961903E+03  0.50644098419E+03  0.10516529077E+04  0.12699999809E+01 0.  1.
       -4    1    3    3    0  502  0.78384348047E+03  0.48484961903E+03 -0.18203554296E+04  0.20403885066E+04  0.12699999809E+01 0. -1.
</event>
<event>
 5   0  0.5297741E-07  0.2799086E+04  0.7818609E-02  0.8303552E-01
       -1   -1    0    0    0  501  0.00000000000E+00  0.00000000000E+00  0.90964366010E+03  0.90964366011E+03  0.50400001928E-02 0. -1.
        1   -1    0    0  501    0  0.00000000000E+00  0.00000000000E+00 -0.21532826897E+04  0.21532826897E+04  0.50400001928E-02 0.  1.
    10030    2    1    2    0    0  0.00000000000E+00  0.00000000000E+00 -0.12436390296E+04  0.30629263499E+04  0.27990855272E+04 0.  0.
        5    1    3    3  502    0  0.13209402741E+04 -0.89835703713E+02 -0.12547390910E+03  0.13299321236E+04  0.46999998093E+01 0. -1.
       -5    1    3    3    0  502 -0.13209402741E+04  0.89835703713E+02 -0.11181651205E+04  0.17329942263E+04  0.46999998093E+01 0.  1.
</event>
<event>
 5   0  0.5551565E-07  0.2815639E+04  0.7818609E-02  0.8298430E-01
        1   -1    0    0  501    0  0.00000000000E+00  0.00000000000E+00  0.20071030487E+04  0.20071030487E+04  0.50400001928E-02 0. -1.
       -1   -1    0    0    0  501  0.00000000000E+00  0.00000000000E+00 -0.98747061981E+03  0.98747061982E+03  0.50400001928E-02 0.  1.
    10030    2    1    2    0    0  0.00000000000E+00  0.00000000000E+00  0.10196324289E+04  0.29945736686E+04  0.28156386782E+04 0.  0.
        3    1    3    3  502    0 -0.67949887605E+03  0.10420789911E+04 -0.19108524007E+03  0.12586345480E+04  0.10100000352E+00 0. -1.
       -3    1    3    3    0  502  0.67949887605E+03 -0.10420789911E+04  0.12107176690E+04  0.17359391206E+04  0.10100000352E+00 0.  1.
</event>
<event>
 5   0  0.5214658E-07  0.2806420E+04  0.7818609E-02  0.8301278E-01
        1   -1    0    0  501    0  0.00000000000E+00  0.00000000000E+00  0.25221319434E+04  0.25221319434E+04  0.50400001928E-02 0. -1.
       -1   -1    0    0    0  501  0.00000000000E+00  0.00000000000E+00 -0.78068779506E+03  0.78068779508E+03  0.50400001928E-02 0.  1.
    10030    2    1    2    0    0  0.00000000000E+00  0.00000000000E+00  0.17414441484E+04  0.33028197385E+04  0.28064195166E+04 0.  0.
        2    1    3    3  502    0  0.12813583436E+04 -0.51251128879E+03  0.11694981109E+04  0.18089424692E+04  0.25500000920E-02 0. -1.
       -2    1    3    3    0  502 -0.12813583436E+04  0.51251128879E+03  0.57194603750E+03  0.14938772692E+04  0.25500000920E-02 0.  1.
</event>
<event>
 5   0  0.1394410E-06  0.2809572E+04  0.7818609E-02  0.8300303E-01
       -2   -1    0    0    0  501  0.00000000000E+00  0.00000000000E+00  0.26855260068E+04  0.26855260068E+04  0.25500000920E-02 0.  1.
        2   -1    0    0  501    0  0.00000000000E+00  0.00000000000E+00 -0.73483719719E+03  0.73483719719E+03  0.25500000920E-02 0. -1.
    10030    2    1    2    0    0  0.00000000000E+00  0.00000000000E+00  0.19506888096E+04  0.34203632040E+04  0.28095724969E+04 0.  0.
        4    1    3    3  502    0 -0.96993002080E+02  0.14013897517E+04  0.96190265946E+03  0.17025155558E+04  0.12699999809E+01 0.  1.
       -4    1    3    3    0  502  0.96993002080E+02 -0.14013897517E+04  0.98878615012E+03  0.17178476481E+04  0.12699999809E+01 0. -1.
</event>
<event>
 5   0  0.5551565E-07  0.2799973E+04  0.7818609E-02  0.8303277E-01
        1   -1    0    0  501    0  0.00000000000E+00  0.00000000000E+00  0.32866178037E+04  0.32866178037E+04  0.50400001928E-02 0. -1.
       -1   -1    0    0    0  501  0.00000000000E+00  0.00000000000E+00 -0.59634643417E+03  0.59634643419E+03  0.50400001928E-02 0.  1.
    10030    2    1    2    0    0  0.00000000000E+00  0.00000000000E+00  0.26902713695E+04  0.38829642379E+04  0.27999734340E+04 0.  0.
        3    1    3    3  502    0  0.11334910201E+04 -0.57481145422E+03  0.53087528132E+03  0.13773302709E+04  0.10100000352E+00 0.  1.
       -3    1    3    3    0  502 -0.11334910201E+04  0.57481145422E+03  0.21593960882E+04  0.25056339670E+04  0.10100000352E+00 0. -1.
</event>
<event>
 5   0  0.1377807E-06  0.2803918E+04  0.7818609E-02  0.8302053E-01
       -2   -1    0    0    0  501  0.00000000000E+00  0.00000000000E+00  0.77719810621E+03  0.77719810622E+03  0.25500000920E-02 0.  1.
        2   -1    0    0  501    0  0.00000000000E+00  0.00000000000E+00 -0.25289426385E+04  0.25289426385E+04  0.25500000920E-02 0. -1.
    10030    2    1    2    0    0  0.00000000000E+00  0.00000000000E+00 -0.17517445323E+04  0.33061407448E+04  0.28039182794E+04 0.  0.
        2    1    3    3  502    0 -0.13130490533E+04 -0.47674687009E+03 -0.73584014298E+03  0.15788749509E+04  0.25500000920E-02 0.  1.
       -2    1    3    3    0  502  0.13130490533E+04  0.47674687009E+03 -0.10159043893E+04  0.17272657939E+04  0.25500000920E-02 0. -1.
</event>
<event>
 5   0  0.1394410E-06  0.2806087E+04  0.7818609E-02  0.8301381E-01
        2   -1    0    0  501    0  0.00000000000E+00  0.00000000000E+00  0.20590279728E+04  0.20590279728E+04  0.25500000920E-02 0. -1.
       -2   -1    0    0    0  501  0.00000000000E+00  0.00000000000E+00 -0.95604841601E+03  0.95604841602E+03  0.25500000920E-02 0.  1.
    10030    2    1    2    0    0  0.00000000000E+00  0.00000000000E+00  0.11029795568E+04  0.30150763889E+04  0.28060865503E+04 0.  0.
        4    1    3    3  502    0 -0.63958393264E+03 -0.10084756171E+04  0.13428466310E+04  0.17970334901E+04  0.12699999809E+01 0.  1.
       -4    1    3    3    0  502  0.63958393264E+03  0.10084756171E+04 -0.23986707414E+03  0.12180428988E+04  0.12699999809E+01 0. -1.
</event>
<event>
 5   0  0.5297741E-07  0.2806131E+04  0.7818609E-02  0.8301367E-01
        1   -1    0    0  501    0  0.00000000000E+00  0.00000000000E+00  0.15928921591E+04  0.15928921591E+04  0.50400001928E-02 0. -1.
       -1   -1    0    0    0  501  0.00000000000E+00  0.00000000000E+00 -0.12358609703E+04  0.12358609703E+04  0.50400001928E-02 0.  1.
    10030    2    1    2    0    0  0.00000000000E+00  0.00000000000E+00  0.35703118882E+03  0.28287531294E+04  0.28061313222E+04 0.  0.
        5    1    3    3  502    0 -0.18277787588E+02 -0.27653172726E+03 -0.12079877180E+04  0.12393789939E+04  0.46999998093E+01 0.  1.
       -5    1    3    3    0  502  0.18277787588E+02  0.27653172726E+03  0.15650189068E+04  0.15893741355E+04  0.46999998093E+01 0. -1.
</event>
<event>
 5   0  0.5214658E-07  0.2785736E+04  0.7818609E-02  0.8307710E-01
        1   -1    0    0  501    0  0.00000000000E+00  0.00000000000E+00  0.11262652871E+04  0.11262652872E+04  0.50400001928E-02 0. -1.
       -1   -1    0    0    0  501  0.00000000000E+00  0.00000000000E+00 -0.17225798533E+04  0.17225798533E+04  0.50400001928E-02 0.  1.
    10030    2    1    2    0    0  0.00000000000E+00  0.00000000000E+00 -0.59631456613E+03  0.28488451404E+04  0.27857364506E+04 0.  0.
        2    1    3    3  502    0 -0.99113911562E+03 -0.97861316443E+03 -0.30473899683E+03  0.14258002414E+04  0.25500000920E-02 0. -1.
       -2    1    3    3    0  502  0.99113911562E+03  0.97861316443E+03 -0.29157556930E+03  0.14230448991E+04  0.25500000920E-02 0.  1.
</event>
<event>
 5   0  0.1377807E-06  0.2802426E+04  0.7818609E-02  0.8302516E-01
       -2   -1    0    0    0  501  0.00000000000E+00  0.00000000000E+00  0.72812934088E+03  0.72812934089E+03  0.25500000920E-02 0. -1.
        2   -1    0    0  501    0  0.00000000000E+00  0.00000000000E+00 -0.26964950843E+04  0.26964950843E+04  0.25500000920E-02 0.  1.
    10030    2    1    2    0    0  0.00000000000E+00  0.00000000000E+00 -0.19683657434E+04  0.34246244251E+04  0.28024255126E+04 0.  0.
        2    1    3    3  502    0  0.52914664093E+03  0.82350964644E+02 -0.25665093935E+04  0.26217834227E+04  0.25500000920E-02 0.  1.
       -2    1    3    3    0  502 -0.52914664093E+03 -0.82350964644E+02  0.59814365010E+03  0.80284100241E+03  0.25500000920E-02 0. -1.
</event>
<event>
 5   0  0.1499888E-06  0.2798971E+04  0.7818609E-02  0.8303588E-01
        2   -1    0    0  501    0  0.00000000000E+00  0.00000000000E+00  0.10630135840E+04  0.10630135840E+04  0.25500000920E-02 0. -1.
       -2   -1    0    0    0  501  0.00000000000E+00  0.00000000000E+00 -0.18424597473E+04  0.18424597473E+04  0.25500000920E-02 0.  1.
    10030    2    1    2    0    0  0.00000000000E+00  0.00000000000E+00 -0.77944616327E+03  0.29054733313E+04  0.27989710534E+04 0.  0.
        3    1    3    3  502    0  0.60243839615E+03  0.22445247190E+03  0.90065712693E+03  0.11065686620E+04  0.10100000352E+00 0. -1.
       -3    1    3    3    0  502 -0.60243839615E+03 -0.22445247190E+03 -0.16801032902E+04  0.17989046693E+04  0.10100000352E+00 0.  1.
</event>
<event>
 5   0  0.1439207E-06  0.2809446E+04  0.7818609E-02  0.8300342E-01
       -2   -1    0    0    0  501  0.00000000000E+00  0.00000000000E+00  0.12498339114E+04  0.12498339114E+04  0.25500000920E-02 0. -1.
        2   -1    0    0  501    0  0.00000000000E+00  0.00000000000E+00 -0.15788070562E+04  0.15788070562E+04  0.25500000920E-02 0.  1.
    10030    2    1    2    0    0  0.00000000000E+00  0.00000000000E+00 -0.32897314485E+03  0.28286409676E+04  0.28094459229E+04 0.  0.
        5    1    3    3  502    0  0.11600463732E+04  0.78489872990E+03 -0.56746554843E+02  0.14017902360E+04  0.46999998093E+01 0. -1.
       -5    1    3    3    0  502 -0.11600463732E+04 -0.78489872990E+03 -0.27222659001E+03  0.14268507317E+04  0.46999998093E+01 0.  1.
</event>
<event>
 5   0  0.5214658E-07  0.2801400E+04  0.7818609E-02  0.8302834E-01
        1   -1    0    0  501    0  0.00000000000E+00  0.00000000000E+00  0.15711104525E+04  0.15711104526E+04  0.50400001928E-02 0. -1.
       -1   -1    0    0    0  501  0.00000000000E+00  0.00000000000E+00 -0.12487727789E+04  0.12487727789E+04  0.50400001928E-02 0.  1.
    10030    2    1    2    0    0  0.00000000000E+00  0.00000000000E+00  0.32233767363E+03  0.28198832315E+04  0.28013996258E+04 0.  0.
        2    1    3    3  502    0 -0.38685344399E+03 -0.39792912588E+03  0.14557167778E+04  0.15579199317E+04  0.25500000920E-02 0. -1.
       -2    1    3    3    0  502  0.38685344399E+03  0.39792912588E+03 -0.11333791042E+04  0.12619632998E+04  0.25500000920E-02 0.  1.
</event>
<event>
 5   0  0.1377807E-06  0.2753918E+04  0.7818609E-02  0.8317719E-01
        2   -1    0    0  501    0  0.00000000000E+00  0.00000000000E+00  0.19373280358E+04  0.19373280358E+04  0.25500000920E-02 0. -1.
       -2   -1    0    0    0  501  0.00000000000E+00  0.00000000000E+00 -0.97867598561E+03  0.97867598561E+03  0.25500000920E-02 0.  1.
    10030    2    1    2    0    0  0.00000000000E+00  0.00000000000E+00  0.95865205016E+03  0.29160040214E+04  0.27539182449E+04 0.  0.
        2    1    3    3  502    0 -0.28026467152E+03 -0.53431891851E+03 -0.83125057244E+03  0.10271428854E+04  0.25500000920E-02 0.  1.
       -2    1    3    3    0  502  0.28026467152E+03  0.53431891851E+03  0.17899026226E+04  0.18888611360E+04  0.25500000920E-02 0. -1.
</event>
<event>
 5   0  0.5214658E-07  0.2803447E+04  0.7818609E-02  0.8302199E-01
       -1   -1    0    0    0  501  0.00000000000E+00  0.00000000000E+00  0.94736587506E+03  0.94736587507E+03  0.50400001928E-02 0. -1.
        1   -1    0    0  501    0  0.00000000000E+00  0.00000000000E+00 -0.20739921978E+04  0.20739921978E+04  0.50400001928E-02 0.  1.
    10030    2    1    2    0    0  0.00000000000E+00  0.00000000000E+00 -0.11266263227E+04  0.30213580729E+04  0.28034474729E+04 0.  0.
        2    1    3    3  502    0  0.10235944451E+04 -0.70182472487E+02 -0.15926200373E+04  0.18944945898E+04  0.25500000920E-02 0.  1.
       -2    1    3    3    0  502 -0.10235944451E+04  0.70182472487E+02  0.46599371458E+03  0.11268634831E+04  0.25500000920E-02 0. -1.
</event>
<event>
 5   0  0.1439207E-06  0.2801158E+04  0.7818609E-02  0.8302909E-01
       -2   -1    0    0    0  501  0.00000000000E+00  0.00000000000E+00  0.11905443519E+04  0.11905443519E+04  0.25500000920E-02 0. -1.
        2   -1    0    0  501    0  0.00000000000E+00  0.00000000000E+00 -0.16476682415E+04  0.16476682415E+04  0.25500000920E-02 0.  1.
    10030    2    1    2    0    0  0.00000000000E+00  0.00000000000E+00 -0.45712388954E+03  0.28382125934E+04  0.28011584166E+04 0.  0.
        5    1    3    3  502    0 -0.77368325118E+03  0.96675075128E+03  0.43462451888E+03  0.13122931649E+04  0.46999998093E+01 0. -1.
       -5    1    3    3    0  502  0.77368325118E+03 -0.96675075128E+03 -0.89174840842E+03  0.15259194285E+04  0.46999998093E+01 0.  1.
</event>
<event>
 5   0  0.5362952E-07  0.2802571E+04  0.7818609E-02  0.8302471E-01
        1   -1    0    0  501    0  0.00000000000E+00  0.00000000000E+00  0.15947595753E+04  0.15947595753E+04  0.50400001928E-02 0. -1.
       -1   -1    0    0    0  501  0.00000000000E+00  0.00000000000E+00 -0.12312837286E+04  0.12312837286E+04  0.50400001928E-02 0.  1.
    10030    2    1    2    0    0  0.00000000000E+00  0.00000000000E+00  0.36347584670E+03  0.28260433039E+04  0.28025713308E+04 0.  0.
        1    1    3    3  502    0  0.20230099928E+02  0.13728555574E+04 -0.10071491953E+03  0.13766935511E+04  0.50400001928E-02 0.  1.
       -1    1    3    3    0  502 -0.20230099928E+02 -0.13728555574E+04  0.46419076623E+03  0.14493497528E+04  0.50400001928E-02 0. -1.
</event>
<event>
 5   0  0.5282098E-07  0.2801140E+04  0.7818609E-02  0.8302915E-01
        1   -1    0    0  501    0  0.00000000000E+00  0.00000000000E+00  0.14603817584E+04  0.14603817584E+04  0.50400001928E-02 0.  1.
       -1   -1    0    0    0  501  0.00000000000E+00  0.00000000000E+00 -0.13432077097E+04  0.13432077097E+04  0.50400001928E-02 0. -1.
    10030    2    1    2    0    0  0.00000000000E+00  0.00000000000E+00  0.11717404869E+03  0.28035894681E+04  0.28011397944E+04 0.  0.
        4    1    3    3  502    0  0.28070437100E+03 -0.22150079683E+03  0.14139266815E+04  0.14584402011E+04  0.12699999809E+01 0.  1.
       -4    1    3    3    0  502 -0.28070437100E+03  0.22150079683E+03 -0.12967526328E+04  0.13451492670E+04  0.12699999809E+01 0. -1.
</event>
<event>
 5   0  0.5362952E-07  0.2802385E+04  0.7818609E-02  0.8302528E-01
       -1   -1    0    0    0  501  0.00000000000E+00  0.00000000000E+00  0.13373633114E+04  0.13373633114E+04  0.50400001928E-02 0.  1.
        1   -1    0    0  501    0  0.00000000000E+00  0.00000000000E+00 -0.14680677043E+04  0.14680677043E+04  0.50400001928E-02 0. -1.
    10030    2    1    2    0    0  0.00000000000E+00  0.00000000000E+00 -0.13070439287E+03  0.28054310157E+04  0.28023846177E+04 0.  0.
        1    1    3    3  502    0  0.10126638317E+04 -0.50548906339E+03 -0.89228445179E+03  0.14412420935E+04  0.50400001928E-02 0. -1.
       -1    1    3    3    0  502 -0.10126638317E+04  0.50548906339E+03  0.76158005892E+03  0.13641889222E+04  0.50400001928E-02 0.  1.
</event>
<event>
 5   0  0.1439207E-06  0.2799372E+04  0.7818609E-02  0.8303463E-01
       -2   -1    0    0    0  501  0.00000000000E+00  0.00000000000E+00  0.16015879301E+04  0.16015879301E+04  0.25500000920E-02 0.  1.
        2   -1    0    0  501    0  0.00000000000E+00  0.00000000000E+00 -0.12232365568E+04  0.12232365568E+04  0.25500000920E-02 0. -1.
    10030    2    1    2    0    0  0.00000000000E+00  0.00000000000E+00  0.37835137333E+03  0.28248244869E+04  0.27993720046E+04 0.  0.
        5    1    3    3  502    0  0.61062843446E+02 -0.76019339347E+03  0.13735061436E+04  0.15710391093E+04  0.46999998093E+01 0.  1.
       -5    1    3    3    0  502 -0.61062843446E+02  0.76019339347E+03 -0.99515477031E+03  0.12537853776E+04  0.46999998093E+01 0. -1.
</event>
<event>
 5   0  0.5297741E-07  0.2801979E+04  0.7818609E-02  0.8302654E-01
        1   -1    0    0  501    0  0.00000000000E+00  0.00000000000E+00  0.13402702557E+04  0.13402702557E+04  0.50400001928E-02 0. -1.
       -1   -1    0    0    0  501  0.00000000000E+00  0.00000000000E+00 -0.14644595157E+04  0.14644595157E+04  0.50400001928E-02 0.  1.
    10030    2    1    2    0    0  0.00000000000E+00  0.00000000000E+00 -0.12418926001E+03  0.28047297714E+04  0.28019789647E+04 0.  0.
        5    1    3    3  502    0  0.12595488750E+04  0.59391126633E+02  0.54904449222E+03  0.13753045549E+04  0.46999998093E+01 0. -1.
       -5    1    3    3    0  502 -0.12595488750E+04 -0.59391126633E+02 -0.67323375223E+03  0.14294252165E+04  0.46999998093E+01 0.  1.
</event>
<event>
 5   0  0.5551565E-07  0.2800793E+04  0.7818609E-02  0.8303022E-01
       -1   -1    0    0    0  501  0.00000000000E+00  0.00000000000E+00  0.11001766734E+04  0.11001766734E+04  0.50400001928E-02 0. -1.
        1   -1    0    0  501    0  0.00000000000E+00  0.00000000000E+00 -0.17825418278E+04  0.17825418278E+04  0.50400001928E-02 0.  1.
    10030    2    1    2    0    0  0.00000000000E+00  0.00000000000E+00 -0.68236515445E+03  0.28827185012E+04  0.28007934150E+04 0.  0.
        3    1    3    3  502    0  0.55499208482E+03 -0.62013026132E+02 -0.16629781302E+04  0.17542400353E+04  0.10100000352E+00 0.  1.
       -3    1    3    3    0  502 -0.55499208482E+03  0.62013026132E+02  0.98061297578E+03  0.11284784659E+04  0.10100000352E+00 0. -1.
</event>
<event>
 5   0  0.1461146E-06  0.2801993E+04  0.7818609E-02  0.8302650E-01
       -2   -1    0    0    0  501  0.00000000000E+00  0.00000000000E+00  0.11079536383E+04  0.11079536383E+04  0.25500000920E-02 0.  1.
        2   -1    0    0  501    0  0.00000000000E+00  0.00000000000E+00 -0.17715458260E+04  0.17715458260E+04  0.25500000920E-02 0. -1.
    10030    2    1    2    0    0  0.00000000000E+00  0.00000000000E+00 -0.66359218778E+03  0.28794994643E+04  0.28019926076E+04 0.  0.
        1    1    3    3  502    0 -0.25881083231E+02 -0.76389561614E+03  0.87481324152E+03  0.11616817767E+04  0.50400001928E-02 0.  1.
       -1    1    3    3    0  502  0.25881083231E+02  0.76389561614E+03 -0.15384054293E+04  0.17178176876E+04  0.50400001928E-02 0. -1.
</event>
<event>
 5   0  0.5551565E-07  0.2803417E+04  0.7818609E-02  0.8302208E-01
        1   -1    0    0  501    0  0.00000000000E+00  0.00000000000E+00  0.25374076245E+04  0.25374076245E+04  0.50400001928E-02 0. -1.
       -1   -1    0    0    0  501  0.00000000000E+00  0.00000000000E+00 -0.77432811277E+03  0.77432811278E+03  0.50400001928E-02 0.  1.
    10030    2    1    2    0    0  0.00000000000E+00  0.00000000000E+00  0.17630795117E+04  0.33117357373E+04  0.28034165279E+04 0.  0.
        3    1    3    3  502    0 -0.85568764764E+03 -0.44836649953E+02  0.21919943515E+04  0.23535188384E+04  0.10100000352E+00 0. -1.
       -3    1    3    3    0  502  0.85568764764E+03  0.44836649953E+02 -0.42891483971E+03  0.95821689895E+03  0.10100000352E+00 0.  1.
</event>
<event>
 5   0  0.1499888E-06  0.2797873E+04  0.7818609E-02  0.8303929E-01
       -2   -1    0    0    0  501  0.00000000000E+00  0.00000000000E+00  0.89517076724E+03  0.89517076724E+03  0.25500000920E-02 0. -1.
        2   -1    0    0  501    0  0.00000000000E+00  0.00000000000E+00 -0.21862009802E+04  0.21862009802E+04  0.25500000920E-02 0.  1.
    10030    2    1    2    0    0  0.00000000000E+00  0.00000000000E+00 -0.12910302130E+04  0.30813717475E+04  0.27978729126E+04 0.  0.
        3    1    3    3  502    0  0.72486731910E+02 -0.10631116977E+03  0.88863982965E+03  0.89790709328E+03  0.10100000352E+00 0. -1.
       -3    1    3    3    0  502 -0.72486731910E+02  0.10631116977E+03 -0.21796700426E+04  0.21834646542E+04  0.10100000352E+00 0.  1.
</event>
<event>
 5   0  0.5362952E-07  0.2802611E+04  0.7818609E-02  0.8302458E-01
       -1   -1    0    0    0  501  0.00000000000E+00  0.00000000000E+00  0.10856963989E+04  0.10856963989E+04  0.50400001928E-02 0.  1.
        1   -1    0    0  501    0  0.00000000000E+00  0.00000000000E+00 -0.18086610237E+04  0.18086610237E+04  0.50400001928E-02 0. -1.
    10030    2    1    2    0    0  0.00000000000E+00  0.00000000000E+00 -0.72296462477E+03  0.28943574226E+04  0.28026107545E+04 0.  0.
        1    1    3    3  502    0 -0.64182394926E+03  0.95742491297E+03 -0.11844740895E+04  0.16527490174E+04  0.50400001928E-02 0. -1.
       -1    1    3    3    0  502  0.64182394926E+03 -0.95742491297E+03  0.46150946473E+03  0.12416084052E+04  0.50400001928E-02 0.  1.
</event>
<event>
 5   0  0.5362952E-07  0.2800721E+04  0.7818609E-02  0.8303045E-01
        1   -1    0    0  501    0  0.00000000000E+00  0.00000000000E+00  0.16721705545E+04  0.16721705545E+04  0.50400001928E-02 0. -1.
       -1   -1    0    0    0  501  0.00000000000E+00  0.00000000000E+00 -0.11727330687E+04  0.11727330688E+04  0.50400001928E-02 0.  1.
    10030    2    1    2    0    0  0.00000000000E+00  0.00000000000E+00  0.49943748574E+03  0.28449036233E+04  0.28007211256E+04 0.  0.
        1    1    3    3  502    0 -0.13231240348E+04  0.44393290445E+03  0.13267924023E+03  0.14019049240E+04  0.50400001928E-02 0.  1.
       -1    1    3    3    0  502  0.13231240348E+04 -0.44393290445E+03  0.36675824551E+03  0.14429986992E+04  0.50400001928E-02 0. -1.
</event>
<event>
 5   0  0.1461146E-06  0.2799344E+04  0.7818609E-02  0.8303472E-01
       -2   -1    0    0    0  501  0.00000000000E+00  0.00000000000E+00  0.17722177176E+04  0.17722177176E+04  0.25500000920E-02 0. -1.
        2   -1    0    0  501    0  0.00000000000E+00  0.00000000000E+00 -0.11054408404E+04  0.11054408404E+04  0.25500000920E-02 0.  1.
    10030    2    1    2    0    0  0.00000000000E+00  0.00000000000E+00  0.66677687719E+03  0.28776585580E+04  0.27993440969E+04 0.  0.
        1    1    3    3  502    0  0.68441492315E+02  0.13935005632E+04  0.21821022723E+03  0.14121415513E+04  0.50400001928E-02 0.  1.
       -1    1    3    3    0  502 -0.68441492315E+02 -0.13935005632E+04  0.44856664996E+03  0.14655170067E+04  0.50400001928E-02 0. -1.
</event>
<event>
 5   0  0.5551565E-07  0.2799447E+04  0.7818609E-02  0.8303440E-01
       -1   -1    0    0    0  501  0.00000000000E+00  0.00000000000E+00  0.13003238338E+04  0.13003238338E+04  0.50400001928E-02 0.  1.
        1   -1    0    0  501    0  0.00000000000E+00  0.00000000000E+00 -0.15067210705E+04  0.15067210705E+04  0.50400001928E-02 0. -1.
    10030    2    1    2    0    0  0.00000000000E+00  0.00000000000E+00 -0.20639723667E+03  0.28070449043E+04  0.27994466017E+04 0.  0.
        3    1    3    3  502    0  0.12155619120E+04  0.69075830983E+03 -0.17036927639E+03  0.14084613964E+04  0.10100000352E+00 0.  1.
       -3    1    3    3    0  502 -0.12155619120E+04 -0.69075830983E+03 -0.36027960283E+02  0.13985835080E+04  0.10100000352E+00 0. -1.
</event>
<event>
 5   0  0.5362952E-07  0.2798083E+04  0.7818609E-02  0.8303864E-01
        1   -1    0    0  501    0  0.00000000000E+00  0.00000000000E+00  0.19196756229E+04  0.19196756229E+04  0.50400001928E-02 0. -1.
       -1   -1    0    0    0  501  0.00000000000E+00  0.00000000000E+00 -0.10196081369E+04  0.10196081369E+04  0.50400001928E-02 0.  1.
    10030    2    1    2    0    0  0.00000000000E+00  0.00000000000E+00  0.90006748601E+03  0.29392837597E+04  0.27980828331E+04 0.  0.
        1    1    3    3  502    0 -0.86247869945E+03 -0.29159213080E+03  0.15659114630E+04  0.18113459603E+04  0.50400001928E-02 0. -1.
       -1    1    3    3    0  502  0.86247869945E+03  0.29159213080E+03 -0.66584397700E+03  0.11279377995E+04  0.50400001928E-02 0.  1.
</event>
<event>
 5   0  0.1499888E-06  0.2805131E+04  0.7818609E-02  0.8301677E-01
       -2   -1    0    0    0  501  0.00000000000E+00  0.00000000000E+00  0.14118463005E+04  0.14118463005E+04  0.25500000920E-02 0.  1.
        2   -1    0    0  501    0  0.00000000000E+00  0.00000000000E+00 -0.13933458435E+04  0.13933458435E+04  0.25500000920E-02 0. -1.
    10030    2    1    2    0    0  0.00000000000E+00  0.00000000000E+00  0.18500456963E+02  0.28051921440E+04  0.28051311373E+04 0.  0.
        3    1    3    3  502    0 -0.43652840793E+03  0.13328165975E+04 -0.60154492076E+01  0.14024953937E+04  0.10100000352E+00 0. -1.
       -3    1    3    3    0  502  0.43652840793E+03 -0.13328165975E+04  0.24515906170E+02  0.14026967503E+04  0.10100000352E+00 0.  1.
</event>
<event>
 5   0  0.1439207E-06  0.2741136E+04  0.7818609E-02  0.8321780E-01
        2   -1    0    0  501    0  0.00000000000E+00  0.00000000000E+00  0.19274365838E+04  0.19274365838E+04  0.25500000920E-02 0.  1.
       -2   -1    0    0    0  501  0.00000000000E+00  0.00000000000E+00 -0.97458814032E+03  0.97458814032E+03  0.25500000920E-02 0. -1.
    10030    2    1    2    0    0  0.00000000000E+00  0.00000000000E+00  0.95284844353E+03  0.29020247242E+04  0.27411361410E+04 0.  0.
        5    1    3    3  502    0 -0.88715087697E+03  0.38851025770E+03 -0.55026775855E+03  0.11139091502E+04  0.46999998093E+01 0. -1.
       -5    1    3    3    0  502  0.88715087697E+03 -0.38851025770E+03  0.15031162021E+04  0.17881155739E+04  0.46999998093E+01 0.  1.
</event>
<event>
 5   0  0.1377807E-06  0.2800432E+04  0.7818609E-02  0.8303134E-01
        2   -1    0    0  501    0  0.00000000000E+00  0.00000000000E+00  0.18199044741E+04  0.18199044741E+04  0.25500000920E-02 0.  1.
       -2   -1    0    0    0  501  0.00000000000E+00  0.00000000000E+00 -0.10773117880E+04  0.10773117880E+04  0.25500000920E-02 0. -1.
    10030    2    1    2    0    0  0.00000000000E+00  0.00000000000E+00  0.74259268610E+03  0.28972162621E+04  0.28004317831E+04 0.  0.
        2    1    3    3  502    0 -0.10992167827E+04 -0.32337461714E+03 -0.46135194428E+03  0.12351899833E+04  0.25500000920E-02 0. -1.
       -2    1    3    3    0  502  0.10992167827E+04  0.32337461714E+03  0.12039446304E+04  0.16620262788E+04  0.25500000920E-02 0.  1.
</event>
<event>
 5   0  0.1377807E-06  0.2799082E+04  0.7818609E-02  0.8303553E-01
        2   -1    0    0  501    0  0.00000000000E+00  0.00000000000E+00  0.20626215144E+04  0.20626215144E+04  0.25500000920E-02 0.  1.
       -2   -1    0    0    0  501  0.00000000000E+00  0.00000000000E+00 -0.94962413022E+03  0.94962413023E+03  0.25500000920E-02 0. -1.
    10030    2    1    2    0    0  0.00000000000E+00  0.00000000000E+00  0.11129973842E+04  0.30122456446E+04  0.27990821078E+04 0.  0.
        2    1    3    3  502    0  0.86198098921E+03  0.92958424806E+03 -0.81595825095E+02  0.12703526985E+04  0.25500000920E-02 0. -1.
       -2    1    3    3    0  502 -0.86198098921E+03 -0.92958424806E+03  0.11945932093E+04  0.17418929461E+04  0.25500000920E-02 0.  1.
</event>
<event>
 5   0  0.1499888E-06  0.2796766E+04  0.7818609E-02  0.8304273E-01
       -2   -1    0    0    0  501  0.00000000000E+00  0.00000000000E+00  0.21642118531E+04  0.21642118531E+04  0.25500000920E-02 0. -1.
        2   -1    0    0  501    0  0.00000000000E+00  0.00000000000E+00 -0.90355045105E+03  0.90355045105E+03  0.25500000920E-02 0.  1.
    10030    2    1    2    0    0  0.00000000000E+00  0.00000000000E+00  0.12606614021E+04  0.30677623042E+04  0.27967657006E+04 0.  0.
        3    1    3    3  502    0  0.13665595778E+04 -0.23044069403E+03  0.83520850009E+03  0.16180733116E+04  0.10100000352E+00 0.  1.
       -3    1    3    3    0  502 -0.13665595778E+04  0.23044069403E+03  0.42545290197E+03  0.14496889925E+04  0.10100000352E+00 0. -1.
</event>
<event>
 5   0  0.5214658E-07  0.2795571E+04  0.7818609E-02  0.8304645E-01
        1   -1    0    0  501    0  0.00000000000E+00  0.00000000000E+00  0.21955752233E+04  0.21955752233E+04  0.50400001928E-02 0. -1.
       -1   -1    0    0    0  501  0.00000000000E+00  0.00000000000E+00 -0.88988272776E+03  0.88988272777E+03  0.50400001928E-02 0.  1.
    10030    2    1    2    0    0  0.00000000000E+00  0.00000000000E+00  0.13056924956E+04  0.30854579511E+04  0.27955711179E+04 0.  0.
        2    1    3    3  502    0 -0.31163658170E+03 -0.10202793182E+04  0.16496712059E+04  0.19645616136E+04  0.25500000920E-02 0. -1.
       -2    1    3    3    0  502  0.31163658170E+03  0.10202793182E+04 -0.34397871033E+03  0.11208963375E+04  0.25500000920E-02 0.  1.
</event>
<event>
 5   0  0.1461146E-06  0.2798175E+04  0.7818609E-02  0.8303835E-01
        2   -1    0    0  501    0  0.00000000000E+00  0.00000000000E+00  0.28442728248E+04  0.28442728248E+04  0.25500000920E-02 0.  1.
       -2   -1    0    0    0  501  0.00000000000E+00  0.00000000000E+00 -0.68820592375E+03  0.68820592375E+03  0.25500000920E-02 0. -1.
    10030    2    1    2    0    0  0.00000000000E+00  0.00000000000E+00  0.21560669011E+04  0.35324787486E+04  0.27981746956E+04 0.  0.
        1    1    3    3  502    0  0.41479207452E+03  0.12944433852E+04  0.65969842912E+03  0.15109064035E+04  0.50400001928E-02 0.  1.
       -1    1    3    3    0  502 -0.41479207452E+03 -0.12944433852E+04  0.14963684720E+04  0.20215723451E+04  0.50400001928E-02 0. -1.
</event>
<event>
 5   0  0.5551565E-07  0.2798969E+04  0.7818609E-02  0.8303589E-01
       -1   -1    0    0    0  501  0.00000000000E+00  0.00000000000E+00  0.78538839638E+03  0.78538839640E+03  0.50400001928E-02 0. -1.
        1   -1    0    0  501    0  0.00000000000E+00  0.00000000000E+00 -0.24937427624E+04  0.24937427624E+04  0.50400001928E-02 0.  1.
    10030    2    1    2    0    0  0.00000000000E+00  0.00000000000E+00 -0.17083543660E+04  0.32791311588E+04  0.27989688310E+04 0.  0.
        3    1    3    3  502    0  0.11317002280E+04  0.58778337163E+03 -0.15295447806E+04  0.19914170693E+04  0.10100000352E+00 0.  1.
       -3    1    3    3    0  502 -0.11317002280E+04 -0.58778337163E+03 -0.17880958543E+03  0.12877140894E+04  0.10100000352E+00 0. -1.
</event>
<event>
 5   0  0.5551565E-07  0.2814102E+04  0.7818609E-02  0.8298904E-01
       -1   -1    0    0    0  501  0.00000000000E+00  0.00000000000E+00  0.13311252865E+04  0.13311252865E+04  0.50400001928E-02 0. -1.
        1   -1    0    0  501    0  0.00000000000E+00  0.00000000000E+00 -0.14873072670E+04  0.14873072670E+04  0.50400001928E-02 0.  1.
    10030    2    1    2    0    0  0.00000000000E+00  0.00000000000E+00 -0.15618198053E+03  0.28184325535E+04  0.28141018545E+04 0.  0.
        3    1    3    3  502    0  0.32082756762E+03  0.97613222021E+03  0.88465200478E+03  0.13558663722E+04  0.10100000352E+00 0. -1.
       -3    1    3    3    0  502 -0.32082756762E+03 -0.97613222021E+03 -0.10408339853E+04  0.14625661813E+04  0.10100000352E+00 0.  1.
</event>
<event>
 5   0  0.5282098E-07  0.2797083E+04  0.7818609E-02  0.8304175E-01
       -1   -1    0    0    0  501  0.00000000000E+00  0.00000000000E+00  0.10186578675E+04  0.10186578676E+04  0.50400001928E-02 0. -1.
        1   -1    0    0  501    0  0.00000000000E+00  0.00000000000E+00 -0.19200929574E+04  0.19200929574E+04  0.50400001928E-02 0.  1.
    10030    2    1    2    0    0  0.00000000000E+00  0.00000000000E+00 -0.90143508989E+03  0.29387508250E+04  0.27970826213E+04 0.  0.
        4    1    3    3  502    0 -0.11936985372E+04 -0.72865494024E+03 -0.45898803022E+03  0.14719123086E+04  0.12699999809E+01 0. -1.
       -4    1    3    3    0  502  0.11936985372E+04  0.72865494024E+03 -0.44244705967E+03  0.14668385164E+04  0.12699999809E+01 0.  1.
</event>
<event>
 5   0  0.1394410E-06  0.2801257E+04  0.7818609E-02  0.8302878E-01
        2   -1    0    0  501    0  0.00000000000E+00  0.00000000000E+00  0.28667530825E+04  0.28667530825E+04  0.25500000920E-02 0. -1.
       -2   -1    0    0    0  501  0.00000000000E+00  0.00000000000E+00 -0.68431408243E+03  0.68431408243E+03  0.25500000920E-02 0.  1.
    10030    2    1    2    0    0  0.00000000000E+00  0.00000000000E+00  0.21824390000E+04  0.35510671649E+04  0.28012565075E+04 0.  0.
        4    1    3    3  502    0 -0.59889036402E+03 -0.12646261756E+04  0.10129840624E+04  0.17274511153E+04  0.12699999809E+01 0. -1.
       -4    1    3    3    0  502  0.59889036402E+03  0.12646261756E+04  0.11694549376E+04  0.18236160496E+04  0.12699999809E+01 0.  1.
</event>
<event>
 5   0  0.5551565E-07  0.2796366E+04  0.7818609E-02  0.8304398E-01
       -1   -1    0    0    0  501  0.00000000000E+00  0.00000000000E+00  0.11810465919E+04  0.11810465919E+04  0.50400001928E-02 0. -1.
        1   -1    0    0  501    0  0.00000000000E+00  0.00000000000E+00 -0.16552396897E+04  0.16552396897E+04  0.50400001928E-02 0.  1.
    10030    2    1    2    0    0  0.00000000000E+00  0.00000000000E+00 -0.47419309780E+03  0.28362862817E+04  0.27963656373E+04 0.  0.
        3    1    3    3  502    0  0.13274879565E+04 -0.20625630420E+03  0.15592619776E+03  0.13524344446E+04  0.10100000352E+00 0. -1.
       -3    1    3    3    0  502 -0.13274879565E+04  0.20625630420E+03 -0.63011929556E+03  0.14838518371E+04  0.10100000352E+00 0.  1.
</event>
<event>
 5   0  0.1439207E-06  0.2811695E+04  0.7818609E-02  0.8299647E-01
        2   -1    0    0  501    0  0.00000000000E+00  0.00000000000E+00  0.12390778018E+04  0.12390778018E+04  0.25500000920E-02 0. -1.
       -2   -1    0    0    0  501  0.00000000000E+00  0.00000000000E+00 -0.15950630250E+04  0.15950630250E+04  0.25500000920E-02 0.  1.
    10030    2    1    2    0    0  0.00000000000E+00  0.00000000000E+00 -0.35598522322E+03  0.28341408267E+04  0.28116949953E+04 0.  0.
        5    1    3    3  502    0 -0.66081000841E+03  0.91393480209E+03  0.66801589822E+03  0.13108066295E+04  0.46999998093E+01 0. -1.
       -5    1    3    3    0  502  0.66081000841E+03 -0.91393480209E+03 -0.10240011214E+04  0.15233341972E+04  0.46999998093E+01 0.  1.
</event>
<event>
 5   0  0.5551565E-07  0.2796675E+04  0.7818609E-02  0.8304301E-01
       -1   -1    0    0    0  501  0.00000000000E+00  0.00000000000E+00  0.15930080933E+04  0.15930080933E+04  0.50400001928E-02 0. -1.
        1   -1    0    0  501    0  0.00000000000E+00  0.00000000000E+00 -0.12274565089E+04  0.12274565089E+04  0.50400001928E-02 0.  1.
    10030    2    1    2    0    0  0.00000000000E+00  0.00000000000E+00  0.36555158439E+03  0.28204646023E+04  0.27966752782E+04 0.  0.
        3    1    3    3  502    0 -0.59530241340E+03 -0.11533886684E+04  0.70744895557E+03  0.14782335467E+04  0.10100000352E+00 0. -1.
       -3    1    3    3    0  502  0.59530241340E+03  0.11533886684E+04 -0.34189737118E+03  0.13422310555E+04  0.10100000352E+00 0.  1.
</event>
<event>
 5   0  0.1461146E-06  0.2798174E+04  0.7818609E-02  0.8303836E-01
        2   -1    0    0  501    0  0.00000000000E+00  0.00000000000E+00  0.13165246361E+04  0.13165246361E+04  0.25500000920E-02 0. -1.
       -2   -1    0    0    0  501  0.00000000000E+00  0.00000000000E+00 -0.14868268733E+04  0.14868268733E+04  0.25500000920E-02 0.  1.
    10030    2    1    2    0    0  0.00000000000E+00  0.00000000000E+00 -0.17030223714E+03  0.28033515094E+04  0.27981738390E+04 0.  0.
        1    1    3    3  502    0 -0.11881689267E+04  0.69567111809E+03  0.16378502362E+03  0.13865530054E+04  0.50400001928E-02 0. -1.
       -1    1    3    3    0  502  0.11881689267E+04 -0.69567111809E+03 -0.33408726076E+03  0.14167985039E+04  0.50400001928E-02 0.  1.
</event>
<event>
 5   0  0.5551565E-07  0.2810574E+04  0.7818609E-02  0.8299993E-01
        1   -1    0    0  501    0  0.00000000000E+00  0.00000000000E+00  0.20041345687E+04  0.20041345687E+04  0.50400001928E-02 0.  1.
       -1   -1    0    0    0  501  0.00000000000E+00  0.00000000000E+00 -0.98537855419E+03  0.98537855420E+03  0.50400001928E-02 0. -1.
    10030    2    1    2    0    0  0.00000000000E+00  0.00000000000E+00  0.10187560145E+04  0.29895131229E+04  0.28105737662E+04 0.  0.
        3    1    3    3  502    0  0.12387900549E+03  0.99571824909E+03 -0.53714786180E+03  0.11381250701E+04  0.10100000352E+00 0. -1.
       -3    1    3    3    0  502 -0.12387900549E+03 -0.99571824909E+03  0.15559038763E+04  0.18513880528E+04  0.10100000352E+00 0.  1.
</event>
<event>
 5   0  0.1439207E-06  0.2804969E+04  0.7818609E-02  0.8301727E-01
        2   -1    0    0  501    0  0.00000000000E+00  0.00000000000E+00  0.21105419604E+04  0.21105419604E+04  0.25500000920E-02 0. -1.
       -2   -1    0    0    0  501  0.00000000000E+00  0.00000000000E+00 -0.93197065835E+03  0.93197065835E+03  0.25500000920E-02 0.  1.
    10030    2    1    2    0    0  0.00000000000E+00  0.00000000000E+00  0.11785713021E+04  0.30425126188E+04  0.28049692906E+04 0.  0.
        5    1    3    3  502    0 -0.13323149615E+04 -0.42612964423E+03  0.69932367279E+03  0.15638814915E+04  0.46999998093E+01 0.  1.
       -5    1    3    3    0  502  0.13323149615E+04  0.42612964423E+03  0.47924762929E+03  0.14786311272E+04  0.46999998093E+01 0. -1.
</event>
<event>
 5   0  0.1499888E-06  0.2802928E+04  0.7818609E-02  0.8302360E-01
       -2   -1    0    0    0  501  0.00000000000E+00  0.00000000000E+00  0.17859485347E+04  0.17859485347E+04  0.25500000920E-02 0.  1.
        2   -1    0    0  501    0  0.00000000000E+00  0.00000000000E+00 -0.10997522526E+04  0.10997522526E+04  0.25500000920E-02 0. -1.
    10030    2    1    2    0    0  0.00000000000E+00  0.00000000000E+00  0.68619628211E+03  0.28857007873E+04  0.28029277008E+04 0.  0.
        3    1    3    3  502    0 -0.98792971010E+03  0.43453646532E+03  0.12635206011E+04  0.16617194021E+04  0.10100000352E+00 0.  1.
       -3    1    3    3    0  502  0.98792971010E+03 -0.43453646532E+03 -0.57732431895E+03  0.12239813852E+04  0.10100000352E+00 0. -1.
</event>
<event>
 5   0  0.1499888E-06  0.2805906E+04  0.7818609E-02  0.8301437E-01
        2   -1    0    0  501    0  0.00000000000E+00  0.00000000000E+00  0.21906122564E+04  0.21906122564E+04  0.25500000920E-02 0.  1.
       -2   -1    0    0    0  501  0.00000000000E+00  0.00000000000E+00 -0.89850575166E+03  0.89850575167E+03  0.25500000920E-02 0. -1.
    10030    2    1    2    0    0  0.00000000000E+00  0.00000000000E+00  0.12921065047E+04  0.30891180080E+04  0.28059064218E+04 0.  0.
        3    1    3    3  502    0 -0.58919333584E+03 -0.11993356948E+04  0.17544699870E+03  0.13477153095E+04  0.10100000352E+00 0.  1.
       -3    1    3    3    0  502  0.58919333584E+03  0.11993356948E+04  0.11166595060E+04  0.17414026985E+04  0.10100000352E+00 0. -1.
</event>
<event>
 5   0  0.5362952E-07  0.2779169E+04  0.7818609E-02  0.8309765E-01
       -1   -1    0    0    0  501  0.00000000000E+00  0.00000000000E+00  0.16899328512E+04  0.16899328512E+04  0.50400001928E-02 0. -1.
        1   -1    0    0  501    0  0.00000000000E+00  0.00000000000E+00 -0.11426164111E+04  0.11426164111E+04  0.50400001928E-02 0.  1.
    10030    2    1    2    0    0  0.00000000000E+00  0.00000000000E+00  0.54731644007E+03  0.28325492623E+04  0.27791689473E+04 0.  0.
        1    1    3    3  502    0  0.12205641450E+04  0.66380520260E+03  0.25017592998E+03  0.14117372896E+04  0.50400001928E-02 0. -1.
       -1    1    3    3    0  502 -0.12205641450E+04 -0.66380520260E+03  0.29714051009E+03  0.14208119727E+04  0.50400001928E-02 0.  1.
</event>
<event>
 5   0  0.5282098E-07  0.2801467E+04  0.7818609E-02  0.8302813E-01
       -1   -1    0    0    0  501  0.00000000000E+00  0.00000000000E+00  0.13678508179E+04  0.13678508179E+04  0.50400001928E-02 0. -1.
        1   -1    0    0  501    0  0.00000000000E+00  0.00000000000E+00 -0.14344064516E+04  0.14344064516E+04  0.50400001928E-02 0.  1.
    10030    2    1    2    0    0  0.00000000000E+00  0.00000000000E+00 -0.66555633725E+02  0.28022572694E+04  0.28014667858E+04 0.  0.
        4    1    3    3  502    0  0.10999947279E+03  0.11219060037E+04 -0.86494459424E+03  0.14208813213E+04  0.12699999809E+01 0.  1.
       -4    1    3    3    0  502 -0.10999947279E+03 -0.11219060037E+04  0.79838896052E+03  0.13813759482E+04  0.12699999809E+01 0. -1.
</event>
<event>
 5   0  0.5362952E-07  0.2812970E+04  0.7818609E-02  0.8299253E-01
       -1   -1    0    0    0  501  0.00000000000E+00  0.00000000000E+00  0.15811783842E+04  0.15811783842E+04  0.50400001928E-02 0.  1.
        1   -1    0    0  501    0  0.00000000000E+00  0.00000000000E+00 -0.12510920355E+04  0.12510920356E+04  0.50400001928E-02 0. -1.
    10030    2    1    2    0    0  0.00000000000E+00  0.00000000000E+00  0.33008634865E+03  0.28322704198E+04  0.28129697355E+04 0.  0.
        1    1    3    3  502    0  0.26149114440E+03 -0.12206882104E+03 -0.12209632458E+04  0.12546033889E+04  0.50400001928E-02 0. -1.
       -1    1    3    3    0  502 -0.26149114440E+03  0.12206882104E+03  0.15510495945E+04  0.15776670309E+04  0.50400001928E-02 0.  1.
</event>
<event>
 5   0  0.4710000E-07  0.2800345E+04  0.7818609E-02  0.8303161E-01
        3   -1    0    0  501    0  0.00000000000E+00  0.00000000000E+00  0.12321465158E+04  0.12321465200E+04  0.10100000352E+00 0. -1.
       -3   -1    0    0    0  501  0.00000000000E+00  0.00000000000E+00 -0.15911116556E+04  0.15911116588E+04  0.10100000352E+00 0.  1.
    10030    2    1    2    0    0  0.00000000000E+00  0.00000000000E+00 -0.35896513978E+03  0.28232581788E+04  0.28003447596E+04 0.  0.
        4    1    3    3  502    0  0.12138456524E+04 -0.51549649328E+02  0.52220253345E+03  0.13224128452E+04  0.12699999809E+01 0. -1.
       -4    1    3    3    0  502 -0.12138456524E+04  0.51549649328E+02 -0.88116767322E+03  0.15008453336E+04  0.12699999809E+01 0.  1.
</event>
<event>
 5   0  0.5297741E-07  0.2799139E+04  0.7818609E-02  0.8303536E-01
       -1   -1    0    0    0  501  0.00000000000E+00  0.00000000000E+00  0.81187443731E+03  0.81187443733E+03  0.50400001928E-02 0.  1.
        1   -1    0    0  501    0  0.00000000000E+00  0.00000000000E+00 -0.24126816782E+04  0.24126816782E+04  0.50400001928E-02 0. -1.
    10030    2    1    2    0    0  0.00000000000E+00  0.00000000000E+00 -0.16008072409E+04  0.32245561155E+04  0.27991388532E+04 0.  0.
        5    1    3    3  502    0  0.92490371773E+03 -0.10491970662E+04 -0.85813064364E+03  0.16409362152E+04  0.46999998093E+01 0. -1.
       -5    1    3    3    0  502 -0.92490371773E+03  0.10491970662E+04 -0.74267659722E+03  0.15836199003E+04  0.46999998093E+01 0.  1.
</event>
<event>
 5   0  0.5282098E-07  0.2796229E+04  0.7818609E-02  0.8304440E-01
       -1   -1    0    0    0  501  0.00000000000E+00  0.00000000000E+00  0.29282730221E+04  0.29282730221E+04  0.50400001928E-02 0. -1.
        1   -1    0    0  501    0  0.00000000000E+00  0.00000000000E+00 -0.66753484060E+03  0.66753484062E+03  0.50400001928E-02 0.  1.
    10030    2    1    2    0    0  0.00000000000E+00  0.00000000000E+00  0.22607381815E+04  0.35958078628E+04  0.27962290787E+04 0.  0.
        4    1    3    3  502    0  0.40486423506E+03  0.11656257242E+04  0.28503562664E+03  0.12664301398E+04  0.12699999809E+01 0.  1.
       -4    1    3    3    0  502 -0.40486423506E+03 -0.11656257242E+04  0.19757025549E+04  0.23293777229E+04  0.12699999809E+01 0. -1.
</event>
<event>
 5   0  0.5214658E-07  0.2799803E+04  0.7818609E-02  0.8303330E-01
       -1   -1    0    0    0  501  0.00000000000E+00  0.00000000000E+00  0.13552200836E+04  0.13552200836E+04  0.50400001928E-02 0.  1.
        1   -1    0    0  501    0  0.00000000000E+00  0.00000000000E+00 -0.14460557959E+04  0.14460557959E+04  0.50400001928E-02 0. -1.
    10030    2    1    2    0    0  0.00000000000E+00  0.00000000000E+00 -0.90835712276E+02  0.28012758795E+04  0.27998027477E+04 0.  0.
        2    1    3    3  502    0  0.98995654205E+03 -0.25101457409E+03  0.91253125212E+03  0.13695749551E+04  0.25500000920E-02 0.  1.
       -2    1    3    3    0  502 -0.98995654205E+03  0.25101457409E+03 -0.10033669644E+04  0.14317009244E+04  0.25500000920E-02 0. -1.
</event>
<event>
 5   0  0.1377807E-06  0.2798205E+04  0.7818609E-02  0.8303826E-01
        2   -1    0    0  501    0  0.00000000000E+00  0.00000000000E+00  0.23658321834E+04  0.23658321834E+04  0.25500000920E-02 0.  1.
       -2   -1    0    0    0  501  0.00000000000E+00  0.00000000000E+00 -0.82739926725E+03  0.82739926726E+03  0.25500000920E-02 0. -1.
    10030    2    1    2    0    0  0.00000000000E+00  0.00000000000E+00  0.15384329162E+04  0.31932314507E+04  0.27982050068E+04 0.  0.
        2    1    3    3  502    0 -0.41329086334E+03  0.13153388242E+04  0.10406191968E+04  0.17273719556E+04  0.25500000920E-02 0. -1.
       -2    1    3    3    0  502  0.41329086334E+03 -0.13153388242E+04  0.49781371942E+03  0.14658594951E+04  0.25500000920E-02 0.  1.
</event>
<event>
 5   0  0.5297741E-07  0.2800918E+04  0.7818609E-02  0.8302983E-01
       -1   -1    0    0    0  501  0.00000000000E+00  0.00000000000E+00  0.11062060727E+04  0.11062060727E+04  0.50400001928E-02 0.  1.
        1   -1    0    0  501    0  0.00000000000E+00  0.00000000000E+00 -0.17729840493E+04  0.17729840493E+04  0.50400001928E-02 0. -1.
    10030    2    1    2    0    0  0.00000000000E+00  0.00000000000E+00 -0.66677797655E+03  0.28791901220E+04  0.28009182224E+04 0.  0.
        5    1    3    3  502    0  0.11209075034E+04 -0.47003243307E+03 -0.10484572579E+04  0.16051943281E+04  0.46999998093E+01 0. -1.
       -5    1    3    3    0  502 -0.11209075034E+04  0.47003243307E+03  0.38167928135E+03  0.12739957940E+04  0.46999998093E+01 0.  1.
</event>
<event>
 5   0  0.5551565E-07  0.2795504E+04  0.7818609E-02  0.8304665E-01
       -1   -1    0    0    0  501  0.00000000000E+00  0.00000000000E+00  0.18492576705E+04  0.18492576705E+04  0.50400001928E-02 0. -1.
        1   -1    0    0  501    0  0.00000000000E+00  0.00000000000E+00 -0.10564840100E+04  0.10564840100E+04  0.50400001928E-02 0.  1.
    10030    2    1    2    0    0  0.00000000000E+00  0.00000000000E+00  0.79277366051E+03  0.29057416806E+04  0.27955043619E+04 0.  0.
        3    1    3    3  502    0 -0.64429479546E+03  0.11923226325E+04  0.40903354487E+02  0.13558842643E+04  0.10100000352E+00 0.  1.
       -3    1    3    3    0  502  0.64429479546E+03 -0.11923226325E+04  0.75187030602E+03  0.15498574163E+04  0.10100000352E+00 0. -1.
</event>
<event>
 5   0  0.1377807E-06  0.2799039E+04  0.7818609E-02  0.8303567E-01
        2   -1    0    0  501    0  0.00000000000E+00  0.00000000000E+00  0.15078014533E+04  0.15078014533E+04  0.25500000920E-02 0.  1.
       -2   -1    0    0    0  501  0.00000000000E+00  0.00000000000E+00 -0.12990137419E+04  0.12990137419E+04  0.25500000920E-02 0. -1.
    10030    2    1    2    0    0  0.00000000000E+00  0.00000000000E+00  0.20878771137E+03  0.28068151952E+04  0.27990389835E+04 0.  0.
        2    1    3    3  502    0  0.18188722466E+02 -0.12530784458E+04  0.72911611541E+03  0.14498781779E+04  0.25500000920E-02 0.  1.
       -2    1    3    3    0  502 -0.18188722466E+02  0.12530784458E+04 -0.52032840404E+03  0.13569370173E+04  0.25500000920E-02 0. -1.
</event>
<event>
 5   0  0.5214658E-07  0.2801816E+04  0.7818609E-02  0.8302705E-01
       -1   -1    0    0    0  501  0.00000000000E+00  0.00000000000E+00  0.96952597328E+03  0.96952597329E+03  0.50400001928E-02 0. -1.
        1   -1    0    0  501    0  0.00000000000E+00  0.00000000000E+00 -0.20242302051E+04  0.20242302051E+04  0.50400001928E-02 0.  1.
    10030    2    1    2    0    0  0.00000000000E+00  0.00000000000E+00 -0.10547042318E+04  0.29937561784E+04  0.28018163821E+04 0.  0.
        2    1    3    3  502    0 -0.47761176910E+03  0.10217211041E+04  0.36054749061E+03  0.11840698922E+04  0.25500000920E-02 0. -1.
       -2    1    3    3    0  502  0.47761176910E+03 -0.10217211041E+04 -0.14152517224E+04  0.18096862862E+04  0.25500000920E-02 0.  1.
</event>
<event>
 5   0  0.5297741E-07  0.2798996E+04  0.7818609E-02  0.8303580E-01
       -1   -1    0    0    0  501  0.00000000000E+00  0.00000000000E+00  0.17048865366E+04  0.17048865366E+04  0.50400001928E-02 0.  1.
        1   -1    0    0  501    0  0.00000000000E+00  0.00000000000E+00 -0.11488122051E+04  0.11488122051E+04  0.50400001928E-02 0. -1.
    10030    2    1    2    0    0  0.00000000000E+00  0.00000000000E+00  0.55607433149E+03  0.28536987417E+04  0.27989958640E+04 0.  0.
        5    1    3    3  502    0 -0.10058287498E+04 -0.63999930248E+03 -0.46928338973E+03  0.12812258079E+04  0.46999998093E+01 0. -1.
       -5    1    3    3    0  502  0.10058287498E+04  0.63999930248E+03  0.10253577212E+04  0.15724729338E+04  0.46999998093E+01 0.  1.
</event>
<event>
 5   0  0.1461146E-06  0.2799981E+04  0.7818609E-02  0.8303274E-01
       -2   -1    0    0    0  501  0.00000000000E+00  0.00000000000E+00  0.16495123601E+04  0.16495123601E+04  0.25500000920E-02 0. -1.
        2   -1    0    0  501    0  0.00000000000E+00  0.00000000000E+00 -0.11882136511E+04  0.11882136511E+04  0.25500000920E-02 0.  1.
    10030    2    1    2    0    0  0.00000000000E+00  0.00000000000E+00  0.46129870895E+03  0.28377260112E+04  0.27999807885E+04 0.  0.
        1    1    3    3  502    0 -0.10562207076E+04  0.67480718610E+03  0.86276081034E+03  0.15216185914E+04  0.50400001928E-02 0.  1.
       -1    1    3    3    0  502  0.10562207076E+04 -0.67480718610E+03 -0.40146210140E+03  0.13161074198E+04  0.50400001928E-02 0. -1.
</event>
<event>
 5   0  0.1377807E-06  0.2803858E+04  0.7818609E-02  0.8302072E-01
       -2   -1    0    0    0  501  0.00000000000E+00  0.00000000000E+00  0.12459390277E+04  0.12459390277E+04  0.25500000920E-02 0. -1.
        2   -1    0    0  501    0  0.00000000000E+00  0.00000000000E+00 -0.15774491066E+04  0.15774491066E+04  0.25500000920E-02 0.  1.
    10030    2    1    2    0    0  0.00000000000E+00  0.00000000000E+00 -0.33151007886E+03  0.28233881343E+04  0.28038583460E+04 0.  0.
        2    1    3    3  502    0 -0.51956171975E+03  0.46579593711E+03  0.10586482043E+04  0.12679299098E+04  0.25500000920E-02 0. -1.
       -2    1    3    3    0  502  0.51956171975E+03 -0.46579593711E+03 -0.13901582832E+04  0.15554582244E+04  0.25500000920E-02 0.  1.
</event>
<event>
 5   0  0.1394410E-06  0.2795223E+04  0.7818609E-02  0.8304753E-01
        2   -1    0    0  501    0  0.00000000000E+00  0.00000000000E+00  0.13035906866E+04  0.13035906866E+04  0.25500000920E-02 0. -1.
       -2   -1    0    0    0  501  0.00000000000E+00  0.00000000000E+00 -0.14984133992E+04  0.14984133992E+04  0.25500000920E-02 0.  1.
    10030    2    1    2    0    0  0.00000000000E+00  0.00000000000E+00 -0.19482271262E+03  0.28020040858E+04  0.27952228905E+04 0.  0.
        4    1    3    3  502    0 -0.60022850835E+03 -0.11333238729E+04 -0.65429384625E+03  0.14397219569E+04  0.12699999809E+01 0.  1.
       -4    1    3    3    0  502  0.60022850835E+03  0.11333238729E+04  0.45947113364E+03  0.13622821289E+04  0.12699999809E+01 0. -1.
</event>
<event>
 5   0  0.1439207E-06  0.2804803E+04  0.7818609E-02  0.8301779E-01
        2   -1    0    0  501    0  0.00000000000E+00  0.00000000000E+00  0.11461444961E+04  0.11461444961E+04  0.25500000920E-02 0.  1.
       -2   -1    0    0    0  501  0.00000000000E+00  0.00000000000E+00 -0.17159533765E+04  0.17159533765E+04  0.25500000920E-02 0. -1.
    10030    2    1    2    0    0  0.00000000000E+00  0.00000000000E+00 -0.56980888040E+03  0.28620978727E+04  0.28048033929E+04 0.  0.
        5    1    3    3  502    0 -0.38652820741E+03  0.13148538829E+04 -0.58840846782E+03  0.14914728973E+04  0.46999998093E+01 0. -1.
       -5    1    3    3    0  502  0.38652820741E+03 -0.13148538829E+04  0.18599587424E+02  0.13706249754E+04  0.46999998093E+01 0.  1.
</event>
<event>
 5   0  0.1394410E-06  0.2799760E+04  0.7818609E-02  0.8303343E-01
        2   -1    0    0  501    0  0.00000000000E+00  0.00000000000E+00  0.14656003551E+04  0.14656003551E+04  0.25500000920E-02 0.  1.
       -2   -1    0    0    0  501  0.00000000000E+00  0.00000000000E+00 -0.13371066141E+04  0.13371066141E+04  0.25500000920E-02 0. -1.
    10030    2    1    2    0    0  0.00000000000E+00  0.00000000000E+00  0.12849374103E+03  0.28027069692E+04  0.27997599385E+04 0.  0.
        4    1    3    3  502    0  0.64392434764E+03 -0.12394517747E+04 -0.29569695086E+02  0.13970523423E+04  0.12699999809E+01 0. -1.
       -4    1    3    3    0  502 -0.64392434764E+03  0.12394517747E+04  0.15806343612E+03  0.14056546269E+04  0.12699999809E+01 0.  1.
</event>
<event>
 5   0  0.1461146E-06  0.2803149E+04  0.7818609E-02  0.8302292E-01
       -2   -1    0    0    0  501  0.00000000000E+00  0.00000000000E+00  0.85937685209E+03  0.85937685210E+03  0.25500000920E-02 0. -1.
        2   -1    0    0  501    0  0.00000000000E+00  0.00000000000E+00 -0.22858545095E+04  0.22858545095E+04  0.25500000920E-02 0.  1.
    10030    2    1    2    0    0  0.00000000000E+00  0.00000000000E+00 -0.14264776574E+04  0.31452313616E+04  0.28031485531E+04 0.  0.
        1    1    3    3  502    0 -0.67663612199E+03  0.35351591251E+03 -0.20320958815E+04  0.21707656745E+04  0.50400001928E-02 0.  1.
       -1    1    3    3    0  502  0.67663612199E+03 -0.35351591251E+03  0.60561822408E+03  0.97446568710E+03  0.50400001928E-02 0. -1.
</event>
<event>
 5   0  0.5282098E-07  0.2796416E+04  0.7818609E-02  0.8304382E-01
       -1   -1    0    0    0  501  0.00000000000E+00  0.00000000000E+00  0.14150582035E+04  0.14150582035E+04  0.50400001928E-02 0.  1.
        1   -1    0    0  501    0  0.00000000000E+00  0.00000000000E+00 -0.13815583267E+04  0.13815583267E+04  0.50400001928E-02 0. -1.
    10030    2    1    2    0    0  0.00000000000E+00  0.00000000000E+00  0.33499876724E+02  0.27966165302E+04  0.27964158802E+04 0.  0.
        4    1    3    3  502    0 -0.69629578199E+01 -0.13920671467E+04 -0.11396677394E+03  0.13967424467E+04  0.12699999809E+01 0.  1.
       -4    1    3    3    0  502  0.69629578199E+01  0.13920671467E+04  0.14746665066E+03  0.13998740836E+04  0.12699999809E+01 0. -1.
</event>
<event>
 5   0  0.1377807E-06  0.2800610E+04  0.7818609E-02  0.8303079E-01
       -2   -1    0    0    0  501  0.00000000000E+00  0.00000000000E+00  0.91482964321E+03  0.91482964321E+03  0.25500000920E-02 0. -1.
        2   -1    0    0  501    0  0.00000000000E+00  0.00000000000E+00 -0.21434083332E+04  0.21434083332E+04  0.25500000920E-02 0.  1.
    10030    2    1    2    0    0  0.00000000000E+00  0.00000000000E+00 -0.12285786900E+04  0.30582379765E+04  0.28006095628E+04 0.  0.
        2    1    3    3  502    0  0.22697724490E+02 -0.81209905338E+03  0.63116999195E+03  0.10287835622E+04  0.25500000920E-02 0. -1.
       -2    1    3    3    0  502 -0.22697724490E+02  0.81209905338E+03 -0.18597486820E+04  0.20294544142E+04  0.25500000920E-02 0.  1.
</event>
<event>
 5   0  0.1499888E-06  0.2797703E+04  0.7818609E-02  0.8303982E-01
       -2   -1    0    0    0  501  0.00000000000E+00  0.00000000000E+00  0.17758734846E+04  0.17758734846E+04  0.25500000920E-02 0. -1.
        2   -1    0    0  501    0  0.00000000000E+00  0.00000000000E+00 -0.11018717952E+04  0.11018717952E+04  0.25500000920E-02 0.  1.
    10030    2    1    2    0    0  0.00000000000E+00  0.00000000000E+00  0.67400168941E+03  0.28777452798E+04  0.27977025607E+04 0.  0.
        3    1    3    3  502    0  0.65216109197E+03  0.12306412462E+04  0.20291438813E+03  0.14074680195E+04  0.10100000352E+00 0.  1.
       -3    1    3    3    0  502 -0.65216109197E+03 -0.12306412462E+04  0.47108730129E+03  0.14702772604E+04  0.10100000352E+00 0. -1.
</event>
<event>
 5   0  0.4710000E-07  0.2795955E+04  0.7818609E-02  0.8304525E-01
       -4   -1    0    0    0  501  0.00000000000E+00  0.00000000000E+00  0.11583093843E+04  0.11583100805E+04  0.12699999809E+01 0. -1.
        4   -1    0    0  501    0  0.00000000000E+00  0.00000000000E+00 -0.16872338700E+04  0.16872343479E+04  0.12699999809E+01 0.  1.
    10030    2    1    2    0    0  0.00000000000E+00  0.00000000000E+00 -0.52892448565E+03  0.28455444285E+04  0.27959545746E+04 0.  0.
        5    1    3    3  502    0 -0.20317459121E+03 -0.13530447398E+04 -0.55644513167E+03  0.14770454485E+04  0.46999998093E+01 0.  1.
       -5    1    3    3    0  502  0.20317459121E+03  0.13530447398E+04  0.27520646014E+02  0.13684989800E+04  0.46999998093E+01 0. -1.
</event>
<event>
 5   0  0.1461146E-06  0.2802345E+04  0.7818609E-02  0.8302541E-01
       -2   -1    0    0    0  501  0.00000000000E+00  0.00000000000E+00  0.13522137721E+04  0.13522137721E+04  0.25500000920E-02 0. -1.
        2   -1    0    0  501    0  0.00000000000E+00  0.00000000000E+00 -0.14519034570E+04  0.14519034570E+04  0.25500000920E-02 0.  1.
    10030    2    1    2    0    0  0.00000000000E+00  0.00000000000E+00 -0.99689684890E+02  0.28041172291E+04  0.28023446257E+04 0.  0.
        1    1    3    3  502    0 -0.68115091924E+03  0.12225233158E+04  0.19148157884E+02  0.13996058318E+04  0.50400001928E-02 0.  1.
       -1    1    3    3    0  502  0.68115091924E+03 -0.12225233158E+04 -0.11883784277E+03  0.14045113973E+04  0.50400001928E-02 0. -1.
</event>
<event>
 5   0  0.5362952E-07  0.2791668E+04  0.7818609E-02  0.8305860E-01
       -1   -1    0    0    0  501  0.00000000000E+00  0.00000000000E+00  0.12266823053E+04  0.12266823053E+04  0.50400001928E-02 0.  1.
        1   -1    0    0  501    0  0.00000000000E+00  0.00000000000E+00 -0.15883104430E+04  0.15883104430E+04  0.50400001928E-02 0. -1.
    10030    2    1    2    0    0  0.00000000000E+00  0.00000000000E+00 -0.36162813765E+03  0.28149927483E+04  0.27916678283E+04 0.  0.
        1    1    3    3  502    0 -0.88744160781E+03  0.10773527091E+04 -0.17019763014E+03  0.14061325330E+04  0.50400001928E-02 0.  1.
       -1    1    3    3    0  502  0.88744160781E+03 -0.10773527091E+04 -0.19143050751E+03  0.14088602153E+04  0.50400001928E-02 0. -1.
</event>
<event>
 5   0  0.1377807E-06  0.2804491E+04  0.7818609E-02  0.8301876E-01
        2   -1    0    0  501    0  0.00000000000E+00  0.00000000000E+00  0.22959501097E+04  0.22959501097E+04  0.25500000920E-02 0.  1.
       -2   -1    0    0    0  501  0.00000000000E+00  0.00000000000E+00 -0.85641747222E+03  0.85641747223E+03  0.25500000920E-02 0. -1.
    10030    2    1    2    0    0  0.00000000000E+00  0.00000000000E+00  0.14395326375E+04  0.31523675819E+04  0.28044905344E+04 0.  0.
        2    1    3    3  502    0  0.77227965885E+03  0.11604358584E+04  0.89121339161E+03  0.16544753133E+04  0.25500000920E-02 0. -1.
       -2    1    3    3    0  502 -0.77227965885E+03 -0.11604358584E+04  0.54831924589E+03  0.14978922686E+04  0.25500000920E-02 0.  1.
</event>
<event>
 5   0  0.5297741E-07  0.2798457E+04  0.7818609E-02  0.8303748E-01
        1   -1    0    0  501    0  0.00000000000E+00  0.00000000000E+00  0.14459597075E+04  0.14459597075E+04  0.50400001928E-02 0. -1.
       -1   -1    0    0    0  501  0.00000000000E+00  0.00000000000E+00 -0.13540075528E+04  0.13540075528E+04  0.50400001928E-02 0.  1.
    10030    2    1    2    0    0  0.00000000000E+00  0.00000000000E+00  0.91952154730E+02  0.27999672604E+04  0.27984569785E+04 0.  0.
        5    1    3    3  502    0  0.11336719167E+04 -0.17546372314E+03  0.84754434487E+03  0.14263074842E+04  0.46999998093E+01 0. -1.
       -5    1    3    3    0  502 -0.11336719167E+04  0.17546372314E+03 -0.75559219014E+03  0.13736597762E+04  0.46999998093E+01 0.  1.
</event>
<event>
 5   0  0.1439207E-06  0.2801290E+04  0.7818609E-02  0.8302868E-01
       -2   -1    0    0    0  501  0.00000000000E+00  0.00000000000E+00  0.63431519604E+03  0.63431519605E+03  0.25500000920E-02 0.  1.
        2   -1    0    0  501    0  0.00000000000E+00  0.00000000000E+00 -0.30927949799E+04  0.30927949799E+04  0.25500000920E-02 0. -1.
    10030    2    1    2    0    0  0.00000000000E+00  0.00000000000E+00 -0.24584797839E+04  0.37271101760E+04  0.28012903127E+04 0.  0.
        5    1    3    3  502    0 -0.42766048610E+03  0.81615412065E+03 -0.26327627629E+04  0.27893481130E+04  0.46999998093E+01 0. -1.
       -5    1    3    3    0  502  0.42766048610E+03 -0.81615412065E+03  0.17428297896E+03  0.93776206299E+03  0.46999998093E+01 0.  1.
</event>
<event>
 5   0  0.5282098E-07  0.2753370E+04  0.7818609E-02  0.8317893E-01
       -1   -1    0    0    0  501  0.00000000000E+00  0.00000000000E+00  0.16372440317E+04  0.16372440317E+04  0.50400001928E-02 0.  1.
        1   -1    0    0  501    0  0.00000000000E+00  0.00000000000E+00 -0.11575928045E+04  0.11575928045E+04  0.50400001928E-02 0. -1.
    10030    2    1    2    0    0  0.00000000000E+00  0.00000000000E+00  0.47965122721E+03  0.27948368362E+04  0.27533702332E+04 0.  0.
        4    1    3    3  502    0 -0.13807105490E+03 -0.88650608268E+03 -0.82007606026E+03  0.12155175887E+04  0.12699999809E+01 0. -1.
       -4    1    3    3    0  502  0.13807105490E+03  0.88650608268E+03  0.12997272875E+04  0.15793192475E+04  0.12699999809E+01 0.  1.
</event>
<event>
 5   0  0.1394410E-06  0.2803815E+04  0.7818609E-02  0.8302085E-01
       -2   -1    0    0    0  501  0.00000000000E+00  0.00000000000E+00  0.14915746809E+04  0.14915746809E+04  0.25500000920E-02 0. -1.
        2   -1    0    0  501    0  0.00000000000E+00  0.00000000000E+00 -0.13176304175E+04  0.13176304175E+04  0.25500000920E-02 0.  1.
    10030    2    1    2    0    0  0.00000000000E+00  0.00000000000E+00  0.17394426340E+03  0.28092050985E+04  0.28038146655E+04 0.  0.
        4    1    3    3  502    0  0.23089841236E+03  0.12994794805E+04  0.56051336875E+03  0.14339239333E+04  0.12699999809E+01 0. -1.
       -4    1    3    3    0  502 -0.23089841236E+03 -0.12994794805E+04 -0.38656910535E+03  0.13752811652E+04  0.12699999809E+01 0.  1.
</event>
<event>
 5   0  0.5362952E-07  0.2803346E+04  0.7818609E-02  0.8302230E-01
       -1   -1    0    0    0  501  0.00000000000E+00  0.00000000000E+00  0.91312147511E+03  0.91312147512E+03  0.50400001928E-02 0. -1.
        1   -1    0    0  501    0  0.00000000000E+00  0.00000000000E+00 -0.21516169716E+04  0.21516169716E+04  0.50400001928E-02 0.  1.
    10030    2    1    2    0    0  0.00000000000E+00  0.00000000000E+00 -0.12384954965E+04  0.30647384467E+04  0.28033463311E+04 0.  0.
        1    1    3    3  502    0  0.10249392694E+04  0.87699454997E+03 -0.20285606250E+03  0.13641006300E+04  0.50400001928E-02 0. -1.
       -1    1    3    3    0  502 -0.10249392694E+04 -0.87699454997E+03 -0.10356394340E+04  0.17006378168E+04  0.50400001928E-02 0.  1.
</event>
<event>
 5   0  0.1461146E-06  0.2797891E+04  0.7818609E-02  0.8303923E-01
        2   -1    0    0  501    0  0.00000000000E+00  0.00000000000E+00  0.13757616203E+04  0.13757616203E+04  0.25500000920E-02 0. -1.
       -2   -1    0    0    0  501  0.00000000000E+00  0.00000000000E+00 -0.14225204871E+04  0.14225204871E+04  0.25500000920E-02 0.  1.
    10030    2    1    2    0    0  0.00000000000E+00  0.00000000000E+00 -0.46758866880E+02  0.27982821074E+04  0.27978914133E+04 0.  0.
        1    1    3    3  502    0 -0.70080171895E+03  0.96139258949E+03 -0.75945117660E+03  0.14114407002E+04  0.50400001928E-02 0.  1.
       -1    1    3    3    0  502  0.70080171895E+03 -0.96139258949E+03  0.71269230972E+03  0.13868414072E+04  0.50400001928E-02 0. -1.
</event>
<event>
 5   0  0.5282098E-07  0.2797290E+04  0.7818609E-02  0.8304110E-01
       -1   -1    0    0    0  501  0.00000000000E+00  0.00000000000E+00  0.14040381132E+04  0.14040381132E+04  0.50400001928E-02 0. -1.
        1   -1    0    0  501    0  0.00000000000E+00  0.00000000000E+00 -0.13932726299E+04  0.13932726299E+04  0.50400001928E-02 0.  1.
    10030    2    1    2    0    0  0.00000000000E+00  0.00000000000E+00  0.10765483339E+02  0.27973107431E+04  0.27972900275E+04 0.  0.
        4    1    3    3  502    0 -0.72533369001E+03  0.46557446243E+03  0.11069069995E+04  0.14028946006E+04  0.12699999809E+01 0. -1.
       -4    1    3    3    0  502  0.72533369001E+03 -0.46557446243E+03 -0.10961415162E+04  0.13944161425E+04  0.12699999809E+01 0.  1.
</event>
<event>
 5   0  0.1499888E-06  0.2800168E+04  0.7818609E-02  0.8303216E-01
        2   -1    0    0  501    0  0.00000000000E+00  0.00000000000E+00  0.17473986588E+04  0.17473986588E+04  0.25500000920E-02 0.  1.
       -2   -1    0    0    0  501  0.00000000000E+00  0.00000000000E+00 -0.11218018543E+04  0.11218018544E+04  0.25500000920E-02 0. -1.
    10030    2    1    2    0    0  0.00000000000E+00  0.00000000000E+00  0.62559680441E+03  0.28692005131E+04  0.28001678919E+04 0.  0.
        3    1    3    3  502    0 -0.83631454758E+03  0.38669112162E+03  0.13929610709E+04  0.16701175411E+04  0.10100000352E+00 0.  1.
       -3    1    3    3    0  502  0.83631454758E+03 -0.38669112162E+03 -0.76736426646E+03  0.11990829720E+04  0.10100000352E+00 0. -1.
</event>
<event>
 5   0  0.5551565E-07  0.2803892E+04  0.7818609E-02  0.8302061E-01
        1   -1    0    0  501    0  0.00000000000E+00  0.00000000000E+00  0.18625872256E+04  0.18625872256E+04  0.50400001928E-02 0.  1.
       -1   -1    0    0    0  501  0.00000000000E+00  0.00000000000E+00 -0.10552273342E+04  0.10552273342E+04  0.50400001928E-02 0. -1.
    10030    2    1    2    0    0  0.00000000000E+00  0.00000000000E+00  0.80735989143E+03  0.29178145598E+04  0.28038922610E+04 0.  0.
        3    1    3    3  502    0 -0.34252844398E+03  0.10294479366E+04  0.13276540499E+04  0.17145711054E+04  0.10100000352E+00 0.  1.
       -3    1    3    3    0  502  0.34252844398E+03 -0.10294479366E+04 -0.52029415842E+03  0.12032434544E+04  0.10100000352E+00 0. -1.
</event>
<event>
 5   0  0.1461146E-06  0.2822878E+04  0.7818609E-02  0.8296201E-01
       -2   -1    0    0    0  501  0.00000000000E+00  0.00000000000E+00  0.84316466665E+03  0.84316466666E+03  0.25500000920E-02 0.  1.
        2   -1    0    0  501    0  0.00000000000E+00  0.00000000000E+00 -0.23627179216E+04  0.23627179216E+04  0.25500000920E-02 0. -1.
    10030    2    1    2    0    0  0.00000000000E+00  0.00000000000E+00 -0.15195532549E+04  0.32058825882E+04  0.28228781545E+04 0.  0.
        1    1    3    3  502    0  0.91774154503E+03  0.53880693383E+03 -0.18127154312E+04  0.21020227615E+04  0.50400001928E-02 0. -1.
       -1    1    3    3    0  502 -0.91774154503E+03 -0.53880693383E+03  0.29316217627E+03  0.11038598267E+04  0.50400001928E-02 0.  1.
</event>
<event>
 5   0  0.5282098E-07  0.2796273E+04  0.7818609E-02  0.8304426E-01
        1   -1    0    0  501    0  0.00000000000E+00  0.00000000000E+00  0.21747158484E+04  0.21747158484E+04  0.50400001928E-02 0. -1.
       -1   -1    0    0    0  501  0.00000000000E+00  0.00000000000E+00 -0.89886920967E+03  0.89886920969E+03  0.50400001928E-02 0.  1.
    10030    2    1    2    0    0  0.00000000000E+00  0.00000000000E+00  0.12758466388E+04  0.30735850581E+04  0.27962726019E+04 0.  0.
        4    1    3    3  502    0  0.57365364425E+02 -0.12416741852E+04  0.13415119555E+04  0.18288525110E+04  0.12699999809E+01 0. -1.
       -4    1    3    3    0  502 -0.57365364425E+02  0.12416741852E+04 -0.65665316747E+02  0.12447325472E+04  0.12699999809E+01 0.  1.
</event>
<event>
 5   0  0.1499888E-06  0.2796523E+04  0.7818609E-02  0.8304349E-01
       -2   -1    0    0    0  501  0.00000000000E+00  0.00000000000E+00  0.79698117910E+03  0.79698117910E+03  0.25500000920E-02 0. -1.
        2   -1    0    0  501    0  0.00000000000E+00  0.00000000000E+00 -0.24531753308E+04  0.24531753308E+04  0.25500000920E-02 0.  1.
    10030    2    1    2    0    0  0.00000000000E+00  0.00000000000E+00 -0.16561941517E+04  0.32501565099E+04  0.27965225318E+04 0.  0.
        3    1    3    3  502    0  0.62037238604E+03 -0.74136795694E+03 -0.20022470317E+04  0.22233941466E+04  0.10100000352E+00 0.  1.
       -3    1    3    3    0  502 -0.62037238604E+03  0.74136795694E+03  0.34605287993E+03  0.10267623634E+04  0.10100000352E+00 0. -1.
</event>
<event>
 5   0  0.5282098E-07  0.2804806E+04  0.7818609E-02  0.8301778E-01
        1   -1    0    0  501    0  0.00000000000E+00  0.00000000000E+00  0.19261704443E+04  0.19261704444E+04  0.50400001928E-02 0.  1.
       -1   -1    0    0    0  501  0.00000000000E+00  0.00000000000E+00 -0.10210591984E+04  0.10210591984E+04  0.50400001928E-02 0. -1.
    10030    2    1    2    0    0  0.00000000000E+00  0.00000000000E+00  0.90511124591E+03  0.29472296428E+04  0.28048059113E+04 0.  0.
        4    1    3    3  502    0  0.85727013409E+03 -0.74776705911E+03 -0.40925234871E+03  0.12089486157E+04  0.12699999809E+01 0. -1.
       -4    1    3    3    0  502 -0.85727013409E+03  0.74776705911E+03  0.13143635946E+04  0.17382810271E+04  0.12699999809E+01 0.  1.
</event>
<event>
 5   0  0.4710000E-07  0.2802022E+04  0.7818609E-02  0.8302641E-01
       -3   -1    0    0    0  501  0.00000000000E+00  0.00000000000E+00  0.24169915935E+04  0.24169915956E+04  0.10100000352E+00 0. -1.
        3   -1    0    0  501    0  0.00000000000E+00  0.00000000000E+00 -0.81209715987E+03  0.81209716615E+03  0.10100000352E+00 0.  1.
    10030    2    1    2    0    0  0.00000000000E+00  0.00000000000E+00  0.16048944336E+04  0.32290887618E+04  0.28020221427E+04 0.  0.
        1    1    3    3  502    0  0.71310060338E+03 -0.16461673219E+03 -0.57429939398E+03  0.93028540406E+03  0.50400001928E-02 0.  1.
       -1    1    3    3    0  502 -0.71310060338E+03  0.16461673219E+03  0.21791938276E+04  0.22988033577E+04  0.50400001928E-02 0. -1.
</event>
<event>
 5   0  0.5282098E-07  0.2804687E+04  0.7818609E-02  0.8301815E-01
       -1   -1    0    0    0  501  0.00000000000E+00  0.00000000000E+00  0.13116298894E+04  0.13116298894E+04  0.50400001928E-02 0. -1.
        1   -1    0    0  501    0  0.00000000000E+00  0.00000000000E+00 -0.14993313028E+04  0.14993313028E+04  0.50400001928E-02 0.  1.
    10030    2    1    2    0    0  0.00000000000E+00  0.00000000000E+00 -0.18770141339E+03  0.28109611922E+04  0.28046873272E+04 0.  0.
        4    1    3    3  502    0  0.20632446161E+03  0.65338377454E+03 -0.13201423588E+04  0.14873659942E+04  0.12699999809E+01 0.  1.
       -4    1    3    3    0  502 -0.20632446161E+03 -0.65338377454E+03  0.11324409454E+04  0.13235951980E+04  0.12699999809E+01 0. -1.
</event>
<event>
 5   0  0.5297741E-07  0.2801138E+04  0.7818609E-02  0.8302915E-01
        1   -1    0    0  501    0  0.00000000000E+00  0.00000000000E+00  0.14270712637E+04  0.14270712637E+04  0.50400001928E-02 0. -1.
       -1   -1    0    0    0  501  0.00000000000E+00  0.00000000000E+00 -0.13745584312E+04  0.13745584312E+04  0.50400001928E-02 0.  1.
    10030    2    1    2    0    0  0.00000000000E+00  0.00000000000E+00  0.52512832477E+02  0.28016296948E+04  0.28011375099E+04 0.  0.
        5    1    3    3  502    0  0.68098579610E+03  0.85192522015E+03  0.90507599332E+03  0.14172871547E+04  0.46999998093E+01 0. -1.
       -5    1    3    3    0  502 -0.68098579610E+03 -0.85192522015E+03 -0.85256316084E+03  0.13843425401E+04  0.46999998093E+01 0.  1.
</event>
<event>
 5   0  0.1377807E-06  0.2786577E+04  0.7818609E-02  0.8307448E-01
       -2   -1    0    0    0  501  0.00000000000E+00  0.00000000000E+00  0.89654532449E+03  0.89654532449E+03  0.25500000920E-02 0. -1.
        2   -1    0    0  501    0  0.00000000000E+00  0.00000000000E+00 -0.21652595127E+04  0.21652595127E+04  0.25500000920E-02 0.  1.
    10030    2    1    2    0    0  0.00000000000E+00  0.00000000000E+00 -0.12687141882E+04  0.30618048371E+04  0.27865773217E+04 0.  0.
        2    1    3    3  502    0 -0.76488614508E+03 -0.29189729863E+03 -0.18730935414E+04  0.20441952605E+04  0.25500000920E-02 0.  1.
       -2    1    3    3    0  502  0.76488614508E+03  0.29189729863E+03  0.60437935328E+03  0.10176095767E+04  0.25500000920E-02 0. -1.
</event>
<event>
 5   0  0.1394410E-06  0.2801824E+04  0.7818609E-02  0.8302702E-01
        2   -1    0    0  501    0  0.00000000000E+00  0.00000000000E+00  0.15471502053E+04  0.15471502053E+04  0.25500000920E-02 0.  1.
       -2   -1    0    0    0  501  0.00000000000E+00  0.00000000000E+00 -0.12684967278E+04  0.12684967278E+04  0.25500000920E-02 0. -1.
    10030    2    1    2    0    0  0.00000000000E+00  0.00000000000E+00  0.27865347745E+03  0.28156469331E+04  0.28018243863E+04 0.  0.
        4    1    3    3  502    0 -0.62725750971E+03 -0.11093875047E+04 -0.44523080348E+03  0.13499721110E+04  0.12699999809E+01 0. -1.
       -4    1    3    3    0  502  0.62725750971E+03  0.11093875047E+04  0.72388428093E+03  0.14656748221E+04  0.12699999809E+01 0.  1.
</event>
<event>
 5   0  0.1439207E-06  0.2794924E+04  0.7818609E-02  0.8304846E-01
        2   -1    0    0  501    0  0.00000000000E+00  0.00000000000E+00  0.97299695049E+03  0.97299695050E+03  0.25500000920E-02 0. -1.
       -2   -1    0    0    0  501  0.00000000000E+00  0.00000000000E+00 -0.20070981085E+04  0.20070981085E+04  0.25500000920E-02 0.  1.
    10030    2    1    2    0    0  0.00000000000E+00  0.00000000000E+00 -0.10341011580E+04  0.29800950590E+04  0.27949242128E+04 0.  0.
        5    1    3    3  502    0 -0.78205393859E+03 -0.69233677651E+03  0.47286581563E+03  0.11465438258E+04  0.46999998093E+01 0. -1.
       -5    1    3    3    0  502  0.78205393859E+03  0.69233677651E+03 -0.15069669736E+04  0.18335512331E+04  0.46999998093E+01 0.  1.
</event>
<event>
 5   0  0.4710000E-07  0.2805699E+04  0.7818609E-02  0.8301501E-01
       -4   -1    0    0    0  501  0.00000000000E+00  0.00000000000E+00  0.14065786688E+04  0.14065792422E+04  0.12699999809E+01 0. -1.
        4   -1    0    0  501    0  0.00000000000E+00  0.00000000000E+00 -0.13991293272E+04  0.13991299036E+04  0.12699999809E+01 0.  1.
    10030    2    1    2    0    0  0.00000000000E+00  0.00000000000E+00  0.74493416038E+01  0.28057091458E+04  0.28056992565E+04 0.  0.
        4    1    3    3  502    0  0.62036280464E+02 -0.37124819627E+00  0.14052062707E+04  0.14065755984E+04  0.12699999809E+01 0. -1.
       -4    1    3    3    0  502 -0.62036280464E+02  0.37124819627E+00 -0.13977569291E+04  0.13991335474E+04  0.12699999809E+01 0.  1.
</event>
<event>
 5   0  0.5282098E-07  0.2799505E+04  0.7818609E-02  0.8303422E-01
       -1   -1    0    0    0  501  0.00000000000E+00  0.00000000000E+00  0.11842720259E+04  0.11842720260E+04  0.50400001928E-02 0.  1.
        1   -1    0    0  501    0  0.00000000000E+00  0.00000000000E+00 -0.16544399573E+04  0.16544399573E+04  0.50400001928E-02 0. -1.
    10030    2    1    2    0    0  0.00000000000E+00  0.00000000000E+00 -0.47016793138E+03  0.28387119833E+04  0.27995049277E+04 0.  0.
        4    1    3    3  502    0  0.91623203266E+03 -0.24092331077E+03 -0.12799422716E+04  0.15924129524E+04  0.12699999809E+01 0. -1.
       -4    1    3    3    0  502 -0.91623203266E+03  0.24092331077E+03  0.80977434026E+03  0.12462990309E+04  0.12699999809E+01 0.  1.
</event>
<event>
 5   0  0.5362952E-07  0.2802158E+04  0.7818609E-02  0.8302599E-01
       -1   -1    0    0    0  501  0.00000000000E+00  0.00000000000E+00  0.15562710748E+04  0.15562710748E+04  0.50400001928E-02 0.  1.
        1   -1    0    0  501    0  0.00000000000E+00  0.00000000000E+00 -0.12613629334E+04  0.12613629334E+04  0.50400001928E-02 0. -1.
    10030    2    1    2    0    0  0.00000000000E+00  0.00000000000E+00  0.29490814137E+03  0.28176340082E+04  0.28021582026E+04 0.  0.
        1    1    3    3  502    0  0.13703448433E+04 -0.26400422106E+03  0.27255755589E+03  0.14219109816E+04  0.50400001928E-02 0.  1.
       -1    1    3    3    0  502 -0.13703448433E+04  0.26400422106E+03  0.22350585483E+02  0.13957230266E+04  0.50400001928E-02 0. -1.
</event>
<event>
 5   0  0.1499888E-06  0.2792561E+04  0.7818609E-02  0.8305581E-01
        2   -1    0    0  501    0  0.00000000000E+00  0.00000000000E+00  0.17291671189E+04  0.17291671189E+04  0.25500000920E-02 0. -1.
       -2   -1    0    0    0  501  0.00000000000E+00  0.00000000000E+00 -0.11274790336E+04  0.11274790336E+04  0.25500000920E-02 0.  1.
    10030    2    1    2    0    0  0.00000000000E+00  0.00000000000E+00  0.60168808531E+03  0.28566461525E+04  0.27925613134E+04 0.  0.
        3    1    3    3  502    0 -0.56682384221E+03 -0.74810964791E+03 -0.75663050104E+03  0.12055899132E+04  0.10100000352E+00 0.  1.
       -3    1    3    3    0  502  0.56682384221E+03  0.74810964791E+03  0.13583185864E+04  0.16510562394E+04  0.10100000352E+00 0. -1.
</event>
<event>
 5   0  0.1461146E-06  0.2799701E+04  0.7818609E-02  0.8303361E-01
        2   -1    0    0  501    0  0.00000000000E+00  0.00000000000E+00  0.25571395095E+04  0.25571395095E+04  0.25500000920E-02 0.  1.
       -2   -1    0    0    0  501  0.00000000000E+00  0.00000000000E+00 -0.76631765336E+03  0.76631765336E+03  0.25500000920E-02 0. -1.
    10030    2    1    2    0    0  0.00000000000E+00  0.00000000000E+00  0.17908218562E+04  0.33234571629E+04  0.27997008042E+04 0.  0.
        1    1    3    3  502    0  0.47218669508E+03  0.25612145205E+03  0.24299206169E+04  0.24885884910E+04  0.50400001928E-02 0.  1.
       -1    1    3    3    0  502 -0.47218669508E+03 -0.25612145205E+03 -0.63909876075E+03  0.83486867184E+03  0.50400001928E-02 0. -1.
</event>
<event>
 5   0  0.1439207E-06  0.2797445E+04  0.7818609E-02  0.8304062E-01
       -2   -1    0    0    0  501  0.00000000000E+00  0.00000000000E+00  0.12625665364E+04  0.12625665364E+04  0.25500000920E-02 0. -1.
        2   -1    0    0  501    0  0.00000000000E+00  0.00000000000E+00 -0.15495614801E+04  0.15495614801E+04  0.25500000920E-02 0.  1.
    10030    2    1    2    0    0  0.00000000000E+00  0.00000000000E+00 -0.28699494364E+03  0.28121280165E+04  0.27974448848E+04 0.  0.
        5    1    3    3  502    0 -0.23637538299E+03 -0.92166704441E+03 -0.11740902128E+04  0.15112423301E+04  0.46999998093E+01 0.  1.
       -5    1    3    3    0  502  0.23637538299E+03  0.92166704441E+03  0.88709526917E+03  0.13008856864E+04  0.46999998093E+01 0. -1.
</event>
<event>
 5   0  0.5551565E-07  0.2795547E+04  0.7818609E-02  0.8304652E-01
        1   -1    0    0  501    0  0.00000000000E+00  0.00000000000E+00  0.23982537600E+04  0.23982537600E+04  0.50400001928E-02 0.  1.
       -1   -1    0    0    0  501  0.00000000000E+00  0.00000000000E+00 -0.81466384535E+03  0.81466384536E+03  0.50400001928E-02 0. -1.
    10030    2    1    2    0    0  0.00000000000E+00  0.00000000000E+00  0.15835899146E+04  0.32129176053E+04  0.27955469091E+04 0.  0.
        3    1    3    3  502    0 -0.68517349674E+03 -0.44815123317E+03 -0.51024823031E+03  0.96470488501E+03  0.10100000352E+00 0. -1.
       -3    1    3    3    0  502  0.68517349674E+03  0.44815123317E+03  0.20938381449E+04  0.22482127203E+04  0.10100000352E+00 0.  1.
</event>
<event>
 5   0  0.1377807E-06  0.2784091E+04  0.7818609E-02  0.8308224E-01
        2   -1    0    0  501    0  0.00000000000E+00  0.00000000000E+00  0.14895331487E+04  0.14895331488E+04  0.25500000920E-02 0.  1.
       -2   -1    0    0    0  501  0.00000000000E+00  0.00000000000E+00 -0.13009387255E+04  0.13009387255E+04  0.25500000920E-02 0. -1.
    10030    2    1    2    0    0  0.00000000000E+00  0.00000000000E+00  0.18859442328E+03  0.27904718742E+04  0.27840914899E+04 0.  0.
        2    1    3    3  502    0 -0.21386660974E+02  0.21754261521E+03 -0.12836294493E+04  0.13021085753E+04  0.25500000920E-02 0. -1.
       -2    1    3    3    0  502  0.21386660974E+02 -0.21754261521E+03  0.14722238726E+04  0.14883632990E+04  0.25500000920E-02 0.  1.
</event>
<event>
 5   0  0.5362952E-07  0.2796547E+04  0.7818609E-02  0.8304341E-01
        1   -1    0    0  501    0  0.00000000000E+00  0.00000000000E+00  0.12264172216E+04  0.12264172216E+04  0.50400001928E-02 0.  1.
       -1   -1    0    0    0  501  0.00000000000E+00  0.00000000000E+00 -0.15942119226E+04  0.15942119227E+04  0.50400001928E-02 0. -1.
    10030    2    1    2    0    0  0.00000000000E+00  0.00000000000E+00 -0.36779470104E+03  0.28206291443E+04  0.27965471259E+04 0.  0.
        1    1    3    3  502    0  0.87502418932E+03  0.57232719997E+03  0.75250645700E+03  0.12882126081E+04  0.50400001928E-02 0.  1.
       -1    1    3    3    0  502 -0.87502418932E+03 -0.57232719997E+03 -0.11203011580E+04  0.15324165362E+04  0.50400001928E-02 0. -1.
</event>
<event>
 5   0  0.1499888E-06  0.2802891E+04  0.7818609E-02  0.8302371E-01
       -2   -1    0    0    0  501  0.00000000000E+00  0.00000000000E+00  0.13650593069E+04  0.13650593069E+04  0.25500000920E-02 0. -1.
        2   -1    0    0  501    0  0.00000000000E+00  0.00000000000E+00 -0.14388014494E+04  0.14388014494E+04  0.25500000920E-02 0.  1.
    10030    2    1    2    0    0  0.00000000000E+00  0.00000000000E+00 -0.73742142513E+02  0.28038607563E+04  0.28028908714E+04 0.  0.
        3    1    3    3  502    0  0.74232022462E+03  0.10157158681E+04  0.58086285888E+03  0.13856838426E+04  0.10100000352E+00 0. -1.
       -3    1    3    3    0  502 -0.74232022462E+03 -0.10157158681E+04 -0.65460500139E+03  0.14181769137E+04  0.10100000352E+00 0.  1.
</event>
<event>
 5   0  0.1377807E-06  0.2802422E+04  0.7818609E-02  0.8302517E-01
        2   -1    0    0  501    0  0.00000000000E+00  0.00000000000E+00  0.98566304216E+03  0.98566304216E+03  0.25500000920E-02 0. -1.
       -2   -1    0    0    0  501  0.00000000000E+00  0.00000000000E+00 -0.19919509193E+04  0.19919509193E+04  0.25500000920E-02 0.  1.
    10030    2    1    2    0    0  0.00000000000E+00  0.00000000000E+00 -0.10062878772E+04  0.29776139615E+04  0.28024220974E+04 0.  0.
        2    1    3    3  502    0 -0.23272745417E+03 -0.62065507647E+03 -0.18148297964E+04  0.19320926432E+04  0.25500000920E-02 0.  1.
       -2    1    3    3    0  502  0.23272745417E+03  0.62065507647E+03  0.80854191924E+03  0.10455213183E+04  0.25500000920E-02 0. -1.
</event>
<event>
 5   0  0.5362952E-07  0.2794960E+04  0.7818609E-02  0.8304835E-01
        1   -1    0    0  501    0  0.00000000000E+00  0.00000000000E+00  0.69247294033E+03  0.69247294035E+03  0.50400001928E-02 0. -1.
       -1   -1    0    0    0  501  0.00000000000E+00  0.00000000000E+00 -0.28202558170E+04  0.28202558170E+04  0.50400001928E-02 0.  1.
    10030    2    1    2    0    0  0.00000000000E+00  0.00000000000E+00 -0.21277828767E+04  0.35127287574E+04  0.27949603490E+04 0.  0.
        1    1    3    3  502    0  0.81622826429E+03  0.82227250081E+03 -0.81818198299E+02  0.11614882103E+04  0.50400001928E-02 0. -1.
       -1    1    3    3    0  502 -0.81622826429E+03 -0.82227250081E+03 -0.20459646784E+04  0.23512405471E+04  0.50400001928E-02 0.  1.
</event>
<event>
 5   0  0.1439207E-06  0.2795193E+04  0.7818609E-02  0.8304762E-01
        2   -1    0    0  501    0  0.00000000000E+00  0.00000000000E+00  0.21204000209E+04  0.21204000209E+04  0.25500000920E-02 0.  1.
       -2   -1    0    0    0  501  0.00000000000E+00  0.00000000000E+00 -0.92118290829E+03  0.92118290829E+03  0.25500000920E-02 0. -1.
    10030    2    1    2    0    0  0.00000000000E+00  0.00000000000E+00  0.11992171126E+04  0.30415829292E+04  0.27951932012E+04 0.  0.
        5    1    3    3  502    0  0.14701390880E+03 -0.34371960241E+02  0.21114915944E+04  0.21168876598E+04  0.46999998093E+01 0.  1.
       -5    1    3    3    0  502 -0.14701390880E+03  0.34371960241E+02 -0.91227448181E+03  0.92469526937E+03  0.46999998093E+01 0. -1.
</event>
<event>
 5   0  0.1377807E-06  0.2799409E+04  0.7818609E-02  0.8303452E-01
       -2   -1    0    0    0  501  0.00000000000E+00  0.00000000000E+00  0.12931552704E+04  0.12931552704E+04  0.25500000920E-02 0. -1.
        2   -1    0    0  501    0  0.00000000000E+00  0.00000000000E+00 -0.15150329021E+04  0.15150329021E+04  0.25500000920E-02 0.  1.
    10030    2    1    2    0    0  0.00000000000E+00  0.00000000000E+00 -0.22187763176E+03  0.28081881725E+04  0.27994090678E+04 0.  0.
        2    1    3    3  502    0  0.20905838536E+03  0.84849377766E+03 -0.12077687538E+04  0.14907556681E+04  0.25500000920E-02 0.  1.
       -2    1    3    3    0  502 -0.20905838536E+03 -0.84849377766E+03  0.98589112206E+03  0.13174325045E+04  0.25500000920E-02 0. -1.
</event>
<event>
 5   0  0.1439207E-06  0.2800805E+04  0.7818609E-02  0.8303018E-01
       -2   -1    0    0    0  501  0.00000000000E+00  0.00000000000E+00  0.16442818623E+04  0.16442818623E+04  0.25500000920E-02 0.  1.
        2   -1    0    0  501    0  0.00000000000E+00  0.00000000000E+00 -0.11926954267E+04  0.11926954267E+04  0.25500000920E-02 0. -1.
    10030    2    1    2    0    0  0.00000000000E+00  0.00000000000E+00  0.45158643555E+03  0.28369772890E+04  0.28008052109E+04 0.  0.
        5    1    3    3  502    0 -0.21989606175E+03 -0.81968287378E+03  0.13541236044E+04  0.15980948399E+04  0.46999998093E+01 0.  1.
       -5    1    3    3    0  502  0.21989606175E+03  0.81968287378E+03 -0.90253716882E+03  0.12388824491E+04  0.46999998093E+01 0. -1.
</event>
<event>
 5   0  0.5362952E-07  0.2795239E+04  0.7818609E-02  0.8304748E-01
       -1   -1    0    0    0  501  0.00000000000E+00  0.00000000000E+00  0.10221266217E+04  0.10221266218E+04  0.50400001928E-02 0.  1.
        1   -1    0    0  501    0  0.00000000000E+00  0.00000000000E+00 -0.19110547557E+04  0.19110547557E+04  0.50400001928E-02 0. -1.
    10030    2    1    2    0    0  0.00000000000E+00  0.00000000000E+00 -0.88892813399E+03  0.29331813775E+04  0.27952387672E+04 0.  0.
        1    1    3    3  502    0  0.47648851554E+03  0.46823917274E+03 -0.17326659852E+04  0.18569923653E+04  0.50400001928E-02 0. -1.
       -1    1    3    3    0  502 -0.47648851554E+03 -0.46823917274E+03  0.84373785124E+03  0.10761890122E+04  0.50400001928E-02 0.  1.
</event>
<event>
 5   0  0.1394410E-06  0.2794685E+04  0.7818609E-02  0.8304920E-01
       -2   -1    0    0    0  501  0.00000000000E+00  0.00000000000E+00  0.12325723545E+04  0.12325723545E+04  0.25500000920E-02 0. -1.
        2   -1    0    0  501    0  0.00000000000E+00  0.00000000000E+00 -0.15841389313E+04  0.15841389313E+04  0.25500000920E-02 0.  1.
    10030    2    1    2    0    0  0.00000000000E+00  0.00000000000E+00 -0.35156657678E+03  0.28167112858E+04  0.27946848498E+04 0.  0.
        4    1    3    3  502    0  0.30815892983E+03 -0.13618168061E+04 -0.12005463724E+03  0.14013998959E+04  0.12699999809E+01 0.  1.
       -4    1    3    3    0  502 -0.30815892983E+03  0.13618168061E+04 -0.23151193953E+03  0.14153113899E+04  0.12699999809E+01 0. -1.
</event>
<event>
 5   0  0.1499888E-06  0.2788133E+04  0.7818609E-02  0.8306962E-01
        2   -1    0    0  501    0  0.00000000000E+00  0.00000000000E+00  0.19239328826E+04  0.19239328826E+04  0.25500000920E-02 0. -1.
       -2   -1    0    0    0  501  0.00000000000E+00  0.00000000000E+00 -0.10101295344E+04  0.10101295344E+04  0.25500000920E-02 0.  1.
    10030    2    1    2    0    0  0.00000000000E+00  0.00000000000E+00  0.91380334817E+03  0.29340624171E+04  0.27881330148E+04 0.  0.
        3    1    3    3  502    0  0.99661731526E+03 -0.59154943544E+01 -0.56886772864E+03  0.11475589610E+04  0.10100000352E+00 0.  1.
       -3    1    3    3    0  502 -0.99661731526E+03  0.59154943544E+01  0.14826710768E+04  0.17865034560E+04  0.10100000352E+00 0. -1.
</event>
<event>
 5   0  0.4710000E-07  0.2792125E+04  0.7818609E-02  0.8305717E-01
        4   -1    0    0  501    0  0.00000000000E+00  0.00000000000E+00  0.10139848069E+04  0.10139856022E+04  0.12699999809E+01 0. -1.
       -4   -1    0    0    0  501  0.00000000000E+00  0.00000000000E+00 -0.19221079927E+04  0.19221084122E+04  0.12699999809E+01 0.  1.
    10030    2    1    2    0    0  0.00000000000E+00  0.00000000000E+00 -0.90812318579E+03  0.29360940144E+04  0.27921247001E+04 0.  0.
        2    1    3    3  502    0 -0.11991558592E+04  0.58947867141E+03 -0.28821563214E+02  0.13365218147E+04  0.25500000920E-02 0. -1.
       -2    1    3    3    0  502  0.11991558592E+04 -0.58947867141E+03 -0.87930162258E+03  0.15995721997E+04  0.25500000920E-02 0.  1.
</event>
<event>
 5   0  0.1499888E-06  0.2797058E+04  0.7818609E-02  0.8304182E-01
       -2   -1    0    0    0  501  0.00000000000E+00  0.00000000000E+00  0.78277599184E+03  0.78277599184E+03  0.25500000920E-02 0. -1.
        2   -1    0    0  501    0  0.00000000000E+00  0.00000000000E+00 -0.24986496851E+04  0.24986496851E+04  0.25500000920E-02 0.  1.
    10030    2    1    2    0    0  0.00000000000E+00  0.00000000000E+00 -0.17158736933E+04  0.32814256769E+04  0.27970577295E+04 0.  0.
        3    1    3    3  502    0  0.10475815027E+03 -0.47683814289E+03 -0.23954322465E+04  0.24446767767E+04  0.10100000352E+00 0.  1.
       -3    1    3    3    0  502 -0.10475815027E+03  0.47683814289E+03  0.67955855326E+03  0.83674890025E+03  0.10100000352E+00 0. -1.
</event>
<event>
 5   0  0.5551565E-07  0.2807987E+04  0.7818609E-02  0.8300793E-01
       -1   -1    0    0    0  501  0.00000000000E+00  0.00000000000E+00  0.11729292077E+04  0.11729292077E+04  0.50400001928E-02 0. -1.
        1   -1    0    0  501    0  0.00000000000E+00  0.00000000000E+00 -0.16805770627E+04  0.16805770627E+04  0.50400001928E-02 0.  1.
    10030    2    1    2    0    0  0.00000000000E+00  0.00000000000E+00 -0.50764785498E+03  0.28535062704E+04  0.28079871243E+04 0.  0.
        3    1    3    3  502    0 -0.63847236893E+03  0.52349751731E+03  0.90014631722E+03  0.12214581528E+04  0.10100000352E+00 0. -1.
       -3    1    3    3    0  502  0.63847236893E+03 -0.52349751731E+03 -0.14077941722E+04  0.16320481176E+04  0.10100000352E+00 0.  1.
</event>
<event>
 5   0  0.5551565E-07  0.2800124E+04  0.7818609E-02  0.8303230E-01
       -1   -1    0    0    0  501  0.00000000000E+00  0.00000000000E+00  0.98413090420E+03  0.98413090421E+03  0.50400001928E-02 0.  1.
        1   -1    0    0  501    0  0.00000000000E+00  0.00000000000E+00 -0.19917814495E+04  0.19917814495E+04  0.50400001928E-02 0. -1.
    10030    2    1    2    0    0  0.00000000000E+00  0.00000000000E+00 -0.10076505453E+04  0.29759123537E+04  0.28001240536E+04 0.  0.
        3    1    3    3  502    0 -0.74624542314E+03  0.26053113260E+03  0.72432351409E+03  0.10721022647E+04  0.10100000352E+00 0.  1.
       -3    1    3    3    0  502  0.74624542314E+03 -0.26053113260E+03 -0.17319740593E+04  0.19038100890E+04  0.10100000352E+00 0. -1.
</event>
<event>
 5   0  0.1394410E-06  0.2792999E+04  0.7818609E-02  0.8305445E-01
        2   -1    0    0  501    0  0.00000000000E+00  0.00000000000E+00  0.17619280628E+04  0.17619280628E+04  0.25500000920E-02 0. -1.
       -2   -1    0    0    0  501  0.00000000000E+00  0.00000000000E+00 -0.11068616592E+04  0.11068616592E+04  0.25500000920E-02 0.  1.
    10030    2    1    2    0    0  0.00000000000E+00  0.00000000000E+00  0.65506640358E+03  0.28687897221E+04  0.27929988321E+04 0.  0.
        4    1    3    3  502    0 -0.54785918751E+03  0.84173310078E+03  0.13241964284E+04  0.16619753597E+04  0.12699999809E+01 0. -1.
       -4    1    3    3    0  502  0.54785918751E+03 -0.84173310078E+03 -0.66913002481E+03  0.12068143624E+04  0.12699999809E+01 0.  1.
</event>
<event>
 5   0  0.5297741E-07  0.2800282E+04  0.7818609E-02  0.8303181E-01
        1   -1    0    0  501    0  0.00000000000E+00  0.00000000000E+00  0.17479409206E+04  0.17479409206E+04  0.50400001928E-02 0.  1.
       -1   -1    0    0    0  501  0.00000000000E+00  0.00000000000E+00 -0.11215452084E+04  0.11215452084E+04  0.50400001928E-02 0. -1.
    10030    2    1    2    0    0  0.00000000000E+00  0.00000000000E+00  0.62639571225E+03  0.28694861290E+04  0.28002819601E+04 0.  0.
        5    1    3    3  502    0 -0.46808828151E+03  0.31119077416E+03 -0.10008451497E+04  0.11478934797E+04  0.46999998093E+01 0. -1.
       -5    1    3    3    0  502  0.46808828151E+03 -0.31119077416E+03  0.16272408619E+04  0.17215926492E+04  0.46999998093E+01 0.  1.
</event>
<event>
 5   0  0.5297741E-07  0.2802623E+04  0.7818609E-02  0.8302455E-01
       -1   -1    0    0    0  501  0.00000000000E+00  0.00000000000E+00  0.17988006536E+04  0.17988006536E+04  0.50400001928E-02 0.  1.
        1   -1    0    0  501    0  0.00000000000E+00  0.00000000000E+00 -0.10916571523E+04  0.10916571523E+04  0.50400001928E-02 0. -1.
    10030    2    1    2    0    0  0.00000000000E+00  0.00000000000E+00  0.70714350133E+03  0.28904578059E+04  0.28026227709E+04 0.  0.
        5    1    3    3  502    0  0.11080861642E+04  0.60196902371E+03 -0.27666903735E+03  0.12910420207E+04  0.46999998093E+01 0. -1.
       -5    1    3    3    0  502 -0.11080861642E+04 -0.60196902371E+03  0.98381253867E+03  0.15994157853E+04  0.46999998093E+01 0.  1.
</event>
<event>
 5   0  0.4710000E-07  0.2808417E+04  0.7818609E-02  0.8300660E-01
        3   -1    0    0  501    0  0.00000000000E+00  0.00000000000E+00  0.12169882267E+04  0.12169882309E+04  0.10100000352E+00 0. -1.
       -3   -1    0    0    0  501  0.00000000000E+00  0.00000000000E+00 -0.16202308011E+04  0.16202308043E+04  0.10100000352E+00 0.  1.
    10030    2    1    2    0    0  0.00000000000E+00  0.00000000000E+00 -0.40324257445E+03  0.28372190352E+04  0.28084172197E+04 0.  0.
        3    1    3    3  502    0 -0.80068342650E+03 -0.56472741163E+03 -0.12178152328E+04  0.15630370918E+04  0.10100000352E+00 0.  1.
       -3    1    3    3    0  502  0.80068342650E+03  0.56472741163E+03  0.81457265834E+03  0.12741819434E+04  0.10100000352E+00 0. -1.
</event>
<event>
 5   0  0.5551565E-07  0.2797640E+04  0.7818609E-02  0.8304001E-01
        1   -1    0    0  501    0  0.00000000000E+00  0.00000000000E+00  0.17408659306E+04  0.17408659306E+04  0.50400001928E-02 0. -1.
       -1   -1    0    0    0  501  0.00000000000E+00  0.00000000000E+00 -0.11239792921E+04  0.11239792921E+04  0.50400001928E-02 0.  1.
    10030    2    1    2    0    0  0.00000000000E+00  0.00000000000E+00  0.61688663851E+03  0.28648452227E+04  0.27976399027E+04 0.  0.
        3    1    3    3  502    0  0.13781558936E+04 -0.23430625254E+03  0.25740468490E+03  0.14214324708E+04  0.10100000352E+00 0.  1.
       -3    1    3    3    0  502 -0.13781558936E+04  0.23430625254E+03  0.35948195361E+03  0.14434127519E+04  0.10100000352E+00 0. -1.
</event>
<event>
 5   0  0.1461146E-06  0.2818964E+04  0.7818609E-02  0.8297405E-01
        2   -1    0    0  501    0  0.00000000000E+00  0.00000000000E+00  0.13504195736E+04  0.13504195736E+04  0.25500000920E-02 0. -1.
       -2   -1    0    0    0  501  0.00000000000E+00  0.00000000000E+00 -0.14711274693E+04  0.14711274693E+04  0.25500000920E-02 0.  1.
    10030    2    1    2    0    0  0.00000000000E+00  0.00000000000E+00 -0.12070789573E+03  0.28215470429E+04  0.28189638734E+04 0.  0.
        1    1    3    3  502    0 -0.13312064522E+04 -0.44544102170E+03 -0.18739940425E+03  0.14162086213E+04  0.50400001928E-02 0.  1.
       -1    1    3    3    0  502  0.13312064522E+04  0.44544102170E+03  0.66691508521E+02  0.14053384217E+04  0.50400001928E-02 0. -1.
</event>
<event>
 5   0  0.5214658E-07  0.2806582E+04  0.7818609E-02  0.8301228E-01
        1   -1    0    0  501    0  0.00000000000E+00  0.00000000000E+00  0.13842155586E+04  0.13842155587E+04  0.50400001928E-02 0. -1.
       -1   -1    0    0    0  501  0.00000000000E+00  0.00000000000E+00 -0.14226291876E+04  0.14226291876E+04  0.50400001928E-02 0.  1.
    10030    2    1    2    0    0  0.00000000000E+00  0.00000000000E+00 -0.38413628905E+02  0.28068447462E+04  0.28065818753E+04 0.  0.
        2    1    3    3  502    0  0.12189001613E+04  0.20621260065E+03  0.64492180777E+03  0.13943333095E+04  0.25500000920E-02 0. -1.
       -2    1    3    3    0  502 -0.12189001613E+04 -0.20621260065E+03 -0.68333543668E+03  0.14125114367E+04  0.25500000920E-02 0.  1.
</event>
<event>
 5   0  0.5551565E-07  0.2783965E+04  0.7818609E-02  0.8308264E-01
        1   -1    0    0  501    0  0.00000000000E+00  0.00000000000E+00  0.18286490355E+04  0.18286490355E+04  0.50400001928E-02 0.  1.
       -1   -1    0    0    0  501  0.00000000000E+00  0.00000000000E+00 -0.10595883522E+04  0.10595883522E+04  0.50400001928E-02 0. -1.
    10030    2    1    2    0    0  0.00000000000E+00  0.00000000000E+00  0.76906068325E+03  0.28882373877E+04  0.27839649555E+04 0.  0.
        3    1    3    3  502    0  0.13653243791E+04 -0.27089643462E+03  0.39587943458E+03  0.14471406550E+04  0.10100000352E+00 0. -1.
       -3    1    3    3    0  502 -0.13653243791E+04  0.27089643462E+03  0.37318124867E+03  0.14410967327E+04  0.10100000352E+00 0.  1.
</event>
<event>
 5   0  0.5214658E-07  0.2798543E+04  0.7818609E-02  0.8303721E-01
        1   -1    0    0  501    0  0.00000000000E+00  0.00000000000E+00  0.23799204210E+04  0.23799204210E+04  0.50400001928E-02 0.  1.
       -1   -1    0    0    0  501  0.00000000000E+00  0.00000000000E+00 -0.82270020580E+03  0.82270020582E+03  0.50400001928E-02 0. -1.
    10030    2    1    2    0    0  0.00000000000E+00  0.00000000000E+00  0.15572202152E+04  0.32026206268E+04  0.27985432069E+04 0.  0.
        2    1    3    3  502    0 -0.55750901914E+02  0.10746272747E+04  0.18022008892E+04  0.20990140514E+04  0.25500000920E-02 0.  1.
       -2    1    3    3    0  502  0.55750901914E+02 -0.10746272747E+04 -0.24498067407E+03  0.11036065754E+04  0.25500000920E-02 0. -1.
</event>
<event>
 5   0  0.5551565E-07  0.2810205E+04  0.7818609E-02  0.8300107E-01
       -1   -1    0    0    0  501  0.00000000000E+00  0.00000000000E+00  0.15167722892E+04  0.15167722892E+04  0.50400001928E-02 0.  1.
        1   -1    0    0  501    0  0.00000000000E+00  0.00000000000E+00 -0.13016541264E+04  0.13016541264E+04  0.50400001928E-02 0. -1.
    10030    2    1    2    0    0  0.00000000000E+00  0.00000000000E+00  0.21511816281E+03  0.28184264156E+04  0.28102049100E+04 0.  0.
        3    1    3    3  502    0 -0.20549385690E+03 -0.10519114318E+04  0.10188247521E+04  0.14787661313E+04  0.10100000352E+00 0.  1.
       -3    1    3    3    0  502  0.20549385690E+03  0.10519114318E+04 -0.80370658928E+03  0.13396602843E+04  0.10100000352E+00 0. -1.
</event>
<event>
 5   0  0.1439207E-06  0.2798775E+04  0.7818609E-02  0.8303649E-01
        2   -1    0    0  501    0  0.00000000000E+00  0.00000000000E+00  0.11303654136E+04  0.11303654136E+04  0.25500000920E-02 0.  1.
       -2   -1    0    0    0  501  0.00000000000E+00  0.00000000000E+00 -0.17324357384E+04  0.17324357384E+04  0.25500000920E-02 0. -1.
    10030    2    1    2    0    0  0.00000000000E+00  0.00000000000E+00 -0.60207032484E+03  0.28628011521E+04  0.27987750464E+04 0.  0.
        5    1    3    3  502    0 -0.57384690658E+03  0.11539443202E+04 -0.85883173825E+03  0.15487097246E+04  0.46999998093E+01 0. -1.
       -5    1    3    3    0  502  0.57384690658E+03 -0.11539443202E+04  0.25676141342E+03  0.13140914275E+04  0.46999998093E+01 0.  1.
</event>
<event>
 5   0  0.1461146E-06  0.2796270E+04  0.7818609E-02  0.8304427E-01
        2   -1    0    0  501    0  0.00000000000E+00  0.00000000000E+00  0.12906760736E+04  0.12906760736E+04  0.25500000920E-02 0. -1.
       -2   -1    0    0    0  501  0.00000000000E+00  0.00000000000E+00 -0.15145402470E+04  0.15145402470E+04  0.25500000920E-02 0.  1.
    10030    2    1    2    0    0  0.00000000000E+00  0.00000000000E+00 -0.22386417339E+03  0.28052163205E+04  0.27962695573E+04 0.  0.
        1    1    3    3  502    0  0.89983985606E+03 -0.70373555251E+03 -0.92062875139E+03  0.14671444347E+04  0.50400001928E-02 0.  1.
       -1    1    3    3    0  502 -0.89983985606E+03  0.70373555251E+03  0.69676457800E+03  0.13380718858E+04  0.50400001928E-02 0. -1.
</event>
<event>
 5   0  0.5362952E-07  0.2761607E+04  0.7818609E-02  0.8315288E-01
       -1   -1    0    0    0  501  0.00000000000E+00  0.00000000000E+00  0.29267706946E+04  0.29267706946E+04  0.50400001928E-02 0. -1.
        1   -1    0    0  501    0  0.00000000000E+00  0.00000000000E+00 -0.65144083817E+03  0.65144083819E+03  0.50400001928E-02 0.  1.
    10030    2    1    2    0    0  0.00000000000E+00  0.00000000000E+00  0.22753298564E+04  0.35782115328E+04  0.27616067457E+04 0.  0.
        1    1    3    3  502    0 -0.81566461374E+03  0.46837152314E+03 -0.17216920482E+03  0.95620232216E+03  0.50400001928E-02 0.  1.
       -1    1    3    3    0  502  0.81566461374E+03 -0.46837152314E+03  0.24474990613E+04  0.26220092106E+04  0.50400001928E-02 0. -1.
</event>
<event>
 5   0  0.1377807E-06  0.2800121E+04  0.7818609E-02  0.8303231E-01
        2   -1    0    0  501    0  0.00000000000E+00  0.00000000000E+00  0.73172154681E+03  0.73172154681E+03  0.25500000920E-02 0. -1.
       -2   -1    0    0    0  501  0.00000000000E+00  0.00000000000E+00 -0.26788456642E+04  0.26788456642E+04  0.25500000920E-02 0.  1.
    10030    2    1    2    0    0  0.00000000000E+00  0.00000000000E+00 -0.19471241174E+04  0.34105672110E+04  0.28001207781E+04 0.  0.
        2    1    3    3  502    0  0.70156683365E+02 -0.78629272248E+03 -0.23819233234E+04  0.25093299752E+04  0.25500000920E-02 0.  1.
       -2    1    3    3    0  502 -0.70156683365E+02  0.78629272248E+03  0.43479920605E+03  0.90123723582E+03  0.25500000920E-02 0. -1.
</event>
<event>
 5   0  0.1439207E-06  0.2805269E+04  0.7818609E-02  0.8301634E-01
       -2   -1    0    0    0  501  0.00000000000E+00  0.00000000000E+00  0.22789571302E+04  0.22789571302E+04  0.25500000920E-02 0.  1.
        2   -1    0    0  501    0  0.00000000000E+00  0.00000000000E+00 -0.86328251706E+03  0.86328251706E+03  0.25500000920E-02 0. -1.
    10030    2    1    2    0    0  0.00000000000E+00  0.00000000000E+00  0.14156746131E+04  0.31422396472E+04  0.28052692189E+04 0.  0.
        5    1    3    3  502    0  0.18410361731E+03 -0.86790875606E+03 -0.50902918439E+03  0.10228844272E+04  0.46999998093E+01 0. -1.
       -5    1    3    3    0  502 -0.18410361731E+03  0.86790875606E+03  0.19247037975E+04  0.21193552201E+04  0.46999998093E+01 0.  1.
</event>
<event>
 5   0  0.5214658E-07  0.2801666E+04  0.7818609E-02  0.8302751E-01
       -1   -1    0    0    0  501  0.00000000000E+00  0.00000000000E+00  0.10146312900E+04  0.10146312900E+04  0.50400001928E-02 0.  1.
        1   -1    0    0  501    0  0.00000000000E+00  0.00000000000E+00 -0.19340360039E+04  0.19340360039E+04  0.50400001928E-02 0. -1.
    10030    2    1    2    0    0  0.00000000000E+00  0.00000000000E+00 -0.91940471390E+03  0.29486672939E+04  0.28016662511E+04 0.  0.
        2    1    3    3  502    0  0.44829836301E+03  0.17798035502E+03  0.92447864990E+03  0.10427411966E+04  0.25500000920E-02 0.  1.
       -2    1    3    3    0  502 -0.44829836301E+03 -0.17798035502E+03 -0.18438833638E+04  0.19059260973E+04  0.25500000920E-02 0. -1.
</event>
<event>
 5   0  0.1377807E-06  0.2800590E+04  0.7818609E-02  0.8303085E-01
       -2   -1    0    0    0  501  0.00000000000E+00  0.00000000000E+00  0.11725324735E+04  0.11725324735E+04  0.25500000920E-02 0. -1.
        2   -1    0    0  501    0  0.00000000000E+00  0.00000000000E+00 -0.16723006124E+04  0.16723006124E+04  0.25500000920E-02 0.  1.
    10030    2    1    2    0    0  0.00000000000E+00  0.00000000000E+00 -0.49976813888E+03  0.28448330859E+04  0.28005904903E+04 0.  0.
        2    1    3    3  502    0 -0.73772688286E+03  0.11116450473E+04 -0.68184428882E+03  0.14983014713E+04  0.25500000920E-02 0. -1.
       -2    1    3    3    0  502  0.73772688286E+03 -0.11116450473E+04  0.18207614994E+03  0.13465316146E+04  0.25500000920E-02 0.  1.
</event>
<event>
 5   0  0.1499888E-06  0.2796657E+04  0.7818609E-02  0.8304307E-01
       -2   -1    0    0    0  501  0.00000000000E+00  0.00000000000E+00  0.11061050812E+04  0.11061050812E+04  0.25500000920E-02 0.  1.
        2   -1    0    0  501    0  0.00000000000E+00  0.00000000000E+00 -0.17677544366E+04  0.17677544366E+04  0.25500000920E-02 0. -1.
    10030    2    1    2    0    0  0.00000000000E+00  0.00000000000E+00 -0.66164935545E+03  0.28738595178E+04  0.27966566930E+04 0.  0.
        3    1    3    3  502    0  0.94469772904E+03  0.66235930514E+03 -0.11426644901E+04  0.16238398306E+04  0.10100000352E+00 0. -1.
       -3    1    3    3    0  502 -0.94469772904E+03 -0.66235930514E+03  0.48101513466E+03  0.12500196872E+04  0.10100000352E+00 0.  1.
</event>
<event>
 5   0  0.4710000E-07  0.2799312E+04  0.7818609E-02  0.8303482E-01
       -3   -1    0    0    0  501  0.00000000000E+00  0.00000000000E+00  0.13012662114E+04  0.13012662153E+04  0.10100000352E+00 0. -1.
        3   -1    0    0  501    0  0.00000000000E+00  0.00000000000E+00 -0.15054849132E+04  0.15054849165E+04  0.10100000352E+00 0.  1.
    10030    2    1    2    0    0  0.00000000000E+00  0.00000000000E+00 -0.20421870179E+03  0.28067511318E+04  0.27993118150E+04 0.  0.
        4    1    3    3  502    0  0.46952856344E+03 -0.58735054102E+03  0.10815351370E+04  0.13172538083E+04  0.12699999809E+01 0. -1.
       -4    1    3    3    0  502 -0.46952856344E+03  0.58735054102E+03 -0.12857538388E+04  0.14894973235E+04  0.12699999809E+01 0.  1.
</event>
<event>
 5   0  0.5297741E-07  0.2807332E+04  0.7818609E-02  0.8300996E-01
        1   -1    0    0  501    0  0.00000000000E+00  0.00000000000E+00  0.25190413214E+04  0.25190413214E+04  0.50400001928E-02 0. -1.
       -1   -1    0    0    0  501  0.00000000000E+00  0.00000000000E+00 -0.78215420047E+03  0.78215420049E+03  0.50400001928E-02 0.  1.
    10030    2    1    2    0    0  0.00000000000E+00  0.00000000000E+00  0.17368871209E+04  0.33011955219E+04  0.28073323642E+04 0.  0.
        5    1    3    3  502    0 -0.13145071407E+03 -0.11040960608E+04  0.18758632462E+04  0.21806403670E+04  0.46999998093E+01 0. -1.
       -5    1    3    3    0  502  0.13145071407E+03  0.11040960608E+04 -0.13897612533E+03  0.11205551549E+04  0.46999998093E+01 0.  1.
</event>
<event>
 5   0  0.1461146E-06  0.2797806E+04  0.7818609E-02  0.8303950E-01
       -2   -1    0    0    0  501  0.00000000000E+00  0.00000000000E+00  0.13170344947E+04  0.13170344947E+04  0.25500000920E-02 0.  1.
        2   -1    0    0  501    0  0.00000000000E+00  0.00000000000E+00 -0.14858601529E+04  0.14858601529E+04  0.25500000920E-02 0. -1.
    10030    2    1    2    0    0  0.00000000000E+00  0.00000000000E+00 -0.16882565823E+03  0.28028946476E+04  0.27978056228E+04 0.  0.
        1    1    3    3  502    0  0.46269066321E+03 -0.90529816496E+03  0.87821040487E+03  0.13434660147E+04  0.50400001928E-02 0.  1.
       -1    1    3    3    0  502 -0.46269066321E+03  0.90529816496E+03 -0.10470360631E+04  0.14594286330E+04  0.50400001928E-02 0. -1.
</event>
<event>
 5   0  0.5282098E-07  0.2784447E+04  0.7818609E-02  0.8308113E-01
       -1   -1    0    0    0  501  0.00000000000E+00  0.00000000000E+00  0.91200384301E+03  0.91200384302E+03  0.50400001928E-02 0. -1.
        1   -1    0    0  501    0  0.00000000000E+00  0.00000000000E+00 -0.21253055617E+04  0.21253055617E+04  0.50400001928E-02 0.  1.
    10030    2    1    2    0    0  0.00000000000E+00  0.00000000000E+00 -0.12133017187E+04  0.30373094047E+04  0.27844474065E+04 0.  0.
        4    1    3    3  502    0 -0.61149440526E+01  0.53680648481E+03  0.79455965881E+03  0.95891879687E+03  0.12699999809E+01 0. -1.
       -4    1    3    3    0  502  0.61149440526E+01 -0.53680648481E+03 -0.20078613775E+04  0.20783906078E+04  0.12699999809E+01 0.  1.
</event>
<event>
 5   0  0.5214658E-07  0.2807233E+04  0.7818609E-02  0.8301026E-01
       -1   -1    0    0    0  501  0.00000000000E+00  0.00000000000E+00  0.17840526178E+04  0.17840526178E+04  0.50400001928E-02 0. -1.
        1   -1    0    0  501    0  0.00000000000E+00  0.00000000000E+00 -0.11043056471E+04  0.11043056471E+04  0.50400001928E-02 0.  1.
    10030    2    1    2    0    0  0.00000000000E+00  0.00000000000E+00  0.67974697070E+03  0.28883582648E+04  0.28072330722E+04 0.  0.
        2    1    3    3  502    0  0.10893032165E+04  0.87656048377E+03  0.21302400670E+03  0.14143263438E+04  0.25500000920E-02 0.  1.
       -2    1    3    3    0  502 -0.10893032165E+04 -0.87656048377E+03  0.46672296400E+03  0.14740319211E+04  0.25500000920E-02 0. -1.
</event>
<event>
 5   0  0.1394410E-06  0.2817520E+04  0.7818609E-02  0.8297850E-01
       -2   -1    0    0    0  501  0.00000000000E+00  0.00000000000E+00  0.99493633460E+03  0.99493633461E+03  0.25500000920E-02 0. -1.
        2   -1    0    0  501    0  0.00000000000E+00  0.00000000000E+00 -0.19947056598E+04  0.19947056598E+04  0.25500000920E-02 0.  1.
    10030    2    1    2    0    0  0.00000000000E+00  0.00000000000E+00 -0.99976932524E+03  0.29896419945E+04  0.28175202841E+04 0.  0.
        4    1    3    3  502    0 -0.92233467447E+03  0.51167493686E+03  0.49102267474E+03  0.11634506318E+04  0.12699999809E+01 0. -1.
       -4    1    3    3    0  502  0.92233467447E+03 -0.51167493686E+03 -0.14907920000E+04  0.18261913626E+04  0.12699999809E+01 0.  1.
</event>
<event>
 5   0  0.1377807E-06  0.2804771E+04  0.7818609E-02  0.8301789E-01
        2   -1    0    0  501    0  0.00000000000E+00  0.00000000000E+00  0.13221324445E+04  0.13221324445E+04  0.25500000920E-02 0.  1.
       -2   -1    0    0    0  501  0.00000000000E+00  0.00000000000E+00 -0.14875101641E+04  0.14875101641E+04  0.25500000920E-02 0. -1.
    10030    2    1    2    0    0  0.00000000000E+00  0.00000000000E+00 -0.16537771957E+03  0.28096426086E+04  0.28047712559E+04 0.  0.
        2    1    3    3  502    0  0.81421424402E+03  0.52986892325E+03 -0.10958700208E+04  0.14644579248E+04  0.25500000920E-02 0. -1.
       -2    1    3    3    0  502 -0.81421424402E+03 -0.52986892325E+03  0.93049230123E+03  0.13451846838E+04  0.25500000920E-02 0.  1.
</event>
<event>
 5   0  0.1439207E-06  0.2720998E+04  0.7818609E-02  0.8328224E-01
       -2   -1    0    0    0  501  0.00000000000E+00  0.00000000000E+00  0.14109161838E+04  0.14109161838E+04  0.25500000920E-02 0.  1.
        2   -1    0    0  501    0  0.00000000000E+00  0.00000000000E+00 -0.13118838446E+04  0.13118838446E+04  0.25500000920E-02 0. -1.
    10030    2    1    2    0    0  0.00000000000E+00  0.00000000000E+00  0.99032339142E+02  0.27228000284E+04  0.27209984547E+04 0.  0.
        5    1    3    3  502    0  0.36478309050E+03  0.83933653420E+03 -0.95781987367E+03  0.13247616847E+04  0.46999998093E+01 0. -1.
       -5    1    3    3    0  502 -0.36478309050E+03 -0.83933653420E+03  0.10568522128E+04  0.13980383437E+04  0.46999998093E+01 0.  1.
</event>
<event>
 5   0  0.5214658E-07  0.2796264E+04  0.7818609E-02  0.8304429E-01
       -1   -1    0    0    0  501  0.00000000000E+00  0.00000000000E+00  0.79176974868E+03  0.79176974870E+03  0.50400001928E-02 0.  1.
        1   -1    0    0  501    0  0.00000000000E+00  0.00000000000E+00 -0.24688653965E+04  0.24688653965E+04  0.50400001928E-02 0. -1.
    10030    2    1    2    0    0  0.00000000000E+00  0.00000000000E+00 -0.16770956479E+04  0.32606351452E+04  0.27962638893E+04 0.  0.
        2    1    3    3  502    0 -0.38551030679E+02  0.25753047440E+03  0.76324355280E+03  0.80644209223E+03  0.25500000920E-02 0.  1.
       -2    1    3    3    0  502  0.38551030679E+02 -0.25753047440E+03 -0.24403392007E+04  0.24541930530E+04  0.25500000920E-02 0. -1.
</event>
<event>
 5   0  0.1394410E-06  0.2801610E+04  0.7818609E-02  0.8302769E-01
        2   -1    0    0  501    0  0.00000000000E+00  0.00000000000E+00  0.23662917801E+04  0.23662917801E+04  0.25500000920E-02 0. -1.
       -2   -1    0    0    0  501  0.00000000000E+00  0.00000000000E+00 -0.82925292938E+03  0.82925292938E+03  0.25500000920E-02 0.  1.
    10030    2    1    2    0    0  0.00000000000E+00  0.00000000000E+00  0.15370388507E+04  0.31955447095E+04  0.28016098161E+04 0.  0.
        4    1    3    3  502    0 -0.18912314461E+03  0.11312237779E+04 -0.14881626146E+03  0.11565391010E+04  0.12699999809E+01 0.  1.
       -4    1    3    3    0  502  0.18912314461E+03 -0.11312237779E+04  0.16858551122E+04  0.20390056085E+04  0.12699999809E+01 0. -1.
</event>
<event>
 5   0  0.1499888E-06  0.2797045E+04  0.7818609E-02  0.8304186E-01
       -2   -1    0    0    0  501  0.00000000000E+00  0.00000000000E+00  0.12426558512E+04  0.12426558512E+04  0.25500000920E-02 0. -1.
        2   -1    0    0  501    0  0.00000000000E+00  0.00000000000E+00 -0.15739399575E+04  0.15739399575E+04  0.25500000920E-02 0.  1.
    10030    2    1    2    0    0  0.00000000000E+00  0.00000000000E+00 -0.33128410622E+03  0.28165958087E+04  0.27970453680E+04 0.  0.
        3    1    3    3  502    0 -0.90952958400E+03 -0.26226975517E+03 -0.12023212710E+04  0.15302306812E+04  0.10100000352E+00 0.  1.
       -3    1    3    3    0  502  0.90952958400E+03  0.26226975517E+03  0.87103716480E+03  0.12863651275E+04  0.10100000352E+00 0. -1.
</event>
<event>
 5   0  0.5551565E-07  0.2804889E+04  0.7818609E-02  0.8301752E-01
       -1   -1    0    0    0  501  0.00000000000E+00  0.00000000000E+00  0.14939570224E+04  0.14939570224E+04  0.50400001928E-02 0.  1.
        1   -1    0    0  501    0  0.00000000000E+00  0.00000000000E+00 -0.13165371582E+04  0.13165371582E+04  0.50400001928E-02 0. -1.
    10030    2    1    2    0    0  0.00000000000E+00  0.00000000000E+00  0.17741986421E+03  0.28104941805E+04  0.28048885416E+04 0.  0.
        3    1    3    3  502    0 -0.27019834882E+02 -0.24766224862E+03 -0.12941871654E+04  0.13179480605E+04  0.10100000352E+00 0. -1.
       -3    1    3    3    0  502  0.27019834882E+02  0.24766224862E+03  0.14716070296E+04  0.14925461201E+04  0.10100000352E+00 0.  1.
</event>
<event>
 5   0  0.1499888E-06  0.2793370E+04  0.7818609E-02  0.8305330E-01
       -2   -1    0    0    0  501  0.00000000000E+00  0.00000000000E+00  0.95038275822E+03  0.95038275822E+03  0.25500000920E-02 0.  1.
        2   -1    0    0  501    0  0.00000000000E+00  0.00000000000E+00 -0.20525722675E+04  0.20525722675E+04  0.25500000920E-02 0. -1.
    10030    2    1    2    0    0  0.00000000000E+00  0.00000000000E+00 -0.11021895093E+04  0.30029550257E+04  0.27933702175E+04 0.  0.
        3    1    3    3  502    0  0.88162455757E+02 -0.56908863713E+03  0.81681191407E+03  0.99940792906E+03  0.10100000352E+00 0.  1.
       -3    1    3    3    0  502 -0.88162455757E+02  0.56908863713E+03 -0.19190014234E+04  0.20035470967E+04  0.10100000352E+00 0. -1.
</event>
<event>
 5   0  0.5214658E-07  0.2786460E+04  0.7818609E-02  0.8307484E-01
        1   -1    0    0  501    0  0.00000000000E+00  0.00000000000E+00  0.10320288744E+04  0.10320288744E+04  0.50400001928E-02 0.  1.
       -1   -1    0    0    0  501  0.00000000000E+00  0.00000000000E+00 -0.18808477390E+04  0.18808477390E+04  0.50400001928E-02 0. -1.
    10030    2    1    2    0    0  0.00000000000E+00  0.00000000000E+00 -0.84881886457E+03  0.29128766134E+04  0.27864595278E+04 0.  0.
        2    1    3    3  502    0  0.42130181756E+03 -0.42069335961E+03 -0.17411632514E+04  0.18401433619E+04  0.25500000920E-02 0. -1.
       -2    1    3    3    0  502 -0.42130181756E+03  0.42069335961E+03  0.89234438680E+03  0.10727332515E+04  0.25500000920E-02 0.  1.
</event>
<event>
 5   0  0.5362952E-07  0.2796456E+04  0.7818609E-02  0.8304369E-01
        1   -1    0    0  501    0  0.00000000000E+00  0.00000000000E+00  0.14738974912E+04  0.14738974912E+04  0.50400001928E-02 0. -1.
       -1   -1    0    0    0  501  0.00000000000E+00  0.00000000000E+00 -0.13264437247E+04  0.13264437248E+04  0.50400001928E-02 0.  1.
    10030    2    1    2    0    0  0.00000000000E+00  0.00000000000E+00  0.14745376645E+03  0.28003412159E+04  0.27964563849E+04 0.  0.
        1    1    3    3  502    0  0.13518485163E+02  0.21566716064E+03 -0.13096215292E+04  0.13273295083E+04  0.50400001928E-02 0.  1.
       -1    1    3    3    0  502 -0.13518485163E+02 -0.21566716064E+03  0.14570752957E+04  0.14730117077E+04  0.50400001928E-02 0. -1.
</event>
<event>
 5   0  0.1394410E-06  0.2788160E+04  0.7818609E-02  0.8306954E-01
        2   -1    0    0  501    0  0.00000000000E+00  0.00000000000E+00  0.17680056652E+04  0.17680056652E+04  0.25500000920E-02 0. -1.
       -2   -1    0    0    0  501  0.00000000000E+00  0.00000000000E+00 -0.10992379360E+04  0.10992379361E+04  0.25500000920E-02 0.  1.
    10030    2    1    2    0    0  0.00000000000E+00  0.00000000000E+00  0.66876772918E+03  0.28672436013E+04  0.27881598938E+04 0.  0.
        4    1    3    3  502    0 -0.67202226801E+03  0.11032498163E+04  0.87335184522E+03  0.15593329165E+04  0.12699999809E+01 0. -1.
       -4    1    3    3    0  502  0.67202226801E+03 -0.11032498163E+04 -0.20458411605E+03  0.13079106848E+04  0.12699999809E+01 0.  1.
</event>
<event>
 5   0  0.1394410E-06  0.2792659E+04  0.7818609E-02  0.8305551E-01
       -2   -1    0    0    0  501  0.00000000000E+00  0.00000000000E+00  0.16641503617E+04  0.16641503617E+04  0.25500000920E-02 0. -1.
        2   -1    0    0  501    0  0.00000000000E+00  0.00000000000E+00 -0.11716108059E+04  0.11716108059E+04  0.25500000920E-02 0.  1.
    10030    2    1    2    0    0  0.00000000000E+00  0.00000000000E+00  0.49253955579E+03  0.28357611675E+04  0.27926593393E+04 0.  0.
        4    1    3    3  502    0  0.32453655363E+03 -0.46350649221E+03  0.15425191474E+04  0.16430243991E+04  0.12699999809E+01 0. -1.
       -4    1    3    3    0  502 -0.32453655363E+03  0.46350649221E+03 -0.10499795916E+04  0.11927367684E+04  0.12699999809E+01 0.  1.
</event>
<event>
 5   0  0.1394410E-06  0.2798348E+04  0.7818609E-02  0.8303781E-01
        2   -1    0    0  501    0  0.00000000000E+00  0.00000000000E+00  0.18308584189E+04  0.18308584189E+04  0.25500000920E-02 0. -1.
       -2   -1    0    0    0  501  0.00000000000E+00  0.00000000000E+00 -0.10692734542E+04  0.10692734542E+04  0.25500000920E-02 0.  1.
    10030    2    1    2    0    0  0.00000000000E+00  0.00000000000E+00  0.76158496469E+03  0.29001318732E+04  0.27983483027E+04 0.  0.
        4    1    3    3  502    0  0.17151798454E+03 -0.74434141449E+03  0.15957043176E+04  0.17691061139E+04  0.12699999809E+01 0. -1.
       -4    1    3    3    0  502 -0.17151798454E+03  0.74434141449E+03 -0.83411935287E+03  0.11310257592E+04  0.12699999809E+01 0.  1.
</event>
<event>
 5   0  0.5362952E-07  0.2797938E+04  0.7818609E-02  0.8303909E-01
        1   -1    0    0  501    0  0.00000000000E+00  0.00000000000E+00  0.16512388057E+04  0.16512388057E+04  0.50400001928E-02 0.  1.
       -1   -1    0    0    0  501  0.00000000000E+00  0.00000000000E+00 -0.11852396900E+04  0.11852396900E+04  0.50400001928E-02 0. -1.
    10030    2    1    2    0    0  0.00000000000E+00  0.00000000000E+00  0.46599911566E+03  0.28364784957E+04  0.27979376478E+04 0.  0.
        1    1    3    3  502    0  0.88633053266E+03  0.67554275821E+03  0.10903281416E+04  0.15590879666E+04  0.50400001928E-02 0.  1.
       -1    1    3    3    0  502 -0.88633053266E+03 -0.67554275821E+03 -0.62432902589E+03  0.12773905291E+04  0.50400001928E-02 0. -1.
</event>
<event>
 5   0  0.1499888E-06  0.2801190E+04  0.7818609E-02  0.8302899E-01
        2   -1    0    0  501    0  0.00000000000E+00  0.00000000000E+00  0.27104557518E+04  0.27104557518E+04  0.25500000920E-02 0. -1.
       -2   -1    0    0    0  501  0.00000000000E+00  0.00000000000E+00 -0.72374036293E+03  0.72374036294E+03  0.25500000920E-02 0.  1.
    10030    2    1    2    0    0  0.00000000000E+00  0.00000000000E+00  0.19867153889E+04  0.34341961147E+04  0.28011899111E+04 0.  0.
        3    1    3    3  502    0 -0.22497196701E+03  0.80752552193E+03 -0.38222871985E+03  0.92130812381E+03  0.10100000352E+00 0.  1.
       -3    1    3    3    0  502  0.22497196701E+03 -0.80752552193E+03  0.23689441087E+04  0.25128879909E+04  0.10100000352E+00 0. -1.
</event>
<event>
 5   0  0.1461146E-06  0.2796332E+04  0.7818609E-02  0.8304408E-01
       -2   -1    0    0    0  501  0.00000000000E+00  0.00000000000E+00  0.12150470440E+04  0.12150470440E+04  0.25500000920E-02 0. -1.
        2   -1    0    0  501    0  0.00000000000E+00  0.00000000000E+00 -0.16088829009E+04  0.16088829009E+04  0.25500000920E-02 0.  1.
    10030    2    1    2    0    0  0.00000000000E+00  0.00000000000E+00 -0.39383585683E+03  0.28239299449E+04  0.27963321783E+04 0.  0.
        1    1    3    3  502    0  0.11040187561E+03  0.10291745271E+04  0.75229452856E+03  0.12795842447E+04  0.50400001928E-02 0. -1.
       -1    1    3    3    0  502 -0.11040187561E+03 -0.10291745271E+04 -0.11461303854E+04  0.15443457002E+04  0.50400001928E-02 0.  1.
</event>
<event>
 5   0  0.5214658E-07  0.2801123E+04  0.7818609E-02  0.8302920E-01
       -1   -1    0    0    0  501  0.00000000000E+00  0.00000000000E+00  0.14111897968E+04  0.14111897968E+04  0.50400001928E-02 0. -1.
        1   -1    0    0  501    0  0.00000000000E+00  0.00000000000E+00 -0.13900127612E+04  0.13900127612E+04  0.50400001928E-02 0.  1.
    10030    2    1    2    0    0  0.00000000000E+00  0.00000000000E+00  0.21177035631E+02  0.28012025580E+04  0.28011225079E+04 0.  0.
        2    1    3    3  502    0  0.13591404363E+04  0.12483986272E+03 -0.30362439054E+03  0.13982258357E+04  0.25500000920E-02 0.  1.
       -2    1    3    3    0  502 -0.13591404363E+04 -0.12483986272E+03  0.32480142617E+03  0.14029767224E+04  0.25500000920E-02 0. -1.
</event>
<event>
 5   0  0.5362952E-07  0.2798591E+04  0.7818609E-02  0.8303706E-01
        1   -1    0    0  501    0  0.00000000000E+00  0.00000000000E+00  0.19623982269E+04  0.19623982269E+04  0.50400001928E-02 0. -1.
       -1   -1    0    0    0  501  0.00000000000E+00  0.00000000000E+00 -0.99777263413E+03  0.99777263414E+03  0.50400001928E-02 0.  1.
    10030    2    1    2    0    0  0.00000000000E+00  0.00000000000E+00  0.96462559275E+03  0.29601708610E+04  0.27985905367E+04 0.  0.
        1    1    3    3  502    0  0.12699587270E+04  0.54272804740E+03  0.24419676531E+03  0.14024909847E+04  0.50400001928E-02 0. -1.
       -1    1    3    3    0  502 -0.12699587270E+04 -0.54272804740E+03  0.72042882744E+03  0.15576798764E+04  0.50400001928E-02 0.  1.
</event>
<event>
 5   0  0.5214658E-07  0.2799512E+04  0.7818609E-02  0.8303420E-01
        1   -1    0    0  501    0  0.00000000000E+00  0.00000000000E+00  0.19349032104E+04  0.19349032104E+04  0.50400001928E-02 0. -1.
       -1   -1    0    0    0  501  0.00000000000E+00  0.00000000000E+00 -0.10126172153E+04  0.10126172153E+04  0.50400001928E-02 0.  1.
    10030    2    1    2    0    0  0.00000000000E+00  0.00000000000E+00  0.92228599504E+03  0.29475204257E+04  0.27995116009E+04 0.  0.
        2    1    3    3  502    0  0.53126210322E+03 -0.12346659438E+04  0.87254007142E+03  0.16024873139E+04  0.25500000920E-02 0. -1.
       -2    1    3    3    0  502 -0.53126210322E+03  0.12346659438E+04  0.49745923614E+02  0.13450331118E+04  0.25500000920E-02 0.  1.
</event>
<event>
 5   0  0.1499888E-06  0.2821544E+04  0.7818609E-02  0.8296611E-01
        2   -1    0    0  501    0  0.00000000000E+00  0.00000000000E+00  0.25495418712E+04  0.25495418712E+04  0.25500000920E-02 0. -1.
       -2   -1    0    0    0  501  0.00000000000E+00  0.00000000000E+00 -0.78064108088E+03  0.78064108088E+03  0.25500000920E-02 0.  1.
    10030    2    1    2    0    0  0.00000000000E+00  0.00000000000E+00  0.17689007904E+04  0.33301829521E+04  0.28215436357E+04 0.  0.
        3    1    3    3  502    0 -0.44541296638E+03 -0.57837228121E+03 -0.54039000511E+03  0.90825578672E+03  0.10100000352E+00 0.  1.
       -3    1    3    3    0  502  0.44541296638E+03  0.57837228121E+03  0.23092907955E+04  0.24219271654E+04  0.10100000352E+00 0. -1.
</event>
<event>
 5   0  0.5214658E-07  0.2774194E+04  0.7818609E-02  0.8311325E-01
        1   -1    0    0  501    0  0.00000000000E+00  0.00000000000E+00  0.13734536915E+04  0.13734536915E+04  0.50400001928E-02 0.  1.
       -1   -1    0    0    0  501  0.00000000000E+00  0.00000000000E+00 -0.14008760492E+04  0.14008760492E+04  0.50400001928E-02 0. -1.
    10030    2    1    2    0    0  0.00000000000E+00  0.00000000000E+00 -0.27422357688E+02  0.27743297408E+04  0.27741942118E+04 0.  0.
        2    1    3    3  502    0  0.84372965361E+03 -0.10924455035E+04  0.12312194516E+03  0.13858123683E+04  0.25500000920E-02 0. -1.
       -2    1    3    3    0  502 -0.84372965361E+03  0.10924455035E+04 -0.15054430285E+03  0.13885173725E+04  0.25500000920E-02 0.  1.
</event>
<event>
 5   0  0.1377807E-06  0.2796182E+04  0.7818609E-02  0.8304455E-01
        2   -1    0    0  501    0  0.00000000000E+00  0.00000000000E+00  0.14239163545E+04  0.14239163545E+04  0.25500000920E-02 0. -1.
       -2   -1    0    0    0  501  0.00000000000E+00  0.00000000000E+00 -0.13727338900E+04  0.13727338900E+04  0.25500000920E-02 0.  1.
    10030    2    1    2    0    0  0.00000000000E+00  0.00000000000E+00  0.51182464509E+02  0.27966502445E+04  0.27961818512E+04 0.  0.
        2    1    3    3  502    0 -0.80218004706E+03 -0.37248243630E+03  0.11085570973E+04  0.14181448555E+04  0.25500000920E-02 0. -1.
       -2    1    3    3    0  502  0.80218004706E+03  0.37248243630E+03 -0.10573746328E+04  0.13785053889E+04  0.25500000920E-02 0.  1.
</event>
<event>
 5   0  0.5551565E-07  0.2827445E+04  0.7818609E-02  0.8294798E-01
        1   -1    0    0  501    0  0.00000000000E+00  0.00000000000E+00  0.79115474943E+03  0.79115474944E+03  0.50400001928E-02 0.  1.
       -1   -1    0    0    0  501  0.00000000000E+00  0.00000000000E+00 -0.25261958755E+04  0.25261958755E+04  0.50400001928E-02 0. -1.
    10030    2    1    2    0    0  0.00000000000E+00  0.00000000000E+00 -0.17350411261E+04  0.33173506249E+04  0.28274453946E+04 0.  0.
        3    1    3    3  502    0  0.46908837157E+03 -0.67559736132E+02 -0.24302162120E+04  0.24759965802E+04  0.10100000352E+00 0. -1.
       -3    1    3    3    0  502 -0.46908837157E+03  0.67559736132E+02  0.69517508590E+03  0.84135404470E+03  0.10100000352E+00 0.  1.
</event>
<event>
 5   0  0.5362952E-07  0.2782217E+04  0.7818609E-02  0.8308811E-01
       -1   -1    0    0    0  501  0.00000000000E+00  0.00000000000E+00  0.12500458936E+04  0.12500458936E+04  0.50400001928E-02 0.  1.
        1   -1    0    0  501    0  0.00000000000E+00  0.00000000000E+00 -0.15480893302E+04  0.15480893302E+04  0.50400001928E-02 0. -1.
    10030    2    1    2    0    0  0.00000000000E+00  0.00000000000E+00 -0.29804343667E+03  0.27981352238E+04  0.27822168931E+04 0.  0.
        1    1    3    3  502    0 -0.17302073958E+03 -0.13739924984E+04 -0.16391696142E+02  0.13849405221E+04  0.50400001928E-02 0. -1.
       -1    1    3    3    0  502  0.17302073958E+03  0.13739924984E+04 -0.28165174053E+03  0.14131947017E+04  0.50400001928E-02 0.  1.
</event>
<event>
 5   0  0.1394410E-06  0.2805652E+04  0.7818609E-02  0.8301516E-01
        2   -1    0    0  501    0  0.00000000000E+00  0.00000000000E+00  0.19423264414E+04  0.19423264414E+04  0.25500000920E-02 0.  1.
       -2   -1    0    0    0  501  0.00000000000E+00  0.00000000000E+00 -0.10131774215E+04  0.10131774215E+04  0.25500000920E-02 0. -1.
    10030    2    1    2    0    0  0.00000000000E+00  0.00000000000E+00  0.92914901990E+03  0.29555038629E+04  0.28056523630E+04 0.  0.
        4    1    3    3  502    0  0.11764397270E+04 -0.57849944515E+03 -0.61337638807E+02  0.13124160766E+04  0.12699999809E+01 0. -1.
       -4    1    3    3    0  502 -0.11764397270E+04  0.57849944515E+03  0.99048665871E+03  0.16430877862E+04  0.12699999809E+01 0.  1.
</event>
<event>
 5   0  0.1439207E-06  0.2807889E+04  0.7818609E-02  0.8300823E-01
       -2   -1    0    0    0  501  0.00000000000E+00  0.00000000000E+00  0.13029263335E+04  0.13029263335E+04  0.25500000920E-02 0.  1.
        2   -1    0    0  501    0  0.00000000000E+00  0.00000000000E+00 -0.15127947516E+04  0.15127947516E+04  0.25500000920E-02 0. -1.
    10030    2    1    2    0    0  0.00000000000E+00  0.00000000000E+00 -0.20986841810E+03  0.28157210851E+04  0.28078889715E+04 0.  0.
        5    1    3    3  502    0 -0.11096997220E+04  0.29487026538E+03  0.70519053423E+03  0.13474782841E+04  0.46999998093E+01 0.  1.
       -5    1    3    3    0  502  0.11096997220E+04 -0.29487026538E+03 -0.91505895233E+03  0.14682428010E+04  0.46999998093E+01 0. -1.
</event>
<event>
 5   0  0.5214658E-07  0.2799750E+04  0.7818609E-02  0.8303346E-01
       -1   -1    0    0    0  501  0.00000000000E+00  0.00000000000E+00  0.14169142286E+04  0.14169142286E+04  0.50400001928E-02 0.  1.
        1   -1    0    0  501    0  0.00000000000E+00  0.00000000000E+00 -0.13830403575E+04  0.13830403575E+04  0.50400001928E-02 0. -1.
    10030    2    1    2    0    0  0.00000000000E+00  0.00000000000E+00  0.33873871095E+02  0.27999545861E+04  0.27997496755E+04 0.  0.
        2    1    3    3  502    0 -0.11355016980E+04 -0.50822684437E+03 -0.62497523786E+03  0.13922114349E+04  0.25500000920E-02 0. -1.
       -2    1    3    3    0  502  0.11355016980E+04  0.50822684437E+03  0.65884910895E+03  0.14077431513E+04  0.25500000920E-02 0.  1.
</event>
<event>
 5   0  0.5282098E-07  0.2795460E+04  0.7818609E-02  0.8304679E-01
       -1   -1    0    0    0  501  0.00000000000E+00  0.00000000000E+00  0.11789334331E+04  0.11789334331E+04  0.50400001928E-02 0.  1.
        1   -1    0    0  501    0  0.00000000000E+00  0.00000000000E+00 -0.16571321462E+04  0.16571321463E+04  0.50400001928E-02 0. -1.
    10030    2    1    2    0    0  0.00000000000E+00  0.00000000000E+00 -0.47819871318E+03  0.28360655793E+04  0.27954595259E+04 0.  0.
        4    1    3    3  502    0 -0.15699963565E+03  0.83316727947E+03  0.88827121725E+03  0.12279429830E+04  0.12699999809E+01 0.  1.
       -4    1    3    3    0  502  0.15699963565E+03 -0.83316727947E+03 -0.13664699304E+04  0.16081225963E+04  0.12699999809E+01 0. -1.
</event>
<event>
 5   0  0.5362952E-07  0.2798764E+04  0.7818609E-02  0.8303652E-01
        1   -1    0    0  501    0  0.00000000000E+00  0.00000000000E+00  0.13701395262E+04  0.13701395262E+04  0.50400001928E-02 0. -1.
       -1   -1    0    0    0  501  0.00000000000E+00  0.00000000000E+00 -0.14292485356E+04  0.14292485356E+04  0.50400001928E-02 0.  1.
    10030    2    1    2    0    0  0.00000000000E+00  0.00000000000E+00 -0.59109009363E+02  0.27993880618E+04  0.27987639496E+04 0.  0.
        1    1    3    3  502    0 -0.12497691343E+04  0.57525549798E+03 -0.28540078282E+03  0.14050962187E+04  0.50400001928E-02 0.  1.
       -1    1    3    3    0  502  0.12497691343E+04 -0.57525549798E+03  0.22629177346E+03  0.13942918431E+04  0.50400001928E-02 0. -1.
</event>
<event>
 5   0  0.5297741E-07  0.2798761E+04  0.7818609E-02  0.8303653E-01
        1   -1    0    0  501    0  0.00000000000E+00  0.00000000000E+00  0.20039528851E+04  0.20039528852E+04  0.50400001928E-02 0. -1.
       -1   -1    0    0    0  501  0.00000000000E+00  0.00000000000E+00 -0.97720171796E+03  0.97720171798E+03  0.50400001928E-02 0.  1.
    10030    2    1    2    0    0  0.00000000000E+00  0.00000000000E+00  0.10267511672E+04  0.29811546031E+04  0.27987612989E+04 0.  0.
        5    1    3    3  502    0 -0.92148495247E+02  0.12862539019E+04  0.10922082855E+04  0.16899353462E+04  0.46999998093E+01 0. -1.
       -5    1    3    3    0  502  0.92148495247E+02 -0.12862539019E+04 -0.65457118319E+02  0.12912192570E+04  0.46999998093E+01 0.  1.
</event>
<event>
 5   0  0.5551565E-07  0.2797391E+04  0.7818609E-02  0.8304079E-01
       -1   -1    0    0    0  501  0.00000000000E+00  0.00000000000E+00  0.93364303548E+03  0.93364303550E+03  0.50400001928E-02 0. -1.
        1   -1    0    0  501    0  0.00000000000E+00  0.00000000000E+00 -0.20953930455E+04  0.20953930455E+04  0.50400001928E-02 0.  1.
    10030    2    1    2    0    0  0.00000000000E+00  0.00000000000E+00 -0.11617500100E+04  0.30290360810E+04  0.27973910156E+04 0.  0.
        3    1    3    3  502    0  0.54975319136E+03 -0.12734919732E+04 -0.38615400487E+03  0.14398351652E+04  0.10100000352E+00 0.  1.
       -3    1    3    3    0  502 -0.54975319136E+03  0.12734919732E+04 -0.77559600514E+03  0.15892009158E+04  0.10100000352E+00 0. -1.
</event>
<event>
 5   0  0.1461146E-06  0.2797004E+04  0.7818609E-02  0.8304199E-01
       -2   -1    0    0    0  501  0.00000000000E+00  0.00000000000E+00  0.10022089246E+04  0.10022089246E+04  0.25500000920E-02 0.  1.
        2   -1    0    0  501    0  0.00000000000E+00  0.00000000000E+00 -0.19514965097E+04  0.19514965097E+04  0.25500000920E-02 0. -1.
    10030    2    1    2    0    0  0.00000000000E+00  0.00000000000E+00 -0.94928758508E+03  0.29537054342E+04  0.27970035526E+04 0.  0.
        1    1    3    3  502    0 -0.76819972099E+03  0.60586569745E+02 -0.17070776550E+04  0.18729430488E+04  0.50400001928E-02 0. -1.
       -1    1    3    3    0  502  0.76819972099E+03 -0.60586569745E+02  0.75779006991E+03  0.10807623855E+04  0.50400001928E-02 0.  1.
</event>
<event>
 5   0  0.5297741E-07  0.2797425E+04  0.7818609E-02  0.8304068E-01
       -1   -1    0    0    0  501  0.00000000000E+00  0.00000000000E+00  0.97257869018E+03  0.97257869019E+03  0.50400001928E-02 0.  1.
        1   -1    0    0  501    0  0.00000000000E+00  0.00000000000E+00 -0.20115560183E+04  0.20115560183E+04  0.50400001928E-02 0. -1.
    10030    2    1    2    0    0  0.00000000000E+00  0.00000000000E+00 -0.10389773281E+04  0.29841347085E+04  0.27974248998E+04 0.  0.
        5    1    3    3  502    0  0.11723103344E+04 -0.22408071684E+03 -0.12974443719E+04  0.17629258850E+04  0.46999998093E+01 0. -1.
       -5    1    3    3    0  502 -0.11723103344E+04  0.22408071684E+03  0.25846704375E+03  0.12212088235E+04  0.46999998093E+01 0.  1.
</event>
<event>
 5   0  0.5362952E-07  0.2792824E+04  0.7818609E-02  0.8305500E-01
        1   -1    0    0  501    0  0.00000000000E+00  0.00000000000E+00  0.13065710840E+04  0.13065710840E+04  0.50400001928E-02 0.  1.
       -1   -1    0    0    0  501  0.00000000000E+00  0.00000000000E+00 -0.14924306891E+04  0.14924306891E+04  0.50400001928E-02 0. -1.
    10030    2    1    2    0    0  0.00000000000E+00  0.00000000000E+00 -0.18585960513E+03  0.27990017731E+04  0.27928242217E+04 0.  0.
        1    1    3    3  502    0 -0.13148738813E+04 -0.44045661427E+03 -0.25782772112E+03  0.14104504552E+04  0.50400001928E-02 0. -1.
       -1    1    3    3    0  502  0.13148738813E+04  0.44045661427E+03  0.71968115992E+02  0.13885513179E+04  0.50400001928E-02 0.  1.
</event>
<event>
 5   0  0.5551565E-07  0.2803824E+04  0.7818609E-02  0.8302082E-01
        1   -1    0    0  501    0  0.00000000000E+00  0.00000000000E+00  0.19810732389E+04  0.19810732390E+04  0.50400001928E-02 0. -1.
       -1   -1    0    0    0  501  0.00000000000E+00  0.00000000000E+00 -0.99206659396E+03  0.99206659397E+03  0.50400001928E-02 0.  1.
    10030    2    1    2    0    0  0.00000000000E+00  0.00000000000E+00  0.98900664499E+03  0.29731398329E+04  0.28038235184E+04 0.  0.
        3    1    3    3  502    0  0.13517491655E+04 -0.21325132974E+03  0.17172955265E+03  0.13792001252E+04  0.10100000352E+00 0.  1.
       -3    1    3    3    0  502 -0.13517491655E+04  0.21325132974E+03  0.81727709234E+03  0.15939397077E+04  0.10100000352E+00 0. -1.
</event>
<event>
 5   0  0.5282098E-07  0.2801476E+04  0.7818609E-02  0.8302810E-01
        1   -1    0    0  501    0  0.00000000000E+00  0.00000000000E+00  0.15456073946E+04  0.15456073946E+04  0.50400001928E-02 0.  1.
       -1   -1    0    0    0  501  0.00000000000E+00  0.00000000000E+00 -0.12694473213E+04  0.12694473213E+04  0.50400001928E-02 0. -1.
    10030    2    1    2    0    0  0.00000000000E+00  0.00000000000E+00  0.27616007327E+03  0.28150547159E+04  0.28014761586E+04 0.  0.
        4    1    3    3  502    0  0.11853090518E+04  0.73409633754E+03  0.24794040603E+01  0.13942247815E+04  0.12699999809E+01 0. -1.
       -4    1    3    3    0  502 -0.11853090518E+04 -0.73409633754E+03  0.27368066921E+03  0.14208299344E+04  0.12699999809E+01 0.  1.
</event>
<event>
 5   0  0.5551565E-07  0.2790101E+04  0.7818609E-02  0.8306348E-01
       -1   -1    0    0    0  501  0.00000000000E+00  0.00000000000E+00  0.12495415095E+04  0.12495415095E+04  0.50400001928E-02 0.  1.
        1   -1    0    0  501    0  0.00000000000E+00  0.00000000000E+00 -0.15575043602E+04  0.15575043602E+04  0.50400001928E-02 0. -1.
    10030    2    1    2    0    0  0.00000000000E+00  0.00000000000E+00 -0.30796285068E+03  0.28070458696E+04  0.27901013238E+04 0.  0.
        3    1    3    3  502    0 -0.55065011342E+03  0.12812279647E+04 -0.19170170795E+03  0.14076612519E+04  0.10100000352E+00 0.  1.
       -3    1    3    3    0  502  0.55065011342E+03 -0.12812279647E+04 -0.11626114273E+03  0.13993846178E+04  0.10100000352E+00 0. -1.
</event>
<event>
 5   0  0.1461146E-06  0.2801715E+04  0.7818609E-02  0.8302736E-01
       -2   -1    0    0    0  501  0.00000000000E+00  0.00000000000E+00  0.94365850273E+03  0.94365850274E+03  0.25500000920E-02 0.  1.
        2   -1    0    0  501    0  0.00000000000E+00  0.00000000000E+00 -0.20795675615E+04  0.20795675615E+04  0.25500000920E-02 0. -1.
    10030    2    1    2    0    0  0.00000000000E+00  0.00000000000E+00 -0.11359090587E+04  0.30232260642E+04  0.28017149116E+04 0.  0.
        1    1    3    3  502    0  0.51490643061E+03  0.57807571411E+03 -0.18277811215E+04  0.19849644812E+04  0.50400001928E-02 0. -1.
       -1    1    3    3    0  502 -0.51490643061E+03 -0.57807571411E+03  0.69187206275E+03  0.10382615830E+04  0.50400001928E-02 0.  1.
</event>
<event>
 5   0  0.1499888E-06  0.2802603E+04  0.7818609E-02  0.8302461E-01
       -2   -1    0    0    0  501  0.00000000000E+00  0.00000000000E+00  0.11185904451E+04  0.11185904451E+04  0.25500000920E-02 0.  1.
        2   -1    0    0  501    0  0.00000000000E+00  0.00000000000E+00 -0.17554641984E+04  0.17554641984E+04  0.25500000920E-02 0. -1.
    10030    2    1    2    0    0  0.00000000000E+00  0.00000000000E+00 -0.63687375336E+03  0.28740546435E+04  0.28026027040E+04 0.  0.
        3    1    3    3  502    0  0.12070225520E+04  0.71161605026E+03 -0.33747423863E+03  0.14412458902E+04  0.10100000352E+00 0.  1.
       -3    1    3    3    0  502 -0.12070225520E+04 -0.71161605026E+03 -0.29939951474E+03  0.14328087533E+04  0.10100000352E+00 0. -1.
</event>
<event>
 5   0  0.5551565E-07  0.2799259E+04  0.7818609E-02  0.8303498E-01
        1   -1    0    0  501    0  0.00000000000E+00  0.00000000000E+00  0.19039953929E+04  0.19039953929E+04  0.50400001928E-02 0.  1.
       -1   -1    0    0    0  501  0.00000000000E+00  0.00000000000E+00 -0.10288697537E+04  0.10288697537E+04  0.50400001928E-02 0. -1.
    10030    2    1    2    0    0  0.00000000000E+00  0.00000000000E+00  0.87512563921E+03  0.29328651466E+04  0.27992593813E+04 0.  0.
        3    1    3    3  502    0  0.99420262082E+03  0.12223267770E+03  0.14617593303E+04  0.17720383824E+04  0.10100000352E+00 0. -1.
       -3    1    3    3    0  502 -0.99420262082E+03 -0.12223267770E+03 -0.58663369113E+03  0.11608267642E+04  0.10100000352E+00 0.  1.
</event>
<event>
 5   0  0.5214658E-07  0.2805666E+04  0.7818609E-02  0.8301511E-01
       -1   -1    0    0    0  501  0.00000000000E+00  0.00000000000E+00  0.12829312213E+04  0.12829312213E+04  0.50400001928E-02 0. -1.
        1   -1    0    0  501    0  0.00000000000E+00  0.00000000000E+00 -0.15339409171E+04  0.15339409171E+04  0.50400001928E-02 0.  1.
    10030    2    1    2    0    0  0.00000000000E+00  0.00000000000E+00 -0.25100969577E+03  0.28168721384E+04  0.28056661912E+04 0.  0.
        2    1    3    3  502    0  0.36976482930E+02  0.12353448562E+04 -0.79185480845E+03  0.14678140930E+04  0.25500000920E-02 0.  1.
       -2    1    3    3    0  502 -0.36976482930E+02 -0.12353448562E+04  0.54084511268E+03  0.13490580454E+04  0.25500000920E-02 0. -1.
</event>
<event>
 5   0  0.5282098E-07  0.2798200E+04  0.7818609E-02  0.8303827E-01
        1   -1    0    0  501    0  0.00000000000E+00  0.00000000000E+00  0.12809553894E+04  0.12809553895E+04  0.50400001928E-02 0.  1.
       -1   -1    0    0    0  501  0.00000000000E+00  0.00000000000E+00 -0.15281411976E+04  0.15281411976E+04  0.50400001928E-02 0. -1.
    10030    2    1    2    0    0  0.00000000000E+00  0.00000000000E+00 -0.24718580817E+03  0.28090965871E+04  0.27981999235E+04 0.  0.
        4    1    3    3  502    0 -0.55895992429E+03 -0.12217133548E+04  0.26838807610E+03  0.13700560173E+04  0.12699999809E+01 0.  1.
       -4    1    3    3    0  502  0.55895992429E+03  0.12217133548E+04 -0.51557388428E+03  0.14390405698E+04  0.12699999809E+01 0. -1.
</event>
<event>
 5   0  0.5214658E-07  0.2800723E+04  0.7818609E-02  0.8303044E-01
        1   -1    0    0  501    0  0.00000000000E+00  0.00000000000E+00  0.20678746460E+04  0.20678746460E+04  0.50400001928E-02 0.  1.
       -1   -1    0    0    0  501  0.00000000000E+00  0.00000000000E+00 -0.94832282576E+03  0.94832282578E+03  0.50400001928E-02 0. -1.
    10030    2    1    2    0    0  0.00000000000E+00  0.00000000000E+00  0.11195518202E+04  0.30161974718E+04  0.28007232835E+04 0.  0.
        2    1    3    3  502    0  0.92744666292E+03 -0.32871470837E+03  0.16328282442E+04  0.19063941741E+04  0.25500000920E-02 0.  1.
       -2    1    3    3    0  502 -0.92744666292E+03  0.32871470837E+03 -0.51327642397E+03  0.11098032976E+04  0.25500000920E-02 0. -1.
</event>
<event>
 5   0  0.5362952E-07  0.2802208E+04  0.7818609E-02  0.8302583E-01
        1   -1    0    0  501    0  0.00000000000E+00  0.00000000000E+00  0.16669140874E+04  0.16669140874E+04  0.50400001928E-02 0. -1.
       -1   -1    0    0    0  501  0.00000000000E+00  0.00000000000E+00 -0.11776805156E+04  0.11776805156E+04  0.50400001928E-02 0.  1.
    10030    2    1    2    0    0  0.00000000000E+00  0.00000000000E+00  0.48923357183E+03  0.28445946030E+04  0.28022078737E+04 0.  0.
        1    1    3    3  502    0 -0.21626605262E+03  0.40433159133E+03  0.15885906511E+04  0.16534434669E+04  0.50400001928E-02 0. -1.
       -1    1    3    3    0  502  0.21626605262E+03 -0.40433159133E+03 -0.10993570793E+04  0.11911511361E+04  0.50400001928E-02 0.  1.
</event>
<event>
 5   0  0.5297741E-07  0.2797422E+04  0.7818609E-02  0.8304069E-01
        1   -1    0    0  501    0  0.00000000000E+00  0.00000000000E+00  0.19939160606E+04  0.19939160606E+04  0.50400001928E-02 0. -1.
       -1   -1    0    0    0  501  0.00000000000E+00  0.00000000000E+00 -0.98118090949E+03  0.98118090950E+03  0.50400001928E-02 0.  1.
    10030    2    1    2    0    0  0.00000000000E+00  0.00000000000E+00  0.10127351511E+04  0.29750969701E+04  0.27974219373E+04 0.  0.
        5    1    3    3  502    0  0.13383896866E+04 -0.33187114861E+03  0.25707650118E+03  0.14026887859E+04  0.46999998093E+01 0.  1.
       -5    1    3    3    0  502 -0.13383896866E+04  0.33187114861E+03  0.75565864994E+03  0.15724081842E+04  0.46999998093E+01 0. -1.
</event>
<event>
 5   0  0.1439207E-06  0.2800282E+04  0.7818609E-02  0.8303181E-01
       -2   -1    0    0    0  501  0.00000000000E+00  0.00000000000E+00  0.10727376810E+04  0.10727376810E+04  0.25500000920E-02 0. -1.
        2   -1    0    0  501    0  0.00000000000E+00  0.00000000000E+00 -0.18274691560E+04  0.18274691560E+04  0.25500000920E-02 0.  1.
    10030    2    1    2    0    0  0.00000000000E+00  0.00000000000E+00 -0.75473147501E+03  0.29002068370E+04  0.28002821461E+04 0.  0.
        5    1    3    3  502    0  0.53756951909E+03 -0.20293948234E+03 -0.16997224549E+04  0.17942251629E+04  0.46999998093E+01 0.  1.
       -5    1    3    3    0  502 -0.53756951909E+03  0.20293948234E+03  0.94499097991E+03  0.11059816741E+04  0.46999998093E+01 0. -1.
</event>
<event>
 5   0  0.1394410E-06  0.2780553E+04  0.7818609E-02  0.8309331E-01
       -2   -1    0    0    0  501  0.00000000000E+00  0.00000000000E+00  0.84688209524E+03  0.84688209524E+03  0.25500000920E-02 0. -1.
        2   -1    0    0  501    0  0.00000000000E+00  0.00000000000E+00 -0.22823348753E+04  0.22823348753E+04  0.25500000920E-02 0.  1.
    10030    2    1    2    0    0  0.00000000000E+00  0.00000000000E+00 -0.14354527801E+04  0.31292169706E+04  0.27805528524E+04 0.  0.
        4    1    3    3  502    0  0.12504040691E+04 -0.83022578183E+02 -0.13952693985E+04  0.18754149919E+04  0.12699999809E+01 0.  1.
       -4    1    3    3    0  502 -0.12504040691E+04  0.83022578183E+02 -0.40183381605E+02  0.12538019787E+04  0.12699999809E+01 0. -1.
</event>
<event>
 5   0  0.5297741E-07  0.2796572E+04  0.7818609E-02  0.8304334E-01
       -1   -1    0    0    0  501  0.00000000000E+00  0.00000000000E+00  0.13054329012E+04  0.13054329012E+04  0.50400001928E-02 0. -1.
        1   -1    0    0  501    0  0.00000000000E+00  0.00000000000E+00 -0.14977431351E+04  0.14977431351E+04  0.50400001928E-02 0.  1.
    10030    2    1    2    0    0  0.00000000000E+00  0.00000000000E+00 -0.19231023392E+03  0.28031760363E+04  0.27965715911E+04 0.  0.
        5    1    3    3  502    0 -0.29744361425E+03  0.70259928313E+03  0.10783897258E+04  0.13210090639E+04  0.46999998093E+01 0. -1.
       -5    1    3    3    0  502  0.29744361425E+03 -0.70259928313E+03 -0.12706999597E+04  0.14821669723E+04  0.46999998093E+01 0.  1.
</event>
<event>
 5   0  0.4710000E-07  0.2799830E+04  0.7818609E-02  0.8303321E-01
       -3   -1    0    0    0  501  0.00000000000E+00  0.00000000000E+00  0.12175383821E+04  0.12175383863E+04  0.10100000352E+00 0. -1.
        3   -1    0    0  501    0  0.00000000000E+00  0.00000000000E+00 -0.16096105396E+04  0.16096105428E+04  0.10100000352E+00 0.  1.
    10030    2    1    2    0    0  0.00000000000E+00  0.00000000000E+00 -0.39207215749E+03  0.28271489291E+04  0.27998304397E+04 0.  0.
        1    1    3    3  502    0 -0.79643291765E+01  0.11308613734E+03 -0.16049678873E+04  0.16089666946E+04  0.50400001928E-02 0.  1.
       -1    1    3    3    0  502  0.79643291765E+01 -0.11308613734E+03  0.12128957298E+04  0.12181822345E+04  0.50400001928E-02 0. -1.
</event>
<event>
 5   0  0.1461146E-06  0.2800600E+04  0.7818609E-02  0.8303082E-01
        2   -1    0    0  501    0  0.00000000000E+00  0.00000000000E+00  0.18554930908E+04  0.18554930908E+04  0.25500000920E-02 0.  1.
       -2   -1    0    0    0  501  0.00000000000E+00  0.00000000000E+00 -0.10567759798E+04  0.10567759798E+04  0.25500000920E-02 0. -1.
    10030    2    1    2    0    0  0.00000000000E+00  0.00000000000E+00  0.79871711096E+03  0.29122690706E+04  0.28006003135E+04 0.  0.
        1    1    3    3  502    0 -0.57160320846E+03 -0.48383271058E+03 -0.83104307148E+03  0.11186853474E+04  0.50400001928E-02 0. -1.
       -1    1    3    3    0  502  0.57160320846E+03  0.48383271058E+03  0.16297601824E+04  0.17935837232E+04  0.50400001928E-02 0.  1.
</event>
<event>
 5   0  0.1394410E-06  0.2777810E+04  0.7818609E-02  0.8310191E-01
       -2   -1    0    0    0  501  0.00000000000E+00  0.00000000000E+00  0.97085650958E+03  0.97085650958E+03  0.25500000920E-02 0. -1.
        2   -1    0    0  501    0  0.00000000000E+00  0.00000000000E+00 -0.19869640048E+04  0.19869640048E+04  0.25500000920E-02 0.  1.
    10030    2    1    2    0    0  0.00000000000E+00  0.00000000000E+00 -0.10161074952E+04  0.29578205144E+04  0.27778098843E+04 0.  0.
        4    1    3    3  502    0  0.20853816809E+03  0.46392041017E+03 -0.18842247101E+04  0.19516697174E+04  0.12699999809E+01 0.  1.
       -4    1    3    3    0  502 -0.20853816809E+03 -0.46392041017E+03  0.86811721493E+03  0.10061507970E+04  0.12699999809E+01 0. -1.
</event>
<event>
 5   0  0.1394410E-06  0.2800670E+04  0.7818609E-02  0.8303060E-01
       -2   -1    0    0    0  501  0.00000000000E+00  0.00000000000E+00  0.89246092587E+03  0.89246092587E+03  0.25500000920E-02 0. -1.
        2   -1    0    0  501    0  0.00000000000E+00  0.00000000000E+00 -0.21972254786E+04  0.21972254786E+04  0.25500000920E-02 0.  1.
    10030    2    1    2    0    0  0.00000000000E+00  0.00000000000E+00 -0.13047645527E+04  0.30896864045E+04  0.28006698377E+04 0.  0.
        4    1    3    3  502    0 -0.12003161896E+04 -0.30660890886E+03 -0.13725655915E+04  0.18489742816E+04  0.12699999809E+01 0.  1.
       -4    1    3    3    0  502  0.12003161896E+04  0.30660890886E+03  0.67801038785E+02  0.12407121229E+04  0.12699999809E+01 0. -1.
</event>
<event>
 5   0  0.5362952E-07  0.2796493E+04  0.7818609E-02  0.8304358E-01
        1   -1    0    0  501    0  0.00000000000E+00  0.00000000000E+00  0.21410484237E+04  0.21410484238E+04  0.50400001928E-02 0. -1.
       -1   -1    0    0    0  501  0.00000000000E+00  0.00000000000E+00 -0.91314757201E+03  0.91314757202E+03  0.50400001928E-02 0.  1.
    10030    2    1    2    0    0  0.00000000000E+00  0.00000000000E+00  0.12279008517E+04  0.30541959958E+04  0.27964929249E+04 0.  0.
        1    1    3    3  502    0  0.53625093283E+03  0.11984414772E+04  0.88732914721E+02  0.13159409437E+04  0.50400001928E-02 0.  1.
       -1    1    3    3    0  502 -0.53625093283E+03 -0.11984414772E+04  0.11391679370E+04  0.17382550520E+04  0.50400001928E-02 0. -1.
</event>
<event>
 5   0  0.5551565E-07  0.2810369E+04  0.7818609E-02  0.8300057E-01
        1   -1    0    0  501    0  0.00000000000E+00  0.00000000000E+00  0.18111937395E+04  0.18111937395E+04  0.50400001928E-02 0.  1.
       -1   -1    0    0    0  501  0.00000000000E+00  0.00000000000E+00 -0.10901887077E+04  0.10901887077E+04  0.50400001928E-02 0. -1.
    10030    2    1    2    0    0  0.00000000000E+00  0.00000000000E+00  0.72100503177E+03  0.29013824472E+04  0.28103686322E+04 0.  0.
        3    1    3    3  502    0 -0.12275157475E+04 -0.46575876228E+03 -0.15653257077E+03  0.13222059564E+04  0.10100000352E+00 0.  1.
       -3    1    3    3    0  502  0.12275157475E+04  0.46575876228E+03  0.87753760254E+03  0.15791764908E+04  0.10100000352E+00 0. -1.
</event>
<event>
 5   0  0.5551565E-07  0.2789601E+04  0.7818609E-02  0.8306504E-01
       -1   -1    0    0    0  501  0.00000000000E+00  0.00000000000E+00  0.11459156147E+04  0.11459156147E+04  0.50400001928E-02 0. -1.
        1   -1    0    0  501    0  0.00000000000E+00  0.00000000000E+00 -0.16977413771E+04  0.16977413771E+04  0.50400001928E-02 0.  1.
    10030    2    1    2    0    0  0.00000000000E+00  0.00000000000E+00 -0.55182576234E+03  0.28436569918E+04  0.27896009419E+04 0.  0.
        3    1    3    3  502    0 -0.57689817967E+03  0.97230427666E+03 -0.11086148322E+04  0.15834184451E+04  0.10100000352E+00 0.  1.
       -3    1    3    3    0  502  0.57689817967E+03 -0.97230427666E+03  0.55678906981E+03  0.12602385467E+04  0.10100000352E+00 0. -1.
</event>
<event>
 5   0  0.1394410E-06  0.2795426E+04  0.7818609E-02  0.8304690E-01
       -2   -1    0    0    0  501  0.00000000000E+00  0.00000000000E+00  0.11941115114E+04  0.11941115114E+04  0.25500000920E-02 0. -1.
        2   -1    0    0  501    0  0.00000000000E+00  0.00000000000E+00 -0.16360295312E+04  0.16360295312E+04  0.25500000920E-02 0.  1.
    10030    2    1    2    0    0  0.00000000000E+00  0.00000000000E+00 -0.44191801985E+03  0.28301410426E+04  0.27954260471E+04 0.  0.
        4    1    3    3  502    0 -0.94013551977E+03  0.40226629760E+03  0.74372607711E+03  0.12644378436E+04  0.12699999809E+01 0. -1.
       -4    1    3    3    0  502  0.94013551977E+03 -0.40226629760E+03 -0.11856440970E+04  0.15657031990E+04  0.12699999809E+01 0.  1.
</event>
<event>
 5   0  0.5282098E-07  0.2800769E+04  0.7818609E-02  0.8303030E-01
       -1   -1    0    0    0  501  0.00000000000E+00  0.00000000000E+00  0.12824887274E+04  0.12824887274E+04  0.50400001928E-02 0.  1.
        1   -1    0    0  501    0  0.00000000000E+00  0.00000000000E+00 -0.15291177778E+04  0.15291177778E+04  0.50400001928E-02 0. -1.
    10030    2    1    2    0    0  0.00000000000E+00  0.00000000000E+00 -0.24662905038E+03  0.28116065051E+04  0.28007686893E+04 0.  0.
        4    1    3    3  502    0  0.75191120894E+03 -0.64453070530E+02 -0.13075190336E+04  0.15096795357E+04  0.12699999809E+01 0. -1.
       -4    1    3    3    0  502 -0.75191120894E+03  0.64453070530E+02  0.10608899832E+04  0.13019269694E+04  0.12699999809E+01 0.  1.
</event>
<event>
 5   0  0.1461146E-06  0.2757873E+04  0.7818609E-02  0.8316468E-01
       -2   -1    0    0    0  501  0.00000000000E+00  0.00000000000E+00  0.23965016705E+04  0.23965016705E+04  0.25500000920E-02 0. -1.
        2   -1    0    0  501    0  0.00000000000E+00  0.00000000000E+00 -0.79343398654E+03  0.79343398654E+03  0.25500000920E-02 0.  1.
    10030    2    1    2    0    0  0.00000000000E+00  0.00000000000E+00  0.16030676839E+04  0.31899356570E+04  0.27578730023E+04 0.  0.
        1    1    3    3  502    0 -0.12872501272E+04  0.94541012385E+02  0.13628621295E+04  0.18770572919E+04  0.50400001928E-02 0. -1.
       -1    1    3    3    0  502  0.12872501272E+04 -0.94541012385E+02  0.24020555439E+03  0.13128783651E+04  0.50400001928E-02 0.  1.
</event>
<event>
 5   0  0.5297741E-07  0.2802757E+04  0.7818609E-02  0.8302413E-01
        1   -1    0    0  501    0  0.00000000000E+00  0.00000000000E+00  0.11625463017E+04  0.11625463017E+04  0.50400001928E-02 0. -1.
       -1   -1    0    0    0  501  0.00000000000E+00  0.00000000000E+00 -0.16892767144E+04  0.16892767144E+04  0.50400001928E-02 0.  1.
    10030    2    1    2    0    0  0.00000000000E+00  0.00000000000E+00 -0.52673041270E+03  0.28518230162E+04  0.28027574972E+04 0.  0.
        5    1    3    3  502    0 -0.29305662565E+03  0.94845660383E+03  0.74308582232E+03  0.12400204613E+04  0.46999998093E+01 0. -1.
       -5    1    3    3    0  502  0.29305662565E+03 -0.94845660383E+03 -0.12698162350E+04  0.16118025549E+04  0.46999998093E+01 0.  1.
</event>
<event>
 5   0  0.1499888E-06  0.2802633E+04  0.7818609E-02  0.8302451E-01
        2   -1    0    0  501    0  0.00000000000E+00  0.00000000000E+00  0.22164105771E+04  0.22164105771E+04  0.25500000920E-02 0.  1.
       -2   -1    0    0    0  501  0.00000000000E+00  0.00000000000E+00 -0.88597651174E+03  0.88597651174E+03  0.25500000920E-02 0. -1.
    10030    2    1    2    0    0  0.00000000000E+00  0.00000000000E+00  0.13304340653E+04  0.31023870888E+04  0.28026328419E+04 0.  0.
        3    1    3    3  502    0 -0.24433261307E+03 -0.11017859946E+04 -0.25432636005E+03  0.11568546630E+04  0.10100000352E+00 0. -1.
       -3    1    3    3    0  502  0.24433261307E+03  0.11017859946E+04  0.15847604254E+04  0.19455324258E+04  0.10100000352E+00 0.  1.
</event>
<event>
 5   0  0.1461146E-06  0.2806368E+04  0.7818609E-02  0.8301294E-01
        2   -1    0    0  501    0  0.00000000000E+00  0.00000000000E+00  0.32396233287E+04  0.32396233287E+04  0.25500000920E-02 0.  1.
       -2   -1    0    0    0  501  0.00000000000E+00  0.00000000000E+00 -0.60776373380E+03  0.60776373381E+03  0.25500000920E-02 0. -1.
    10030    2    1    2    0    0  0.00000000000E+00  0.00000000000E+00  0.26318595949E+04  0.38473870625E+04  0.28063681657E+04 0.  0.
        1    1    3    3  502    0 -0.91215789347E+03  0.92344746542E+03  0.58515065401E+03  0.14237937112E+04  0.50400001928E-02 0. -1.
       -1    1    3    3    0  502  0.91215789347E+03 -0.92344746542E+03  0.20467089409E+04  0.24235933514E+04  0.50400001928E-02 0.  1.
</event>
<event>
 5   0  0.5297741E-07  0.2790103E+04  0.7818609E-02  0.8306348E-01
        1   -1    0    0  501    0  0.00000000000E+00  0.00000000000E+00  0.11972853900E+04  0.11972853900E+04  0.50400001928E-02 0. -1.
       -1   -1    0    0    0  501  0.00000000000E+00  0.00000000000E+00 -0.16254839943E+04  0.16254839944E+04  0.50400001928E-02 0.  1.
    10030    2    1    2    0    0  0.00000000000E+00  0.00000000000E+00 -0.42819860435E+03  0.28227693844E+04  0.27901026778E+04 0.  0.
        5    1    3    3  502    0  0.68864444534E+03 -0.98806185750E+03 -0.92636530669E+03  0.15194315311E+04  0.46999998093E+01 0.  1.
       -5    1    3    3    0  502 -0.68864444534E+03  0.98806185750E+03  0.49816670234E+03  0.13033378532E+04  0.46999998093E+01 0. -1.
</event>
<event>
 5   0  0.5214658E-07  0.2742993E+04  0.7818609E-02  0.8321188E-01
       -1   -1    0    0    0  501  0.00000000000E+00  0.00000000000E+00  0.13264153208E+04  0.13264153208E+04  0.50400001928E-02 0.  1.
        1   -1    0    0  501    0  0.00000000000E+00  0.00000000000E+00 -0.14181100763E+04  0.14181100763E+04  0.50400001928E-02 0. -1.
    10030    2    1    2    0    0  0.00000000000E+00  0.00000000000E+00 -0.91694755514E+02  0.27445253971E+04  0.27429932058E+04 0.  0.
        2    1    3    3  502    0  0.75100100391E+03  0.11474661176E+04 -0.27894865548E+02  0.13716629041E+04  0.25500000920E-02 0.  1.
       -2    1    3    3    0  502 -0.75100100391E+03 -0.11474661176E+04 -0.63799889966E+02  0.13728624931E+04  0.25500000920E-02 0. -1.
</event>
<event>
 5   0  0.1377807E-06  0.2800663E+04  0.7818609E-02  0.8303062E-01
       -2   -1    0    0    0  501  0.00000000000E+00  0.00000000000E+00  0.11162678989E+04  0.11162678989E+04  0.25500000920E-02 0. -1.
        2   -1    0    0  501    0  0.00000000000E+00  0.00000000000E+00 -0.17566828541E+04  0.17566828541E+04  0.25500000920E-02 0.  1.
    10030    2    1    2    0    0  0.00000000000E+00  0.00000000000E+00 -0.64041495521E+03  0.28729507531E+04  0.28006632634E+04 0.  0.
        2    1    3    3  502    0  0.74421491775E+03 -0.97474729587E+03  0.37321375248E+03  0.12819035220E+04  0.25500000920E-02 0. -1.
       -2    1    3    3    0  502 -0.74421491775E+03  0.97474729587E+03 -0.10136287077E+04  0.15910472311E+04  0.25500000920E-02 0.  1.
</event>
<event>
 5   0  0.1377807E-06  0.2799243E+04  0.7818609E-02  0.8303503E-01
        2   -1    0    0  501    0  0.00000000000E+00  0.00000000000E+00  0.15741703716E+04  0.15741703716E+04  0.25500000920E-02 0. -1.
       -2   -1    0    0    0  501  0.00000000000E+00  0.00000000000E+00 -0.12444275774E+04  0.12444275774E+04  0.25500000920E-02 0.  1.
    10030    2    1    2    0    0  0.00000000000E+00  0.00000000000E+00  0.32974279417E+03  0.28185979490E+04  0.27992434849E+04 0.  0.
        2    1    3    3  502    0  0.77320833908E+03 -0.11331861423E+04  0.44424073474E+03  0.14419818997E+04  0.25500000920E-02 0. -1.
       -2    1    3    3    0  502 -0.77320833908E+03  0.11331861423E+04 -0.11449794057E+03  0.13766160493E+04  0.25500000920E-02 0.  1.
</event>
<event>
 5   0  0.5551565E-07  0.2801905E+04  0.7818609E-02  0.8302677E-01
        1   -1    0    0  501    0  0.00000000000E+00  0.00000000000E+00  0.87532411795E+03  0.87532411797E+03  0.50400001928E-02 0.  1.
       -1   -1    0    0    0  501  0.00000000000E+00  0.00000000000E+00 -0.22422183870E+04  0.22422183870E+04  0.50400001928E-02 0. -1.
    10030    2    1    2    0    0  0.00000000000E+00  0.00000000000E+00 -0.13668942690E+04  0.31175425050E+04  0.28019049462E+04 0.  0.
        3    1    3    3  502    0  0.12976067307E+04 -0.90846317388E+02 -0.12622733476E+04  0.18125590460E+04  0.10100000352E+00 0. -1.
       -3    1    3    3    0  502 -0.12976067307E+04  0.90846317388E+02 -0.10462092143E+03  0.13049834590E+04  0.10100000352E+00 0.  1.
</event>
<event>
 5   0  0.5214658E-07  0.2801577E+04  0.7818609E-02  0.8302779E-01
        1   -1    0    0  501    0  0.00000000000E+00  0.00000000000E+00  0.17764002693E+04  0.17764002693E+04  0.50400001928E-02 0. -1.
       -1   -1    0    0    0  501  0.00000000000E+00  0.00000000000E+00 -0.11045979623E+04  0.11045979623E+04  0.50400001928E-02 0.  1.
    10030    2    1    2    0    0  0.00000000000E+00  0.00000000000E+00  0.67180230700E+03  0.28809982316E+04  0.28015767830E+04 0.  0.
        2    1    3    3  502    0 -0.12724129830E+03  0.33396869711E+03 -0.10569261441E+04  0.11157142612E+04  0.25500000920E-02 0.  1.
       -2    1    3    3    0  502  0.12724129830E+03 -0.33396869711E+03  0.17287284511E+04  0.17652839704E+04  0.25500000920E-02 0. -1.
</event>
<event>
 5   0  0.1461146E-06  0.2800705E+04  0.7818609E-02  0.8303050E-01
        2   -1    0    0  501    0  0.00000000000E+00  0.00000000000E+00  0.20799126518E+04  0.20799126518E+04  0.25500000920E-02 0. -1.
       -2   -1    0    0    0  501  0.00000000000E+00  0.00000000000E+00 -0.94282178182E+03  0.94282178183E+03  0.25500000920E-02 0.  1.
    10030    2    1    2    0    0  0.00000000000E+00  0.00000000000E+00  0.11370908699E+04  0.30227344336E+04  0.28007048773E+04 0.  0.
        1    1    3    3  502    0 -0.27031353896E+01 -0.47453369802E+03 -0.85339748853E+03  0.97646137197E+03  0.50400001928E-02 0.  1.
       -1    1    3    3    0  502  0.27031353896E+01  0.47453369802E+03  0.19904883585E+04  0.20462730616E+04  0.50400001928E-02 0. -1.
</event>
<event>
 5   0  0.5282098E-07  0.2800498E+04  0.7818609E-02  0.8303114E-01
       -1   -1    0    0    0  501  0.00000000000E+00  0.00000000000E+00  0.98757439581E+03  0.98757439582E+03  0.50400001928E-02 0. -1.
        1   -1    0    0  501    0  0.00000000000E+00  0.00000000000E+00 -0.19853662756E+04  0.19853662756E+04  0.50400001928E-02 0.  1.
    10030    2    1    2    0    0  0.00000000000E+00  0.00000000000E+00 -0.99779187982E+03  0.29729406714E+04  0.28004977416E+04 0.  0.
        4    1    3    3  502    0 -0.65954732247E+03 -0.11087712273E+04 -0.10767667429E+04  0.16804179649E+04  0.12699999809E+01 0.  1.
       -4    1    3    3    0  502  0.65954732247E+03  0.11087712273E+04  0.78974863048E+02  0.12925227066E+04  0.12699999809E+01 0. -1.
</event>
<event>
 5   0  0.1461146E-06  0.2800151E+04  0.7818609E-02  0.8303222E-01
        2   -1    0    0  501    0  0.00000000000E+00  0.00000000000E+00  0.17864689023E+04  0.17864689023E+04  0.25500000920E-02 0.  1.
       -2   -1    0    0    0  501  0.00000000000E+00  0.00000000000E+00 -0.10972545492E+04  0.10972545492E+04  0.25500000920E-02 0. -1.
    10030    2    1    2    0    0  0.00000000000E+00  0.00000000000E+00  0.68921435309E+03  0.28837234514E+04  0.28001508030E+04 0.  0.
        1    1    3    3  502    0 -0.66390149685E+03  0.12243116389E+04  0.19713073392E+03  0.14066146284E+04  0.50400001928E-02 0. -1.
       -1    1    3    3    0  502  0.66390149685E+03 -0.12243116389E+04  0.49208361917E+03  0.14771088230E+04  0.50400001928E-02 0.  1.
</event>
<event>
 5   0  0.5362952E-07  0.2887885E+04  0.7818609E-02  0.8276491E-01
        1   -1    0    0  501    0  0.00000000000E+00  0.00000000000E+00  0.22131540885E+04  0.22131540885E+04  0.50400001928E-02 0.  1.
       -1   -1    0    0    0  501  0.00000000000E+00  0.00000000000E+00 -0.94208049619E+03  0.94208049620E+03  0.50400001928E-02 0. -1.
    10030    2    1    2    0    0  0.00000000000E+00  0.00000000000E+00  0.12710735923E+04  0.31552345847E+04  0.28878845558E+04 0.  0.
        1    1    3    3  502    0  0.60751625817E+03  0.87208620417E+03  0.17034479285E+04  0.20078210071E+04  0.50400001928E-02 0.  1.
       -1    1    3    3    0  502 -0.60751625817E+03 -0.87208620417E+03 -0.43237433618E+03  0.11474135776E+04  0.50400001928E-02 0. -1.
</event>
<event>
 5   0  0.1394410E-06  0.2798881E+04  0.7818609E-02  0.8303616E-01
        2   -1    0    0  501    0  0.00000000000E+00  0.00000000000E+00  0.13562984645E+04  0.13562984645E+04  0.25500000920E-02 0.  1.
       -2   -1    0    0    0  501  0.00000000000E+00  0.00000000000E+00 -0.14439550599E+04  0.14439550599E+04  0.25500000920E-02 0. -1.
    10030    2    1    2    0    0  0.00000000000E+00  0.00000000000E+00 -0.87656595457E+02  0.28002535244E+04  0.27988812269E+04 0.  0.
        4    1    3    3  502    0  0.11970957648E+04 -0.21214640040E+03  0.64961184999E+03  0.13784199410E+04  0.12699999809E+01 0.  1.
       -4    1    3    3    0  502 -0.11970957648E+04  0.21214640040E+03 -0.73726844544E+03  0.14218335834E+04  0.12699999809E+01 0. -1.
</event>
<event>
 5   0  0.4710000E-07  0.2796538E+04  0.7818609E-02  0.8304344E-01
        3   -1    0    0  501    0  0.00000000000E+00  0.00000000000E+00  0.14710833986E+04  0.14710834020E+04  0.10100000352E+00 0.  1.
       -3   -1    0    0    0  501  0.00000000000E+00  0.00000000000E+00 -0.13290588211E+04  0.13290588250E+04  0.10100000352E+00 0. -1.
    10030    2    1    2    0    0  0.00000000000E+00  0.00000000000E+00  0.14202457742E+03  0.28001422270E+04  0.27965381297E+04 0.  0.
        1    1    3    3  502    0 -0.20407385079E+03  0.10491573798E+04 -0.83169217883E+03  0.13542855033E+04  0.50400001928E-02 0. -1.
       -1    1    3    3    0  502  0.20407385079E+03 -0.10491573798E+04  0.97371675625E+03  0.14458567237E+04  0.50400001928E-02 0.  1.
</event>
<event>
 5   0  0.1499888E-06  0.2798614E+04  0.7818609E-02  0.8303699E-01
        2   -1    0    0  501    0  0.00000000000E+00  0.00000000000E+00  0.22785124234E+04  0.22785124234E+04  0.25500000920E-02 0. -1.
       -2   -1    0    0    0  501  0.00000000000E+00  0.00000000000E+00 -0.85935885521E+03  0.85935885522E+03  0.25500000920E-02 0.  1.
    10030    2    1    2    0    0  0.00000000000E+00  0.00000000000E+00  0.14191535681E+04  0.31378712786E+04  0.27986138195E+04 0.  0.
        3    1    3    3  502    0  0.83084529254E+03  0.58899753737E+02  0.19702860377E+04  0.21391120031E+04  0.10100000352E+00 0. -1.
       -3    1    3    3    0  502 -0.83084529254E+03 -0.58899753737E+02 -0.55113246959E+03  0.99875927548E+03  0.10100000352E+00 0.  1.
</event>
<event>
 5   0  0.1377807E-06  0.2804094E+04  0.7818609E-02  0.8301999E-01
        2   -1    0    0  501    0  0.00000000000E+00  0.00000000000E+00  0.18850434941E+04  0.18850434941E+04  0.25500000920E-02 0.  1.
       -2   -1    0    0    0  501  0.00000000000E+00  0.00000000000E+00 -0.10428064702E+04  0.10428064702E+04  0.25500000920E-02 0. -1.
    10030    2    1    2    0    0  0.00000000000E+00  0.00000000000E+00  0.84223702390E+03  0.29278499644E+04  0.28040938304E+04 0.  0.
        2    1    3    3  502    0  0.11801351735E+04  0.51262741057E+03  0.10026830761E+04  0.16312201693E+04  0.25500000920E-02 0.  1.
       -2    1    3    3    0  502 -0.11801351735E+04 -0.51262741057E+03 -0.16044605215E+03  0.12966297951E+04  0.25500000920E-02 0. -1.
</event>
<event>
 5   0  0.1461146E-06  0.2798305E+04  0.7818609E-02  0.8303795E-01
        2   -1    0    0  501    0  0.00000000000E+00  0.00000000000E+00  0.16475659559E+04  0.16475659559E+04  0.25500000920E-02 0.  1.
       -2   -1    0    0    0  501  0.00000000000E+00  0.00000000000E+00 -0.11881936393E+04  0.11881936393E+04  0.25500000920E-02 0. -1.
    10030    2    1    2    0    0  0.00000000000E+00  0.00000000000E+00  0.45937231658E+03  0.28357595952E+04  0.27983047648E+04 0.  0.
        1    1    3    3  502    0 -0.33869972780E+03  0.35662486199E+03  0.15570766199E+04  0.16329073452E+04  0.50400001928E-02 0.  1.
       -1    1    3    3    0  502  0.33869972780E+03 -0.35662486199E+03 -0.10977043033E+04  0.12028522500E+04  0.50400001928E-02 0. -1.
</event>
<event>
 5   0  0.5282098E-07  0.2760972E+04  0.7818609E-02  0.8315489E-01
        1   -1    0    0  501    0  0.00000000000E+00  0.00000000000E+00  0.18251950281E+04  0.18251950281E+04  0.50400001928E-02 0. -1.
       -1   -1    0    0    0  501  0.00000000000E+00  0.00000000000E+00 -0.10441300730E+04  0.10441300730E+04  0.50400001928E-02 0.  1.
    10030    2    1    2    0    0  0.00000000000E+00  0.00000000000E+00  0.78106495510E+03  0.28693251011E+04  0.27609715811E+04 0.  0.
        4    1    3    3  502    0 -0.20802975379E+02 -0.12997348524E+04 -0.92460292531E+02  0.13031860838E+04  0.12699999809E+01 0.  1.
       -4    1    3    3    0  502  0.20802975379E+02  0.12997348524E+04  0.87352524763E+03  0.15661390173E+04  0.12699999809E+01 0. -1.
</event>
<event>
 5   0  0.1377807E-06  0.2799478E+04  0.7818609E-02  0.8303430E-01
        2   -1    0    0  501    0  0.00000000000E+00  0.00000000000E+00  0.18782737403E+04  0.18782737403E+04  0.25500000920E-02 0. -1.
       -2   -1    0    0    0  501  0.00000000000E+00  0.00000000000E+00 -0.10431223997E+04  0.10431223997E+04  0.25500000920E-02 0.  1.
    10030    2    1    2    0    0  0.00000000000E+00  0.00000000000E+00  0.83515134058E+03  0.29213961400E+04  0.27994781023E+04 0.  0.
        2    1    3    3  502    0  0.11654631194E+04 -0.28212088905E+03  0.11710832350E+04  0.16761063278E+04  0.25500000920E-02 0. -1.
       -2    1    3    3    0  502 -0.11654631194E+04  0.28212088905E+03 -0.33593189440E+03  0.12452898122E+04  0.25500000920E-02 0.  1.
</event>
<event>
 5   0  0.5297741E-07  0.2800019E+04  0.7818609E-02  0.8303262E-01
       -1   -1    0    0    0  501  0.00000000000E+00  0.00000000000E+00  0.13076035814E+04  0.13076035814E+04  0.50400001928E-02 0. -1.
        1   -1    0    0  501    0  0.00000000000E+00  0.00000000000E+00 -0.14989460426E+04  0.14989460426E+04  0.50400001928E-02 0.  1.
    10030    2    1    2    0    0  0.00000000000E+00  0.00000000000E+00 -0.19134246113E+03  0.28065496240E+04  0.28000194382E+04 0.  0.
        5    1    3    3  502    0 -0.91486788974E+03  0.10422631012E+04  0.96372834100E+02  0.13901818014E+04  0.46999998093E+01 0.  1.
       -5    1    3    3    0  502  0.91486788974E+03 -0.10422631012E+04 -0.28771529523E+03  0.14163678226E+04  0.46999998093E+01 0. -1.
</event>
<event>
 5   0  0.5282098E-07  0.2801462E+04  0.7818609E-02  0.8302815E-01
        1   -1    0    0  501    0  0.00000000000E+00  0.00000000000E+00  0.16989591561E+04  0.16989591561E+04  0.50400001928E-02 0. -1.
       -1   -1    0    0    0  501  0.00000000000E+00  0.00000000000E+00 -0.11548527168E+04  0.11548527169E+04  0.50400001928E-02 0.  1.
    10030    2    1    2    0    0  0.00000000000E+00  0.00000000000E+00  0.54410643925E+03  0.28538118730E+04  0.28014621877E+04 0.  0.
        4    1    3    3  502    0  0.10485365041E+04  0.83871282035E+03 -0.13437334118E+03  0.13494168382E+04  0.12699999809E+01 0. -1.
       -4    1    3    3    0  502 -0.10485365041E+04 -0.83871282035E+03  0.67847978042E+03  0.15043950348E+04  0.12699999809E+01 0.  1.
</event>
<event>
 5   0  0.5214658E-07  0.2766223E+04  0.7818609E-02  0.8313832E-01
       -1   -1    0    0    0  501  0.00000000000E+00  0.00000000000E+00  0.84712091832E+03  0.84712091833E+03  0.50400001928E-02 0. -1.
        1   -1    0    0  501    0  0.00000000000E+00  0.00000000000E+00 -0.22582339896E+04  0.22582339896E+04  0.50400001928E-02 0.  1.
    10030    2    1    2    0    0  0.00000000000E+00  0.00000000000E+00 -0.14111130713E+04  0.31053549080E+04  0.27662228769E+04 0.  0.
        2    1    3    3  502    0  0.52448230291E+03  0.57896002928E+03 -0.19868533777E+04  0.21349151613E+04  0.25500000920E-02 0.  1.
       -2    1    3    3    0  502 -0.52448230291E+03 -0.57896002928E+03  0.57574030635E+03  0.97043974668E+03  0.25500000920E-02 0. -1.
</event>
<event>
 5   0  0.5297741E-07  0.2801463E+04  0.7818609E-02  0.8302814E-01
       -1   -1    0    0    0  501  0.00000000000E+00  0.00000000000E+00  0.11861693369E+04  0.11861693369E+04  0.50400001928E-02 0.  1.
        1   -1    0    0  501    0  0.00000000000E+00  0.00000000000E+00 -0.16541056598E+04  0.16541056598E+04  0.50400001928E-02 0. -1.
    10030    2    1    2    0    0  0.00000000000E+00  0.00000000000E+00 -0.46793632291E+03  0.28402749967E+04  0.28014634845E+04 0.  0.
        5    1    3    3  502    0 -0.42570906287E+03  0.13059606836E+04  0.44178784621E+02  0.13743126894E+04  0.46999998093E+01 0.  1.
       -5    1    3    3    0  502  0.42570906287E+03 -0.13059606836E+04 -0.51211510753E+03  0.14659623074E+04  0.46999998093E+01 0. -1.
</event>
<event>
 5   0  0.1461146E-06  0.2802145E+04  0.7818609E-02  0.8302603E-01
        2   -1    0    0  501    0  0.00000000000E+00  0.00000000000E+00  0.13409513310E+04  0.13409513310E+04  0.25500000920E-02 0.  1.
       -2   -1    0    0    0  501  0.00000000000E+00  0.00000000000E+00 -0.14638890439E+04  0.14638890439E+04  0.25500000920E-02 0. -1.
    10030    2    1    2    0    0  0.00000000000E+00  0.00000000000E+00 -0.12293771289E+03  0.28048403750E+04  0.28021448656E+04 0.  0.
        1    1    3    3  502    0  0.13059057407E+04 -0.38747996794E+03 -0.38961562113E+03  0.14168030426E+04  0.50400001928E-02 0.  1.
       -1    1    3    3    0  502 -0.13059057407E+04  0.38747996794E+03  0.26667790824E+03  0.13880373324E+04  0.50400001928E-02 0. -1.
</event>
<event>
 5   0  0.1394410E-06  0.2827124E+04  0.7818609E-02  0.8294897E-01
        2   -1    0    0  501    0  0.00000000000E+00  0.00000000000E+00  0.22088940442E+04  0.22088940442E+04  0.25500000920E-02 0.  1.
       -2   -1    0    0    0  501  0.00000000000E+00  0.00000000000E+00 -0.90459626157E+03  0.90459626158E+03  0.25500000920E-02 0. -1.
    10030    2    1    2    0    0  0.00000000000E+00  0.00000000000E+00  0.13042977826E+04  0.31134903058E+04  0.28271238350E+04 0.  0.
        4    1    3    3  502    0 -0.74157411714E+03 -0.79454205530E+03  0.16475409235E+04  0.19737330003E+04  0.12699999809E+01 0.  1.
       -4    1    3    3    0  502  0.74157411714E+03  0.79454205530E+03 -0.34324314086E+03  0.11397573055E+04  0.12699999809E+01 0. -1.
</event>
<event>
 5   0  0.1439207E-06  0.2800237E+04  0.7818609E-02  0.8303195E-01
        2   -1    0    0  501    0  0.00000000000E+00  0.00000000000E+00  0.19238067076E+04  0.19238067076E+04  0.25500000920E-02 0.  1.
       -2   -1    0    0    0  501  0.00000000000E+00  0.00000000000E+00 -0.10189856111E+04  0.10189856111E+04  0.25500000920E-02 0. -1.
    10030    2    1    2    0    0  0.00000000000E+00  0.00000000000E+00  0.90482109649E+03  0.29427923188E+04  0.28002366712E+04 0.  0.
        5    1    3    3  502    0 -0.98777410924E+03 -0.99156521041E+03  0.49187221293E+03  0.14835294474E+04  0.46999998093E+01 0. -1.
       -5    1    3    3    0  502  0.98777410924E+03  0.99156521041E+03  0.41294888356E+03  0.14592628714E+04  0.46999998093E+01 0.  1.
</event>
<event>
 5   0  0.5214658E-07  0.2799649E+04  0.7818609E-02  0.8303377E-01
        1   -1    0    0  501    0  0.00000000000E+00  0.00000000000E+00  0.14842791680E+04  0.14842791680E+04  0.50400001928E-02 0. -1.
       -1   -1    0    0    0  501  0.00000000000E+00  0.00000000000E+00 -0.13201750478E+04  0.13201750478E+04  0.50400001928E-02 0.  1.
    10030    2    1    2    0    0  0.00000000000E+00  0.00000000000E+00  0.16410412020E+03  0.28044542157E+04  0.27996487790E+04 0.  0.
        2    1    3    3  502    0 -0.46989320382E+03  0.88337068761E+03  0.10626935375E+04  0.14596098621E+04  0.25500000920E-02 0. -1.
       -2    1    3    3    0  502  0.46989320382E+03 -0.88337068761E+03 -0.89858941732E+03  0.13448443537E+04  0.25500000920E-02 0.  1.
</event>
<event>
 5   0  0.5214658E-07  0.2801354E+04  0.7818609E-02  0.8302848E-01
       -1   -1    0    0    0  501  0.00000000000E+00  0.00000000000E+00  0.16233924378E+04  0.16233924378E+04  0.50400001928E-02 0.  1.
        1   -1    0    0  501    0  0.00000000000E+00  0.00000000000E+00 -0.12085164143E+04  0.12085164143E+04  0.50400001928E-02 0. -1.
    10030    2    1    2    0    0  0.00000000000E+00  0.00000000000E+00  0.41487602349E+03  0.28319088521E+04  0.28013542496E+04 0.  0.
        2    1    3    3  502    0 -0.18967807005E+03 -0.13713613311E+04 -0.76898967222E+01  0.13844380829E+04  0.25500000920E-02 0. -1.
       -2    1    3    3    0  502  0.18967807005E+03  0.13713613311E+04  0.42256592021E+03  0.14474707692E+04  0.25500000920E-02 0.  1.
</event>
<event>
 5   0  0.4710000E-07  0.2805201E+04  0.7818609E-02  0.8301656E-01
       -3   -1    0    0    0  501  0.00000000000E+00  0.00000000000E+00  0.13690862195E+04  0.13690862232E+04  0.10100000352E+00 0. -1.
        3   -1    0    0  501    0  0.00000000000E+00  0.00000000000E+00 -0.14369349953E+04  0.14369349988E+04  0.10100000352E+00 0.  1.
    10030    2    1    2    0    0  0.00000000000E+00  0.00000000000E+00 -0.67848775831E+02  0.28060212220E+04  0.28052008203E+04 0.  0.
        5    1    3    3  502    0 -0.38030829386E+02 -0.52208022925E+03  0.12677062293E+04  0.13715375618E+04  0.46999998093E+01 0. -1.
       -5    1    3    3    0  502  0.38030829386E+02  0.52208022925E+03 -0.13355550051E+04  0.14344836602E+04  0.46999998093E+01 0.  1.
</event>
<event>
 5   0  0.4710000E-07  0.2801787E+04  0.7818609E-02  0.8302714E-01
        3   -1    0    0  501    0  0.00000000000E+00  0.00000000000E+00  0.65656397458E+03  0.65656398234E+03  0.10100000352E+00 0. -1.
       -3   -1    0    0    0  501  0.00000000000E+00  0.00000000000E+00 -0.29890510948E+04  0.29890510965E+04  0.10100000352E+00 0.  1.
    10030    2    1    2    0    0  0.00000000000E+00  0.00000000000E+00 -0.23324871202E+04  0.36456150789E+04  0.28017874897E+04 0.  0.
        1    1    3    3  502    0  0.17266131188E+03  0.19303340944E+03  0.62514350143E+03  0.67666699578E+03  0.50400001928E-02 0. -1.
       -1    1    3    3    0  502 -0.17266131188E+03 -0.19303340944E+03 -0.29576306217E+04  0.29689480831E+04  0.50400001928E-02 0.  1.
</event>
<event>
 5   0  0.5282098E-07  0.2809435E+04  0.7818609E-02  0.8300345E-01
        1   -1    0    0  501    0  0.00000000000E+00  0.00000000000E+00  0.10845937657E+04  0.10845937657E+04  0.50400001928E-02 0.  1.
       -1   -1    0    0    0  501  0.00000000000E+00  0.00000000000E+00 -0.18193273604E+04  0.18193273605E+04  0.50400001928E-02 0. -1.
    10030    2    1    2    0    0  0.00000000000E+00  0.00000000000E+00 -0.73473359478E+03  0.29039211261E+04  0.28094348990E+04 0.  0.
        4    1    3    3  502    0 -0.16578085092E+03  0.12684425723E+04 -0.96722922292E+03  0.16037343397E+04  0.12699999809E+01 0. -1.
       -4    1    3    3    0  502  0.16578085092E+03 -0.12684425723E+04  0.23249562814E+03  0.13001867865E+04  0.12699999809E+01 0.  1.
</event>
<event>
 5   0  0.5362952E-07  0.2801631E+04  0.7818609E-02  0.8302762E-01
       -1   -1    0    0    0  501  0.00000000000E+00  0.00000000000E+00  0.13330149997E+04  0.13330149997E+04  0.50400001928E-02 0.  1.
        1   -1    0    0  501    0  0.00000000000E+00  0.00000000000E+00 -0.14720642514E+04  0.14720642514E+04  0.50400001928E-02 0. -1.
    10030    2    1    2    0    0  0.00000000000E+00  0.00000000000E+00 -0.13904925171E+03  0.28050792512E+04  0.28016307592E+04 0.  0.
        1    1    3    3  502    0  0.22725571712E+03  0.89216913594E+03  0.98755558011E+03  0.13501396046E+04  0.50400001928E-02 0.  1.
       -1    1    3    3    0  502 -0.22725571712E+03 -0.89216913594E+03 -0.11266048318E+04  0.14549396466E+04  0.50400001928E-02 0. -1.
</event>
<event>
 5   0  0.1394410E-06  0.2802482E+04  0.7818609E-02  0.8302498E-01
       -2   -1    0    0    0  501  0.00000000000E+00  0.00000000000E+00  0.82463284406E+03  0.82463284407E+03  0.25500000920E-02 0. -1.
        2   -1    0    0  501    0  0.00000000000E+00  0.00000000000E+00 -0.23810301932E+04  0.23810301932E+04  0.25500000920E-02 0.  1.
    10030    2    1    2    0    0  0.00000000000E+00  0.00000000000E+00 -0.15563973492E+04  0.32056630373E+04  0.28024815432E+04 0.  0.
        4    1    3    3  502    0 -0.77215579298E+03 -0.44625119433E+03 -0.20144787390E+04  0.22030639800E+04  0.12699999809E+01 0.  1.
       -4    1    3    3    0  502  0.77215579298E+03  0.44625119433E+03  0.45808138985E+03  0.10025990573E+04  0.12699999809E+01 0. -1.
</event>
<event>
 5   0  0.1439207E-06  0.2796216E+04  0.7818609E-02  0.8304444E-01
       -2   -1    0    0    0  501  0.00000000000E+00  0.00000000000E+00  0.16544952517E+04  0.16544952517E+04  0.25500000920E-02 0.  1.
        2   -1    0    0  501    0  0.00000000000E+00  0.00000000000E+00 -0.11814513399E+04  0.11814513399E+04  0.25500000920E-02 0. -1.
    10030    2    1    2    0    0  0.00000000000E+00  0.00000000000E+00  0.47304391176E+03  0.28359465916E+04  0.27962157514E+04 0.  0.
        5    1    3    3  502    0 -0.62734986898E+03 -0.15916238001E+03 -0.10203536601E+04  0.12083228885E+04  0.46999998093E+01 0. -1.
       -5    1    3    3    0  502  0.62734986898E+03  0.15916238001E+03  0.14933975718E+04  0.16276237031E+04  0.46999998093E+01 0.  1.
</event>
<event>
 5   0  0.5297741E-07  0.2799618E+04  0.7818609E-02  0.8303387E-01
       -1   -1    0    0    0  501  0.00000000000E+00  0.00000000000E+00  0.74346479688E+03  0.74346479690E+03  0.50400001928E-02 0. -1.
        1   -1    0    0  501    0  0.00000000000E+00  0.00000000000E+00 -0.26355850615E+04  0.26355850615E+04  0.50400001928E-02 0.  1.
    10030    2    1    2    0    0  0.00000000000E+00  0.00000000000E+00 -0.18921202646E+04  0.33790498584E+04  0.27996176256E+04 0.  0.
        5    1    3    3  502    0 -0.29159341696E+03  0.86242355712E+03 -0.22294492244E+04  0.24081667398E+04  0.46999998093E+01 0.  1.
       -5    1    3    3    0  502  0.29159341696E+03 -0.86242355712E+03  0.33732895982E+03  0.97088311852E+03  0.46999998093E+01 0. -1.
</event>
<event>
 5   0  0.1461146E-06  0.2799652E+04  0.7818609E-02  0.8303376E-01
       -2   -1    0    0    0  501  0.00000000000E+00  0.00000000000E+00  0.81272554296E+03  0.81272554296E+03  0.25500000920E-02 0.  1.
        2   -1    0    0  501    0  0.00000000000E+00  0.00000000000E+00 -0.24110389511E+04  0.24110389511E+04  0.25500000920E-02 0. -1.
    10030    2    1    2    0    0  0.00000000000E+00  0.00000000000E+00 -0.15983134081E+04  0.32237644941E+04  0.27996520788E+04 0.  0.
        1    1    3    3  502    0  0.52369061548E+03  0.95175055609E+03 -0.18157525920E+04  0.21159013344E+04  0.50400001928E-02 0. -1.
       -1    1    3    3    0  502 -0.52369061548E+03 -0.95175055609E+03  0.21743918384E+03  0.11078631596E+04  0.50400001928E-02 0.  1.
</event>
<event>
 5   0  0.1377807E-06  0.2797256E+04  0.7818609E-02  0.8304121E-01
        2   -1    0    0  501    0  0.00000000000E+00  0.00000000000E+00  0.20487679050E+04  0.20487679050E+04  0.25500000920E-02 0. -1.
       -2   -1    0    0    0  501  0.00000000000E+00  0.00000000000E+00 -0.95479856145E+03  0.95479856145E+03  0.25500000920E-02 0.  1.
    10030    2    1    2    0    0  0.00000000000E+00  0.00000000000E+00  0.10939693436E+04  0.30035664665E+04  0.27972562617E+04 0.  0.
        2    1    3    3  502    0  0.13128715969E+04 -0.45855027922E+03  0.38678114991E+03  0.14434333536E+04  0.25500000920E-02 0.  1.
       -2    1    3    3    0  502 -0.13128715969E+04  0.45855027922E+03  0.70718819367E+03  0.15601331128E+04  0.25500000920E-02 0. -1.
</event>
<event>
 5   0  0.1377807E-06  0.2800265E+04  0.7818609E-02  0.8303186E-01
        2   -1    0    0  501    0  0.00000000000E+00  0.00000000000E+00  0.20045553708E+04  0.20045553708E+04  0.25500000920E-02 0. -1.
       -2   -1    0    0    0  501  0.00000000000E+00  0.00000000000E+00 -0.97795805796E+03  0.97795805796E+03  0.25500000920E-02 0.  1.
    10030    2    1    2    0    0  0.00000000000E+00  0.00000000000E+00  0.10265973128E+04  0.29825134287E+04  0.28002650428E+04 0.  0.
        2    1    3    3  502    0  0.78335266885E+03 -0.63635937784E+03 -0.52031246634E+03  0.11354821549E+04  0.25500000920E-02 0. -1.
       -2    1    3    3    0  502 -0.78335266885E+03  0.63635937784E+03  0.15469097791E+04  0.18470312738E+04  0.25500000920E-02 0.  1.
</event>
<event>
 5   0  0.5282098E-07  0.2801765E+04  0.7818609E-02  0.8302721E-01
        1   -1    0    0  501    0  0.00000000000E+00  0.00000000000E+00  0.22016901067E+04  0.22016901067E+04  0.50400001928E-02 0. -1.
       -1   -1    0    0    0  501  0.00000000000E+00  0.00000000000E+00 -0.89134805371E+03  0.89134805372E+03  0.50400001928E-02 0.  1.
    10030    2    1    2    0    0  0.00000000000E+00  0.00000000000E+00  0.13103420530E+04  0.30930381604E+04  0.28017652946E+04 0.  0.
        4    1    3    3  502    0  0.54237908331E+03 -0.94578857774E+03  0.16262669466E+04  0.19579164687E+04  0.12699999809E+01 0. -1.
       -4    1    3    3    0  502 -0.54237908331E+03  0.94578857774E+03 -0.31592489361E+03  0.11351216918E+04  0.12699999809E+01 0.  1.
</event>
<event>
 5   0  0.5362952E-07  0.2818021E+04  0.7818609E-02  0.8297695E-01
        1   -1    0    0  501    0  0.00000000000E+00  0.00000000000E+00  0.18665806265E+04  0.18665806265E+04  0.50400001928E-02 0.  1.
       -1   -1    0    0    0  501  0.00000000000E+00  0.00000000000E+00 -0.10636086151E+04  0.10636086151E+04  0.50400001928E-02 0. -1.
    10030    2    1    2    0    0  0.00000000000E+00  0.00000000000E+00  0.80297201138E+03  0.29301892416E+04  0.28180214585E+04 0.  0.
        1    1    3    3  502    0  0.64208552716E+02  0.13269975909E+04 -0.86519810743E+02  0.13313643462E+04  0.50400001928E-02 0. -1.
       -1    1    3    3    0  502 -0.64208552716E+02 -0.13269975909E+04  0.88949182213E+03  0.15988248954E+04  0.50400001928E-02 0.  1.
</event>
<event>
 5   0  0.1439207E-06  0.2800470E+04  0.7818609E-02  0.8303122E-01
        2   -1    0    0  501    0  0.00000000000E+00  0.00000000000E+00  0.11629168722E+04  0.11629168722E+04  0.25500000920E-02 0. -1.
       -2   -1    0    0    0  501  0.00000000000E+00  0.00000000000E+00 -0.16859831741E+04  0.16859831741E+04  0.25500000920E-02 0.  1.
    10030    2    1    2    0    0  0.00000000000E+00  0.00000000000E+00 -0.52306630188E+03  0.28489000464E+04  0.28004701602E+04 0.  0.
        5    1    3    3  502    0 -0.75086756370E+03 -0.83834838757E+02 -0.14608206987E+04  0.16446426913E+04  0.46999998093E+01 0.  1.
       -5    1    3    3    0  502  0.75086756370E+03  0.83834838757E+02  0.93775439682E+03  0.12042573550E+04  0.46999998093E+01 0. -1.
</event>
<event>
 5   0  0.5297741E-07  0.2796437E+04  0.7818609E-02  0.8304375E-01
       -1   -1    0    0    0  501  0.00000000000E+00  0.00000000000E+00  0.20437723096E+04  0.20437723096E+04  0.50400001928E-02 0.  1.
        1   -1    0    0  501    0  0.00000000000E+00  0.00000000000E+00 -0.95657191558E+03  0.95657191560E+03  0.50400001928E-02 0. -1.
    10030    2    1    2    0    0  0.00000000000E+00  0.00000000000E+00  0.10872003940E+04  0.30003442252E+04  0.27964371570E+04 0.  0.
        5    1    3    3  502    0  0.38821295184E+03 -0.20977093433E+02 -0.89740477649E+03  0.97801163454E+03  0.46999998093E+01 0. -1.
       -5    1    3    3    0  502 -0.38821295184E+03  0.20977093433E+02  0.19846051705E+04  0.20223325907E+04  0.46999998093E+01 0.  1.
</event>
<event>
 5   0  0.1377807E-06  0.2800201E+04  0.7818609E-02  0.8303206E-01
        2   -1    0    0  501    0  0.00000000000E+00  0.00000000000E+00  0.24351552308E+04  0.24351552308E+04  0.25500000920E-02 0.  1.
       -2   -1    0    0    0  501  0.00000000000E+00  0.00000000000E+00 -0.80499239386E+03  0.80499239387E+03  0.25500000920E-02 0. -1.
    10030    2    1    2    0    0  0.00000000000E+00  0.00000000000E+00  0.16301628369E+04  0.32401476246E+04  0.28002010204E+04 0.  0.
        2    1    3    3  502    0 -0.45515438596E+03  0.10720291857E+04 -0.84099497806E+02  0.11676835255E+04  0.25500000920E-02 0. -1.
       -2    1    3    3    0  502  0.45515438596E+03 -0.10720291857E+04  0.17142623347E+04  0.20724640992E+04  0.25500000920E-02 0.  1.
</event>
<event>
 5   0  0.1394410E-06  0.2802241E+04  0.7818609E-02  0.8302573E-01
       -2   -1    0    0    0  501  0.00000000000E+00  0.00000000000E+00  0.15690777715E+04  0.15690777715E+04  0.25500000920E-02 0. -1.
        2   -1    0    0  501    0  0.00000000000E+00  0.00000000000E+00 -0.12511420803E+04  0.12511420803E+04  0.25500000920E-02 0.  1.
    10030    2    1    2    0    0  0.00000000000E+00  0.00000000000E+00  0.31793569117E+03  0.28202198518E+04  0.28022414080E+04 0.  0.
        4    1    3    3  502    0  0.13080809894E+04 -0.30464483470E+03  0.56059363328E+03  0.14553869536E+04  0.12699999809E+01 0. -1.
       -4    1    3    3    0  502 -0.13080809894E+04  0.30464483470E+03 -0.24265794211E+03  0.13648328982E+04  0.12699999809E+01 0.  1.
</event>
<event>
 5   0  0.5282098E-07  0.2753965E+04  0.7818609E-02  0.8317705E-01
       -1   -1    0    0    0  501  0.00000000000E+00  0.00000000000E+00  0.15231461291E+04  0.15231461291E+04  0.50400001928E-02 0.  1.
        1   -1    0    0  501    0  0.00000000000E+00  0.00000000000E+00 -0.12448445238E+04  0.12448445238E+04  0.50400001928E-02 0. -1.
    10030    2    1    2    0    0  0.00000000000E+00  0.00000000000E+00  0.27830160524E+03  0.27679906529E+04  0.27539645007E+04 0.  0.
        4    1    3    3  502    0  0.12258657137E+04  0.62621538310E+03  0.17376529115E+03  0.13874755650E+04  0.12699999809E+01 0.  1.
       -4    1    3    3    0  502 -0.12258657137E+04 -0.62621538310E+03  0.10453631409E+03  0.13805150879E+04  0.12699999809E+01 0. -1.
</event>
<event>
 5   0  0.1439207E-06  0.2803309E+04  0.7818609E-02  0.8302242E-01
        2   -1    0    0  501    0  0.00000000000E+00  0.00000000000E+00  0.17189901488E+04  0.17189901488E+04  0.25500000920E-02 0.  1.
       -2   -1    0    0    0  501  0.00000000000E+00  0.00000000000E+00 -0.11429011602E+04  0.11429011602E+04  0.25500000920E-02 0. -1.
    10030    2    1    2    0    0  0.00000000000E+00  0.00000000000E+00  0.57608898867E+03  0.28618913090E+04  0.28033093553E+04 0.  0.
        5    1    3    3  502    0  0.11420526974E+04  0.44703920715E+03  0.98081598746E+03  0.15703982003E+04  0.46999998093E+01 0.  1.
       -5    1    3    3    0  502 -0.11420526974E+04 -0.44703920715E+03 -0.40472699879E+03  0.12914931087E+04  0.46999998093E+01 0. -1.
</event>
<event>
 5   0  0.1499888E-06  0.2800328E+04  0.7818609E-02  0.8303167E-01
        2   -1    0    0  501    0  0.00000000000E+00  0.00000000000E+00  0.87201354962E+03  0.87201354962E+03  0.25500000920E-02 0. -1.
       -2   -1    0    0    0  501  0.00000000000E+00  0.00000000000E+00 -0.22481978549E+04  0.22481978549E+04  0.25500000920E-02 0.  1.
    10030    2    1    2    0    0  0.00000000000E+00  0.00000000000E+00 -0.13761843053E+04  0.31202114045E+04  0.28003278320E+04 0.  0.
        3    1    3    3  502    0 -0.47260873256E+01 -0.46437958609E+02 -0.22473306727E+04  0.22478153800E+04  0.10100000352E+00 0.  1.
       -3    1    3    3    0  502  0.47260873256E+01  0.46437958609E+02  0.87114636743E+03  0.87239602451E+03  0.10100000352E+00 0. -1.
</event>
<event>
 5   0  0.1394410E-06  0.2803515E+04  0.7818609E-02  0.8302178E-01
        2   -1    0    0  501    0  0.00000000000E+00  0.00000000000E+00  0.71625234432E+03  0.71625234432E+03  0.25500000920E-02 0.  1.
       -2   -1    0    0    0  501  0.00000000000E+00  0.00000000000E+00 -0.27433412970E+04  0.27433412970E+04  0.25500000920E-02 0. -1.
    10030    2    1    2    0    0  0.00000000000E+00  0.00000000000E+00 -0.20270889526E+04  0.34595936413E+04  0.28035153898E+04 0.  0.
        4    1    3    3  502    0  0.26880879993E+03  0.65991346127E+02 -0.27092826289E+04  0.27233852105E+04  0.12699999809E+01 0. -1.
       -4    1    3    3    0  502 -0.26880879993E+03 -0.65991346127E+02  0.68219367626E+03  0.73620843076E+03  0.12699999809E+01 0.  1.
</event>
<event>
 5   0  0.5214658E-07  0.2800398E+04  0.7818609E-02  0.8303145E-01
        1   -1    0    0  501    0  0.00000000000E+00  0.00000000000E+00  0.14436881997E+04  0.14436881997E+04  0.50400001928E-02 0.  1.
       -1   -1    0    0    0  501  0.00000000000E+00  0.00000000000E+00 -0.13580194470E+04  0.13580194471E+04  0.50400001928E-02 0. -1.
    10030    2    1    2    0    0  0.00000000000E+00  0.00000000000E+00  0.85668752621E+02  0.28017076467E+04  0.28003975794E+04 0.  0.
        2    1    3    3  502    0 -0.64831390221E+03 -0.58456996648E+03  0.11381175934E+04  0.14343446650E+04  0.25500000920E-02 0.  1.
       -2    1    3    3    0  502  0.64831390221E+03  0.58456996648E+03 -0.10524488408E+04  0.13673629818E+04  0.25500000920E-02 0. -1.
</event>
<event>
 5   0  0.1439207E-06  0.2799784E+04  0.7818609E-02  0.8303336E-01
       -2   -1    0    0    0  501  0.00000000000E+00  0.00000000000E+00  0.82478923139E+03  0.82478923139E+03  0.25500000920E-02 0. -1.
        2   -1    0    0  501    0  0.00000000000E+00  0.00000000000E+00 -0.23759972482E+04  0.23759972482E+04  0.25500000920E-02 0.  1.
    10030    2    1    2    0    0  0.00000000000E+00  0.00000000000E+00 -0.15512080168E+04  0.32007864796E+04  0.27997835231E+04 0.  0.
        5    1    3    3  502    0 -0.10793187012E+03  0.98699911256E+03 -0.19037885361E+04  0.21471491371E+04  0.46999998093E+01 0.  1.
       -5    1    3    3    0  502  0.10793187012E+03 -0.98699911256E+03  0.35258051934E+03  0.10536373424E+04  0.46999998093E+01 0. -1.
</event>
<event>
 5   0  0.5297741E-07  0.2815556E+04  0.7818609E-02  0.8298455E-01
        1   -1    0    0  501    0  0.00000000000E+00  0.00000000000E+00  0.10328509343E+04  0.10328509343E+04  0.50400001928E-02 0. -1.
       -1   -1    0    0    0  501  0.00000000000E+00  0.00000000000E+00 -0.19188046190E+04  0.19188046190E+04  0.50400001928E-02 0.  1.
    10030    2    1    2    0    0  0.00000000000E+00  0.00000000000E+00 -0.88595368466E+03  0.29516555533E+04  0.28155561749E+04 0.  0.
        5    1    3    3  502    0 -0.25335333587E+03  0.12579086117E+04  0.16406001368E+03  0.12936227295E+04  0.46999998093E+01 0. -1.
       -5    1    3    3    0  502  0.25335333587E+03 -0.12579086117E+04 -0.10500136983E+04  0.16580328238E+04  0.46999998093E+01 0.  1.
</event>
<event>
 5   0  0.1394410E-06  0.2789096E+04  0.7818609E-02  0.8306661E-01
       -2   -1    0    0    0  501  0.00000000000E+00  0.00000000000E+00  0.12519767280E+04  0.12519767280E+04  0.25500000920E-02 0. -1.
        2   -1    0    0  501    0  0.00000000000E+00  0.00000000000E+00 -0.15533553693E+04  0.15533553693E+04  0.25500000920E-02 0.  1.
    10030    2    1    2    0    0  0.00000000000E+00  0.00000000000E+00 -0.30137864131E+03  0.28053320973E+04  0.27890964650E+04 0.  0.
        4    1    3    3  502    0  0.79623051025E+02 -0.10158992506E+03 -0.15473337068E+04  0.15527084582E+04  0.12699999809E+01 0.  1.
       -4    1    3    3    0  502 -0.79623051025E+02  0.10158992506E+03  0.12459550655E+04  0.12526236391E+04  0.12699999809E+01 0. -1.
</event>
<event>
 5   0  0.5362952E-07  0.2795895E+04  0.7818609E-02  0.8304544E-01
        1   -1    0    0  501    0  0.00000000000E+00  0.00000000000E+00  0.18470115175E+04  0.18470115175E+04  0.50400001928E-02 0.  1.
       -1   -1    0    0    0  501  0.00000000000E+00  0.00000000000E+00 -0.10580644182E+04  0.10580644183E+04  0.50400001928E-02 0. -1.
    10030    2    1    2    0    0  0.00000000000E+00  0.00000000000E+00  0.78894709921E+03  0.29050759357E+04  0.27958949671E+04 0.  0.
        1    1    3    3  502    0 -0.55148891754E+03 -0.58373488967E+03  0.15834354797E+04  0.17754307550E+04  0.50400001928E-02 0.  1.
       -1    1    3    3    0  502  0.55148891754E+03  0.58373488967E+03 -0.79448838045E+03  0.11296451807E+04  0.50400001928E-02 0. -1.
</event>
<event>
 5   0  0.1439207E-06  0.2806354E+04  0.7818609E-02  0.8301299E-01
        2   -1    0    0  501    0  0.00000000000E+00  0.00000000000E+00  0.20302101828E+04  0.20302101828E+04  0.25500000920E-02 0.  1.
       -2   -1    0    0    0  501  0.00000000000E+00  0.00000000000E+00 -0.96980366795E+03  0.96980366795E+03  0.25500000920E-02 0. -1.
    10030    2    1    2    0    0  0.00000000000E+00  0.00000000000E+00  0.10604065149E+04  0.30000138508E+04  0.28063537069E+04 0.  0.
        5    1    3    3  502    0  0.28786988818E+03  0.11811895013E+04  0.12791234742E+04  0.17647256622E+04  0.46999998093E+01 0.  1.
       -5    1    3    3    0  502 -0.28786988818E+03 -0.11811895013E+04 -0.21871695936E+03  0.12352881886E+04  0.46999998093E+01 0. -1.
</event>
<event>
 5   0  0.5297741E-07  0.2806468E+04  0.7818609E-02  0.8301263E-01
        1   -1    0    0  501    0  0.00000000000E+00  0.00000000000E+00  0.16728643038E+04  0.16728643038E+04  0.50400001928E-02 0.  1.
       -1   -1    0    0    0  501  0.00000000000E+00  0.00000000000E+00 -0.11770625053E+04  0.11770625053E+04  0.50400001928E-02 0. -1.
    10030    2    1    2    0    0  0.00000000000E+00  0.00000000000E+00  0.49580179849E+03  0.28499268091E+04  0.28064681352E+04 0.  0.
        5    1    3    3  502    0 -0.12828817806E+04 -0.56747959484E+03  0.21235884736E+03  0.14187801534E+04  0.46999998093E+01 0. -1.
       -5    1    3    3    0  502  0.12828817806E+04  0.56747959484E+03  0.28344295113E+03  0.14311466557E+04  0.46999998093E+01 0.  1.
</event>
<event>
 5   0  0.5297741E-07  0.2779573E+04  0.7818609E-02  0.8309638E-01
        1   -1    0    0  501    0  0.00000000000E+00  0.00000000000E+00  0.17040645977E+04  0.17040645977E+04  0.50400001928E-02 0.  1.
       -1   -1    0    0    0  501  0.00000000000E+00  0.00000000000E+00 -0.11334699252E+04  0.11334699252E+04  0.50400001928E-02 0. -1.
    10030    2    1    2    0    0  0.00000000000E+00  0.00000000000E+00  0.57059467245E+03  0.28375345229E+04  0.27795726090E+04 0.  0.
        5    1    3    3  502    0 -0.10950547400E+04  0.67789037994E+02 -0.58557068148E+03  0.12436459908E+04  0.46999998093E+01 0. -1.
       -5    1    3    3    0  502  0.10950547400E+04 -0.67789037994E+02  0.11561653539E+04  0.15938885322E+04  0.46999998093E+01 0.  1.
</event>
<event>
 5   0  0.1439207E-06  0.2801252E+04  0.7818609E-02  0.8302880E-01
       -2   -1    0    0    0  501  0.00000000000E+00  0.00000000000E+00  0.16120848434E+04  0.16120848434E+04  0.25500000920E-02 0.  1.
        2   -1    0    0  501    0  0.00000000000E+00  0.00000000000E+00 -0.12169046344E+04  0.12169046344E+04  0.25500000920E-02 0. -1.
    10030    2    1    2    0    0  0.00000000000E+00  0.00000000000E+00  0.39518020900E+03  0.28289894777E+04  0.28012522321E+04 0.  0.
        5    1    3    3  502    0  0.97500907830E+02 -0.10927694474E+04 -0.68170897259E+03  0.12916658645E+04  0.46999998093E+01 0. -1.
       -5    1    3    3    0  502 -0.97500907830E+02  0.10927694474E+04  0.10768891816E+04  0.15373236132E+04  0.46999998093E+01 0.  1.
</event>
<event>
 5   0  0.5282098E-07  0.2800210E+04  0.7818609E-02  0.8303203E-01
        1   -1    0    0  501    0  0.00000000000E+00  0.00000000000E+00  0.29825061597E+04  0.29825061597E+04  0.50400001928E-02 0.  1.
       -1   -1    0    0    0  501  0.00000000000E+00  0.00000000000E+00 -0.65726391856E+03  0.65726391858E+03  0.50400001928E-02 0. -1.
    10030    2    1    2    0    0  0.00000000000E+00  0.00000000000E+00  0.23252422411E+04  0.36397700782E+04  0.28002097676E+04 0.  0.
        4    1    3    3  502    0  0.11916323452E+04 -0.66432074811E+03  0.15715636782E+04  0.20811351975E+04  0.12699999809E+01 0. -1.
       -4    1    3    3    0  502 -0.11916323452E+04  0.66432074811E+03  0.75367856289E+03  0.15586348808E+04  0.12699999809E+01 0.  1.
</event>
<event>
 5   0  0.5282098E-07  0.2804311E+04  0.7818609E-02  0.8301931E-01
       -1   -1    0    0    0  501  0.00000000000E+00  0.00000000000E+00  0.83740479431E+03  0.83740479433E+03  0.50400001928E-02 0.  1.
        1   -1    0    0  501    0  0.00000000000E+00  0.00000000000E+00 -0.23477782088E+04  0.23477782088E+04  0.50400001928E-02 0. -1.
    10030    2    1    2    0    0  0.00000000000E+00  0.00000000000E+00 -0.15103734145E+04  0.31851830032E+04  0.28043114863E+04 0.  0.
        4    1    3    3  502    0  0.88437623383E+03  0.28589157092E+03 -0.19476229044E+04  0.21580296346E+04  0.12699999809E+01 0. -1.
       -4    1    3    3    0  502 -0.88437623383E+03 -0.28589157092E+03  0.43724948985E+03  0.10271533686E+04  0.12699999809E+01 0.  1.
</event>
<event>
 5   0  0.5297741E-07  0.2798766E+04  0.7818609E-02  0.8303652E-01
        1   -1    0    0  501    0  0.00000000000E+00  0.00000000000E+00  0.14539924866E+04  0.14539924866E+04  0.50400001928E-02 0.  1.
       -1   -1    0    0    0  501  0.00000000000E+00  0.00000000000E+00 -0.13468245421E+04  0.13468245421E+04  0.50400001928E-02 0. -1.
    10030    2    1    2    0    0  0.00000000000E+00  0.00000000000E+00  0.10716794455E+03  0.28008170287E+04  0.27987659888E+04 0.  0.
        5    1    3    3  502    0  0.28616270131E+03 -0.42880626595E+03 -0.12483255151E+04  0.13505934203E+04  0.46999998093E+01 0. -1.
       -5    1    3    3    0  502 -0.28616270131E+03  0.42880626595E+03  0.13554934596E+04  0.14502236084E+04  0.46999998093E+01 0.  1.
</event>
<event>
 5   0  0.5282098E-07  0.2795441E+04  0.7818609E-02  0.8304685E-01
        1   -1    0    0  501    0  0.00000000000E+00  0.00000000000E+00  0.15000234493E+04  0.15000234493E+04  0.50400001928E-02 0. -1.
       -1   -1    0    0    0  501  0.00000000000E+00  0.00000000000E+00 -0.13023949857E+04  0.13023949857E+04  0.50400001928E-02 0.  1.
    10030    2    1    2    0    0  0.00000000000E+00  0.00000000000E+00  0.19762846359E+03  0.28024184350E+04  0.27954413024E+04 0.  0.
        4    1    3    3  502    0  0.52396019821E+03  0.54516906852E+03  0.12772812276E+04  0.14843155156E+04  0.12699999809E+01 0. -1.
       -4    1    3    3    0  502 -0.52396019821E+03 -0.54516906852E+03 -0.10796527640E+04  0.13181029194E+04  0.12699999809E+01 0.  1.
</event>
<event>
 5   0  0.5282098E-07  0.2791512E+04  0.7818609E-02  0.8305909E-01
        1   -1    0    0  501    0  0.00000000000E+00  0.00000000000E+00  0.17940558186E+04  0.17940558186E+04  0.50400001928E-02 0. -1.
       -1   -1    0    0    0  501  0.00000000000E+00  0.00000000000E+00 -0.10858827271E+04  0.10858827271E+04  0.50400001928E-02 0.  1.
    10030    2    1    2    0    0  0.00000000000E+00  0.00000000000E+00  0.70817309151E+03  0.28799385456E+04  0.27915115796E+04 0.  0.
        4    1    3    3  502    0  0.16317784492E+03  0.10045504592E+04  0.13395320485E+04  0.16822890227E+04  0.12699999809E+01 0. -1.
       -4    1    3    3    0  502 -0.16317784492E+03 -0.10045504592E+04 -0.63135895699E+03  0.11976495229E+04  0.12699999809E+01 0.  1.
</event>
<event>
 5   0  0.5282098E-07  0.2799823E+04  0.7818609E-02  0.8303323E-01
        1   -1    0    0  501    0  0.00000000000E+00  0.00000000000E+00  0.20488159432E+04  0.20488159432E+04  0.50400001928E-02 0.  1.
       -1   -1    0    0    0  501  0.00000000000E+00  0.00000000000E+00 -0.95652914698E+03  0.95652914700E+03  0.50400001928E-02 0. -1.
    10030    2    1    2    0    0  0.00000000000E+00  0.00000000000E+00  0.10922867962E+04  0.30053450902E+04  0.27998229705E+04 0.  0.
        4    1    3    3  502    0 -0.90806223928E+03  0.26829187509E+03  0.16529451244E+04  0.19049374682E+04  0.12699999809E+01 0.  1.
       -4    1    3    3    0  502  0.90806223928E+03 -0.26829187509E+03 -0.56065832818E+03  0.11004076220E+04  0.12699999809E+01 0. -1.
</event>
<event>
 5   0  0.5362952E-07  0.2801430E+04  0.7818609E-02  0.8302825E-01
        1   -1    0    0  501    0  0.00000000000E+00  0.00000000000E+00  0.11949761501E+04  0.11949761501E+04  0.50400001928E-02 0. -1.
       -1   -1    0    0    0  501  0.00000000000E+00  0.00000000000E+00 -0.16418759170E+04  0.16418759170E+04  0.50400001928E-02 0.  1.
    10030    2    1    2    0    0  0.00000000000E+00  0.00000000000E+00 -0.44689976697E+03  0.28368520671E+04  0.28014300364E+04 0.  0.
        1    1    3    3  502    0 -0.42589339521E+03 -0.50425408578E+03 -0.14745247242E+04  0.16155124665E+04  0.50400001928E-02 0.  1.
       -1    1    3    3    0  502  0.42589339521E+03  0.50425408578E+03  0.10276249573E+04  0.12213396006E+04  0.50400001928E-02 0. -1.
</event>
<event>
 5   0  0.1377807E-06  0.2802653E+04  0.7818609E-02  0.8302445E-01
       -2   -1    0    0    0  501  0.00000000000E+00  0.00000000000E+00  0.10782387686E+04  0.10782387686E+04  0.25500000920E-02 0.  1.
        2   -1    0    0  501    0  0.00000000000E+00  0.00000000000E+00 -0.18212256579E+04  0.18212256579E+04  0.25500000920E-02 0. -1.
    10030    2    1    2    0    0  0.00000000000E+00  0.00000000000E+00 -0.74298688929E+03  0.28994644266E+04  0.28026531079E+04 0.  0.
        2    1    3    3  502    0  0.45167207474E+03 -0.94800947329E+02  0.99735994706E+03  0.10989639424E+04  0.25500000920E-02 0.  1.
       -2    1    3    3    0  502 -0.45167207474E+03  0.94800947329E+02 -0.17403468364E+04  0.18005004842E+04  0.25500000920E-02 0. -1.
</event>
<event>
 5   0  0.5362952E-07  0.2799780E+04  0.7818609E-02  0.8303337E-01
        1   -1    0    0  501    0  0.00000000000E+00  0.00000000000E+00  0.15746677590E+04  0.15746677590E+04  0.50400001928E-02 0.  1.
       -1   -1    0    0    0  501  0.00000000000E+00  0.00000000000E+00 -0.12445113962E+04  0.12445113962E+04  0.50400001928E-02 0. -1.
    10030    2    1    2    0    0  0.00000000000E+00  0.00000000000E+00  0.33015636285E+03  0.28191791552E+04  0.27997799709E+04 0.  0.
        1    1    3    3  502    0  0.52926230311E+03 -0.32558135290E+03 -0.10980337284E+04  0.12616655149E+04  0.50400001928E-02 0. -1.
       -1    1    3    3    0  502 -0.52926230311E+03  0.32558135290E+03  0.14281900913E+04  0.15575136403E+04  0.50400001928E-02 0.  1.
</event>
<event>
 5   0  0.5362952E-07  0.2800217E+04  0.7818609E-02  0.8303201E-01
        1   -1    0    0  501    0  0.00000000000E+00  0.00000000000E+00  0.22938291528E+04  0.22938291528E+04  0.50400001928E-02 0.  1.
       -1   -1    0    0    0  501  0.00000000000E+00  0.00000000000E+00 -0.85459884067E+03  0.85459884069E+03  0.50400001928E-02 0. -1.
    10030    2    1    2    0    0  0.00000000000E+00  0.00000000000E+00  0.14392303121E+04  0.31484279935E+04  0.28002169449E+04 0.  0.
        1    1    3    3  502    0 -0.13412772083E+04  0.37271809704E+03  0.88774388203E+03  0.16510701164E+04  0.50400001928E-02 0. -1.
       -1    1    3    3    0  502  0.13412772083E+04 -0.37271809704E+03  0.55148643006E+03  0.14973578770E+04  0.50400001928E-02 0.  1.
</event>
<event>
 5   0  0.1439207E-06  0.2783757E+04  0.7818609E-02  0.8308329E-01
        2   -1    0    0  501    0  0.00000000000E+00  0.00000000000E+00  0.14043559149E+04  0.14043559149E+04  0.25500000920E-02 0. -1.
       -2   -1    0    0    0  501  0.00000000000E+00  0.00000000000E+00 -0.13795117966E+04  0.13795117966E+04  0.25500000920E-02 0.  1.
    10030    2    1    2    0    0  0.00000000000E+00  0.00000000000E+00  0.24844118288E+02  0.27838677116E+04  0.27837568510E+04 0.  0.
        5    1    3    3  502    0 -0.82618080358E+02 -0.79377387388E+02 -0.13747802350E+04  0.13795540226E+04  0.46999998093E+01 0.  1.
       -5    1    3    3    0  502  0.82618080358E+02  0.79377387388E+02  0.13996243532E+04  0.14043136890E+04  0.46999998093E+01 0. -1.
</event>
<event>
 5   0  0.5214658E-07  0.2805505E+04  0.7818609E-02  0.8301561E-01
       -1   -1    0    0    0  501  0.00000000000E+00  0.00000000000E+00  0.14468848701E+04  0.14468848701E+04  0.50400001928E-02 0. -1.
        1   -1    0    0  501    0  0.00000000000E+00  0.00000000000E+00 -0.13599661953E+04  0.13599661953E+04  0.50400001928E-02 0.  1.
    10030    2    1    2    0    0  0.00000000000E+00  0.00000000000E+00  0.86918674793E+02  0.28068510655E+04  0.28055049541E+04 0.  0.
        2    1    3    3  502    0 -0.93620157935E+03 -0.81810887043E+03  0.69333931838E+03  0.14235501155E+04  0.25500000920E-02 0. -1.
       -2    1    3    3    0  502  0.93620157935E+03  0.81810887043E+03 -0.60642064359E+03  0.13833009499E+04  0.25500000920E-02 0.  1.
</event>
<event>
 5   0  0.5551565E-07  0.2792481E+04  0.7818609E-02  0.8305606E-01
       -1   -1    0    0    0  501  0.00000000000E+00  0.00000000000E+00  0.17612385027E+04  0.17612385027E+04  0.50400001928E-02 0.  1.
        1   -1    0    0  501    0  0.00000000000E+00  0.00000000000E+00 -0.11068847699E+04  0.11068847699E+04  0.50400001928E-02 0. -1.
    10030    2    1    2    0    0  0.00000000000E+00  0.00000000000E+00  0.65435373284E+03  0.28681232726E+04  0.27924813875E+04 0.  0.
        3    1    3    3  502    0 -0.75012856592E+02 -0.10298930705E+04 -0.63805684884E+03  0.12138464557E+04  0.10100000352E+00 0. -1.
       -3    1    3    3    0  502  0.75012856592E+02  0.10298930705E+04  0.12924105817E+04  0.16542768170E+04  0.10100000352E+00 0.  1.
</event>
<event>
 5   0  0.5282098E-07  0.2800554E+04  0.7818609E-02  0.8303096E-01
       -1   -1    0    0    0  501  0.00000000000E+00  0.00000000000E+00  0.10053908628E+04  0.10053908628E+04  0.50400001928E-02 0.  1.
        1   -1    0    0  501    0  0.00000000000E+00  0.00000000000E+00 -0.19502616846E+04  0.19502616846E+04  0.50400001928E-02 0. -1.
    10030    2    1    2    0    0  0.00000000000E+00  0.00000000000E+00 -0.94487082179E+03  0.29556525475E+04  0.28005537152E+04 0.  0.
        4    1    3    3  502    0 -0.40461685794E+01 -0.12029116701E+04 -0.12289023594E+04  0.17196556281E+04  0.12699999809E+01 0. -1.
       -4    1    3    3    0  502  0.40461685794E+01  0.12029116701E+04  0.28403153758E+03  0.12359969194E+04  0.12699999809E+01 0.  1.
</event>
<event>
 5   0  0.5282098E-07  0.2799712E+04  0.7818609E-02  0.8303358E-01
       -1   -1    0    0    0  501  0.00000000000E+00  0.00000000000E+00  0.13296611955E+04  0.13296611955E+04  0.50400001928E-02 0.  1.
        1   -1    0    0  501    0  0.00000000000E+00  0.00000000000E+00 -0.14737560151E+04  0.14737560151E+04  0.50400001928E-02 0. -1.
    10030    2    1    2    0    0  0.00000000000E+00  0.00000000000E+00 -0.14409481966E+03  0.28034172106E+04  0.27997115458E+04 0.  0.
        4    1    3    3  502    0  0.22765571026E+03 -0.12031687520E+04 -0.75129060216E+03  0.14366215055E+04  0.12699999809E+01 0. -1.
       -4    1    3    3    0  502 -0.22765571026E+03  0.12031687520E+04  0.60719578250E+03  0.13667957051E+04  0.12699999809E+01 0.  1.
</event>
<event>
 5   0  0.1394410E-06  0.2805059E+04  0.7818609E-02  0.8301699E-01
       -2   -1    0    0    0  501  0.00000000000E+00  0.00000000000E+00  0.14578307023E+04  0.14578307023E+04  0.25500000920E-02 0.  1.
        2   -1    0    0  501    0  0.00000000000E+00  0.00000000000E+00 -0.13493264560E+04  0.13493264560E+04  0.25500000920E-02 0. -1.
    10030    2    1    2    0    0  0.00000000000E+00  0.00000000000E+00  0.10850424633E+03  0.28071571583E+04  0.28050593826E+04 0.  0.
        4    1    3    3  502    0  0.36801741344E+03  0.52214032179E+03  0.13037933599E+04  0.14518767408E+04  0.12699999809E+01 0.  1.
       -4    1    3    3    0  502 -0.36801741344E+03 -0.52214032179E+03 -0.11952891136E+04  0.13552804175E+04  0.12699999809E+01 0. -1.
</event>
<event>
 5   0  0.4710000E-07  0.2794909E+04  0.7818609E-02  0.8304851E-01
       -3   -1    0    0    0  501  0.00000000000E+00  0.00000000000E+00  0.99366700086E+03  0.99366700600E+03  0.10100000352E+00 0.  1.
        3   -1    0    0  501    0  0.00000000000E+00  0.00000000000E+00 -0.19653251132E+04  0.19653251158E+04  0.10100000352E+00 0. -1.
    10030    2    1    2    0    0  0.00000000000E+00  0.00000000000E+00 -0.97165811234E+03  0.29589921218E+04  0.27949087444E+04 0.  0.
        5    1    3    3  502    0 -0.76587624284E+03 -0.86505751199E+03  0.34642968748E+03  0.12062033563E+04  0.46999998093E+01 0.  1.
       -5    1    3    3    0  502  0.76587624284E+03  0.86505751199E+03 -0.13180877998E+04  0.17527887655E+04  0.46999998093E+01 0. -1.
</event>
<event>
 5   0  0.5551565E-07  0.2799303E+04  0.7818609E-02  0.8303485E-01
       -1   -1    0    0    0  501  0.00000000000E+00  0.00000000000E+00  0.12065183614E+04  0.12065183614E+04  0.50400001928E-02 0.  1.
        1   -1    0    0  501    0  0.00000000000E+00  0.00000000000E+00 -0.16236999195E+04  0.16236999195E+04  0.50400001928E-02 0. -1.
    10030    2    1    2    0    0  0.00000000000E+00  0.00000000000E+00 -0.41718155808E+03  0.28302182809E+04  0.27993026033E+04 0.  0.
        3    1    3    3  502    0 -0.35453918574E+03  0.12280793484E+04  0.36792321002E+03  0.13301294744E+04  0.10100000352E+00 0.  1.
       -3    1    3    3    0  502  0.35453918574E+03 -0.12280793484E+04 -0.78510476810E+03  0.15000888064E+04  0.10100000352E+00 0. -1.
</event>
<event>
 5   0  0.1377807E-06  0.2800378E+04  0.7818609E-02  0.8303151E-01
        2   -1    0    0  501    0  0.00000000000E+00  0.00000000000E+00  0.18033974147E+04  0.18033974147E+04  0.25500000920E-02 0.  1.
       -2   -1    0    0    0  501  0.00000000000E+00  0.00000000000E+00 -0.10871313385E+04  0.10871313385E+04  0.25500000920E-02 0. -1.
    10030    2    1    2    0    0  0.00000000000E+00  0.00000000000E+00  0.71626607613E+03  0.28905287532E+04  0.28003784354E+04 0.  0.
        2    1    3    3  502    0  0.56049385359E+03 -0.10857526196E+04 -0.34763114414E+03  0.12703777089E+04  0.25500000920E-02 0. -1.
       -2    1    3    3    0  502 -0.56049385359E+03  0.10857526196E+04  0.10638972203E+04  0.16201510443E+04  0.25500000920E-02 0.  1.
</event>
<event>
 5   0  0.1439207E-06  0.2799009E+04  0.7818609E-02  0.8303576E-01
        2   -1    0    0  501    0  0.00000000000E+00  0.00000000000E+00  0.14384130425E+04  0.14384130425E+04  0.25500000920E-02 0.  1.
       -2   -1    0    0    0  501  0.00000000000E+00  0.00000000000E+00 -0.13616484300E+04  0.13616484300E+04  0.25500000920E-02 0. -1.
    10030    2    1    2    0    0  0.00000000000E+00  0.00000000000E+00  0.76764612539E+02  0.28000614725E+04  0.27990090111E+04 0.  0.
        5    1    3    3  502    0 -0.18906800353E+03  0.23558911766E+02 -0.13486054077E+04  0.13620060088E+04  0.46999998093E+01 0. -1.
       -5    1    3    3    0  502  0.18906800353E+03 -0.23558911766E+02  0.14253700202E+04  0.14380554638E+04  0.46999998093E+01 0.  1.
</event>
<event>
 5   0  0.1499888E-06  0.2799559E+04  0.7818609E-02  0.8303405E-01
       -2   -1    0    0    0  501  0.00000000000E+00  0.00000000000E+00  0.22142070161E+04  0.22142070161E+04  0.25500000920E-02 0.  1.
        2   -1    0    0  501    0  0.00000000000E+00  0.00000000000E+00 -0.88491401813E+03  0.88491401813E+03  0.25500000920E-02 0. -1.
    10030    2    1    2    0    0  0.00000000000E+00  0.00000000000E+00  0.13292929979E+04  0.30991210342E+04  0.27995591278E+04 0.  0.
        3    1    3    3  502    0 -0.71482357001E+03 -0.12029722378E+04  0.70406384014E+03  0.15664676321E+04  0.10100000352E+00 0.  1.
       -3    1    3    3    0  502  0.71482357001E+03  0.12029722378E+04  0.62522915780E+03  0.15326534021E+04  0.10100000352E+00 0. -1.
</event>
<event>
 5   0  0.5214658E-07  0.2799978E+04  0.7818609E-02  0.8303275E-01
       -1   -1    0    0    0  501  0.00000000000E+00  0.00000000000E+00  0.10779720194E+04  0.10779720194E+04  0.50400001928E-02 0. -1.
        1   -1    0    0  501    0  0.00000000000E+00  0.00000000000E+00 -0.18182005772E+04  0.18182005772E+04  0.50400001928E-02 0.  1.
    10030    2    1    2    0    0  0.00000000000E+00  0.00000000000E+00 -0.74022855785E+03  0.28961725966E+04  0.27999781055E+04 0.  0.
        2    1    3    3  502    0 -0.64457378844E+02 -0.13064110994E+04 -0.88636504299E+03  0.15800340831E+04  0.25500000920E-02 0.  1.
       -2    1    3    3    0  502  0.64457378844E+02  0.13064110994E+04  0.14613648515E+03  0.13161385135E+04  0.25500000920E-02 0. -1.
</event>
<event>
 5   0  0.1499888E-06  0.2788989E+04  0.7818609E-02  0.8306695E-01
        2   -1    0    0  501    0  0.00000000000E+00  0.00000000000E+00  0.11805165407E+04  0.11805165407E+04  0.25500000920E-02 0.  1.
       -2   -1    0    0    0  501  0.00000000000E+00  0.00000000000E+00 -0.16472577736E+04  0.16472577736E+04  0.25500000920E-02 0. -1.
    10030    2    1    2    0    0  0.00000000000E+00  0.00000000000E+00 -0.46674123291E+03  0.28277743144E+04  0.27889890990E+04 0.  0.
        3    1    3    3  502    0  0.32456381042E+03  0.67704936430E+03 -0.14248197611E+04  0.16105430359E+04  0.10100000352E+00 0. -1.
       -3    1    3    3    0  502 -0.32456381042E+03 -0.67704936430E+03  0.95807852822E+03  0.12172312784E+04  0.10100000352E+00 0.  1.
</event>
<event>
 5   0  0.5297741E-07  0.2799679E+04  0.7818609E-02  0.8303368E-01
       -1   -1    0    0    0  501  0.00000000000E+00  0.00000000000E+00  0.20965382858E+04  0.20965382858E+04  0.50400001928E-02 0.  1.
        1   -1    0    0  501    0  0.00000000000E+00  0.00000000000E+00 -0.93466017722E+03  0.93466017723E+03  0.50400001928E-02 0. -1.
    10030    2    1    2    0    0  0.00000000000E+00  0.00000000000E+00  0.11618781086E+04  0.30311984630E+04  0.27996791572E+04 0.  0.
        5    1    3    3  502    0  0.60154037420E+03  0.24098507537E+03 -0.76247733202E+03  0.10006589830E+04  0.46999998093E+01 0. -1.
       -5    1    3    3    0  502 -0.60154037420E+03 -0.24098507537E+03  0.19243554406E+04  0.20305394801E+04  0.46999998093E+01 0.  1.
</event>
<event>
 5   0  0.5551565E-07  0.2796809E+04  0.7818609E-02  0.8304260E-01
       -1   -1    0    0    0  501  0.00000000000E+00  0.00000000000E+00  0.13431334805E+04  0.13431334805E+04  0.50400001928E-02 0. -1.
        1   -1    0    0  501    0  0.00000000000E+00  0.00000000000E+00 -0.14559494773E+04  0.14559494773E+04  0.50400001928E-02 0.  1.
    10030    2    1    2    0    0  0.00000000000E+00  0.00000000000E+00 -0.11281599685E+03  0.27990829579E+04  0.27968085304E+04 0.  0.
        3    1    3    3  502    0 -0.13036944949E+04  0.44259128482E+03 -0.30161356423E+03  0.14094243980E+04  0.10100000352E+00 0.  1.
       -3    1    3    3    0  502  0.13036944949E+04 -0.44259128482E+03  0.18879756739E+03  0.13896585599E+04  0.10100000352E+00 0. -1.
</event>
<event>
 5   0  0.5282098E-07  0.2801076E+04  0.7818609E-02  0.8302934E-01
       -1   -1    0    0    0  501  0.00000000000E+00  0.00000000000E+00  0.80796990464E+03  0.80796990465E+03  0.50400001928E-02 0. -1.
        1   -1    0    0  501    0  0.00000000000E+00  0.00000000000E+00 -0.24276985763E+04  0.24276985763E+04  0.50400001928E-02 0.  1.
    10030    2    1    2    0    0  0.00000000000E+00  0.00000000000E+00 -0.16197286716E+04  0.32356684809E+04  0.28010764982E+04 0.  0.
        4    1    3    3  502    0 -0.12550939405E+04  0.61292813227E+03 -0.69113586355E+03  0.15584004908E+04  0.12699999809E+01 0.  1.
       -4    1    3    3    0  502  0.12550939405E+04 -0.61292813227E+03 -0.92859280810E+03  0.16772679902E+04  0.12699999809E+01 0. -1.
</event>
<event>
 5   0  0.1394410E-06  0.2799057E+04  0.7818609E-02  0.8303561E-01
       -2   -1    0    0    0  501  0.00000000000E+00  0.00000000000E+00  0.10636800062E+04  0.10636800062E+04  0.25500000920E-02 0.  1.
        2   -1    0    0  501    0  0.00000000000E+00  0.00000000000E+00 -0.18414191386E+04  0.18414191386E+04  0.25500000920E-02 0. -1.
    10030    2    1    2    0    0  0.00000000000E+00  0.00000000000E+00 -0.77773913239E+03  0.29050991448E+04  0.27990574991E+04 0.  0.
        4    1    3    3  502    0 -0.95252453075E+03  0.82077597932E+03 -0.10267280094E+04  0.16233139586E+04  0.12699999809E+01 0. -1.
       -4    1    3    3    0  502  0.95252453075E+03 -0.82077597932E+03  0.24898887701E+03  0.12817851862E+04  0.12699999809E+01 0.  1.
</event>
<event>
 5   0  0.5282098E-07  0.2799711E+04  0.7818609E-02  0.8303358E-01
        1   -1    0    0  501    0  0.00000000000E+00  0.00000000000E+00  0.18850249745E+04  0.18850249745E+04  0.50400001928E-02 0. -1.
       -1   -1    0    0    0  501  0.00000000000E+00  0.00000000000E+00 -0.10395597277E+04  0.10395597277E+04  0.50400001928E-02 0.  1.
    10030    2    1    2    0    0  0.00000000000E+00  0.00000000000E+00  0.84546524677E+03  0.29245847022E+04  0.27997114488E+04 0.  0.
        4    1    3    3  502    0  0.10161709470E+04 -0.54181955126E+03 -0.40864381781E+03  0.12219505728E+04  0.12699999809E+01 0.  1.
       -4    1    3    3    0  502 -0.10161709470E+04  0.54181955126E+03  0.12541090646E+04  0.17026341294E+04  0.12699999809E+01 0. -1.
</event>
<event>
 5   0  0.4710000E-07  0.2795559E+04  0.7818609E-02  0.8304648E-01
       -4   -1    0    0    0  501  0.00000000000E+00  0.00000000000E+00  0.14675924926E+04  0.14675930421E+04  0.12699999809E+01 0. -1.
        4   -1    0    0  501    0  0.00000000000E+00  0.00000000000E+00 -0.13312866643E+04  0.13312872701E+04  0.12699999809E+01 0.  1.
    10030    2    1    2    0    0  0.00000000000E+00  0.00000000000E+00  0.13630582834E+03  0.27988803122E+04  0.27955592863E+04 0.  0.
        3    1    3    3  502    0  0.42058688245E+03 -0.95075441406E+03  0.10035864842E+04  0.14449958903E+04  0.10100000352E+00 0. -1.
       -3    1    3    3    0  502 -0.42058688245E+03  0.95075441406E+03 -0.86728065588E+03  0.13538844219E+04  0.10100000352E+00 0.  1.
</event>
<event>
 5   0  0.5551565E-07  0.2799311E+04  0.7818609E-02  0.8303482E-01
        1   -1    0    0  501    0  0.00000000000E+00  0.00000000000E+00  0.19519059051E+04  0.19519059051E+04  0.50400001928E-02 0. -1.
       -1   -1    0    0    0  501  0.00000000000E+00  0.00000000000E+00 -0.10036525568E+04  0.10036525568E+04  0.50400001928E-02 0.  1.
    10030    2    1    2    0    0  0.00000000000E+00  0.00000000000E+00  0.94825334834E+03  0.29555584619E+04  0.27993108811E+04 0.  0.
        3    1    3    3  502    0 -0.13900862451E+04 -0.11624775362E+03  0.59534816423E+03  0.15166716045E+04  0.10100000352E+00 0.  1.
       -3    1    3    3    0  502  0.13900862451E+04  0.11624775362E+03  0.35290518411E+03  0.14388868574E+04  0.10100000352E+00 0. -1.
</event>
<event>
 5   0  0.1377807E-06  0.2799763E+04  0.7818609E-02  0.8303342E-01
        2   -1    0    0  501    0  0.00000000000E+00  0.00000000000E+00  0.16107801136E+04  0.16107801136E+04  0.25500000920E-02 0. -1.
       -2   -1    0    0    0  501  0.00000000000E+00  0.00000000000E+00 -0.12165960960E+04  0.12165960960E+04  0.25500000920E-02 0.  1.
    10030    2    1    2    0    0  0.00000000000E+00  0.00000000000E+00  0.39418401759E+03  0.28273762096E+04  0.27997634170E+04 0.  0.
        2    1    3    3  502    0  0.10164880737E+04 -0.11654662580E+03 -0.76775630812E+03  0.12791719465E+04  0.25500000920E-02 0.  1.
       -2    1    3    3    0  502 -0.10164880737E+04  0.11654662580E+03  0.11619403257E+04  0.15482042632E+04  0.25500000920E-02 0. -1.
</event>
<event>
 5   0  0.1394410E-06  0.2797437E+04  0.7818609E-02  0.8304064E-01
        2   -1    0    0  501    0  0.00000000000E+00  0.00000000000E+00  0.17984517263E+04  0.17984517263E+04  0.25500000920E-02 0. -1.
       -2   -1    0    0    0  501  0.00000000000E+00  0.00000000000E+00 -0.10878323372E+04  0.10878323372E+04  0.25500000920E-02 0.  1.
    10030    2    1    2    0    0  0.00000000000E+00  0.00000000000E+00  0.71061938910E+03  0.28862840636E+04  0.27974373594E+04 0.  0.
        4    1    3    3  502    0 -0.11604008074E+04 -0.67464514554E+03  0.76116824579E+03  0.15430666925E+04  0.12699999809E+01 0. -1.
       -4    1    3    3    0  502  0.11604008074E+04  0.67464514554E+03 -0.50548856693E+02  0.13432173711E+04  0.12699999809E+01 0.  1.
</event>
<event>
 5   0  0.1377807E-06  0.2806036E+04  0.7818609E-02  0.8301397E-01
       -2   -1    0    0    0  501  0.00000000000E+00  0.00000000000E+00  0.82221879800E+03  0.82221879800E+03  0.25500000920E-02 0.  1.
        2   -1    0    0  501    0  0.00000000000E+00  0.00000000000E+00 -0.23940827881E+04  0.23940827881E+04  0.25500000920E-02 0. -1.
    10030    2    1    2    0    0  0.00000000000E+00  0.00000000000E+00 -0.15718639901E+04  0.32163015861E+04  0.28060362595E+04 0.  0.
        2    1    3    3  502    0 -0.69796501367E+03 -0.38138179414E+03 -0.21107089435E+04  0.22555929326E+04  0.25500000920E-02 0. -1.
       -2    1    3    3    0  502  0.69796501367E+03  0.38138179414E+03  0.53884495339E+03  0.96070865356E+03  0.25500000920E-02 0.  1.
</event>
<event>
 5   0  0.5282098E-07  0.2797667E+04  0.7818609E-02  0.8303993E-01
        1   -1    0    0  501    0  0.00000000000E+00  0.00000000000E+00  0.14763215820E+04  0.14763215820E+04  0.50400001928E-02 0. -1.
       -1   -1    0    0    0  501  0.00000000000E+00  0.00000000000E+00 -0.13254129627E+04  0.13254129627E+04  0.50400001928E-02 0.  1.
    10030    2    1    2    0    0  0.00000000000E+00  0.00000000000E+00  0.15090861928E+03  0.28017345447E+04  0.27976674298E+04 0.  0.
        4    1    3    3  502    0 -0.27960007235E+03  0.39175279267E+03 -0.12398810254E+04  0.13300199326E+04  0.12699999809E+01 0.  1.
       -4    1    3    3    0  502  0.27960007235E+03 -0.39175279267E+03  0.13907896447E+04  0.14717146121E+04  0.12699999809E+01 0. -1.
</event>
<event>
 5   0  0.1439207E-06  0.2803615E+04  0.7818609E-02  0.8302147E-01
        2   -1    0    0  501    0  0.00000000000E+00  0.00000000000E+00  0.18760765131E+04  0.18760765131E+04  0.25500000920E-02 0.  1.
       -2   -1    0    0    0  501  0.00000000000E+00  0.00000000000E+00 -0.10474325498E+04  0.10474325498E+04  0.25500000920E-02 0. -1.
    10030    2    1    2    0    0  0.00000000000E+00  0.00000000000E+00  0.82864396328E+03  0.29235090629E+04  0.28036145283E+04 0.  0.
        5    1    3    3  502    0 -0.71650573463E+03 -0.16055459771E+03 -0.83084652927E+03  0.11088220289E+04  0.46999998093E+01 0. -1.
       -5    1    3    3    0  502  0.71650573463E+03  0.16055459771E+03  0.16594904925E+04  0.18146870340E+04  0.46999998093E+01 0.  1.
</event>
<event>
 5   0  0.5214658E-07  0.2800177E+04  0.7818609E-02  0.8303213E-01
       -1   -1    0    0    0  501  0.00000000000E+00  0.00000000000E+00  0.21815001619E+04  0.21815001619E+04  0.50400001928E-02 0. -1.
        1   -1    0    0  501    0  0.00000000000E+00  0.00000000000E+00 -0.89857778102E+03  0.89857778103E+03  0.50400001928E-02 0.  1.
    10030    2    1    2    0    0  0.00000000000E+00  0.00000000000E+00  0.12829223809E+04  0.30800779430E+04  0.28001768336E+04 0.  0.
        2    1    3    3  502    0 -0.85815653539E+03 -0.75729134492E+03 -0.24557510649E+03  0.11705682181E+04  0.25500000920E-02 0.  1.
       -2    1    3    3    0  502  0.85815653539E+03  0.75729134492E+03  0.15284974874E+04  0.19095097249E+04  0.25500000920E-02 0. -1.
</event>
<event>
 5   0  0.5362952E-07  0.2801418E+04  0.7818609E-02  0.8302828E-01
       -1   -1    0    0    0  501  0.00000000000E+00  0.00000000000E+00  0.93878410908E+03  0.93878410909E+03  0.50400001928E-02 0.  1.
        1   -1    0    0  501    0  0.00000000000E+00  0.00000000000E+00 -0.20899216941E+04  0.20899216941E+04  0.50400001928E-02 0. -1.
    10030    2    1    2    0    0  0.00000000000E+00  0.00000000000E+00 -0.11511375850E+04  0.30287058032E+04  0.28014176951E+04 0.  0.
        1    1    3    3  502    0  0.63890879259E+03 -0.12067807993E+04 -0.91308490012E+03  0.16426345844E+04  0.50400001928E-02 0. -1.
       -1    1    3    3    0  502 -0.63890879259E+03  0.12067807993E+04 -0.23805268491E+03  0.13860712188E+04  0.50400001928E-02 0.  1.
</event>
<event>
 5   0  0.5297741E-07  0.2800200E+04  0.7818609E-02  0.8303206E-01
       -1   -1    0    0    0  501  0.00000000000E+00  0.00000000000E+00  0.13735769096E+04  0.13735769096E+04  0.50400001928E-02 0. -1.
        1   -1    0    0  501    0  0.00000000000E+00  0.00000000000E+00 -0.14271349443E+04  0.14271349444E+04  0.50400001928E-02 0.  1.
    10030    2    1    2    0    0  0.00000000000E+00  0.00000000000E+00 -0.53558034708E+02  0.28007118540E+04  0.28001997118E+04 0.  0.
        5    1    3    3  502    0 -0.11817422099E+04 -0.14613931271E+03  0.70982439322E+03  0.13862698542E+04  0.46999998093E+01 0. -1.
       -5    1    3    3    0  502  0.11817422099E+04  0.14613931271E+03 -0.76338242793E+03  0.14144419998E+04  0.46999998093E+01 0.  1.
</event>
<event>
 5   0  0.5282098E-07  0.2805201E+04  0.7818609E-02  0.8301655E-01
        1   -1    0    0  501    0  0.00000000000E+00  0.00000000000E+00  0.91427258054E+03  0.91427258055E+03  0.50400001928E-02 0.  1.
       -1   -1    0    0    0  501  0.00000000000E+00  0.00000000000E+00 -0.21517525299E+04  0.21517525299E+04  0.50400001928E-02 0. -1.
    10030    2    1    2    0    0  0.00000000000E+00  0.00000000000E+00 -0.12374799494E+04  0.30660251105E+04  0.28052011252E+04 0.  0.
        4    1    3    3  502    0 -0.16772186248E+03 -0.80235918700E+03  0.62522914302E+03  0.10309335489E+04  0.12699999809E+01 0.  1.
       -4    1    3    3    0  502  0.16772186248E+03  0.80235918700E+03 -0.18627090924E+04  0.20350915616E+04  0.12699999809E+01 0. -1.
</event>
<event>
 5   0  0.1461146E-06  0.2795349E+04  0.7818609E-02  0.8304714E-01
       -2   -1    0    0    0  501  0.00000000000E+00  0.00000000000E+00  0.12905836346E+04  0.12905836346E+04  0.25500000920E-02 0.  1.
        2   -1    0    0  501    0  0.00000000000E+00  0.00000000000E+00 -0.15136513937E+04  0.15136513937E+04  0.25500000920E-02 0. -1.
    10030    2    1    2    0    0  0.00000000000E+00  0.00000000000E+00 -0.22306775911E+03  0.28042350284E+04  0.27953487920E+04 0.  0.
        1    1    3    3  502    0  0.42765955543E+03  0.11190779091E+04  0.61066135719E+03  0.13446692363E+04  0.50400001928E-02 0.  1.
       -1    1    3    3    0  502 -0.42765955543E+03 -0.11190779091E+04 -0.83372911631E+03  0.14595657920E+04  0.50400001928E-02 0. -1.
</event>
<event>
 5   0  0.5362952E-07  0.2785356E+04  0.7818609E-02  0.8307829E-01
        1   -1    0    0  501    0  0.00000000000E+00  0.00000000000E+00  0.11260973288E+04  0.11260973288E+04  0.50400001928E-02 0. -1.
       -1   -1    0    0    0  501  0.00000000000E+00  0.00000000000E+00 -0.17223664224E+04  0.17223664224E+04  0.50400001928E-02 0.  1.
    10030    2    1    2    0    0  0.00000000000E+00  0.00000000000E+00 -0.59626909364E+03  0.28484637512E+04  0.27853561550E+04 0.  0.
        1    1    3    3  502    0 -0.10841251005E+04  0.46342836876E+03  0.45991512408E+03  0.12655492910E+04  0.50400001928E-02 0. -1.
       -1    1    3    3    0  502  0.10841251005E+04 -0.46342836876E+03 -0.10561842177E+04  0.15829144602E+04  0.50400001928E-02 0.  1.
</event>
<event>
 5   0  0.1499888E-06  0.2794647E+04  0.7818609E-02  0.8304932E-01
        2   -1    0    0  501    0  0.00000000000E+00  0.00000000000E+00  0.17758372578E+04  0.17758372578E+04  0.25500000920E-02 0.  1.
       -2   -1    0    0    0  501  0.00000000000E+00  0.00000000000E+00 -0.10994890713E+04  0.10994890713E+04  0.25500000920E-02 0. -1.
    10030    2    1    2    0    0  0.00000000000E+00  0.00000000000E+00  0.67634818650E+03  0.28753263291E+04  0.27946474965E+04 0.  0.
        3    1    3    3  502    0 -0.54399177655E+03 -0.12047209610E+04  0.80428016510E+03  0.15473028925E+04  0.10100000352E+00 0.  1.
       -3    1    3    3    0  502  0.54399177655E+03  0.12047209610E+04 -0.12793197859E+03  0.13280234366E+04  0.10100000352E+00 0. -1.
</event>
<event>
 5   0  0.1461146E-06  0.2801655E+04  0.7818609E-02  0.8302755E-01
        2   -1    0    0  501    0  0.00000000000E+00  0.00000000000E+00  0.22656691256E+04  0.22656691257E+04  0.25500000920E-02 0.  1.
       -2   -1    0    0    0  501  0.00000000000E+00  0.00000000000E+00 -0.86610979507E+03  0.86610979507E+03  0.25500000920E-02 0. -1.
    10030    2    1    2    0    0  0.00000000000E+00  0.00000000000E+00  0.13995593306E+04  0.31317789207E+04  0.28016553836E+04 0.  0.
        1    1    3    3  502    0 -0.79261036966E+03  0.11255895481E+04  0.98941497353E+03  0.16953244583E+04  0.50400001928E-02 0.  1.
       -1    1    3    3    0  502  0.79261036966E+03 -0.11255895481E+04  0.41014435705E+03  0.14364544624E+04  0.50400001928E-02 0. -1.
</event>
<event>
 5   0  0.1461146E-06  0.2801691E+04  0.7818609E-02  0.8302744E-01
        2   -1    0    0  501    0  0.00000000000E+00  0.00000000000E+00  0.89023189768E+03  0.89023189769E+03  0.25500000920E-02 0. -1.
       -2   -1    0    0    0  501  0.00000000000E+00  0.00000000000E+00 -0.22043329499E+04  0.22043329499E+04  0.25500000920E-02 0.  1.
    10030    2    1    2    0    0  0.00000000000E+00  0.00000000000E+00 -0.13141010522E+04  0.30945648476E+04  0.28016905647E+04 0.  0.
        1    1    3    3  502    0  0.34692440138E+03  0.67164336614E+03  0.64560124596E+03  0.99411383672E+03  0.50400001928E-02 0. -1.
       -1    1    3    3    0  502 -0.34692440138E+03 -0.67164336614E+03 -0.19597022982E+04  0.21004510108E+04  0.50400001928E-02 0.  1.
</event>
<event>
 5   0  0.1439207E-06  0.2799363E+04  0.7818609E-02  0.8303466E-01
       -2   -1    0    0    0  501  0.00000000000E+00  0.00000000000E+00  0.13830186706E+04  0.13830186706E+04  0.25500000920E-02 0.  1.
        2   -1    0    0  501    0  0.00000000000E+00  0.00000000000E+00 -0.14165450025E+04  0.14165450025E+04  0.25500000920E-02 0. -1.
    10030    2    1    2    0    0  0.00000000000E+00  0.00000000000E+00 -0.33526331931E+02  0.27995636731E+04  0.27993629177E+04 0.  0.
        5    1    3    3  502    0  0.30796114299E+03 -0.10374902918E+04  0.87091522812E+03  0.13891513941E+04  0.46999998093E+01 0.  1.
       -5    1    3    3    0  502 -0.30796114299E+03  0.10374902918E+04 -0.90444156005E+03  0.14104122790E+04  0.46999998093E+01 0. -1.
</event>
<event>
 5   0  0.5297741E-07  0.2799051E+04  0.7818609E-02  0.8303563E-01
       -1   -1    0    0    0  501  0.00000000000E+00  0.00000000000E+00  0.11221376382E+04  0.11221376382E+04  0.50400001928E-02 0.  1.
        1   -1    0    0  501    0  0.00000000000E+00  0.00000000000E+00 -0.17454822814E+04  0.17454822814E+04  0.50400001928E-02 0. -1.
    10030    2    1    2    0    0  0.00000000000E+00  0.00000000000E+00 -0.62334464316E+03  0.28676199196E+04  0.27990508139E+04 0.  0.
        5    1    3    3  502    0  0.11369160449E+04 -0.24489228042E+03 -0.11092675966E+04  0.16071860542E+04  0.46999998093E+01 0. -1.
       -5    1    3    3    0  502 -0.11369160449E+04  0.24489228042E+03  0.48592295339E+03  0.12604338653E+04  0.46999998093E+01 0.  1.
</event>
<event>
 5   0  0.1499888E-06  0.2796535E+04  0.7818609E-02  0.8304345E-01
       -2   -1    0    0    0  501  0.00000000000E+00  0.00000000000E+00  0.94196012632E+03  0.94196012633E+03  0.25500000920E-02 0.  1.
        2   -1    0    0  501    0  0.00000000000E+00  0.00000000000E+00 -0.20756202811E+04  0.20756202811E+04  0.25500000920E-02 0. -1.
    10030    2    1    2    0    0  0.00000000000E+00  0.00000000000E+00 -0.11336601548E+04  0.30175804074E+04  0.27965346715E+04 0.  0.
        3    1    3    3  502    0  0.11471075490E+04  0.54560077773E+03 -0.11975077944E+04  0.17457264578E+04  0.10100000352E+00 0. -1.
       -3    1    3    3    0  502 -0.11471075490E+04 -0.54560077773E+03  0.63847639653E+02  0.12718539496E+04  0.10100000352E+00 0.  1.
</event>
<event>
 5   0  0.5214658E-07  0.2796114E+04  0.7818609E-02  0.8304476E-01
        1   -1    0    0  501    0  0.00000000000E+00  0.00000000000E+00  0.18333707237E+04  0.18333707237E+04  0.50400001928E-02 0. -1.
       -1   -1    0    0    0  501  0.00000000000E+00  0.00000000000E+00 -0.10661034562E+04  0.10661034562E+04  0.50400001928E-02 0.  1.
    10030    2    1    2    0    0  0.00000000000E+00  0.00000000000E+00  0.76726726752E+03  0.28994741799E+04  0.27961136350E+04 0.  0.
        2    1    3    3  502    0 -0.74380197797E+03  0.70936166103E+03  0.13663618585E+04  0.17097894832E+04  0.25500000920E-02 0. -1.
       -2    1    3    3    0  502  0.74380197797E+03 -0.70936166103E+03 -0.59909459096E+03  0.11896846967E+04  0.25500000920E-02 0.  1.
</event>
<event>
 5   0  0.5362952E-07  0.2799742E+04  0.7818609E-02  0.8303348E-01
       -1   -1    0    0    0  501  0.00000000000E+00  0.00000000000E+00  0.84191772674E+03  0.84191772676E+03  0.50400001928E-02 0.  1.
        1   -1    0    0  501    0  0.00000000000E+00  0.00000000000E+00 -0.23275896784E+04  0.23275896784E+04  0.50400001928E-02 0. -1.
    10030    2    1    2    0    0  0.00000000000E+00  0.00000000000E+00 -0.14856719516E+04  0.31695074051E+04  0.27997421387E+04 0.  0.
        1    1    3    3  502    0 -0.52231191542E+03  0.10272039602E+04  0.15691587029E+03  0.11630048595E+04  0.50400001928E-02 0.  1.
       -1    1    3    3    0  502  0.52231191542E+03 -0.10272039602E+04 -0.16425878219E+04  0.20065025456E+04  0.50400001928E-02 0. -1.
</event>
<event>
 5   0  0.5551565E-07  0.2799463E+04  0.7818609E-02  0.8303435E-01
       -1   -1    0    0    0  501  0.00000000000E+00  0.00000000000E+00  0.76040137390E+03  0.76040137391E+03  0.50400001928E-02 0. -1.
        1   -1    0    0  501    0  0.00000000000E+00  0.00000000000E+00 -0.25765969930E+04  0.25765969930E+04  0.50400001928E-02 0.  1.
    10030    2    1    2    0    0  0.00000000000E+00  0.00000000000E+00 -0.18161956191E+04  0.33369983669E+04  0.27994627295E+04 0.  0.
        3    1    3    3  502    0  0.68627664502E+03 -0.54780935675E+03 -0.22074351033E+04  0.23756768447E+04  0.10100000352E+00 0. -1.
       -3    1    3    3    0  502 -0.68627664502E+03  0.54780935675E+03  0.39123948423E+03  0.96132152221E+03  0.10100000352E+00 0.  1.
</event>
<event>
 5   0  0.5551565E-07  0.2799855E+04  0.7818609E-02  0.8303313E-01
       -1   -1    0    0    0  501  0.00000000000E+00  0.00000000000E+00  0.16881086534E+04  0.16881086534E+04  0.50400001928E-02 0.  1.
        1   -1    0    0  501    0  0.00000000000E+00  0.00000000000E+00 -0.11609427723E+04  0.11609427723E+04  0.50400001928E-02 0. -1.
    10030    2    1    2    0    0  0.00000000000E+00  0.00000000000E+00  0.52716588109E+03  0.28490514257E+04  0.27998553820E+04 0.  0.
        3    1    3    3  502    0  0.73261549757E+03 -0.78839721938E+03  0.11745799749E+04  0.15930893793E+04  0.10100000352E+00 0.  1.
       -3    1    3    3    0  502 -0.73261549757E+03  0.78839721938E+03 -0.64741409383E+03  0.12559620464E+04  0.10100000352E+00 0. -1.
</event>
<event>
 5   0  0.1377807E-06  0.2801797E+04  0.7818609E-02  0.8302711E-01
        2   -1    0    0  501    0  0.00000000000E+00  0.00000000000E+00  0.19594374510E+04  0.19594374510E+04  0.25500000920E-02 0. -1.
       -2   -1    0    0    0  501  0.00000000000E+00  0.00000000000E+00 -0.10015715665E+04  0.10015715665E+04  0.25500000920E-02 0.  1.
    10030    2    1    2    0    0  0.00000000000E+00  0.00000000000E+00  0.95786588449E+03  0.29610090175E+04  0.28017971641E+04 0.  0.
        2    1    3    3  502    0 -0.37519200143E+03  0.13253929750E+04  0.74853985180E+03  0.15677204744E+04  0.25500000920E-02 0. -1.
       -2    1    3    3    0  502  0.37519200143E+03 -0.13253929750E+04  0.20932603269E+03  0.13932885430E+04  0.25500000920E-02 0.  1.
</event>
<event>
 5   0  0.5297741E-07  0.2798110E+04  0.7818609E-02  0.8303855E-01
        1   -1    0    0  501    0  0.00000000000E+00  0.00000000000E+00  0.23607379221E+04  0.23607379221E+04  0.50400001928E-02 0.  1.
       -1   -1    0    0    0  501  0.00000000000E+00  0.00000000000E+00 -0.82912861669E+03  0.82912861671E+03  0.50400001928E-02 0. -1.
    10030    2    1    2    0    0  0.00000000000E+00  0.00000000000E+00  0.15316093054E+04  0.31898665388E+04  0.27981103393E+04 0.  0.
        5    1    3    3  502    0 -0.96770868103E+03  0.78359754411E+01 -0.38600447029E+03  0.10418939653E+04  0.46999998093E+01 0. -1.
       -5    1    3    3    0  502  0.96770868103E+03 -0.78359754411E+01  0.19176137757E+04  0.21479725735E+04  0.46999998093E+01 0.  1.
</event>
<event>
 5   0  0.1439207E-06  0.2799367E+04  0.7818609E-02  0.8303465E-01
       -2   -1    0    0    0  501  0.00000000000E+00  0.00000000000E+00  0.17038049255E+04  0.17038049255E+04  0.25500000920E-02 0. -1.
        2   -1    0    0  501    0  0.00000000000E+00  0.00000000000E+00 -0.11498463160E+04  0.11498463160E+04  0.25500000920E-02 0.  1.
    10030    2    1    2    0    0  0.00000000000E+00  0.00000000000E+00  0.55395860957E+03  0.28536512415E+04  0.27993669404E+04 0.  0.
        5    1    3    3  502    0  0.40702762558E+03 -0.83290951398E+03  0.13459717099E+04  0.16343413598E+04  0.46999998093E+01 0. -1.
       -5    1    3    3    0  502 -0.40702762558E+03  0.83290951398E+03 -0.79201310034E+03  0.12193098817E+04  0.46999998093E+01 0.  1.
</event>
<event>
 5   0  0.5214658E-07  0.2806020E+04  0.7818609E-02  0.8301402E-01
       -1   -1    0    0    0  501  0.00000000000E+00  0.00000000000E+00  0.17397486833E+04  0.17397486833E+04  0.50400001928E-02 0.  1.
        1   -1    0    0  501    0  0.00000000000E+00  0.00000000000E+00 -0.11314487845E+04  0.11314487845E+04  0.50400001928E-02 0. -1.
    10030    2    1    2    0    0  0.00000000000E+00  0.00000000000E+00  0.60829989887E+03  0.28711974678E+04  0.28060196243E+04 0.  0.
        2    1    3    3  502    0  0.47123221129E+03 -0.13161728538E+04  0.42550388991E+03  0.14613091180E+04  0.25500000920E-02 0. -1.
       -2    1    3    3    0  502 -0.47123221129E+03  0.13161728538E+04  0.18279600895E+03  0.14098883498E+04  0.25500000920E-02 0.  1.
</event>
<event>
 5   0  0.5214658E-07  0.2796033E+04  0.7818609E-02  0.8304501E-01
        1   -1    0    0  501    0  0.00000000000E+00  0.00000000000E+00  0.14541238631E+04  0.14541238631E+04  0.50400001928E-02 0.  1.
       -1   -1    0    0    0  501  0.00000000000E+00  0.00000000000E+00 -0.13440740145E+04  0.13440740145E+04  0.50400001928E-02 0. -1.
    10030    2    1    2    0    0  0.00000000000E+00  0.00000000000E+00  0.11004984853E+03  0.27981978776E+04  0.27960329742E+04 0.  0.
        2    1    3    3  502    0 -0.88853326284E+03  0.65241421388E+02  0.11332180431E+04  0.14415030126E+04  0.25500000920E-02 0.  1.
       -2    1    3    3    0  502  0.88853326284E+03 -0.65241421388E+02 -0.10231681946E+04  0.13566948650E+04  0.25500000920E-02 0. -1.
</event>
<event>
 5   0  0.5362952E-07  0.2793951E+04  0.7818609E-02  0.8305149E-01
        1   -1    0    0  501    0  0.00000000000E+00  0.00000000000E+00  0.15657593784E+04  0.15657593785E+04  0.50400001928E-02 0.  1.
       -1   -1    0    0    0  501  0.00000000000E+00  0.00000000000E+00 -0.12463862561E+04  0.12463862561E+04  0.50400001928E-02 0. -1.
    10030    2    1    2    0    0  0.00000000000E+00  0.00000000000E+00  0.31937312238E+03  0.28121456345E+04  0.27939513021E+04 0.  0.
        1    1    3    3  502    0  0.97127955336E+03  0.70744041720E+03 -0.55747361514E+03  0.13246255117E+04  0.50400001928E-02 0. -1.
       -1    1    3    3    0  502 -0.97127955336E+03 -0.70744041720E+03  0.87684673752E+03  0.14875201228E+04  0.50400001928E-02 0.  1.
</event>
<event>
 5   0  0.5214658E-07  0.2809510E+04  0.7818609E-02  0.8300322E-01
       -1   -1    0    0    0  501  0.00000000000E+00  0.00000000000E+00  0.90824668648E+03  0.90824668650E+03  0.50400001928E-02 0.  1.
        1   -1    0    0  501    0  0.00000000000E+00  0.00000000000E+00 -0.21726873271E+04  0.21726873271E+04  0.50400001928E-02 0. -1.
    10030    2    1    2    0    0  0.00000000000E+00  0.00000000000E+00 -0.12644406406E+04  0.30809340136E+04  0.28095096125E+04 0.  0.
        2    1    3    3  502    0  0.91053833578E+03 -0.10677353535E+04 -0.56117545171E+03  0.15113096088E+04  0.25500000920E-02 0.  1.
       -2    1    3    3    0  502 -0.91053833578E+03  0.10677353535E+04 -0.70326518889E+03  0.15696244048E+04  0.25500000920E-02 0. -1.
</event>
<event>
 5   0  0.1461146E-06  0.2789139E+04  0.7818609E-02  0.8306648E-01
       -2   -1    0    0    0  501  0.00000000000E+00  0.00000000000E+00  0.65907208543E+03  0.65907208544E+03  0.25500000920E-02 0.  1.
        2   -1    0    0  501    0  0.00000000000E+00  0.00000000000E+00 -0.29508510729E+04  0.29508510729E+04  0.25500000920E-02 0. -1.
    10030    2    1    2    0    0  0.00000000000E+00  0.00000000000E+00 -0.22917789875E+04  0.36099231583E+04  0.27891386272E+04 0.  0.
        1    1    3    3  502    0 -0.27601933482E+03 -0.21846094741E+03  0.60062543323E+03  0.69617725459E+03  0.50400001928E-02 0.  1.
       -1    1    3    3    0  502  0.27601933482E+03  0.21846094741E+03 -0.28924044207E+04  0.29137459038E+04  0.50400001928E-02 0. -1.
</event>
<event>
 5   0  0.1461146E-06  0.2802427E+04  0.7818609E-02  0.8302515E-01
        2   -1    0    0  501    0  0.00000000000E+00  0.00000000000E+00  0.21114716364E+04  0.21114716364E+04  0.25500000920E-02 0.  1.
       -2   -1    0    0    0  501  0.00000000000E+00  0.00000000000E+00 -0.92987252763E+03  0.92987252764E+03  0.25500000920E-02 0. -1.
    10030    2    1    2    0    0  0.00000000000E+00  0.00000000000E+00  0.11815991087E+04  0.30413441640E+04  0.28024271391E+04 0.  0.
        1    1    3    3  502    0  0.89252480257E+02 -0.24025978493E+03  0.20858161459E+04  0.21015041671E+04  0.50400001928E-02 0.  1.
       -1    1    3    3    0  502 -0.89252480257E+02  0.24025978493E+03 -0.90421703720E+03  0.93983999695E+03  0.50400001928E-02 0. -1.
</event>
<event>
 5   0  0.4710000E-07  0.2806468E+04  0.7818609E-02  0.8301263E-01
       -3   -1    0    0    0  501  0.00000000000E+00  0.00000000000E+00  0.10085873710E+04  0.10085873761E+04  0.10100000352E+00 0.  1.
        3   -1    0    0  501    0  0.00000000000E+00  0.00000000000E+00 -0.19523007735E+04  0.19523007762E+04  0.10100000352E+00 0. -1.
    10030    2    1    2    0    0  0.00000000000E+00  0.00000000000E+00 -0.94371340251E+03  0.29608881523E+04  0.28064681833E+04 0.  0.
        5    1    3    3  502    0 -0.11769751814E+04  0.16979410356E+03  0.31407743165E+03  0.12299460713E+04  0.46999998093E+01 0.  1.
       -5    1    3    3    0  502  0.11769751814E+04 -0.16979410356E+03 -0.12577908342E+04  0.17309420810E+04  0.46999998093E+01 0. -1.
</event>
<event>
 5   0  0.5282098E-07  0.2789283E+04  0.7818609E-02  0.8306603E-01
        1   -1    0    0  501    0  0.00000000000E+00  0.00000000000E+00  0.20451002491E+04  0.20451002491E+04  0.50400001928E-02 0.  1.
       -1   -1    0    0    0  501  0.00000000000E+00  0.00000000000E+00 -0.95106594879E+03  0.95106594880E+03  0.50400001928E-02 0. -1.
    10030    2    1    2    0    0  0.00000000000E+00  0.00000000000E+00  0.10940343004E+04  0.29961661979E+04  0.27892832118E+04 0.  0.
        4    1    3    3  502    0 -0.49159843303E+03  0.12903063381E+03 -0.84804302125E+03  0.98868422796E+03  0.12699999809E+01 0. -1.
       -4    1    3    3    0  502  0.49159843303E+03 -0.12903063381E+03  0.19420773216E+04  0.20074819700E+04  0.12699999809E+01 0.  1.
</event>
<event>
 5   0  0.1439207E-06  0.2792736E+04  0.7818609E-02  0.8305527E-01
       -2   -1    0    0    0  501  0.00000000000E+00  0.00000000000E+00  0.10834336206E+04  0.10834336207E+04  0.25500000920E-02 0. -1.
        2   -1    0    0  501    0  0.00000000000E+00  0.00000000000E+00 -0.17996890459E+04  0.17996890459E+04  0.25500000920E-02 0.  1.
    10030    2    1    2    0    0  0.00000000000E+00  0.00000000000E+00 -0.71625542530E+03  0.28831226666E+04  0.27927360198E+04 0.  0.
        5    1    3    3  502    0 -0.12475164145E+04 -0.32267403264E+03 -0.91350337502E+03  0.15795335521E+04  0.46999998093E+01 0.  1.
       -5    1    3    3    0  502  0.12475164145E+04  0.32267403264E+03  0.19724794972E+03  0.13035891145E+04  0.46999998093E+01 0. -1.
</event>
<event>
 5   0  0.5297741E-07  0.2805746E+04  0.7818609E-02  0.8301487E-01
        1   -1    0    0  501    0  0.00000000000E+00  0.00000000000E+00  0.23373108800E+04  0.23373108800E+04  0.50400001928E-02 0.  1.
       -1   -1    0    0    0  501  0.00000000000E+00  0.00000000000E+00 -0.84201574547E+03  0.84201574548E+03  0.50400001928E-02 0. -1.
    10030    2    1    2    0    0  0.00000000000E+00  0.00000000000E+00  0.14952951346E+04  0.31793266255E+04  0.28057459351E+04 0.  0.
        5    1    3    3  502    0 -0.25214638674E+03 -0.13775585650E+04  0.65430837161E+03  0.15457641915E+04  0.46999998093E+01 0.  1.
       -5    1    3    3    0  502  0.25214638674E+03  0.13775585650E+04  0.84098676296E+03  0.16335624341E+04  0.46999998093E+01 0. -1.
</event>
<event>
 5   0  0.5214658E-07  0.2820337E+04  0.7818609E-02  0.8296982E-01
        1   -1    0    0  501    0  0.00000000000E+00  0.00000000000E+00  0.67376542819E+03  0.67376542821E+03  0.50400001928E-02 0. -1.
       -1   -1    0    0    0  501  0.00000000000E+00  0.00000000000E+00 -0.29514356189E+04  0.29514356189E+04  0.50400001928E-02 0.  1.
    10030    2    1    2    0    0  0.00000000000E+00  0.00000000000E+00 -0.22776701907E+04  0.36252010471E+04  0.28203370604E+04 0.  0.
        2    1    3    3  502    0 -0.35248248259E+03 -0.13299337318E+04 -0.74138975553E+03  0.15628903996E+04  0.25500000920E-02 0. -1.
       -2    1    3    3    0  502  0.35248248259E+03  0.13299337318E+04 -0.15362804352E+04  0.20623106476E+04  0.25500000920E-02 0.  1.
</event>
<event>
 5   0  0.1439207E-06  0.2797707E+04  0.7818609E-02  0.8303980E-01
        2   -1    0    0  501    0  0.00000000000E+00  0.00000000000E+00  0.21560974139E+04  0.21560974139E+04  0.25500000920E-02 0. -1.
       -2   -1    0    0    0  501  0.00000000000E+00  0.00000000000E+00 -0.90756186273E+03  0.90756186273E+03  0.25500000920E-02 0.  1.
    10030    2    1    2    0    0  0.00000000000E+00  0.00000000000E+00  0.12485355511E+04  0.30636592766E+04  0.27977074795E+04 0.  0.
        5    1    3    3  502    0  0.90274759042E+03 -0.10373137259E+04  0.90516035919E+03  0.16463020208E+04  0.46999998093E+01 0. -1.
       -5    1    3    3    0  502 -0.90274759042E+03  0.10373137259E+04  0.34337519194E+03  0.14173572557E+04  0.46999998093E+01 0.  1.
</event>
<event>
 5   0  0.1461146E-06  0.2794111E+04  0.7818609E-02  0.8305099E-01
       -2   -1    0    0    0  501  0.00000000000E+00  0.00000000000E+00  0.12090018398E+04  0.12090018398E+04  0.25500000920E-02 0.  1.
        2   -1    0    0  501    0  0.00000000000E+00  0.00000000000E+00 -0.16143596116E+04  0.16143596116E+04  0.25500000920E-02 0. -1.
    10030    2    1    2    0    0  0.00000000000E+00  0.00000000000E+00 -0.40535777181E+03  0.28233614514E+04  0.27941107641E+04 0.  0.
        1    1    3    3  502    0  0.13271990499E+04 -0.17145990604E+03 -0.60801152573E+03  0.14698754481E+04  0.50400001928E-02 0.  1.
       -1    1    3    3    0  502 -0.13271990499E+04  0.17145990604E+03  0.20265375392E+03  0.13534860034E+04  0.50400001928E-02 0. -1.
</event>
<event>
 5   0  0.5214658E-07  0.2797867E+04  0.7818609E-02  0.8303931E-01
        1   -1    0    0  501    0  0.00000000000E+00  0.00000000000E+00  0.13116177616E+04  0.13116177616E+04  0.50400001928E-02 0.  1.
       -1   -1    0    0    0  501  0.00000000000E+00  0.00000000000E+00 -0.14920620612E+04  0.14920620613E+04  0.50400001928E-02 0. -1.
    10030    2    1    2    0    0  0.00000000000E+00  0.00000000000E+00 -0.18044429963E+03  0.28036798229E+04  0.27978671169E+04 0.  0.
        2    1    3    3  502    0 -0.54741115996E+03  0.23171869198E+03  0.11787667656E+04  0.13201680264E+04  0.25500000920E-02 0.  1.
       -2    1    3    3    0  502  0.54741115996E+03 -0.23171869198E+03 -0.13592110653E+04  0.14835117964E+04  0.25500000920E-02 0. -1.
</event>
<event>
 5   0  0.5297741E-07  0.2802135E+04  0.7818609E-02  0.8302606E-01
        1   -1    0    0  501    0  0.00000000000E+00  0.00000000000E+00  0.22715510312E+04  0.22715510312E+04  0.50400001928E-02 0.  1.
       -1   -1    0    0    0  501  0.00000000000E+00  0.00000000000E+00 -0.86416287523E+03  0.86416287524E+03  0.50400001928E-02 0. -1.
    10030    2    1    2    0    0  0.00000000000E+00  0.00000000000E+00  0.14073881560E+04  0.31357139065E+04  0.28021349507E+04 0.  0.
        5    1    3    3  502    0 -0.29219890184E+03 -0.13687018702E+04  0.77658652014E+03  0.16005729352E+04  0.46999998093E+01 0.  1.
       -5    1    3    3    0  502  0.29219890184E+03  0.13687018702E+04  0.63080163587E+03  0.15351409712E+04  0.46999998093E+01 0. -1.
</event>
<event>
 5   0  0.5551565E-07  0.2792104E+04  0.7818609E-02  0.8305724E-01
        1   -1    0    0  501    0  0.00000000000E+00  0.00000000000E+00  0.15817157345E+04  0.15817157345E+04  0.50400001928E-02 0.  1.
       -1   -1    0    0    0  501  0.00000000000E+00  0.00000000000E+00 -0.12321815185E+04  0.12321815186E+04  0.50400001928E-02 0. -1.
    10030    2    1    2    0    0  0.00000000000E+00  0.00000000000E+00  0.34953421598E+03  0.28138972531E+04  0.27921037915E+04 0.  0.
        3    1    3    3  502    0  0.11114076664E+04 -0.38902180876E+03 -0.58101700156E+03  0.13130673002E+04  0.10100000352E+00 0. -1.
       -3    1    3    3    0  502 -0.11114076664E+04  0.38902180876E+03  0.93055121754E+03  0.15008299528E+04  0.10100000352E+00 0.  1.
</event>
<event>
 5   0  0.5551565E-07  0.2789421E+04  0.7818609E-02  0.8306560E-01
        1   -1    0    0  501    0  0.00000000000E+00  0.00000000000E+00  0.20045381545E+04  0.20045381545E+04  0.50400001928E-02 0.  1.
       -1   -1    0    0    0  501  0.00000000000E+00  0.00000000000E+00 -0.97040642098E+03  0.97040642099E+03  0.50400001928E-02 0. -1.
    10030    2    1    2    0    0  0.00000000000E+00  0.00000000000E+00  0.10341317335E+04  0.29749445755E+04  0.27894205106E+04 0.  0.
        3    1    3    3  502    0  0.11699473959E+04 -0.23626144916E+03 -0.25246392878E+03  0.12199731256E+04  0.10100000352E+00 0. -1.
       -3    1    3    3    0  502 -0.11699473959E+04  0.23626144916E+03  0.12865956623E+04  0.17549714499E+04  0.10100000352E+00 0.  1.
</event>
<event>
 5   0  0.5297741E-07  0.2807604E+04  0.7818609E-02  0.8300911E-01
        1   -1    0    0  501    0  0.00000000000E+00  0.00000000000E+00  0.18840196072E+04  0.18840196072E+04  0.50400001928E-02 0. -1.
       -1   -1    0    0    0  501  0.00000000000E+00  0.00000000000E+00 -0.10459871221E+04  0.10459871221E+04  0.50400001928E-02 0.  1.
    10030    2    1    2    0    0  0.00000000000E+00  0.00000000000E+00  0.83803248508E+03  0.29300067294E+04  0.28076041366E+04 0.  0.
        5    1    3    3  502    0  0.73701126303E+03 -0.70088815199E+03  0.14287781893E+04  0.17538127060E+04  0.46999998093E+01 0. -1.
       -5    1    3    3    0  502 -0.73701126303E+03  0.70088815199E+03 -0.59074570427E+03  0.11761940233E+04  0.46999998093E+01 0.  1.
</event>
<event>
 5   0  0.5282098E-07  0.2797631E+04  0.7818609E-02  0.8304004E-01
       -1   -1    0    0    0  501  0.00000000000E+00  0.00000000000E+00  0.10957098270E+04  0.10957098270E+04  0.50400001928E-02 0. -1.
        1   -1    0    0  501    0  0.00000000000E+00  0.00000000000E+00 -0.17857692687E+04  0.17857692687E+04  0.50400001928E-02 0.  1.
    10030    2    1    2    0    0  0.00000000000E+00  0.00000000000E+00 -0.69005944172E+03  0.28814790957E+04  0.27976310954E+04 0.  0.
        4    1    3    3  502    0  0.43174725399E+03  0.11841915502E+04  0.27975450417E+03  0.12911156085E+04  0.12699999809E+01 0.  1.
       -4    1    3    3    0  502 -0.43174725399E+03 -0.11841915502E+04 -0.96981394589E+03  0.15903634872E+04  0.12699999809E+01 0. -1.
</event>
<event>
 5   0  0.5297741E-07  0.2799828E+04  0.7818609E-02  0.8303322E-01
        1   -1    0    0  501    0  0.00000000000E+00  0.00000000000E+00  0.18334660930E+04  0.18334660930E+04  0.50400001928E-02 0. -1.
       -1   -1    0    0    0  501  0.00000000000E+00  0.00000000000E+00 -0.10688822993E+04  0.10688822993E+04  0.50400001928E-02 0.  1.
    10030    2    1    2    0    0  0.00000000000E+00  0.00000000000E+00  0.76458379373E+03  0.29023483923E+04  0.27998281755E+04 0.  0.
        5    1    3    3  502    0 -0.10211466184E+04  0.48867802886E+02 -0.60907832886E+03  0.11900113357E+04  0.46999998093E+01 0.  1.
       -5    1    3    3    0  502  0.10211466184E+04 -0.48867802886E+02  0.13736621226E+04  0.17123370566E+04  0.46999998093E+01 0. -1.
</event>
<event>
 5   0  0.1394410E-06  0.2808132E+04  0.7818609E-02  0.8300748E-01
       -2   -1    0    0    0  501  0.00000000000E+00  0.00000000000E+00  0.12877336967E+04  0.12877336967E+04  0.25500000920E-02 0.  1.
        2   -1    0    0  501    0  0.00000000000E+00  0.00000000000E+00 -0.15309080656E+04  0.15309080656E+04  0.25500000920E-02 0. -1.
    10030    2    1    2    0    0  0.00000000000E+00  0.00000000000E+00 -0.24317436888E+03  0.28186417623E+04  0.28081324062E+04 0.  0.
        4    1    3    3  502    0 -0.11539086985E+04  0.65569404340E+03  0.33834194982E+03  0.13696411395E+04  0.12699999809E+01 0.  1.
       -4    1    3    3    0  502  0.11539086985E+04 -0.65569404340E+03 -0.58151631870E+03  0.14490006228E+04  0.12699999809E+01 0. -1.
</event>
<event>
 5   0  0.5297741E-07  0.2801491E+04  0.7818609E-02  0.8302806E-01
       -1   -1    0    0    0  501  0.00000000000E+00  0.00000000000E+00  0.20064589200E+04  0.20064589200E+04  0.50400001928E-02 0. -1.
        1   -1    0    0  501    0  0.00000000000E+00  0.00000000000E+00 -0.97788573584E+03  0.97788573586E+03  0.50400001928E-02 0.  1.
    10030    2    1    2    0    0  0.00000000000E+00  0.00000000000E+00  0.10285731842E+04  0.29843446559E+04  0.28014907157E+04 0.  0.
        5    1    3    3  502    0 -0.12763599027E+04 -0.94391822737E+02 -0.92132976939E+02  0.12831660036E+04  0.46999998093E+01 0.  1.
       -5    1    3    3    0  502  0.12763599027E+04  0.94391822737E+02  0.11207061611E+04  0.17011786523E+04  0.46999998093E+01 0. -1.
</event>
<event>
 5   0  0.1499888E-06  0.2800603E+04  0.7818609E-02  0.8303081E-01
       -2   -1    0    0    0  501  0.00000000000E+00  0.00000000000E+00  0.84671497486E+03  0.84671497487E+03  0.25500000920E-02 0. -1.
        2   -1    0    0  501    0  0.00000000000E+00  0.00000000000E+00 -0.23158255965E+04  0.23158255965E+04  0.25500000920E-02 0.  1.
    10030    2    1    2    0    0  0.00000000000E+00  0.00000000000E+00 -0.14691106216E+04  0.31625405714E+04  0.28006029435E+04 0.  0.
        3    1    3    3  502    0 -0.76823796990E+03 -0.91463606643E+02  0.58345617441E+03  0.96900788819E+03  0.10100000352E+00 0. -1.
       -3    1    3    3    0  502  0.76823796990E+03  0.91463606643E+02 -0.20525667960E+04  0.21935326832E+04  0.10100000352E+00 0.  1.
</event>
<event>
 5   0  0.1499888E-06  0.2800788E+04  0.7818609E-02  0.8303024E-01
        2   -1    0    0  501    0  0.00000000000E+00  0.00000000000E+00  0.11612783767E+04  0.11612783767E+04  0.25500000920E-02 0.  1.
       -2   -1    0    0    0  501  0.00000000000E+00  0.00000000000E+00 -0.16887452264E+04  0.16887452264E+04  0.25500000920E-02 0. -1.
    10030    2    1    2    0    0  0.00000000000E+00  0.00000000000E+00 -0.52746684972E+03  0.28500236031E+04  0.28007879714E+04 0.  0.
        3    1    3    3  502    0  0.11936630912E+04 -0.29946190566E+03  0.41629146759E+03  0.12991564973E+04  0.10100000352E+00 0.  1.
       -3    1    3    3    0  502 -0.11936630912E+04  0.29946190566E+03 -0.94375831731E+03  0.15508671058E+04  0.10100000352E+00 0. -1.
</event>
<event>
 5   0  0.5214658E-07  0.2796185E+04  0.7818609E-02  0.8304454E-01
       -1   -1    0    0    0  501  0.00000000000E+00  0.00000000000E+00  0.10244629103E+04  0.10244629103E+04  0.50400001928E-02 0. -1.
        1   -1    0    0  501    0  0.00000000000E+00  0.00000000000E+00 -0.19079872077E+04  0.19079872077E+04  0.50400001928E-02 0.  1.
    10030    2    1    2    0    0  0.00000000000E+00  0.00000000000E+00 -0.88352429744E+03  0.29324501180E+04  0.27961846345E+04 0.  0.
        2    1    3    3  502    0 -0.81315240875E+03 -0.31205250945E+03 -0.15887077453E+04  0.18117908015E+04  0.25500000920E-02 0.  1.
       -2    1    3    3    0  502  0.81315240875E+03  0.31205250945E+03  0.70518344783E+03  0.11206593165E+04  0.25500000920E-02 0. -1.
</event>
<event>
 5   0  0.1439207E-06  0.2799901E+04  0.7818609E-02  0.8303299E-01
       -2   -1    0    0    0  501  0.00000000000E+00  0.00000000000E+00  0.11165824993E+04  0.11165824993E+04  0.25500000920E-02 0.  1.
        2   -1    0    0  501    0  0.00000000000E+00  0.00000000000E+00 -0.17552315376E+04  0.17552315376E+04  0.25500000920E-02 0. -1.
    10030    2    1    2    0    0  0.00000000000E+00  0.00000000000E+00 -0.63864903829E+03  0.28718140368E+04  0.27999005818E+04 0.  0.
        5    1    3    3  502    0  0.44179909266E+03 -0.84193224571E+03  0.73458911273E+03  0.12015321882E+04  0.46999998093E+01 0.  1.
       -5    1    3    3    0  502 -0.44179909266E+03  0.84193224571E+03 -0.13732381510E+04  0.16702818487E+04  0.46999998093E+01 0. -1.
</event>
<event>
 5   0  0.5297741E-07  0.2800364E+04  0.7818609E-02  0.8303155E-01
        1   -1    0    0  501    0  0.00000000000E+00  0.00000000000E+00  0.13240013718E+04  0.13240013718E+04  0.50400001928E-02 0. -1.
       -1   -1    0    0    0  501  0.00000000000E+00  0.00000000000E+00 -0.14807457710E+04  0.14807457710E+04  0.50400001928E-02 0.  1.
    10030    2    1    2    0    0  0.00000000000E+00  0.00000000000E+00 -0.15674439921E+03  0.28047471429E+04  0.28003638565E+04 0.  0.
        5    1    3    3  502    0  0.43899149860E+03 -0.98777878931E+03  0.81300223641E+03  0.13525587599E+04  0.46999998093E+01 0. -1.
       -5    1    3    3    0  502 -0.43899149860E+03  0.98777878931E+03 -0.96974663562E+03  0.14521883830E+04  0.46999998093E+01 0.  1.
</event>
<event>
 5   0  0.5214658E-07  0.2798657E+04  0.7818609E-02  0.8303685E-01
        1   -1    0    0  501    0  0.00000000000E+00  0.00000000000E+00  0.13062768073E+04  0.13062768073E+04  0.50400001928E-02 0.  1.
       -1   -1    0    0    0  501  0.00000000000E+00  0.00000000000E+00 -0.14990089032E+04  0.14990089032E+04  0.50400001928E-02 0. -1.
    10030    2    1    2    0    0  0.00000000000E+00  0.00000000000E+00 -0.19273209590E+03  0.28052857106E+04  0.27986572240E+04 0.  0.
        2    1    3    3  502    0 -0.43108200693E+03 -0.12931787912E+04 -0.41330709345E+03  0.14244177183E+04  0.25500000920E-02 0. -1.
       -2    1    3    3    0  502  0.43108200693E+03  0.12931787912E+04  0.22057499756E+03  0.13808679923E+04  0.25500000920E-02 0.  1.
</event>
<event>
 5   0  0.1439207E-06  0.2795602E+04  0.7818609E-02  0.8304635E-01
       -2   -1    0    0    0  501  0.00000000000E+00  0.00000000000E+00  0.35070778410E+04  0.35070778410E+04  0.25500000920E-02 0.  1.
        2   -1    0    0  501    0  0.00000000000E+00  0.00000000000E+00 -0.55711550315E+03  0.55711550315E+03  0.25500000920E-02 0. -1.
    10030    2    1    2    0    0  0.00000000000E+00  0.00000000000E+00  0.29499623379E+04  0.40641933442E+04  0.27956018572E+04 0.  0.
        5    1    3    3  502    0  0.74972241557E+03  0.37230820620E+03 -0.15242815341E+03  0.85085458967E+03  0.46999998093E+01 0. -1.
       -5    1    3    3    0  502 -0.74972241557E+03 -0.37230820620E+03  0.31023904913E+04  0.32133387545E+04  0.46999998093E+01 0.  1.
</event>
<event>
 5   0  0.1461146E-06  0.2804019E+04  0.7818609E-02  0.8302022E-01
        2   -1    0    0  501    0  0.00000000000E+00  0.00000000000E+00  0.14849365088E+04  0.14849365088E+04  0.25500000920E-02 0. -1.
       -2   -1    0    0    0  501  0.00000000000E+00  0.00000000000E+00 -0.13237132041E+04  0.13237132041E+04  0.25500000920E-02 0.  1.
    10030    2    1    2    0    0  0.00000000000E+00  0.00000000000E+00  0.16122330467E+03  0.28086497129E+04  0.28040185905E+04 0.  0.
        1    1    3    3  502    0 -0.11433882803E+04 -0.24674675368E+03 -0.69358750698E+03  0.13598839472E+04  0.50400001928E-02 0.  1.
       -1    1    3    3    0  502  0.11433882803E+04  0.24674675368E+03  0.85481081164E+03  0.14487657657E+04  0.50400001928E-02 0. -1.
</event>
<event>
 5   0  0.5214658E-07  0.2793684E+04  0.7818609E-02  0.8305232E-01
        1   -1    0    0  501    0  0.00000000000E+00  0.00000000000E+00  0.15155556173E+04  0.15155556173E+04  0.50400001928E-02 0. -1.
       -1   -1    0    0    0  501  0.00000000000E+00  0.00000000000E+00 -0.12874267835E+04  0.12874267836E+04  0.50400001928E-02 0.  1.
    10030    2    1    2    0    0  0.00000000000E+00  0.00000000000E+00  0.22812883373E+03  0.28029824008E+04  0.27936835137E+04 0.  0.
        2    1    3    3  502    0  0.12941421166E+04  0.34897312184E+03 -0.28041195198E+03  0.13693855996E+04  0.25500000920E-02 0.  1.
       -2    1    3    3    0  502 -0.12941421166E+04 -0.34897312184E+03  0.50854078571E+03  0.14335968012E+04  0.25500000920E-02 0. -1.
</event>
<event>
 5   0  0.1461146E-06  0.2802807E+04  0.7818609E-02  0.8302397E-01
       -2   -1    0    0    0  501  0.00000000000E+00  0.00000000000E+00  0.95317753013E+03  0.95317753013E+03  0.25500000920E-02 0.  1.
        2   -1    0    0  501    0  0.00000000000E+00  0.00000000000E+00 -0.20604051951E+04  0.20604051951E+04  0.25500000920E-02 0. -1.
    10030    2    1    2    0    0  0.00000000000E+00  0.00000000000E+00 -0.11072276650E+04  0.30135827252E+04  0.28028071178E+04 0.  0.
        1    1    3    3  502    0  0.28238159179E+03  0.70475206573E+03  0.71289749273E+03  0.10414593956E+04  0.50400001928E-02 0.  1.
       -1    1    3    3    0  502 -0.28238159179E+03 -0.70475206573E+03 -0.18201251577E+04  0.19721233296E+04  0.50400001928E-02 0. -1.
</event>
<event>
 5   0  0.5282098E-07  0.2800335E+04  0.7818609E-02  0.8303164E-01
       -1   -1    0    0    0  501  0.00000000000E+00  0.00000000000E+00  0.14391137892E+04  0.14391137892E+04  0.50400001928E-02 0.  1.
        1   -1    0    0  501    0  0.00000000000E+00  0.00000000000E+00 -0.13622749540E+04  0.13622749540E+04  0.50400001928E-02 0. -1.
    10030    2    1    2    0    0  0.00000000000E+00  0.00000000000E+00  0.76838835209E+02  0.28013887433E+04  0.28003347450E+04 0.  0.
        4    1    3    3  502    0  0.81824519598E+00 -0.64794812057E+03  0.12801076125E+04  0.14347524347E+04  0.12699999809E+01 0.  1.
       -4    1    3    3    0  502 -0.81824519598E+00  0.64794812057E+03 -0.12032687773E+04  0.13666363085E+04  0.12699999809E+01 0. -1.
</event>
<event>
 5   0  0.1499888E-06  0.2799717E+04  0.7818609E-02  0.8303356E-01
       -2   -1    0    0    0  501  0.00000000000E+00  0.00000000000E+00  0.11651386708E+04  0.11651386708E+04  0.25500000920E-02 0. -1.
        2   -1    0    0  501    0  0.00000000000E+00  0.00000000000E+00 -0.16818635830E+04  0.16818635830E+04  0.25500000920E-02 0.  1.
    10030    2    1    2    0    0  0.00000000000E+00  0.00000000000E+00 -0.51672491224E+03  0.28470022538E+04  0.27997173425E+04 0.  0.
        3    1    3    3  502    0  0.17071180714E+03  0.38612634024E+03 -0.16155831513E+04  0.16698338243E+04  0.10100000352E+00 0.  1.
       -3    1    3    3    0  502 -0.17071180714E+03 -0.38612634024E+03  0.10988582390E+04  0.11771684295E+04  0.10100000352E+00 0. -1.
</event>
<event>
 5   0  0.5282098E-07  0.2797464E+04  0.7818609E-02  0.8304056E-01
        1   -1    0    0  501    0  0.00000000000E+00  0.00000000000E+00  0.31866954804E+04  0.31866954804E+04  0.50400001928E-02 0. -1.
       -1   -1    0    0    0  501  0.00000000000E+00  0.00000000000E+00 -0.61394373051E+03  0.61394373053E+03  0.50400001928E-02 0.  1.
    10030    2    1    2    0    0  0.00000000000E+00  0.00000000000E+00  0.25727517499E+04  0.38006392110E+04  0.27974643600E+04 0.  0.
        4    1    3    3  502    0  0.10196252988E+04  0.95322963950E+03  0.11635925502E+04  0.18172043725E+04  0.12699999809E+01 0.  1.
       -4    1    3    3    0  502 -0.10196252988E+04 -0.95322963950E+03  0.14091591997E+04  0.19834348385E+04  0.12699999809E+01 0. -1.
</event>
<event>
 5   0  0.1499888E-06  0.2798370E+04  0.7818609E-02  0.8303775E-01
        2   -1    0    0  501    0  0.00000000000E+00  0.00000000000E+00  0.25506011297E+04  0.25506011297E+04  0.25500000920E-02 0.  1.
       -2   -1    0    0    0  501  0.00000000000E+00  0.00000000000E+00 -0.76755192758E+03  0.76755192758E+03  0.25500000920E-02 0. -1.
    10030    2    1    2    0    0  0.00000000000E+00  0.00000000000E+00  0.17830492021E+04  0.33181530572E+04  0.27983701067E+04 0.  0.
        3    1    3    3  502    0  0.56928645948E+03 -0.12033157513E+04  0.14024457330E+04  0.19336261052E+04  0.10100000352E+00 0.  1.
       -3    1    3    3    0  502 -0.56928645948E+03  0.12033157513E+04  0.38060346904E+03  0.13845269521E+04  0.10100000352E+00 0. -1.
</event>
<event>
 5   0  0.1394410E-06  0.2807542E+04  0.7818609E-02  0.8300931E-01
        2   -1    0    0  501    0  0.00000000000E+00  0.00000000000E+00  0.18634117393E+04  0.18634117393E+04  0.25500000920E-02 0.  1.
       -2   -1    0    0    0  501  0.00000000000E+00  0.00000000000E+00 -0.10575083746E+04  0.10575083746E+04  0.25500000920E-02 0. -1.
    10030    2    1    2    0    0  0.00000000000E+00  0.00000000000E+00  0.80590336475E+03  0.29209201139E+04  0.28075423556E+04 0.  0.
        4    1    3    3  502    0 -0.92566121257E+03  0.92091410391E+03  0.93916853291E+03  0.16084062339E+04  0.12699999809E+01 0.  1.
       -4    1    3    3    0  502  0.92566121257E+03 -0.92091410391E+03 -0.13326516816E+03  0.13125138800E+04  0.12699999809E+01 0. -1.
</event>
<event>
 5   0  0.1377807E-06  0.2803111E+04  0.7818609E-02  0.8302303E-01
       -2   -1    0    0    0  501  0.00000000000E+00  0.00000000000E+00  0.13009630276E+04  0.13009630276E+04  0.25500000920E-02 0.  1.
        2   -1    0    0  501    0  0.00000000000E+00  0.00000000000E+00 -0.15099256226E+04  0.15099256226E+04  0.25500000920E-02 0. -1.
    10030    2    1    2    0    0  0.00000000000E+00  0.00000000000E+00 -0.20896259503E+03  0.28108886503E+04  0.28031107074E+04 0.  0.
        2    1    3    3  502    0 -0.31802243438E+03  0.64356662782E+03 -0.13115826845E+04  0.14951807287E+04  0.25500000920E-02 0. -1.
       -2    1    3    3    0  502  0.31802243438E+03 -0.64356662782E+03  0.11026200895E+04  0.13157079216E+04  0.25500000920E-02 0.  1.
</event>
<event>
 5   0  0.1377807E-06  0.2793970E+04  0.7818609E-02  0.8305143E-01
       -2   -1    0    0    0  501  0.00000000000E+00  0.00000000000E+00  0.75647227960E+03  0.75647227961E+03  0.25500000920E-02 0. -1.
        2   -1    0    0  501    0  0.00000000000E+00  0.00000000000E+00 -0.25798262492E+04  0.25798262492E+04  0.25500000920E-02 0.  1.
    10030    2    1    2    0    0  0.00000000000E+00  0.00000000000E+00 -0.18233539696E+04  0.33362985288E+04  0.27939699667E+04 0.  0.
        2    1    3    3  502    0  0.55978919472E+03 -0.12460598025E+04 -0.12609161117E+04  0.18590154423E+04  0.25500000920E-02 0.  1.
       -2    1    3    3    0  502 -0.55978919472E+03  0.12460598025E+04 -0.56243785790E+03  0.14772830866E+04  0.25500000920E-02 0. -1.
</event>
<event>
 5   0  0.5282098E-07  0.2799678E+04  0.7818609E-02  0.8303368E-01
        1   -1    0    0  501    0  0.00000000000E+00  0.00000000000E+00  0.21533970406E+04  0.21533970406E+04  0.50400001928E-02 0. -1.
       -1   -1    0    0    0  501  0.00000000000E+00  0.00000000000E+00 -0.90998023506E+03  0.90998023508E+03  0.50400001928E-02 0.  1.
    10030    2    1    2    0    0  0.00000000000E+00  0.00000000000E+00  0.12434168055E+04  0.30633772757E+04  0.27996776566E+04 0.  0.
        4    1    3    3  502    0  0.12606905084E+04  0.40059070189E+03  0.12060595176E+03  0.13282924666E+04  0.12699999809E+01 0. -1.
       -4    1    3    3    0  502 -0.12606905084E+04 -0.40059070189E+03  0.11228108538E+04  0.17350848091E+04  0.12699999809E+01 0.  1.
</event>
<event>
 5   0  0.1377807E-06  0.2803772E+04  0.7818609E-02  0.8302098E-01
       -2   -1    0    0    0  501  0.00000000000E+00  0.00000000000E+00  0.13488948065E+04  0.13488948065E+04  0.25500000920E-02 0.  1.
        2   -1    0    0  501    0  0.00000000000E+00  0.00000000000E+00 -0.14569586594E+04  0.14569586594E+04  0.25500000920E-02 0. -1.
    10030    2    1    2    0    0  0.00000000000E+00  0.00000000000E+00 -0.10806385285E+03  0.28058534659E+04  0.28037717232E+04 0.  0.
        2    1    3    3  502    0  0.58247557855E+02 -0.80180970590E+03 -0.12033585828E+04  0.14471915772E+04  0.25500000920E-02 0. -1.
       -2    1    3    3    0  502 -0.58247557855E+02  0.80180970590E+03  0.10952947299E+04  0.13586618887E+04  0.25500000920E-02 0.  1.
</event>
<event>
 5   0  0.1439207E-06  0.2801141E+04  0.7818609E-02  0.8302914E-01
       -2   -1    0    0    0  501  0.00000000000E+00  0.00000000000E+00  0.12675179642E+04  0.12675179642E+04  0.25500000920E-02 0.  1.
        2   -1    0    0  501    0  0.00000000000E+00  0.00000000000E+00 -0.15475898837E+04  0.15475898837E+04  0.25500000920E-02 0. -1.
    10030    2    1    2    0    0  0.00000000000E+00  0.00000000000E+00 -0.28007191953E+03  0.28151078479E+04  0.28011411809E+04 0.  0.
        5    1    3    3  502    0 -0.42000335388E+03 -0.84529487295E+03  0.89984524512E+03  0.13040973103E+04  0.46999998093E+01 0.  1.
       -5    1    3    3    0  502  0.42000335388E+03  0.84529487295E+03 -0.11799171646E+04  0.15110105377E+04  0.46999998093E+01 0. -1.
</event>
<event>
 5   0  0.1439207E-06  0.2797258E+04  0.7818609E-02  0.8304120E-01
        2   -1    0    0  501    0  0.00000000000E+00  0.00000000000E+00  0.17548780582E+04  0.17548780582E+04  0.25500000920E-02 0.  1.
       -2   -1    0    0    0  501  0.00000000000E+00  0.00000000000E+00 -0.11147004299E+04  0.11147004299E+04  0.25500000920E-02 0. -1.
    10030    2    1    2    0    0  0.00000000000E+00  0.00000000000E+00  0.64017762821E+03  0.28695784881E+04  0.27972581761E+04 0.  0.
        5    1    3    3  502    0  0.75411344587E+03  0.10294014341E+04 -0.26724000173E+03  0.13037613701E+04  0.46999998093E+01 0. -1.
       -5    1    3    3    0  502 -0.75411344587E+03 -0.10294014341E+04  0.90741762994E+03  0.15658171180E+04  0.46999998093E+01 0.  1.
</event>
<event>
 5   0  0.1499888E-06  0.2793383E+04  0.7818609E-02  0.8305325E-01
        2   -1    0    0  501    0  0.00000000000E+00  0.00000000000E+00  0.16495617419E+04  0.16495617419E+04  0.25500000920E-02 0. -1.
       -2   -1    0    0    0  501  0.00000000000E+00  0.00000000000E+00 -0.11825854360E+04  0.11825854360E+04  0.25500000920E-02 0.  1.
    10030    2    1    2    0    0  0.00000000000E+00  0.00000000000E+00  0.46697630586E+03  0.28321471779E+04  0.27933833907E+04 0.  0.
        3    1    3    3  502    0 -0.77071417786E+02  0.78017923054E+03  0.14054387703E+04  0.16093097224E+04  0.10100000352E+00 0. -1.
       -3    1    3    3    0  502  0.77071417786E+02 -0.78017923054E+03 -0.93846246448E+03  0.12228374555E+04  0.10100000352E+00 0.  1.
</event>
<event>
 5   0  0.5297741E-07  0.2802448E+04  0.7818609E-02  0.8302509E-01
       -1   -1    0    0    0  501  0.00000000000E+00  0.00000000000E+00  0.97798867235E+03  0.97798867237E+03  0.50400001928E-02 0. -1.
        1   -1    0    0  501    0  0.00000000000E+00  0.00000000000E+00 -0.20076186926E+04  0.20076186926E+04  0.50400001928E-02 0.  1.
    10030    2    1    2    0    0  0.00000000000E+00  0.00000000000E+00 -0.10296300203E+04  0.29856073650E+04  0.28024477442E+04 0.  0.
        5    1    3    3  502    0  0.77683817821E+03 -0.66269725284E+03 -0.15370921256E+04  0.18453507788E+04  0.46999998093E+01 0.  1.
       -5    1    3    3    0  502 -0.77683817821E+03  0.66269725284E+03  0.50746210536E+03  0.11402565862E+04  0.46999998093E+01 0. -1.
</event>
<event>
 5   0  0.5362952E-07  0.2798401E+04  0.7818609E-02  0.8303765E-01
        1   -1    0    0  501    0  0.00000000000E+00  0.00000000000E+00  0.13572035152E+04  0.13572035152E+04  0.50400001928E-02 0. -1.
       -1   -1    0    0    0  501  0.00000000000E+00  0.00000000000E+00 -0.14424965143E+04  0.14424965143E+04  0.50400001928E-02 0.  1.
    10030    2    1    2    0    0  0.00000000000E+00  0.00000000000E+00 -0.85292999155E+02  0.27997000295E+04  0.27984005002E+04 0.  0.
        1    1    3    3  502    0  0.64255099431E+03 -0.31161816481E+03  0.11611510927E+04  0.13631762619E+04  0.50400001928E-02 0. -1.
       -1    1    3    3    0  502 -0.64255099431E+03  0.31161816481E+03 -0.12464440918E+04  0.14365237676E+04  0.50400001928E-02 0.  1.
</event>
<event>
 5   0  0.1499888E-06  0.2802222E+04  0.7818609E-02  0.8302579E-01
        2   -1    0    0  501    0  0.00000000000E+00  0.00000000000E+00  0.13793968758E+04  0.13793968758E+04  0.25500000920E-02 0. -1.
       -2   -1    0    0    0  501  0.00000000000E+00  0.00000000000E+00 -0.14231670523E+04  0.14231670523E+04  0.25500000920E-02 0.  1.
    10030    2    1    2    0    0  0.00000000000E+00  0.00000000000E+00 -0.43770176468E+02  0.28025639281E+04  0.28022221080E+04 0.  0.
        3    1    3    3  502    0 -0.15144837986E+03 -0.53919003143E+03  0.12625805999E+04  0.13812213013E+04  0.10100000352E+00 0. -1.
       -3    1    3    3    0  502  0.15144837986E+03  0.53919003143E+03 -0.13063507763E+04  0.14213426268E+04  0.10100000352E+00 0.  1.
</event>
<event>
 5   0  0.5214658E-07  0.2803175E+04  0.7818609E-02  0.8302283E-01
        1   -1    0    0  501    0  0.00000000000E+00  0.00000000000E+00  0.12583699234E+04  0.12583699234E+04  0.50400001928E-02 0. -1.
       -1   -1    0    0    0  501  0.00000000000E+00  0.00000000000E+00 -0.15611045529E+04  0.15611045529E+04  0.50400001928E-02 0.  1.
    10030    2    1    2    0    0  0.00000000000E+00  0.00000000000E+00 -0.30273462947E+03  0.28194744762E+04  0.28031746407E+04 0.  0.
        2    1    3    3  502    0 -0.10514001862E+04  0.43288043594E+03  0.67292179325E+03  0.13212310786E+04  0.25500000920E-02 0. -1.
       -2    1    3    3    0  502  0.10514001862E+04 -0.43288043594E+03 -0.97565642272E+03  0.14982433976E+04  0.25500000920E-02 0.  1.
</event>
<event>
 5   0  0.1394410E-06  0.2800056E+04  0.7818609E-02  0.8303251E-01
       -2   -1    0    0    0  501  0.00000000000E+00  0.00000000000E+00  0.13372051488E+04  0.13372051488E+04  0.25500000920E-02 0. -1.
        2   -1    0    0  501    0  0.00000000000E+00  0.00000000000E+00 -0.14658018388E+04  0.14658018388E+04  0.25500000920E-02 0.  1.
    10030    2    1    2    0    0  0.00000000000E+00  0.00000000000E+00 -0.12859669006E+03  0.28030069876E+04  0.28000555466E+04 0.  0.
        4    1    3    3  502    0 -0.18087001823E+02 -0.67491000012E+03  0.11634713085E+04  0.13451757307E+04  0.12699999809E+01 0. -1.
       -4    1    3    3    0  502  0.18087001823E+02  0.67491000012E+03 -0.12920679985E+04  0.14578312569E+04  0.12699999809E+01 0.  1.
</event>
<event>
 5   0  0.5282098E-07  0.2795511E+04  0.7818609E-02  0.8304663E-01
       -1   -1    0    0    0  501  0.00000000000E+00  0.00000000000E+00  0.12145542083E+04  0.12145542083E+04  0.50400001928E-02 0.  1.
        1   -1    0    0  501    0  0.00000000000E+00  0.00000000000E+00 -0.16085903252E+04  0.16085903252E+04  0.50400001928E-02 0. -1.
    10030    2    1    2    0    0  0.00000000000E+00  0.00000000000E+00 -0.39403611689E+03  0.28231445335E+04  0.27955107933E+04 0.  0.
        4    1    3    3  502    0  0.13348244067E+04 -0.29773258477E+03  0.94483202981E+02  0.13708864203E+04  0.12699999809E+01 0.  1.
       -4    1    3    3    0  502 -0.13348244067E+04  0.29773258477E+03 -0.48851931987E+03  0.14522581132E+04  0.12699999809E+01 0. -1.
</event>
<event>
 5   0  0.1394410E-06  0.2800830E+04  0.7818609E-02  0.8303011E-01
        2   -1    0    0  501    0  0.00000000000E+00  0.00000000000E+00  0.25938059560E+04  0.25938059560E+04  0.25500000920E-02 0. -1.
       -2   -1    0    0    0  501  0.00000000000E+00  0.00000000000E+00 -0.75609436221E+03  0.75609436222E+03  0.25500000920E-02 0.  1.
    10030    2    1    2    0    0  0.00000000000E+00  0.00000000000E+00  0.18377115938E+04  0.33499003182E+04  0.28008299199E+04 0.  0.
        4    1    3    3  502    0  0.79138534290E+03  0.20733512550E+03 -0.44057324073E+03  0.92918513148E+03  0.12699999809E+01 0.  1.
       -4    1    3    3    0  502 -0.79138534290E+03 -0.20733512550E+03  0.22782848345E+04  0.24207151868E+04  0.12699999809E+01 0. -1.
</event>
<event>
 5   0  0.1461146E-06  0.2796761E+04  0.7818609E-02  0.8304275E-01
        2   -1    0    0  501    0  0.00000000000E+00  0.00000000000E+00  0.16919597168E+04  0.16919597168E+04  0.25500000920E-02 0. -1.
       -2   -1    0    0    0  501  0.00000000000E+00  0.00000000000E+00 -0.11557418199E+04  0.11557418199E+04  0.25500000920E-02 0.  1.
    10030    2    1    2    0    0  0.00000000000E+00  0.00000000000E+00  0.53621789695E+03  0.28477015367E+04  0.27967614144E+04 0.  0.
        1    1    3    3  502    0  0.41685353107E+03  0.11707369635E+04  0.92093951439E+03  0.15467777776E+04  0.50400001928E-02 0. -1.
       -1    1    3    3    0  502 -0.41685353107E+03 -0.11707369635E+04 -0.38472161744E+03  0.13009237591E+04  0.50400001928E-02 0.  1.
</event>
<event>
 5   0  0.1377807E-06  0.2798567E+04  0.7818609E-02  0.8303713E-01
        2   -1    0    0  501    0  0.00000000000E+00  0.00000000000E+00  0.19457505147E+04  0.19457505147E+04  0.25500000920E-02 0.  1.
       -2   -1    0    0    0  501  0.00000000000E+00  0.00000000000E+00 -0.10062927151E+04  0.10062927151E+04  0.25500000920E-02 0. -1.
    10030    2    1    2    0    0  0.00000000000E+00  0.00000000000E+00  0.93945779958E+03  0.29520432299E+04  0.27985671823E+04 0.  0.
        2    1    3    3  502    0 -0.49121535289E+03  0.67975395569E+03  0.16512621644E+04  0.18520325858E+04  0.25500000920E-02 0.  1.
       -2    1    3    3    0  502  0.49121535289E+03 -0.67975395569E+03 -0.71180436486E+03  0.11000106441E+04  0.25500000920E-02 0. -1.
</event>
<event>
 5   0  0.5551565E-07  0.2801778E+04  0.7818609E-02  0.8302717E-01
       -1   -1    0    0    0  501  0.00000000000E+00  0.00000000000E+00  0.14650728012E+04  0.14650728012E+04  0.50400001928E-02 0. -1.
        1   -1    0    0  501    0  0.00000000000E+00  0.00000000000E+00 -0.13395170638E+04  0.13395170638E+04  0.50400001928E-02 0.  1.
    10030    2    1    2    0    0  0.00000000000E+00  0.00000000000E+00  0.12555573745E+03  0.28045898650E+04  0.28017780190E+04 0.  0.
        3    1    3    3  502    0  0.93775462739E+03  0.10079969642E+04  0.32197476653E+03  0.14138986461E+04  0.10100000352E+00 0. -1.
       -3    1    3    3    0  502 -0.93775462739E+03 -0.10079969642E+04 -0.19641902907E+03  0.13906912189E+04  0.10100000352E+00 0.  1.
</event>
<event>
 5   0  0.5362952E-07  0.2797188E+04  0.7818609E-02  0.8304142E-01
       -1   -1    0    0    0  501  0.00000000000E+00  0.00000000000E+00  0.11427237273E+04  0.11427237274E+04  0.50400001928E-02 0.  1.
        1   -1    0    0  501    0  0.00000000000E+00  0.00000000000E+00 -0.17117564983E+04  0.17117564983E+04  0.50400001928E-02 0. -1.
    10030    2    1    2    0    0  0.00000000000E+00  0.00000000000E+00 -0.56903277100E+03  0.28544802257E+04  0.27971877063E+04 0.  0.
        1    1    3    3  502    0  0.15564144305E+03 -0.75766283137E+03  0.90459171498E+03  0.11901946881E+04  0.50400001928E-02 0.  1.
       -1    1    3    3    0  502 -0.15564144305E+03  0.75766283137E+03 -0.14736244860E+04  0.16642855376E+04  0.50400001928E-02 0. -1.
</event>
<event>
 5   0  0.5214658E-07  0.2814014E+04  0.7818609E-02  0.8298931E-01
       -1   -1    0    0    0  501  0.00000000000E+00  0.00000000000E+00  0.16714300405E+04  0.16714300405E+04  0.50400001928E-02 0.  1.
        1   -1    0    0  501    0  0.00000000000E+00  0.00000000000E+00 -0.11844158951E+04  0.11844158952E+04  0.50400001928E-02 0. -1.
    10030    2    1    2    0    0  0.00000000000E+00  0.00000000000E+00  0.48701414538E+03  0.28558459357E+04  0.28140137225E+04 0.  0.
        2    1    3    3  502    0 -0.56864988439E+03 -0.35143811006E+03  0.14999734358E+04  0.16421911412E+04  0.25500000920E-02 0.  1.
       -2    1    3    3    0  502  0.56864988439E+03  0.35143811006E+03 -0.10129592904E+04  0.12136547945E+04  0.25500000920E-02 0. -1.
</event>
<event>
 5   0  0.1377807E-06  0.2796593E+04  0.7818609E-02  0.8304327E-01
        2   -1    0    0  501    0  0.00000000000E+00  0.00000000000E+00  0.19521487325E+04  0.19521487325E+04  0.25500000920E-02 0. -1.
       -2   -1    0    0    0  501  0.00000000000E+00  0.00000000000E+00 -0.10015802863E+04  0.10015802863E+04  0.25500000920E-02 0.  1.
    10030    2    1    2    0    0  0.00000000000E+00  0.00000000000E+00  0.95056844620E+03  0.29537290188E+04  0.27965934180E+04 0.  0.
        2    1    3    3  502    0  0.34365986510E+03  0.83484575158E+03 -0.65249739101E+03  0.11139220696E+04  0.25500000920E-02 0.  1.
       -2    1    3    3    0  502 -0.34365986510E+03 -0.83484575158E+03  0.16030658372E+04  0.18398069492E+04  0.25500000920E-02 0. -1.
</event>
<event>
 5   0  0.1439207E-06  0.2801359E+04  0.7818609E-02  0.8302847E-01
        2   -1    0    0  501    0  0.00000000000E+00  0.00000000000E+00  0.15532129771E+04  0.15532129772E+04  0.25500000920E-02 0.  1.
       -2   -1    0    0    0  501  0.00000000000E+00  0.00000000000E+00 -0.12631252897E+04  0.12631252897E+04  0.25500000920E-02 0. -1.
    10030    2    1    2    0    0  0.00000000000E+00  0.00000000000E+00  0.29008768744E+03  0.28163382669E+04  0.28013586645E+04 0.  0.
        5    1    3    3  502    0  0.22787830333E+03  0.25827037998E+03  0.15099664660E+04  0.15487585121E+04  0.46999998093E+01 0.  1.
       -5    1    3    3    0  502 -0.22787830333E+03 -0.25827037998E+03 -0.12198787786E+04  0.12675797548E+04  0.46999998093E+01 0. -1.
</event>
<event>
 5   0  0.5362952E-07  0.2760307E+04  0.7818609E-02  0.8315699E-01
       -1   -1    0    0    0  501  0.00000000000E+00  0.00000000000E+00  0.88793290987E+03  0.88793290989E+03  0.50400001928E-02 0.  1.
        1   -1    0    0  501    0  0.00000000000E+00  0.00000000000E+00 -0.21452334280E+04  0.21452334280E+04  0.50400001928E-02 0. -1.
    10030    2    1    2    0    0  0.00000000000E+00  0.00000000000E+00 -0.12573005181E+04  0.30331663379E+04  0.27603067656E+04 0.  0.
        1    1    3    3  502    0 -0.24292736611E+03 -0.12423958919E+04 -0.12327807106E+04  0.17670058115E+04  0.50400001928E-02 0. -1.
       -1    1    3    3    0  502  0.24292736611E+03  0.12423958919E+04 -0.24519807538E+02  0.12661605264E+04  0.50400001928E-02 0.  1.
</event>
<event>
 5   0  0.1461146E-06  0.2794517E+04  0.7818609E-02  0.8304973E-01
        2   -1    0    0  501    0  0.00000000000E+00  0.00000000000E+00  0.11070857324E+04  0.11070857324E+04  0.25500000920E-02 0. -1.
       -2   -1    0    0    0  501  0.00000000000E+00  0.00000000000E+00 -0.17634870224E+04  0.17634870224E+04  0.25500000920E-02 0.  1.
    10030    2    1    2    0    0  0.00000000000E+00  0.00000000000E+00 -0.65640128998E+03  0.28705727548E+04  0.27945170042E+04 0.  0.
        1    1    3    3  502    0  0.13669499360E+04  0.27748659745E+03 -0.41278477723E+03  0.14546278602E+04  0.50400001928E-02 0.  1.
       -1    1    3    3    0  502 -0.13669499360E+04 -0.27748659745E+03 -0.24361651275E+03  0.14159448946E+04  0.50400001928E-02 0. -1.
</event>
<event>
 5   0  0.5362952E-07  0.2805697E+04  0.7818609E-02  0.8301502E-01
        1   -1    0    0  501    0  0.00000000000E+00  0.00000000000E+00  0.12652981366E+04  0.12652981366E+04  0.50400001928E-02 0.  1.
       -1   -1    0    0    0  501  0.00000000000E+00  0.00000000000E+00 -0.15553517886E+04  0.15553517886E+04  0.50400001928E-02 0. -1.
    10030    2    1    2    0    0  0.00000000000E+00  0.00000000000E+00 -0.29005365196E+03  0.28206499252E+04  0.28056968617E+04 0.  0.
        1    1    3    3  502    0 -0.44824824537E+03  0.68727573393E+03  0.99889033511E+03  0.12926934383E+04  0.50400001928E-02 0.  1.
       -1    1    3    3    0  502  0.44824824537E+03 -0.68727573393E+03 -0.12889439871E+04  0.15279564869E+04  0.50400001928E-02 0. -1.
</event>
<event>
 5   0  0.1439207E-06  0.2807029E+04  0.7818609E-02  0.8301089E-01
        2   -1    0    0  501    0  0.00000000000E+00  0.00000000000E+00  0.16777890504E+04  0.16777890504E+04  0.25500000920E-02 0. -1.
       -2   -1    0    0    0  501  0.00000000000E+00  0.00000000000E+00 -0.11740765496E+04  0.11740765496E+04  0.25500000920E-02 0.  1.
    10030    2    1    2    0    0  0.00000000000E+00  0.00000000000E+00  0.50371250079E+03  0.28518656001E+04  0.28070288772E+04 0.  0.
        5    1    3    3  502    0 -0.30035140165E+03  0.87410178950E+03 -0.82121798458E+03  0.12364004089E+04  0.46999998093E+01 0.  1.
       -5    1    3    3    0  502  0.30035140165E+03 -0.87410178950E+03  0.13249304854E+04  0.16154651912E+04  0.46999998093E+01 0. -1.
</event>
<event>
 5   0  0.1394410E-06  0.2797600E+04  0.7818609E-02  0.8304014E-01
       -2   -1    0    0    0  501  0.00000000000E+00  0.00000000000E+00  0.18342991806E+04  0.18342991806E+04  0.25500000920E-02 0.  1.
        2   -1    0    0  501    0  0.00000000000E+00  0.00000000000E+00 -0.10666973746E+04  0.10666973746E+04  0.25500000920E-02 0. -1.
    10030    2    1    2    0    0  0.00000000000E+00  0.00000000000E+00  0.76760180601E+03  0.29009965553E+04  0.27976004863E+04 0.  0.
        4    1    3    3  502    0  0.10041538265E+04 -0.38314607100E+03 -0.54456089522E+03  0.12048543483E+04  0.12699999809E+01 0.  1.
       -4    1    3    3    0  502 -0.10041538265E+04  0.38314607100E+03  0.13121627012E+04  0.16961422070E+04  0.12699999809E+01 0. -1.
</event>
<event>
 5   0  0.1439207E-06  0.2805180E+04  0.7818609E-02  0.8301662E-01
       -2   -1    0    0    0  501  0.00000000000E+00  0.00000000000E+00  0.10521269255E+04  0.10521269255E+04  0.25500000920E-02 0.  1.
        2   -1    0    0  501    0  0.00000000000E+00  0.00000000000E+00 -0.18697923538E+04  0.18697923538E+04  0.25500000920E-02 0. -1.
    10030    2    1    2    0    0  0.00000000000E+00  0.00000000000E+00 -0.81766542830E+03  0.29219192793E+04  0.28051801230E+04 0.  0.
        5    1    3    3  502    0 -0.95817169062E+03 -0.16565090809E+03 -0.14616909976E+04  0.17555898936E+04  0.46999998093E+01 0. -1.
       -5    1    3    3    0  502  0.95817169062E+03  0.16565090809E+03  0.64402556930E+03  0.11663293857E+04  0.46999998093E+01 0.  1.
</event>
<event>
 5   0  0.1439207E-06  0.2798509E+04  0.7818609E-02  0.8303731E-01
       -2   -1    0    0    0  501  0.00000000000E+00  0.00000000000E+00  0.84912810585E+03  0.84912810585E+03  0.25500000920E-02 0. -1.
        2   -1    0    0  501    0  0.00000000000E+00  0.00000000000E+00 -0.23057922133E+04  0.23057922133E+04  0.25500000920E-02 0.  1.
    10030    2    1    2    0    0  0.00000000000E+00  0.00000000000E+00 -0.14566641075E+04  0.31549203192E+04  0.27985088705E+04 0.  0.
        5    1    3    3  502    0 -0.22063094033E+03 -0.74084362881E+02  0.82714548119E+03  0.85927774422E+03  0.46999998093E+01 0. -1.
       -5    1    3    3    0  502  0.22063094033E+03  0.74084362881E+02 -0.22838095887E+04  0.22956425750E+04  0.46999998093E+01 0.  1.
</event>
<event>
 5   0  0.5214658E-07  0.2795409E+04  0.7818609E-02  0.8304695E-01
       -1   -1    0    0    0  501  0.00000000000E+00  0.00000000000E+00  0.13685602280E+04  0.13685602280E+04  0.50400001928E-02 0.  1.
        1   -1    0    0  501    0  0.00000000000E+00  0.00000000000E+00 -0.14274698878E+04  0.14274698878E+04  0.50400001928E-02 0. -1.
    10030    2    1    2    0    0  0.00000000000E+00  0.00000000000E+00 -0.58909659799E+02  0.27960301158E+04  0.27954094620E+04 0.  0.
        2    1    3    3  502    0 -0.68853314659E+03 -0.12146586532E+04  0.34629491721E+02  0.13966648630E+04  0.25500000920E-02 0. -1.
       -2    1    3    3    0  502  0.68853314659E+03  0.12146586532E+04 -0.93539151521E+02  0.13993652528E+04  0.25500000920E-02 0.  1.
</event>
<event>
 5   0  0.1461146E-06  0.2832232E+04  0.7818609E-02  0.8293331E-01
        2   -1    0    0  501    0  0.00000000000E+00  0.00000000000E+00  0.17312871995E+04  0.17312871995E+04  0.25500000920E-02 0.  1.
       -2   -1    0    0    0  501  0.00000000000E+00  0.00000000000E+00 -0.11583203360E+04  0.11583203360E+04  0.25500000920E-02 0. -1.
    10030    2    1    2    0    0  0.00000000000E+00  0.00000000000E+00  0.57296686347E+03  0.28896075354E+04  0.28322324555E+04 0.  0.
        1    1    3    3  502    0 -0.14662830971E+03  0.10282768296E+04  0.12685483432E+04  0.16395328599E+04  0.50400001928E-02 0.  1.
       -1    1    3    3    0  502  0.14662830971E+03 -0.10282768296E+04 -0.69558147977E+03  0.12500746756E+04  0.50400001928E-02 0. -1.
</event>
<event>
 5   0  0.5214658E-07  0.2802553E+04  0.7818609E-02  0.8302476E-01
       -1   -1    0    0    0  501  0.00000000000E+00  0.00000000000E+00  0.10085245810E+04  0.10085245810E+04  0.50400001928E-02 0. -1.
        1   -1    0    0  501    0  0.00000000000E+00  0.00000000000E+00 -0.19469783118E+04  0.19469783118E+04  0.50400001928E-02 0.  1.
    10030    2    1    2    0    0  0.00000000000E+00  0.00000000000E+00 -0.93845373079E+03  0.29555028927E+04  0.28025527549E+04 0.  0.
        2    1    3    3  502    0 -0.74926383204E+03  0.15395948817E+03  0.76893420560E+03  0.10846011371E+04  0.25500000920E-02 0. -1.
       -2    1    3    3    0  502  0.74926383204E+03 -0.15395948817E+03 -0.17073879364E+04  0.18709017557E+04  0.25500000920E-02 0.  1.
</event>
<event>
 5   0  0.1394410E-06  0.2801996E+04  0.7818609E-02  0.8302649E-01
        2   -1    0    0  501    0  0.00000000000E+00  0.00000000000E+00  0.16779432231E+04  0.16779432231E+04  0.25500000920E-02 0.  1.
       -2   -1    0    0    0  501  0.00000000000E+00  0.00000000000E+00 -0.11697628939E+04  0.11697628939E+04  0.25500000920E-02 0. -1.
    10030    2    1    2    0    0  0.00000000000E+00  0.00000000000E+00  0.50818032924E+03  0.28477061170E+04  0.28019962315E+04 0.  0.
        4    1    3    3  502    0 -0.10314487128E+04 -0.80076820507E+03  0.76999101407E+03  0.15159168645E+04  0.12699999809E+01 0.  1.
       -4    1    3    3    0  502  0.10314487128E+04  0.80076820507E+03 -0.26181068483E+03  0.13317892525E+04  0.12699999809E+01 0. -1.
</event>
<event>
 5   0  0.5551565E-07  0.2790150E+04  0.7818609E-02  0.8306333E-01
        1   -1    0    0  501    0  0.00000000000E+00  0.00000000000E+00  0.14054540672E+04  0.14054540672E+04  0.50400001928E-02 0.  1.
       -1   -1    0    0    0  501  0.00000000000E+00  0.00000000000E+00 -0.13847722003E+04  0.13847722003E+04  0.50400001928E-02 0. -1.
    10030    2    1    2    0    0  0.00000000000E+00  0.00000000000E+00  0.20681866893E+02  0.27902262676E+04  0.27901496169E+04 0.  0.
        3    1    3    3  502    0 -0.13378816097E+04  0.39448789060E+03 -0.15847828030E+02  0.13949190160E+04  0.10100000352E+00 0.  1.
       -3    1    3    3    0  502  0.13378816097E+04 -0.39448789060E+03  0.36529694923E+02  0.13953072515E+04  0.10100000352E+00 0. -1.
</event>
<event>
 5   0  0.1499888E-06  0.2796473E+04  0.7818609E-02  0.8304364E-01
       -2   -1    0    0    0  501  0.00000000000E+00  0.00000000000E+00  0.96191367034E+03  0.96191367034E+03  0.25500000920E-02 0.  1.
        2   -1    0    0  501    0  0.00000000000E+00  0.00000000000E+00 -0.20324755129E+04  0.20324755129E+04  0.25500000920E-02 0. -1.
    10030    2    1    2    0    0  0.00000000000E+00  0.00000000000E+00 -0.10705618426E+04  0.29943891833E+04  0.27964734796E+04 0.  0.
        3    1    3    3  502    0 -0.83620533288E+03  0.39230970994E+02 -0.17344932776E+04  0.19259401258E+04  0.10100000352E+00 0. -1.
       -3    1    3    3    0  502  0.83620533288E+03 -0.39230970994E+02  0.66393143503E+03  0.10684490575E+04  0.10100000352E+00 0.  1.
</event>
<event>
 5   0  0.5282098E-07  0.2797384E+04  0.7818609E-02  0.8304081E-01
        1   -1    0    0  501    0  0.00000000000E+00  0.00000000000E+00  0.21489449111E+04  0.21489449111E+04  0.50400001928E-02 0. -1.
       -1   -1    0    0    0  501  0.00000000000E+00  0.00000000000E+00 -0.91037204200E+03  0.91037204201E+03  0.50400001928E-02 0.  1.
    10030    2    1    2    0    0  0.00000000000E+00  0.00000000000E+00  0.12385728691E+04  0.30593169531E+04  0.27973840401E+04 0.  0.
        4    1    3    3  502    0 -0.76323279098E+03 -0.33840687323E+03  0.18465447703E+04  0.20265173837E+04  0.12699999809E+01 0. -1.
       -4    1    3    3    0  502  0.76323279098E+03  0.33840687323E+03 -0.60797190114E+03  0.10327995694E+04  0.12699999809E+01 0.  1.
</event>
<event>
 5   0  0.1461146E-06  0.2800812E+04  0.7818609E-02  0.8303016E-01
       -2   -1    0    0    0  501  0.00000000000E+00  0.00000000000E+00  0.98921802889E+03  0.98921802889E+03  0.25500000920E-02 0.  1.
        2   -1    0    0  501    0  0.00000000000E+00  0.00000000000E+00 -0.19825119073E+04  0.19825119073E+04  0.25500000920E-02 0. -1.
    10030    2    1    2    0    0  0.00000000000E+00  0.00000000000E+00 -0.99329387844E+03  0.29717299362E+04  0.28008116832E+04 0.  0.
        1    1    3    3  502    0  0.60533519908E+03 -0.11402519763E+04 -0.10724727383E+04  0.16783334136E+04  0.50400001928E-02 0. -1.
       -1    1    3    3    0  502 -0.60533519908E+03  0.11402519763E+04  0.79178859900E+02  0.12933965226E+04  0.50400001928E-02 0.  1.
</event>
<event>
 5   0  0.5297741E-07  0.2804354E+04  0.7818609E-02  0.8301918E-01
        1   -1    0    0  501    0  0.00000000000E+00  0.00000000000E+00  0.19976261810E+04  0.19976261810E+04  0.50400001928E-02 0.  1.
       -1   -1    0    0    0  501  0.00000000000E+00  0.00000000000E+00 -0.98421839068E+03  0.98421839070E+03  0.50400001928E-02 0. -1.
    10030    2    1    2    0    0  0.00000000000E+00  0.00000000000E+00  0.10134077903E+04  0.29818445717E+04  0.28043540611E+04 0.  0.
        5    1    3    3  502    0  0.11062841235E+04 -0.28151134574E+03  0.13724638678E+04  0.17851589168E+04  0.46999998093E+01 0.  1.
       -5    1    3    3    0  502 -0.11062841235E+04  0.28151134574E+03 -0.35905607753E+03  0.11966856549E+04  0.46999998093E+01 0. -1.
</event>
<event>
 5   0  0.5282098E-07  0.2800891E+04  0.7818609E-02  0.8302992E-01
       -1   -1    0    0    0  501  0.00000000000E+00  0.00000000000E+00  0.14675706942E+04  0.14675706942E+04  0.50400001928E-02 0.  1.
        1   -1    0    0  501    0  0.00000000000E+00  0.00000000000E+00 -0.13363901759E+04  0.13363901759E+04  0.50400001928E-02 0. -1.
    10030    2    1    2    0    0  0.00000000000E+00  0.00000000000E+00  0.13118051828E+03  0.28039608700E+04  0.28008906141E+04 0.  0.
        4    1    3    3  502    0 -0.25415314129E+03  0.87155797510E+03 -0.10018986007E+04  0.13520390313E+04  0.12699999809E+01 0. -1.
       -4    1    3    3    0  502  0.25415314129E+03 -0.87155797510E+03  0.11330791190E+04  0.14519218388E+04  0.12699999809E+01 0.  1.
</event>
<event>
 5   0  0.1499888E-06  0.2797550E+04  0.7818609E-02  0.8304029E-01
       -2   -1    0    0    0  501  0.00000000000E+00  0.00000000000E+00  0.20249119817E+04  0.20249119817E+04  0.25500000920E-02 0.  1.
        2   -1    0    0  501    0  0.00000000000E+00  0.00000000000E+00 -0.96625047167E+03  0.96625047167E+03  0.25500000920E-02 0. -1.
    10030    2    1    2    0    0  0.00000000000E+00  0.00000000000E+00  0.10586615100E+04  0.29911624533E+04  0.27975504695E+04 0.  0.
        3    1    3    3  502    0  0.31994123360E+02 -0.10180646961E+04 -0.49571146073E+03  0.11327882467E+04  0.10100000352E+00 0. -1.
       -3    1    3    3    0  502 -0.31994123360E+02  0.10180646961E+04  0.15543729707E+04  0.18583742066E+04  0.10100000352E+00 0.  1.
</event>
<event>
 5   0  0.5297741E-07  0.2794098E+04  0.7818609E-02  0.8305103E-01
       -1   -1    0    0    0  501  0.00000000000E+00  0.00000000000E+00  0.15259974464E+04  0.15259974464E+04  0.50400001928E-02 0.  1.
        1   -1    0    0  501    0  0.00000000000E+00  0.00000000000E+00 -0.12789964506E+04  0.12789964506E+04  0.50400001928E-02 0. -1.
    10030    2    1    2    0    0  0.00000000000E+00  0.00000000000E+00  0.24700099573E+03  0.28049938970E+04  0.27940975771E+04 0.  0.
        5    1    3    3  502    0 -0.35251272710E+03 -0.44026168828E+03  0.14066193615E+04  0.15154853002E+04  0.46999998093E+01 0.  1.
       -5    1    3    3    0  502  0.35251272710E+03  0.44026168828E+03 -0.11596183658E+04  0.12895085968E+04  0.46999998093E+01 0. -1.
</event>
<event>
 5   0  0.5551565E-07  0.2799339E+04  0.7818609E-02  0.8303474E-01
       -1   -1    0    0    0  501  0.00000000000E+00  0.00000000000E+00  0.82312121483E+03  0.82312121485E+03  0.50400001928E-02 0.  1.
        1   -1    0    0  501    0  0.00000000000E+00  0.00000000000E+00 -0.23800565649E+04  0.23800565650E+04  0.50400001928E-02 0. -1.
    10030    2    1    2    0    0  0.00000000000E+00  0.00000000000E+00 -0.15569353501E+04  0.32031777798E+04  0.27993392443E+04 0.  0.
        3    1    3    3  502    0 -0.11858406356E+04 -0.61311332986E+03 -0.29713022162E+03  0.13676301938E+04  0.10100000352E+00 0. -1.
       -3    1    3    3    0  502  0.11858406356E+04  0.61311332986E+03 -0.12598051285E+04  0.18355475860E+04  0.10100000352E+00 0.  1.
</event>
<event>
 5   0  0.5214658E-07  0.2797042E+04  0.7818609E-02  0.8304187E-01
       -1   -1    0    0    0  501  0.00000000000E+00  0.00000000000E+00  0.14027400972E+04  0.14027400972E+04  0.50400001928E-02 0. -1.
        1   -1    0    0  501    0  0.00000000000E+00  0.00000000000E+00 -0.13943145861E+04  0.13943145861E+04  0.50400001928E-02 0.  1.
    10030    2    1    2    0    0  0.00000000000E+00  0.00000000000E+00  0.84255111114E+01  0.27970546833E+04  0.27970419933E+04 0.  0.
        2    1    3    3  502    0  0.61904434932E+01  0.61467774007E+03 -0.12519752283E+04  0.13947433521E+04  0.25500000920E-02 0.  1.
       -2    1    3    3    0  502 -0.61904434932E+01 -0.61467774007E+03  0.12604007395E+04  0.14023113313E+04  0.25500000920E-02 0. -1.
</event>
<event>
 5   0  0.1377807E-06  0.2800072E+04  0.7818609E-02  0.8303246E-01
       -2   -1    0    0    0  501  0.00000000000E+00  0.00000000000E+00  0.11522547537E+04  0.11522547537E+04  0.25500000920E-02 0. -1.
        2   -1    0    0  501    0  0.00000000000E+00  0.00000000000E+00 -0.17010998570E+04  0.17010998570E+04  0.25500000920E-02 0.  1.
    10030    2    1    2    0    0  0.00000000000E+00  0.00000000000E+00 -0.54884510326E+03  0.28533546106E+04  0.28000717110E+04 0.  0.
        2    1    3    3  502    0  0.39366006388E+03  0.95194349649E+03  0.69174159214E+03  0.12408348386E+04  0.25500000920E-02 0. -1.
       -2    1    3    3    0  502 -0.39366006388E+03 -0.95194349649E+03 -0.12405866954E+04  0.16125197720E+04  0.25500000920E-02 0.  1.
</event>
<event>
 5   0  0.5282098E-07  0.2803072E+04  0.7818609E-02  0.8302315E-01
        1   -1    0    0  501    0  0.00000000000E+00  0.00000000000E+00  0.20825152354E+04  0.20825152354E+04  0.50400001928E-02 0. -1.
       -1   -1    0    0    0  501  0.00000000000E+00  0.00000000000E+00 -0.94323583243E+03  0.94323583244E+03  0.50400001928E-02 0.  1.
    10030    2    1    2    0    0  0.00000000000E+00  0.00000000000E+00  0.11392794030E+04  0.30257510679E+04  0.28030718804E+04 0.  0.
        4    1    3    3  502    0  0.79216598369E+03  0.71727314094E+03 -0.40920193675E+03  0.11443144421E+04  0.12699999809E+01 0.  1.
       -4    1    3    3    0  502 -0.79216598369E+03 -0.71727314094E+03  0.15484813397E+04  0.18814366258E+04  0.12699999809E+01 0. -1.
</event>
<event>
 5   0  0.5214658E-07  0.2801614E+04  0.7818609E-02  0.8302767E-01
        1   -1    0    0  501    0  0.00000000000E+00  0.00000000000E+00  0.16912377641E+04  0.16912377641E+04  0.50400001928E-02 0. -1.
       -1   -1    0    0    0  501  0.00000000000E+00  0.00000000000E+00 -0.11602508835E+04  0.11602508835E+04  0.50400001928E-02 0.  1.
    10030    2    1    2    0    0  0.00000000000E+00  0.00000000000E+00  0.53098688060E+03  0.28514886475E+04  0.28016138991E+04 0.  0.
        2    1    3    3  502    0 -0.15110763448E+02 -0.26776807665E+03 -0.11338760802E+04  0.11651622390E+04  0.25500000920E-02 0.  1.
       -2    1    3    3    0  502  0.15110763448E+02  0.26776807665E+03  0.16648629608E+04  0.16863264085E+04  0.25500000920E-02 0. -1.
</event>
<event>
 5   0  0.5551565E-07  0.2800503E+04  0.7818609E-02  0.8303112E-01
       -1   -1    0    0    0  501  0.00000000000E+00  0.00000000000E+00  0.61826062514E+03  0.61826062516E+03  0.50400001928E-02 0.  1.
        1   -1    0    0  501    0  0.00000000000E+00  0.00000000000E+00 -0.31713226787E+04  0.31713226787E+04  0.50400001928E-02 0. -1.
    10030    2    1    2    0    0  0.00000000000E+00  0.00000000000E+00 -0.25530620536E+04  0.37895833039E+04  0.28005027705E+04 0.  0.
        3    1    3    3  502    0 -0.74138580418E+03 -0.10664273189E+04 -0.19845735171E+04  0.23718035737E+04  0.10100000352E+00 0. -1.
       -3    1    3    3    0  502  0.74138580418E+03  0.10664273189E+04 -0.56848853653E+03  0.14177797303E+04  0.10100000352E+00 0.  1.
</event>
<event>
 5   0  0.1461146E-06  0.2800686E+04  0.7818609E-02  0.8303056E-01
        2   -1    0    0  501    0  0.00000000000E+00  0.00000000000E+00  0.21958117528E+04  0.21958117528E+04  0.25500000920E-02 0.  1.
       -2   -1    0    0    0  501  0.00000000000E+00  0.00000000000E+00 -0.89304557540E+03  0.89304557540E+03  0.25500000920E-02 0. -1.
    10030    2    1    2    0    0  0.00000000000E+00  0.00000000000E+00  0.13027661774E+04  0.30888573282E+04  0.28006856091E+04 0.  0.
        1    1    3    3  502    0  0.10704326775E+04 -0.34437560737E+03  0.15718460129E+04  0.19326460007E+04  0.50400001928E-02 0.  1.
       -1    1    3    3    0  502 -0.10704326775E+04  0.34437560737E+03 -0.26907983543E+03  0.11562113275E+04  0.50400001928E-02 0. -1.
</event>
<event>
 5   0  0.1394410E-06  0.2794900E+04  0.7818609E-02  0.8304853E-01
       -2   -1    0    0    0  501  0.00000000000E+00  0.00000000000E+00  0.12162291339E+04  0.12162291339E+04  0.25500000920E-02 0. -1.
        2   -1    0    0  501    0  0.00000000000E+00  0.00000000000E+00 -0.16056733156E+04  0.16056733156E+04  0.25500000920E-02 0.  1.
    10030    2    1    2    0    0  0.00000000000E+00  0.00000000000E+00 -0.38944418174E+03  0.28219024496E+04  0.27949001170E+04 0.  0.
        4    1    3    3  502    0  0.27561774426E+02 -0.77502575945E+03 -0.13684681992E+04  0.15729371902E+04  0.12699999809E+01 0.  1.
       -4    1    3    3    0  502 -0.27561774426E+02  0.77502575945E+03  0.97902401750E+03  0.12489652593E+04  0.12699999809E+01 0. -1.
</event>
<event>
 5   0  0.5362952E-07  0.2769405E+04  0.7818609E-02  0.8312830E-01
       -1   -1    0    0    0  501  0.00000000000E+00  0.00000000000E+00  0.87362687009E+03  0.87362687011E+03  0.50400001928E-02 0. -1.
        1   -1    0    0  501    0  0.00000000000E+00  0.00000000000E+00 -0.21947598885E+04  0.21947598885E+04  0.50400001928E-02 0.  1.
    10030    2    1    2    0    0  0.00000000000E+00  0.00000000000E+00 -0.13211330184E+04  0.30683867586E+04  0.27694051434E+04 0.  0.
        1    1    3    3  502    0  0.78334364040E+03 -0.35573226725E+03  0.54157056348E+03  0.10165979442E+04  0.50400001928E-02 0. -1.
       -1    1    3    3    0  502 -0.78334364040E+03  0.35573226725E+03 -0.18627035819E+04  0.20517888144E+04  0.50400001928E-02 0.  1.
</event>
<event>
 5   0  0.1461146E-06  0.2784676E+04  0.7818609E-02  0.8308042E-01
       -2   -1    0    0    0  501  0.00000000000E+00  0.00000000000E+00  0.17874545774E+04  0.17874545774E+04  0.25500000920E-02 0.  1.
        2   -1    0    0  501    0  0.00000000000E+00  0.00000000000E+00 -0.10845621424E+04  0.10845621424E+04  0.25500000920E-02 0. -1.
    10030    2    1    2    0    0  0.00000000000E+00  0.00000000000E+00  0.70289243496E+03  0.28720167198E+04  0.27846763302E+04 0.  0.
        1    1    3    3  502    0 -0.44302850367E+03  0.79422500405E+03 -0.73591637616E+03  0.11698891079E+04  0.50400001928E-02 0. -1.
       -1    1    3    3    0  502  0.44302850367E+03 -0.79422500405E+03  0.14388088111E+04  0.17021276119E+04  0.50400001928E-02 0.  1.
</event>
<event>
 5   0  0.1394410E-06  0.2793307E+04  0.7818609E-02  0.8305349E-01
       -2   -1    0    0    0  501  0.00000000000E+00  0.00000000000E+00  0.10029424742E+04  0.10029424742E+04  0.25500000920E-02 0. -1.
        2   -1    0    0  501    0  0.00000000000E+00  0.00000000000E+00 -0.19449183608E+04  0.19449183608E+04  0.25500000920E-02 0.  1.
    10030    2    1    2    0    0  0.00000000000E+00  0.00000000000E+00 -0.94197588659E+03  0.29478608350E+04  0.27933071675E+04 0.  0.
        4    1    3    3  502    0 -0.30671470081E+03 -0.18104054778E+03 -0.18961875713E+04  0.19293466526E+04  0.12699999809E+01 0.  1.
       -4    1    3    3    0  502  0.30671470081E+03  0.18104054778E+03  0.95421168470E+03  0.10185141824E+04  0.12699999809E+01 0. -1.
</event>
<event>
 5   0  0.1439207E-06  0.2802458E+04  0.7818609E-02  0.8302506E-01
        2   -1    0    0  501    0  0.00000000000E+00  0.00000000000E+00  0.14326024270E+04  0.14326024270E+04  0.25500000920E-02 0.  1.
       -2   -1    0    0    0  501  0.00000000000E+00  0.00000000000E+00 -0.13705430489E+04  0.13705430489E+04  0.25500000920E-02 0. -1.
    10030    2    1    2    0    0  0.00000000000E+00  0.00000000000E+00  0.62059378148E+02  0.28031454759E+04  0.28024584195E+04 0.  0.
        5    1    3    3  502    0 -0.65473758433E+03  0.94368401368E+03 -0.77178803114E+03  0.13837990017E+04  0.46999998093E+01 0. -1.
       -5    1    3    3    0  502  0.65473758433E+03 -0.94368401368E+03  0.83384740929E+03  0.14193464743E+04  0.46999998093E+01 0.  1.
</event>
<event>
 5   0  0.1461146E-06  0.2811079E+04  0.7818609E-02  0.8299837E-01
        2   -1    0    0  501    0  0.00000000000E+00  0.00000000000E+00  0.23861936753E+04  0.23861936753E+04  0.25500000920E-02 0.  1.
       -2   -1    0    0    0  501  0.00000000000E+00  0.00000000000E+00 -0.82790483302E+03  0.82790483302E+03  0.25500000920E-02 0. -1.
    10030    2    1    2    0    0  0.00000000000E+00  0.00000000000E+00  0.15582888423E+04  0.32140985083E+04  0.28110789931E+04 0.  0.
        1    1    3    3  502    0 -0.11518936423E+03  0.83824068993E+03  0.20623812323E+04  0.22291999442E+04  0.50400001928E-02 0.  1.
       -1    1    3    3    0  502  0.11518936423E+03 -0.83824068993E+03 -0.50409239002E+03  0.98489856411E+03  0.50400001928E-02 0. -1.
</event>
<event>
 5   0  0.1439207E-06  0.2810264E+04  0.7818609E-02  0.8300089E-01
       -2   -1    0    0    0  501  0.00000000000E+00  0.00000000000E+00  0.82267851054E+03  0.82267851055E+03  0.25500000920E-02 0. -1.
        2   -1    0    0  501    0  0.00000000000E+00  0.00000000000E+00 -0.23999613580E+04  0.23999613580E+04  0.25500000920E-02 0.  1.
    10030    2    1    2    0    0  0.00000000000E+00  0.00000000000E+00 -0.15772828474E+04  0.32226398685E+04  0.28102644967E+04 0.  0.
        5    1    3    3  502    0 -0.10241827701E+04  0.12458372936E+03  0.30521960411E+03  0.10759426327E+04  0.46999998093E+01 0. -1.
       -5    1    3    3    0  502  0.10241827701E+04 -0.12458372936E+03 -0.18825024515E+04  0.21466972358E+04  0.46999998093E+01 0.  1.
</event>
<event>
 5   0  0.1461146E-06  0.2795384E+04  0.7818609E-02  0.8304703E-01
        2   -1    0    0  501    0  0.00000000000E+00  0.00000000000E+00  0.18141889919E+04  0.18141889919E+04  0.25500000920E-02 0. -1.
       -2   -1    0    0    0  501  0.00000000000E+00  0.00000000000E+00 -0.10768131824E+04  0.10768131824E+04  0.25500000920E-02 0.  1.
    10030    2    1    2    0    0  0.00000000000E+00  0.00000000000E+00  0.73737580949E+03  0.28910021743E+04  0.27953837818E+04 0.  0.
        1    1    3    3  502    0  0.59508060866E+02 -0.13964059012E+04  0.37614362424E+03  0.14474027347E+04  0.50400001928E-02 0.  1.
       -1    1    3    3    0  502 -0.59508060866E+02  0.13964059012E+04  0.36123218525E+03  0.14435994396E+04  0.50400001928E-02 0. -1.
</event>
<event>
 5   0  0.5282098E-07  0.2799106E+04  0.7818609E-02  0.8303546E-01
       -1   -1    0    0    0  501  0.00000000000E+00  0.00000000000E+00  0.10506166593E+04  0.10506166593E+04  0.50400001928E-02 0.  1.
        1   -1    0    0  501    0  0.00000000000E+00  0.00000000000E+00 -0.18643802786E+04  0.18643802786E+04  0.50400001928E-02 0. -1.
    10030    2    1    2    0    0  0.00000000000E+00  0.00000000000E+00 -0.81376361932E+03  0.29149969379E+04  0.27991062716E+04 0.  0.
        4    1    3    3  502    0 -0.99380615660E+03  0.97421507430E+03 -0.25241092669E+03  0.14143756844E+04  0.12699999809E+01 0.  1.
       -4    1    3    3    0  502  0.99380615660E+03 -0.97421507430E+03 -0.56135269263E+03  0.15006212534E+04  0.12699999809E+01 0. -1.
</event>
<event>
 5   0  0.5551565E-07  0.2798474E+04  0.7818609E-02  0.8303742E-01
        1   -1    0    0  501    0  0.00000000000E+00  0.00000000000E+00  0.98272899780E+03  0.98272899781E+03  0.50400001928E-02 0. -1.
       -1   -1    0    0    0  501  0.00000000000E+00  0.00000000000E+00 -0.19922725894E+04  0.19922725894E+04  0.50400001928E-02 0.  1.
    10030    2    1    2    0    0  0.00000000000E+00  0.00000000000E+00 -0.10095435916E+04  0.29750015872E+04  0.27984739021E+04 0.  0.
        3    1    3    3  502    0 -0.55201354201E+03  0.14058232705E+03 -0.18634286453E+04  0.19485504016E+04  0.10100000352E+00 0.  1.
       -3    1    3    3    0  502  0.55201354201E+03 -0.14058232705E+03  0.85388505372E+03  0.10264511856E+04  0.10100000352E+00 0. -1.
</event>
<event>
 5   0  0.1461146E-06  0.2797709E+04  0.7818609E-02  0.8303980E-01
       -2   -1    0    0    0  501  0.00000000000E+00  0.00000000000E+00  0.62055405981E+03  0.62055405981E+03  0.25500000920E-02 0. -1.
        2   -1    0    0  501    0  0.00000000000E+00  0.00000000000E+00 -0.31533023252E+04  0.31533023252E+04  0.25500000920E-02 0.  1.
    10030    2    1    2    0    0  0.00000000000E+00  0.00000000000E+00 -0.25327482654E+04  0.37738563850E+04  0.27977094629E+04 0.  0.
        1    1    3    3  502    0 -0.10764471491E+04 -0.38161203349E+03 -0.17681910393E+03  0.11556951175E+04  0.50400001928E-02 0. -1.
       -1    1    3    3    0  502  0.10764471491E+04  0.38161203349E+03 -0.23559291615E+04  0.26181612676E+04  0.50400001928E-02 0.  1.
</event>
<event>
 5   0  0.5214658E-07  0.2798228E+04  0.7818609E-02  0.8303819E-01
       -1   -1    0    0    0  501  0.00000000000E+00  0.00000000000E+00  0.72707068795E+03  0.72707068796E+03  0.50400001928E-02 0.  1.
        1   -1    0    0  501    0  0.00000000000E+00  0.00000000000E+00 -0.26923388506E+04  0.26923388506E+04  0.50400001928E-02 0. -1.
    10030    2    1    2    0    0  0.00000000000E+00  0.00000000000E+00 -0.19652681627E+04  0.34194095386E+04  0.27982284827E+04 0.  0.
        2    1    3    3  502    0 -0.40725543835E+03  0.40375256965E+03 -0.25421201468E+04  0.26060022967E+04  0.25500000920E-02 0. -1.
       -2    1    3    3    0  502  0.40725543835E+03 -0.40375256965E+03  0.57685198413E+03  0.81340724190E+03  0.25500000920E-02 0.  1.
</event>
<event>
 5   0  0.1377807E-06  0.2806724E+04  0.7818609E-02  0.8301184E-01
        2   -1    0    0  501    0  0.00000000000E+00  0.00000000000E+00  0.18478069628E+04  0.18478069628E+04  0.25500000920E-02 0.  1.
       -2   -1    0    0    0  501  0.00000000000E+00  0.00000000000E+00 -0.10658170878E+04  0.10658170878E+04  0.25500000920E-02 0. -1.
    10030    2    1    2    0    0  0.00000000000E+00  0.00000000000E+00  0.78198987494E+03  0.29136240506E+04  0.28067235246E+04 0.  0.
        2    1    3    3  502    0 -0.86734024593E+03  0.11011039399E+04  0.46227796184E+03  0.14759437329E+04  0.25500000920E-02 0.  1.
       -2    1    3    3    0  502  0.86734024593E+03 -0.11011039399E+04  0.31971191310E+03  0.14376803177E+04  0.25500000920E-02 0. -1.
</event>
<event>
 5   0  0.5282098E-07  0.2798007E+04  0.7818609E-02  0.8303887E-01
        1   -1    0    0  501    0  0.00000000000E+00  0.00000000000E+00  0.20089666876E+04  0.20089666876E+04  0.50400001928E-02 0. -1.
       -1   -1    0    0    0  501  0.00000000000E+00  0.00000000000E+00 -0.97423730760E+03  0.97423730761E+03  0.50400001928E-02 0.  1.
    10030    2    1    2    0    0  0.00000000000E+00  0.00000000000E+00  0.10347293800E+04  0.29832039952E+04  0.27980066453E+04 0.  0.
        4    1    3    3  502    0  0.10647145027E+04  0.82252545871E+03  0.10852105002E+03  0.13497938856E+04  0.12699999809E+01 0.  1.
       -4    1    3    3    0  502 -0.10647145027E+04 -0.82252545871E+03  0.92620832994E+03  0.16334101095E+04  0.12699999809E+01 0. -1.
</event>
<event>
 5   0  0.1439207E-06  0.2801224E+04  0.7818609E-02  0.8302888E-01
       -2   -1    0    0    0  501  0.00000000000E+00  0.00000000000E+00  0.16890298705E+04  0.16890298705E+04  0.25500000920E-02 0.  1.
        2   -1    0    0  501    0  0.00000000000E+00  0.00000000000E+00 -0.11614443222E+04  0.11614443222E+04  0.25500000920E-02 0. -1.
    10030    2    1    2    0    0  0.00000000000E+00  0.00000000000E+00  0.52758554822E+03  0.28504741927E+04  0.28012241275E+04 0.  0.
        5    1    3    3  502    0  0.91614475306E+03 -0.21086867403E+03 -0.79268301765E+03  0.12296972240E+04  0.46999998093E+01 0. -1.
       -5    1    3    3    0  502 -0.91614475306E+03  0.21086867403E+03  0.13202685659E+04  0.16207769687E+04  0.46999998093E+01 0.  1.
</event>
<event>
 5   0  0.5362952E-07  0.2803584E+04  0.7818609E-02  0.8302157E-01
        1   -1    0    0  501    0  0.00000000000E+00  0.00000000000E+00  0.13919114791E+04  0.13919114791E+04  0.50400001928E-02 0. -1.
       -1   -1    0    0    0  501  0.00000000000E+00  0.00000000000E+00 -0.14117426562E+04  0.14117426562E+04  0.50400001928E-02 0.  1.
    10030    2    1    2    0    0  0.00000000000E+00  0.00000000000E+00 -0.19831177045E+02  0.28036541353E+04  0.28035839982E+04 0.  0.
        1    1    3    3  502    0  0.41246823374E+03 -0.80620094392E+03  0.10601255738E+04  0.13942583111E+04  0.50400001928E-02 0. -1.
       -1    1    3    3    0  502 -0.41246823374E+03  0.80620094392E+03 -0.10799567508E+04  0.14093958243E+04  0.50400001928E-02 0.  1.
</event>
<event>
 5   0  0.1461146E-06  0.2794860E+04  0.7818609E-02  0.8304866E-01
       -2   -1    0    0    0  501  0.00000000000E+00  0.00000000000E+00  0.77135740239E+03  0.77135740239E+03  0.25500000920E-02 0.  1.
        2   -1    0    0  501    0  0.00000000000E+00  0.00000000000E+00 -0.25316548878E+04  0.25316548878E+04  0.25500000920E-02 0. -1.
    10030    2    1    2    0    0  0.00000000000E+00  0.00000000000E+00 -0.17602974854E+04  0.33030122902E+04  0.27948600953E+04 0.  0.
        1    1    3    3  502    0 -0.13878030944E+04 -0.10654692057E+03 -0.73319867572E+03  0.15731910162E+04  0.50400001928E-02 0. -1.
       -1    1    3    3    0  502  0.13878030944E+04  0.10654692057E+03 -0.10270988097E+04  0.17298212741E+04  0.50400001928E-02 0.  1.
</event>
<event>
 5   0  0.5214658E-07  0.2758300E+04  0.7818609E-02  0.8316333E-01
        1   -1    0    0  501    0  0.00000000000E+00  0.00000000000E+00  0.20333799956E+04  0.20333799956E+04  0.50400001928E-02 0.  1.
       -1   -1    0    0    0  501  0.00000000000E+00  0.00000000000E+00 -0.93541556023E+03  0.93541556025E+03  0.50400001928E-02 0. -1.
    10030    2    1    2    0    0  0.00000000000E+00  0.00000000000E+00  0.10979644353E+04  0.29687955558E+04  0.27583004099E+04 0.  0.
        2    1    3    3  502    0 -0.59554145276E+03  0.11054437005E+04 -0.64969306356E+02  0.12573370303E+04  0.25500000920E-02 0.  1.
       -2    1    3    3    0  502  0.59554145276E+03 -0.11054437005E+04  0.11629337417E+04  0.17114585255E+04  0.25500000920E-02 0. -1.
</event>
<event>
 5   0  0.5214658E-07  0.2801981E+04  0.7818609E-02  0.8302653E-01
        1   -1    0    0  501    0  0.00000000000E+00  0.00000000000E+00  0.11343582137E+04  0.11343582138E+04  0.50400001928E-02 0.  1.
       -1   -1    0    0    0  501  0.00000000000E+00  0.00000000000E+00 -0.17302954654E+04  0.17302954654E+04  0.50400001928E-02 0. -1.
    10030    2    1    2    0    0  0.00000000000E+00  0.00000000000E+00 -0.59593725165E+03  0.28646536792E+04  0.28019813514E+04 0.  0.
        2    1    3    3  502    0 -0.51531224427E+03  0.11238133313E+04 -0.97170140856E+03  0.15724842575E+04  0.25500000920E-02 0. -1.
       -2    1    3    3    0  502  0.51531224427E+03 -0.11238133313E+04  0.37576415691E+03  0.12921694217E+04  0.25500000920E-02 0.  1.
</event>
<event>
 5   0  0.5297741E-07  0.2796075E+04  0.7818609E-02  0.8304488E-01
       -1   -1    0    0    0  501  0.00000000000E+00  0.00000000000E+00  0.10785869938E+04  0.10785869938E+04  0.50400001928E-02 0.  1.
        1   -1    0    0  501    0  0.00000000000E+00  0.00000000000E+00 -0.18121015617E+04  0.18121015617E+04  0.50400001928E-02 0. -1.
    10030    2    1    2    0    0  0.00000000000E+00  0.00000000000E+00 -0.73351456789E+03  0.28906885555E+04  0.27960752321E+04 0.  0.
        5    1    3    3  502    0  0.52600362984E+03  0.78938891983E+03  0.69496575423E+03  0.11759311948E+04  0.46999998093E+01 0.  1.
       -5    1    3    3    0  502 -0.52600362984E+03 -0.78938891983E+03 -0.14284803221E+04  0.17147573607E+04  0.46999998093E+01 0. -1.
</event>
<event>
 5   0  0.5297741E-07  0.2802765E+04  0.7818609E-02  0.8302411E-01
       -1   -1    0    0    0  501  0.00000000000E+00  0.00000000000E+00  0.15548623735E+04  0.15548623736E+04  0.50400001928E-02 0. -1.
        1   -1    0    0  501    0  0.00000000000E+00  0.00000000000E+00 -0.12630522199E+04  0.12630522199E+04  0.50400001928E-02 0.  1.
    10030    2    1    2    0    0  0.00000000000E+00  0.00000000000E+00  0.29181015362E+03  0.28179145935E+04  0.28027646156E+04 0.  0.
        5    1    3    3  502    0 -0.11521896631E+04  0.45205095081E+02  0.94661799385E+03  0.14918754093E+04  0.46999998093E+01 0. -1.
       -5    1    3    3    0  502  0.11521896631E+04 -0.45205095081E+02 -0.65480784023E+03  0.13260391842E+04  0.46999998093E+01 0.  1.
</event>
<event>
 5   0  0.5282098E-07  0.2800823E+04  0.7818609E-02  0.8303013E-01
        1   -1    0    0  501    0  0.00000000000E+00  0.00000000000E+00  0.12116363140E+04  0.12116363140E+04  0.50400001928E-02 0. -1.
       -1   -1    0    0    0  501  0.00000000000E+00  0.00000000000E+00 -0.16185986123E+04  0.16185986123E+04  0.50400001928E-02 0.  1.
    10030    2    1    2    0    0  0.00000000000E+00  0.00000000000E+00 -0.40696229825E+03  0.28302349263E+04  0.28008233478E+04 0.  0.
        4    1    3    3  502    0 -0.58110555736E+03  0.11565199837E+04  0.33685739478E+03  0.13374216459E+04  0.12699999809E+01 0. -1.
       -4    1    3    3    0  502  0.58110555736E+03 -0.11565199837E+04 -0.74381969303E+03  0.14928132804E+04  0.12699999809E+01 0.  1.
</event>
<event>
 5   0  0.1394410E-06  0.2829622E+04  0.7818609E-02  0.8294130E-01
       -2   -1    0    0    0  501  0.00000000000E+00  0.00000000000E+00  0.11109470993E+04  0.11109470993E+04  0.25500000920E-02 0. -1.
        2   -1    0    0  501    0  0.00000000000E+00  0.00000000000E+00 -0.18017874710E+04  0.18017874710E+04  0.25500000920E-02 0.  1.
    10030    2    1    2    0    0  0.00000000000E+00  0.00000000000E+00 -0.69084037173E+03  0.29127345703E+04  0.28296222819E+04 0.  0.
        4    1    3    3  502    0 -0.10095928444E+04  0.93010625985E+03  0.71508225707E+01  0.13727447371E+04  0.12699999809E+01 0.  1.
       -4    1    3    3    0  502  0.10095928444E+04 -0.93010625985E+03 -0.69799119430E+03  0.15399898332E+04  0.12699999809E+01 0. -1.
</event>
<event>
 5   0  0.1461146E-06  0.2799015E+04  0.7818609E-02  0.8303574E-01
       -2   -1    0    0    0  501  0.00000000000E+00  0.00000000000E+00  0.12244480315E+04  0.12244480315E+04  0.25500000920E-02 0. -1.
        2   -1    0    0  501    0  0.00000000000E+00  0.00000000000E+00 -0.15995948084E+04  0.15995948084E+04  0.25500000920E-02 0.  1.
    10030    2    1    2    0    0  0.00000000000E+00  0.00000000000E+00 -0.37514677691E+03  0.28240428399E+04  0.27990146226E+04 0.  0.
        1    1    3    3  502    0 -0.53003461509E+03  0.11126415705E+04 -0.85661117340E+03  0.15008966187E+04  0.50400001928E-02 0.  1.
       -1    1    3    3    0  502  0.53003461509E+03 -0.11126415705E+04  0.48146439649E+03  0.13231462212E+04  0.50400001928E-02 0. -1.
</event>
<event>
 5   0  0.1439207E-06  0.2802544E+04  0.7818609E-02  0.8302479E-01
        2   -1    0    0  501    0  0.00000000000E+00  0.00000000000E+00  0.14640520609E+04  0.14640520609E+04  0.25500000920E-02 0.  1.
       -2   -1    0    0    0  501  0.00000000000E+00  0.00000000000E+00 -0.13411836471E+04  0.13411836471E+04  0.25500000920E-02 0. -1.
    10030    2    1    2    0    0  0.00000000000E+00  0.00000000000E+00  0.12286841384E+03  0.28052357080E+04  0.28025436179E+04 0.  0.
        5    1    3    3  502    0 -0.10141513317E+04 -0.66695702338E+03 -0.63938547206E+03  0.13719221795E+04  0.46999998093E+01 0. -1.
       -5    1    3    3    0  502  0.10141513317E+04  0.66695702338E+03  0.76225388590E+03  0.14333135286E+04  0.46999998093E+01 0.  1.
</event>
<event>
 5   0  0.1377807E-06  0.2788037E+04  0.7818609E-02  0.8306992E-01
        2   -1    0    0  501    0  0.00000000000E+00  0.00000000000E+00  0.19517302050E+04  0.19517302050E+04  0.25500000920E-02 0. -1.
       -2   -1    0    0    0  501  0.00000000000E+00  0.00000000000E+00 -0.99567439597E+03  0.99567439597E+03  0.25500000920E-02 0.  1.
    10030    2    1    2    0    0  0.00000000000E+00  0.00000000000E+00  0.95605580905E+03  0.29474046010E+04  0.27880371540E+04 0.  0.
        2    1    3    3  502    0  0.85348827284E+03  0.10255428798E+04  0.51076955763E+02  0.13352113262E+04  0.25500000920E-02 0. -1.
       -2    1    3    3    0  502 -0.85348827284E+03 -0.10255428798E+04  0.90497885329E+03  0.16121932748E+04  0.25500000920E-02 0.  1.
</event>
<event>
 5   0  0.5214658E-07  0.2801163E+04  0.7818609E-02  0.8302907E-01
        1   -1    0    0  501    0  0.00000000000E+00  0.00000000000E+00  0.22868673980E+04  0.22868673980E+04  0.50400001928E-02 0. -1.
       -1   -1    0    0    0  501  0.00000000000E+00  0.00000000000E+00 -0.85777962500E+03  0.85777962501E+03  0.50400001928E-02 0.  1.
    10030    2    1    2    0    0  0.00000000000E+00  0.00000000000E+00  0.14290877730E+04  0.31446470230E+04  0.28011628008E+04 0.  0.
        2    1    3    3  502    0 -0.17732238324E+03  0.82336209862E+03 -0.54171974849E+03  0.10014133307E+04  0.25500000920E-02 0.  1.
       -2    1    3    3    0  502  0.17732238324E+03 -0.82336209862E+03  0.19708075215E+04  0.21432336923E+04  0.25500000920E-02 0. -1.
</event>
<event>
 5   0  0.5362952E-07  0.2779320E+04  0.7818609E-02  0.8309717E-01
       -1   -1    0    0    0  501  0.00000000000E+00  0.00000000000E+00  0.10023211816E+04  0.10023211816E+04  0.50400001928E-02 0.  1.
        1   -1    0    0  501    0  0.00000000000E+00  0.00000000000E+00 -0.19266830656E+04  0.19266830656E+04  0.50400001928E-02 0. -1.
    10030    2    1    2    0    0  0.00000000000E+00  0.00000000000E+00 -0.92436188402E+03  0.29290042472E+04  0.27793202384E+04 0.  0.
        1    1    3    3  502    0 -0.16596037973E+03  0.93884516159E+03 -0.15276615760E+04  0.18007562233E+04  0.50400001928E-02 0. -1.
       -1    1    3    3    0  502  0.16596037973E+03 -0.93884516159E+03  0.60329969196E+03  0.11282480239E+04  0.50400001928E-02 0.  1.
</event>
<event>
 5   0  0.1439207E-06  0.2812658E+04  0.7818609E-02  0.8299349E-01
       -2   -1    0    0    0  501  0.00000000000E+00  0.00000000000E+00  0.83035242275E+03  0.83035242276E+03  0.25500000920E-02 0.  1.
        2   -1    0    0  501    0  0.00000000000E+00  0.00000000000E+00 -0.23818343352E+04  0.23818343352E+04  0.25500000920E-02 0. -1.
    10030    2    1    2    0    0  0.00000000000E+00  0.00000000000E+00 -0.15514819125E+04  0.32121867580E+04  0.28126584655E+04 0.  0.
        5    1    3    3  502    0  0.10669207269E+04  0.52417979164E+03  0.82433493151E+02  0.11915962665E+04  0.46999998093E+01 0.  1.
       -5    1    3    3    0  502 -0.10669207269E+04 -0.52417979164E+03 -0.16339154056E+04  0.20205904915E+04  0.46999998093E+01 0. -1.
</event>
<event>
 5   0  0.1461146E-06  0.2799920E+04  0.7818609E-02  0.8303293E-01
        2   -1    0    0  501    0  0.00000000000E+00  0.00000000000E+00  0.19299217883E+04  0.19299217883E+04  0.25500000920E-02 0.  1.
       -2   -1    0    0    0  501  0.00000000000E+00  0.00000000000E+00 -0.10155271210E+04  0.10155271210E+04  0.25500000920E-02 0. -1.
    10030    2    1    2    0    0  0.00000000000E+00  0.00000000000E+00  0.91439466731E+03  0.29454489093E+04  0.27999199399E+04 0.  0.
        1    1    3    3  502    0 -0.99417819924E+03  0.26965845071E+02  0.14936850483E+04  0.17944950466E+04  0.50400001928E-02 0.  1.
       -1    1    3    3    0  502  0.99417819924E+03 -0.26965845071E+02 -0.57929038098E+03  0.11509538627E+04  0.50400001928E-02 0. -1.
</event>
<event>
 5   0  0.5297741E-07  0.2797096E+04  0.7818609E-02  0.8304171E-01
       -1   -1    0    0    0  501  0.00000000000E+00  0.00000000000E+00  0.16502155625E+04  0.16502155625E+04  0.50400001928E-02 0.  1.
        1   -1    0    0  501    0  0.00000000000E+00  0.00000000000E+00 -0.11852608830E+04  0.11852608830E+04  0.50400001928E-02 0. -1.
    10030    2    1    2    0    0  0.00000000000E+00  0.00000000000E+00  0.46495467953E+03  0.28354764455E+04  0.27970956042E+04 0.  0.
        5    1    3    3  502    0 -0.12209673389E+04 -0.26332611356E+03  0.87024603871E+03  0.15223180162E+04  0.46999998093E+01 0.  1.
       -5    1    3    3    0  502  0.12209673389E+04  0.26332611356E+03 -0.40529135918E+03  0.13131584293E+04  0.46999998093E+01 0. -1.
</event>
<event>
 5   0  0.5551565E-07  0.2797875E+04  0.7818609E-02  0.8303928E-01
       -1   -1    0    0    0  501  0.00000000000E+00  0.00000000000E+00  0.90690987510E+03  0.90690987512E+03  0.50400001928E-02 0.  1.
        1   -1    0    0  501    0  0.00000000000E+00  0.00000000000E+00 -0.21579063616E+04  0.21579063616E+04  0.50400001928E-02 0. -1.
    10030    2    1    2    0    0  0.00000000000E+00  0.00000000000E+00 -0.12509964865E+04  0.30648162367E+04  0.27978753288E+04 0.  0.
        3    1    3    3  502    0  0.11327461593E+04 -0.81974855079E+03 -0.57743700880E+03  0.15127904869E+04  0.10100000352E+00 0. -1.
       -3    1    3    3    0  502 -0.11327461593E+04  0.81974855079E+03 -0.67355947766E+03  0.15520257498E+04  0.10100000352E+00 0.  1.
</event>
<event>
 5   0  0.1439207E-06  0.2804202E+04  0.7818609E-02  0.8301965E-01
       -2   -1    0    0    0  501  0.00000000000E+00  0.00000000000E+00  0.13980374182E+04  0.13980374182E+04  0.25500000920E-02 0.  1.
        2   -1    0    0  501    0  0.00000000000E+00  0.00000000000E+00 -0.14061765752E+04  0.14061765752E+04  0.25500000920E-02 0. -1.
    10030    2    1    2    0    0  0.00000000000E+00  0.00000000000E+00 -0.81391569624E+01  0.28042139934E+04  0.28042021815E+04 0.  0.
        5    1    3    3  502    0  0.17311261045E+03  0.69239504403E+03  0.12027853324E+04  0.13986041322E+04  0.46999998093E+01 0.  1.
       -5    1    3    3    0  502 -0.17311261045E+03 -0.69239504403E+03 -0.12109244893E+04  0.14056098612E+04  0.46999998093E+01 0. -1.
</event>
<event>
 5   0  0.5551565E-07  0.2800405E+04  0.7818609E-02  0.8303142E-01
       -1   -1    0    0    0  501  0.00000000000E+00  0.00000000000E+00  0.22496158919E+04  0.22496158919E+04  0.50400001928E-02 0.  1.
        1   -1    0    0  501    0  0.00000000000E+00  0.00000000000E+00 -0.87151220615E+03  0.87151220616E+03  0.50400001928E-02 0. -1.
    10030    2    1    2    0    0  0.00000000000E+00  0.00000000000E+00  0.13781036857E+04  0.31211280980E+04  0.28004054770E+04 0.  0.
        3    1    3    3  502    0  0.69015315755E+03 -0.15991089991E+03 -0.65702981693E+03  0.96621481427E+03  0.10100000352E+00 0. -1.
       -3    1    3    3    0  502 -0.69015315755E+03  0.15991089991E+03  0.20351335027E+04  0.21549132838E+04  0.10100000352E+00 0.  1.
</event>
<event>
 5   0  0.1439207E-06  0.2798972E+04  0.7818609E-02  0.8303588E-01
        2   -1    0    0  501    0  0.00000000000E+00  0.00000000000E+00  0.19373717667E+04  0.19373717667E+04  0.25500000920E-02 0.  1.
       -2   -1    0    0    0  501  0.00000000000E+00  0.00000000000E+00 -0.10109369398E+04  0.10109369398E+04  0.25500000920E-02 0. -1.
    10030    2    1    2    0    0  0.00000000000E+00  0.00000000000E+00  0.92643482694E+03  0.29483087065E+04  0.27989717291E+04 0.  0.
        5    1    3    3  502    0 -0.48512741131E+03 -0.11790655179E+04  0.10710625827E+04  0.16651550218E+04  0.46999998093E+01 0.  1.
       -5    1    3    3    0  502  0.48512741131E+03  0.11790655179E+04 -0.14462775578E+03  0.12831536846E+04  0.46999998093E+01 0. -1.
</event>
<event>
 5   0  0.5214658E-07  0.2870153E+04  0.7818609E-02  0.8281814E-01
        1   -1    0    0  501    0  0.00000000000E+00  0.00000000000E+00  0.15980821525E+04  0.15980821525E+04  0.50400001928E-02 0. -1.
       -1   -1    0    0    0  501  0.00000000000E+00  0.00000000000E+00 -0.12886976027E+04  0.12886976027E+04  0.50400001928E-02 0.  1.
    10030    2    1    2    0    0  0.00000000000E+00  0.00000000000E+00  0.30938454983E+03  0.28867797552E+04  0.28701530543E+04 0.  0.
        2    1    3    3  502    0 -0.23310395351E+03  0.75915510504E+03  0.13569370645E+04  0.15722379348E+04  0.25500000920E-02 0. -1.
       -2    1    3    3    0  502  0.23310395351E+03 -0.75915510504E+03 -0.10475525146E+04  0.13145418204E+04  0.25500000920E-02 0.  1.
</event>
<event>
 5   0  0.1461146E-06  0.2786576E+04  0.7818609E-02  0.8307448E-01
        2   -1    0    0  501    0  0.00000000000E+00  0.00000000000E+00  0.15143041408E+04  0.15143041409E+04  0.25500000920E-02 0.  1.
       -2   -1    0    0    0  501  0.00000000000E+00  0.00000000000E+00 -0.12819429486E+04  0.12819429486E+04  0.25500000920E-02 0. -1.
    10030    2    1    2    0    0  0.00000000000E+00  0.00000000000E+00  0.23236119229E+03  0.27962470894E+04  0.27865760462E+04 0.  0.
        1    1    3    3  502    0 -0.43318632412E+03 -0.12033809577E+04  0.67079706661E+03  0.14442107967E+04  0.50400001928E-02 0.  1.
       -1    1    3    3    0  502  0.43318632412E+03  0.12033809577E+04 -0.43843587431E+03  0.13520362927E+04  0.50400001928E-02 0. -1.
</event>
<event>
 5   0  0.5214658E-07  0.2800157E+04  0.7818609E-02  0.8303220E-01
        1   -1    0    0  501    0  0.00000000000E+00  0.00000000000E+00  0.13692838836E+04  0.13692838836E+04  0.50400001928E-02 0. -1.
       -1   -1    0    0    0  501  0.00000000000E+00  0.00000000000E+00 -0.14315656668E+04  0.14315656668E+04  0.50400001928E-02 0.  1.
    10030    2    1    2    0    0  0.00000000000E+00  0.00000000000E+00 -0.62281783184E+02  0.28008495504E+04  0.28001569926E+04 0.  0.
        2    1    3    3  502    0 -0.90782004436E+03 -0.81559276597E+03  0.65524381182E+03  0.13851618121E+04  0.25500000920E-02 0. -1.
       -2    1    3    3    0  502  0.90782004436E+03  0.81559276597E+03 -0.71752559500E+03  0.14156877383E+04  0.25500000920E-02 0.  1.
</event>
<event>
 5   0  0.1394410E-06  0.2800370E+04  0.7818609E-02  0.8303154E-01
       -2   -1    0    0    0  501  0.00000000000E+00  0.00000000000E+00  0.10316757531E+04  0.10316757531E+04  0.25500000920E-02 0. -1.
        2   -1    0    0  501    0  0.00000000000E+00  0.00000000000E+00 -0.19003233641E+04  0.19003233641E+04  0.25500000920E-02 0.  1.
    10030    2    1    2    0    0  0.00000000000E+00  0.00000000000E+00 -0.86864761101E+03  0.29319991171E+04  0.28003696454E+04 0.  0.
        4    1    3    3  502    0 -0.32734459873E+03 -0.12753123051E+04 -0.93309798573E+03  0.16137687027E+04  0.12699999809E+01 0. -1.
       -4    1    3    3    0  502  0.32734459873E+03  0.12753123051E+04  0.64450374716E+02  0.13182304145E+04  0.12699999809E+01 0.  1.
</event>
<event>
 5   0  0.5282098E-07  0.2801549E+04  0.7818609E-02  0.8302788E-01
       -1   -1    0    0    0  501  0.00000000000E+00  0.00000000000E+00  0.92672457475E+03  0.92672457476E+03  0.50400001928E-02 0. -1.
        1   -1    0    0  501    0  0.00000000000E+00  0.00000000000E+00 -0.21173160624E+04  0.21173160624E+04  0.50400001928E-02 0.  1.
    10030    2    1    2    0    0  0.00000000000E+00  0.00000000000E+00 -0.11905914876E+04  0.30440406371E+04  0.28015487342E+04 0.  0.
        4    1    3    3  502    0 -0.21736424167E+03  0.49221220145E+03  0.80995696671E+03  0.97239496380E+03  0.12699999809E+01 0. -1.
       -4    1    3    3    0  502  0.21736424167E+03 -0.49221220145E+03 -0.20005484543E+04  0.20716456733E+04  0.12699999809E+01 0.  1.
</event>
<event>
 5   0  0.5214658E-07  0.2798958E+04  0.7818609E-02  0.8303592E-01
       -1   -1    0    0    0  501  0.00000000000E+00  0.00000000000E+00  0.12170742285E+04  0.12170742285E+04  0.50400001928E-02 0.  1.
        1   -1    0    0  501    0  0.00000000000E+00  0.00000000000E+00 -0.16092212544E+04  0.16092212545E+04  0.50400001928E-02 0. -1.
    10030    2    1    2    0    0  0.00000000000E+00  0.00000000000E+00 -0.39214702591E+03  0.28262954830E+04  0.27989581753E+04 0.  0.
        2    1    3    3  502    0  0.30565931679E+03  0.52124787218E+02 -0.15740991570E+04  0.16043480817E+04  0.25500000920E-02 0. -1.
       -2    1    3    3    0  502 -0.30565931679E+03 -0.52124787218E+02  0.11819521310E+04  0.12219474013E+04  0.25500000920E-02 0.  1.
</event>
<event>
 5   0  0.5297741E-07  0.2815983E+04  0.7818609E-02  0.8298323E-01
        1   -1    0    0  501    0  0.00000000000E+00  0.00000000000E+00  0.23277057873E+04  0.23277057873E+04  0.50400001928E-02 0. -1.
       -1   -1    0    0    0  501  0.00000000000E+00  0.00000000000E+00 -0.85167112368E+03  0.85167112369E+03  0.50400001928E-02 0.  1.
    10030    2    1    2    0    0  0.00000000000E+00  0.00000000000E+00  0.14760346636E+04  0.31793769110E+04  0.28159828149E+04 0.  0.
        5    1    3    3  502    0  0.42626179536E+03  0.44070902389E+03  0.21690567292E+04  0.22540525164E+04  0.46999998093E+01 0. -1.
       -5    1    3    3    0  502 -0.42626179536E+03 -0.44070902389E+03 -0.69302206560E+03  0.92532439465E+03  0.46999998093E+01 0.  1.
</event>
<event>
 5   0  0.5214658E-07  0.2802341E+04  0.7818609E-02  0.8302542E-01
        1   -1    0    0  501    0  0.00000000000E+00  0.00000000000E+00  0.16755003243E+04  0.16755003243E+04  0.50400001928E-02 0. -1.
       -1   -1    0    0    0  501  0.00000000000E+00  0.00000000000E+00 -0.11717569727E+04  0.11717569727E+04  0.50400001928E-02 0.  1.
    10030    2    1    2    0    0  0.00000000000E+00  0.00000000000E+00  0.50374335158E+03  0.28472572970E+04  0.28023412981E+04 0.  0.
        2    1    3    3  502    0 -0.88370278541E+03 -0.90681597646E+02 -0.84906650504E+03  0.12288481172E+04  0.25500000920E-02 0.  1.
       -2    1    3    3    0  502  0.88370278541E+03  0.90681597646E+02  0.13528098566E+04  0.16184091798E+04  0.25500000920E-02 0. -1.
</event>
<event>
 5   0  0.5551565E-07  0.2789678E+04  0.7818609E-02  0.8306480E-01
        1   -1    0    0  501    0  0.00000000000E+00  0.00000000000E+00  0.13398706747E+04  0.13398706747E+04  0.50400001928E-02 0. -1.
       -1   -1    0    0    0  501  0.00000000000E+00  0.00000000000E+00 -0.14520620673E+04  0.14520620673E+04  0.50400001928E-02 0.  1.
    10030    2    1    2    0    0  0.00000000000E+00  0.00000000000E+00 -0.11219139266E+03  0.27919327420E+04  0.27896776745E+04 0.  0.
        3    1    3    3  502    0  0.10542240651E+04 -0.83978923555E+03  0.30327817322E+03  0.13815252441E+04  0.10100000352E+00 0. -1.
       -3    1    3    3    0  502 -0.10542240651E+04  0.83978923555E+03 -0.41546956587E+03  0.14104074979E+04  0.10100000352E+00 0.  1.
</event>
<event>
 5   0  0.5297741E-07  0.2796344E+04  0.7818609E-02  0.8304404E-01
       -1   -1    0    0    0  501  0.00000000000E+00  0.00000000000E+00  0.10342138371E+04  0.10342138371E+04  0.50400001928E-02 0. -1.
        1   -1    0    0  501    0  0.00000000000E+00  0.00000000000E+00 -0.18902135869E+04  0.18902135869E+04  0.50400001928E-02 0.  1.
    10030    2    1    2    0    0  0.00000000000E+00  0.00000000000E+00 -0.85599974977E+03  0.29244274241E+04  0.27963440752E+04 0.  0.
        5    1    3    3  502    0  0.73075615930E+03 -0.76260298878E+02 -0.16720418142E+04  0.18263532287E+04  0.46999998093E+01 0.  1.
       -5    1    3    3    0  502 -0.73075615930E+03  0.76260298878E+02  0.81604206445E+03  0.10980741953E+04  0.46999998093E+01 0. -1.
</event>
<event>
 5   0  0.5297741E-07  0.2795645E+04  0.7818609E-02  0.8304622E-01
        1   -1    0    0  501    0  0.00000000000E+00  0.00000000000E+00  0.19720635381E+04  0.19720635381E+04  0.50400001928E-02 0. -1.
       -1   -1    0    0    0  501  0.00000000000E+00  0.00000000000E+00 -0.99079369385E+03  0.99079369387E+03  0.50400001928E-02 0.  1.
    10030    2    1    2    0    0  0.00000000000E+00  0.00000000000E+00  0.98126984423E+03  0.29628572320E+04  0.27956452689E+04 0.  0.
        5    1    3    3  502    0  0.11511333531E+04 -0.76061159895E+03  0.25306679972E+03  0.14027483367E+04  0.46999998093E+01 0.  1.
       -5    1    3    3    0  502 -0.11511333531E+04  0.76061159895E+03  0.72820304451E+03  0.15601088952E+04  0.46999998093E+01 0. -1.
</event>
<event>
 5   0  0.5297741E-07  0.2799741E+04  0.7818609E-02  0.8303349E-01
        1   -1    0    0  501    0  0.00000000000E+00  0.00000000000E+00  0.21809573624E+04  0.21809573624E+04  0.50400001928E-02 0. -1.
       -1   -1    0    0    0  501  0.00000000000E+00  0.00000000000E+00 -0.89852156810E+03  0.89852156811E+03  0.50400001928E-02 0.  1.
    10030    2    1    2    0    0  0.00000000000E+00  0.00000000000E+00  0.12824357943E+04  0.30794789305E+04  0.27997408661E+04 0.  0.
        5    1    3    3  502    0 -0.19126994086E+03 -0.29900814110E+03  0.21306292878E+04  0.21599984516E+04  0.46999998093E+01 0. -1.
       -5    1    3    3    0  502  0.19126994086E+03  0.29900814110E+03 -0.84819349351E+03  0.91948047894E+03  0.46999998093E+01 0.  1.
</event>
<event>
 5   0  0.1394410E-06  0.2799774E+04  0.7818609E-02  0.8303339E-01
        2   -1    0    0  501    0  0.00000000000E+00  0.00000000000E+00  0.23649300720E+04  0.23649300720E+04  0.25500000920E-02 0. -1.
       -2   -1    0    0    0  501  0.00000000000E+00  0.00000000000E+00 -0.82864328841E+03  0.82864328841E+03  0.25500000920E-02 0.  1.
    10030    2    1    2    0    0  0.00000000000E+00  0.00000000000E+00  0.15362867836E+04  0.31935733604E+04  0.27997738707E+04 0.  0.
        4    1    3    3  502    0  0.12696971704E+03 -0.45882469337E+03 -0.73347052836E+03  0.87442669055E+03  0.12699999809E+01 0.  1.
       -4    1    3    3    0  502 -0.12696971704E+03  0.45882469337E+03  0.22697573119E+04  0.23191466699E+04  0.12699999809E+01 0. -1.
</event>
<event>
 5   0  0.5282098E-07  0.2805318E+04  0.7818609E-02  0.8301619E-01
       -1   -1    0    0    0  501  0.00000000000E+00  0.00000000000E+00  0.10566513127E+04  0.10566513127E+04  0.50400001928E-02 0. -1.
        1   -1    0    0  501    0  0.00000000000E+00  0.00000000000E+00 -0.18619690729E+04  0.18619690729E+04  0.50400001928E-02 0.  1.
    10030    2    1    2    0    0  0.00000000000E+00  0.00000000000E+00 -0.80531776020E+03  0.29186203856E+04  0.28053178537E+04 0.  0.
        4    1    3    3  502    0  0.13443114660E+04  0.18749034413E+03 -0.34642861248E+02  0.13577656968E+04  0.12699999809E+01 0. -1.
       -4    1    3    3    0  502 -0.13443114660E+04 -0.18749034413E+03 -0.77067489896E+03  0.15608546888E+04  0.12699999809E+01 0.  1.
</event>
<event>
 5   0  0.1499888E-06  0.2800087E+04  0.7818609E-02  0.8303241E-01
        2   -1    0    0  501    0  0.00000000000E+00  0.00000000000E+00  0.19704788306E+04  0.19704788306E+04  0.25500000920E-02 0.  1.
       -2   -1    0    0    0  501  0.00000000000E+00  0.00000000000E+00 -0.99474396055E+03  0.99474396055E+03  0.25500000920E-02 0. -1.
    10030    2    1    2    0    0  0.00000000000E+00  0.00000000000E+00  0.97573487009E+03  0.29652227912E+04  0.28000870816E+04 0.  0.
        3    1    3    3  502    0 -0.12790394130E+04  0.36844790061E+03  0.94754834848E+03  0.16338737890E+04  0.10100000352E+00 0.  1.
       -3    1    3    3    0  502  0.12790394130E+04 -0.36844790061E+03  0.28186521616E+02  0.13313490022E+04  0.10100000352E+00 0. -1.
</event>
<event>
 5   0  0.1461146E-06  0.2794278E+04  0.7818609E-02  0.8305047E-01
       -2   -1    0    0    0  501  0.00000000000E+00  0.00000000000E+00  0.13495327783E+04  0.13495327783E+04  0.25500000920E-02 0.  1.
        2   -1    0    0  501    0  0.00000000000E+00  0.00000000000E+00 -0.14464249999E+04  0.14464249999E+04  0.25500000920E-02 0. -1.
    10030    2    1    2    0    0  0.00000000000E+00  0.00000000000E+00 -0.96892221652E+02  0.27959577782E+04  0.27942784033E+04 0.  0.
        1    1    3    3  502    0  0.25656723431E+03 -0.11575831552E+04 -0.78792507850E+03  0.14236050844E+04  0.50400001928E-02 0. -1.
       -1    1    3    3    0  502 -0.25656723431E+03  0.11575831552E+04  0.69103285685E+03  0.13723526938E+04  0.50400001928E-02 0.  1.
</event>
<event>
 5   0  0.5282098E-07  0.2802278E+04  0.7818609E-02  0.8302561E-01
        1   -1    0    0  501    0  0.00000000000E+00  0.00000000000E+00  0.11454945277E+04  0.11454945277E+04  0.50400001928E-02 0. -1.
       -1   -1    0    0    0  501  0.00000000000E+00  0.00000000000E+00 -0.17138366275E+04  0.17138366276E+04  0.50400001928E-02 0.  1.
    10030    2    1    2    0    0  0.00000000000E+00  0.00000000000E+00 -0.56834209987E+03  0.28593311552E+04  0.28022779864E+04 0.  0.
        4    1    3    3  502    0 -0.11101603609E+04 -0.55356583676E+03  0.38047217401E+03  0.12975561069E+04  0.12699999809E+01 0. -1.
       -4    1    3    3    0  502  0.11101603609E+04  0.55356583676E+03 -0.94881427388E+03  0.15617750484E+04  0.12699999809E+01 0.  1.
</event>
<event>
 5   0  0.1461146E-06  0.2785708E+04  0.7818609E-02  0.8307719E-01
       -2   -1    0    0    0  501  0.00000000000E+00  0.00000000000E+00  0.10123139626E+04  0.10123139627E+04  0.25500000920E-02 0.  1.
        2   -1    0    0  501    0  0.00000000000E+00  0.00000000000E+00 -0.19164427275E+04  0.19164427275E+04  0.25500000920E-02 0. -1.
    10030    2    1    2    0    0  0.00000000000E+00  0.00000000000E+00 -0.90412876486E+03  0.29287566902E+04  0.27857076169E+04 0.  0.
        1    1    3    3  502    0 -0.13897654971E+04 -0.46665218953E+02 -0.36785154120E+03  0.14383812206E+04  0.50400001928E-02 0.  1.
       -1    1    3    3    0  502  0.13897654971E+04  0.46665218953E+02 -0.53627722366E+03  0.14903754695E+04  0.50400001928E-02 0. -1.
</event>
<event>
 5   0  0.1499888E-06  0.2796643E+04  0.7818609E-02  0.8304311E-01
        2   -1    0    0  501    0  0.00000000000E+00  0.00000000000E+00  0.14062112500E+04  0.14062112500E+04  0.25500000920E-02 0.  1.
       -2   -1    0    0    0  501  0.00000000000E+00  0.00000000000E+00 -0.13904761078E+04  0.13904761078E+04  0.25500000920E-02 0. -1.
    10030    2    1    2    0    0  0.00000000000E+00  0.00000000000E+00  0.15735142224E+02  0.27966873578E+04  0.27966430917E+04 0.  0.
        3    1    3    3  502    0 -0.13270493853E+04 -0.34652733503E+03  0.28019865284E+03  0.13998759089E+04  0.10100000352E+00 0.  1.
       -3    1    3    3    0  502  0.13270493853E+04  0.34652733503E+03 -0.26446351062E+03  0.13968114489E+04  0.10100000352E+00 0. -1.
</event>
<event>
 5   0  0.5214658E-07  0.2796247E+04  0.7818609E-02  0.8304435E-01
       -1   -1    0    0    0  501  0.00000000000E+00  0.00000000000E+00  0.12363332984E+04  0.12363332985E+04  0.50400001928E-02 0.  1.
        1   -1    0    0  501    0  0.00000000000E+00  0.00000000000E+00 -0.15810857903E+04  0.15810857903E+04  0.50400001928E-02 0. -1.
    10030    2    1    2    0    0  0.00000000000E+00  0.00000000000E+00 -0.34475249183E+03  0.28174190887E+04  0.27962467776E+04 0.  0.
        2    1    3    3  502    0 -0.93848891558E+02  0.13157003732E+04 -0.63943101739E+03  0.14658605365E+04  0.25500000920E-02 0. -1.
       -2    1    3    3    0  502  0.93848891558E+02 -0.13157003732E+04  0.29467852556E+03  0.13515585522E+04  0.25500000920E-02 0.  1.
</event>
<event>
 5   0  0.1499888E-06  0.2815959E+04  0.7818609E-02  0.8298331E-01
       -2   -1    0    0    0  501  0.00000000000E+00  0.00000000000E+00  0.10902739140E+04  0.10902739140E+04  0.25500000920E-02 0.  1.
        2   -1    0    0  501    0  0.00000000000E+00  0.00000000000E+00 -0.18182641670E+04  0.18182641670E+04  0.25500000920E-02 0. -1.
    10030    2    1    2    0    0  0.00000000000E+00  0.00000000000E+00 -0.72799025304E+03  0.29085380810E+04  0.28159587994E+04 0.  0.
        3    1    3    3  502    0  0.35199571434E+03 -0.13327677836E+04 -0.66018955860E+03  0.15284047931E+04  0.10100000352E+00 0. -1.
       -3    1    3    3    0  502 -0.35199571434E+03  0.13327677836E+04 -0.67800694433E+02  0.13801332879E+04  0.10100000352E+00 0.  1.
</event>
<event>
 5   0  0.5362952E-07  0.2805042E+04  0.7818609E-02  0.8301705E-01
        1   -1    0    0  501    0  0.00000000000E+00  0.00000000000E+00  0.19884854934E+04  0.19884854934E+04  0.50400001928E-02 0.  1.
       -1   -1    0    0    0  501  0.00000000000E+00  0.00000000000E+00 -0.98922812599E+03  0.98922812601E+03  0.50400001928E-02 0. -1.
    10030    2    1    2    0    0  0.00000000000E+00  0.00000000000E+00  0.99925736742E+03  0.29777136194E+04  0.28050424441E+04 0.  0.
        1    1    3    3  502    0  0.11252972033E+04 -0.76032238162E+03  0.87144946863E+03  0.16136319581E+04  0.50400001928E-02 0.  1.
       -1    1    3    3    0  502 -0.11252972033E+04  0.76032238162E+03  0.12780789879E+03  0.13640816613E+04  0.50400001928E-02 0. -1.
</event>
<event>
 5   0  0.5214658E-07  0.2768090E+04  0.7818609E-02  0.8313244E-01
       -1   -1    0    0    0  501  0.00000000000E+00  0.00000000000E+00  0.28602163983E+04  0.28602163983E+04  0.50400001928E-02 0. -1.
        1   -1    0    0  501    0  0.00000000000E+00  0.00000000000E+00 -0.66973252819E+03  0.66973252821E+03  0.50400001928E-02 0.  1.
    10030    2    1    2    0    0  0.00000000000E+00  0.00000000000E+00  0.21904838701E+04  0.35299489265E+04  0.27680895648E+04 0.  0.
        2    1    3    3  502    0  0.51029662386E+03 -0.10850018080E+04  0.21362730995E+03  0.12178949853E+04  0.25500000920E-02 0. -1.
       -2    1    3    3    0  502 -0.51029662386E+03  0.10850018080E+04  0.19768565602E+04  0.23120539412E+04  0.25500000920E-02 0.  1.
</event>
<event>
 5   0  0.5362952E-07  0.2801020E+04  0.7818609E-02  0.8302952E-01
        1   -1    0    0  501    0  0.00000000000E+00  0.00000000000E+00  0.29472762973E+04  0.29472762973E+04  0.50400001928E-02 0. -1.
       -1   -1    0    0    0  501  0.00000000000E+00  0.00000000000E+00 -0.66550545753E+03  0.66550545755E+03  0.50400001928E-02 0.  1.
    10030    2    1    2    0    0  0.00000000000E+00  0.00000000000E+00  0.22817708398E+04  0.36127817549E+04  0.28010201433E+04 0.  0.
        1    1    3    3  502    0 -0.22025177171E+02 -0.11017538740E+04  0.22557177626E+04  0.25104998172E+04  0.50400001928E-02 0. -1.
       -1    1    3    3    0  502  0.22025177171E+02  0.11017538740E+04  0.26053077176E+02  0.11022819377E+04  0.50400001928E-02 0.  1.
</event>
<event>
 5   0  0.1461146E-06  0.2801045E+04  0.7818609E-02  0.8302944E-01
        2   -1    0    0  501    0  0.00000000000E+00  0.00000000000E+00  0.14408732264E+04  0.14408732264E+04  0.25500000920E-02 0.  1.
       -2   -1    0    0    0  501  0.00000000000E+00  0.00000000000E+00 -0.13613018250E+04  0.13613018250E+04  0.25500000920E-02 0. -1.
    10030    2    1    2    0    0  0.00000000000E+00  0.00000000000E+00  0.79571401397E+02  0.28021750514E+04  0.28010450569E+04 0.  0.
        1    1    3    3  502    0  0.10006733506E+04 -0.39922333359E+03 -0.85541434569E+03  0.13756671573E+04  0.50400001928E-02 0. -1.
       -1    1    3    3    0  502 -0.10006733506E+04  0.39922333359E+03  0.93498574709E+03  0.14265078941E+04  0.50400001928E-02 0.  1.
</event>
<event>
 5   0  0.5362952E-07  0.2799081E+04  0.7818609E-02  0.8303554E-01
       -1   -1    0    0    0  501  0.00000000000E+00  0.00000000000E+00  0.18960946717E+04  0.18960946717E+04  0.50400001928E-02 0.  1.
        1   -1    0    0  501    0  0.00000000000E+00  0.00000000000E+00 -0.10330252937E+04  0.10330252937E+04  0.50400001928E-02 0. -1.
    10030    2    1    2    0    0  0.00000000000E+00  0.00000000000E+00  0.86306937801E+03  0.29291199653E+04  0.27990811028E+04 0.  0.
        1    1    3    3  502    0 -0.91473447767E+03 -0.86551257493E+03 -0.20745827022E+03  0.12762797953E+04  0.50400001928E-02 0. -1.
       -1    1    3    3    0  502  0.91473447767E+03  0.86551257493E+03  0.10705276482E+04  0.16528401700E+04  0.50400001928E-02 0.  1.
</event>
<event>
 5   0  0.5282098E-07  0.2799908E+04  0.7818609E-02  0.8303297E-01
       -1   -1    0    0    0  501  0.00000000000E+00  0.00000000000E+00  0.13906370922E+04  0.13906370922E+04  0.50400001928E-02 0. -1.
        1   -1    0    0  501    0  0.00000000000E+00  0.00000000000E+00 -0.14093331947E+04  0.14093331947E+04  0.50400001928E-02 0.  1.
    10030    2    1    2    0    0  0.00000000000E+00  0.00000000000E+00 -0.18696102532E+02  0.27999702870E+04  0.27999078670E+04 0.  0.
        4    1    3    3  502    0  0.42244852844E+03  0.12377685948E+04 -0.50869429058E+03  0.14033194033E+04  0.12699999809E+01 0.  1.
       -4    1    3    3    0  502 -0.42244852844E+03 -0.12377685948E+04  0.48999818805E+03  0.13966508836E+04  0.12699999809E+01 0. -1.
</event>
<event>
 5   0  0.1377807E-06  0.2800473E+04  0.7818609E-02  0.8303121E-01
       -2   -1    0    0    0  501  0.00000000000E+00  0.00000000000E+00  0.11147485906E+04  0.11147485906E+04  0.25500000920E-02 0.  1.
        2   -1    0    0  501    0  0.00000000000E+00  0.00000000000E+00 -0.17588384350E+04  0.17588384350E+04  0.25500000920E-02 0. -1.
    10030    2    1    2    0    0  0.00000000000E+00  0.00000000000E+00 -0.64408984437E+03  0.28735870256E+04  0.28004732932E+04 0.  0.
        2    1    3    3  502    0 -0.15773755451E+02 -0.60576454597E+03  0.97323589497E+03  0.11464674456E+04  0.25500000920E-02 0.  1.
       -2    1    3    3    0  502  0.15773755451E+02  0.60576454597E+03 -0.16173257393E+04  0.17271195800E+04  0.25500000920E-02 0. -1.
</event>
<event>
 5   0  0.1377807E-06  0.2792543E+04  0.7818609E-02  0.8305587E-01
       -2   -1    0    0    0  501  0.00000000000E+00  0.00000000000E+00  0.96976154616E+03  0.96976154616E+03  0.25500000920E-02 0. -1.
        2   -1    0    0  501    0  0.00000000000E+00  0.00000000000E+00 -0.20103647304E+04  0.20103647304E+04  0.25500000920E-02 0.  1.
    10030    2    1    2    0    0  0.00000000000E+00  0.00000000000E+00 -0.10406031842E+04  0.29801262765E+04  0.27925432203E+04 0.  0.
        2    1    3    3  502    0  0.10012741187E+04  0.75901151261E+03 -0.11702493407E+04  0.17170124800E+04  0.25500000920E-02 0.  1.
       -2    1    3    3    0  502 -0.10012741187E+04 -0.75901151261E+03  0.12964615652E+03  0.12631137965E+04  0.25500000920E-02 0. -1.
</event>
<event>
 5   0  0.4710000E-07  0.2797797E+04  0.7818609E-02  0.8303953E-01
       -4   -1    0    0    0  501  0.00000000000E+00  0.00000000000E+00  0.12003901917E+04  0.12003908635E+04  0.12699999809E+01 0.  1.
        4   -1    0    0  501    0  0.00000000000E+00  0.00000000000E+00 -0.16302330977E+04  0.16302335923E+04  0.12699999809E+01 0. -1.
    10030    2    1    2    0    0  0.00000000000E+00  0.00000000000E+00 -0.42984290600E+03  0.28306244558E+04  0.27977973275E+04 0.  0.
        5    1    3    3  502    0 -0.64567152159E+02 -0.31224037257E+03 -0.15929720555E+04  0.16245753375E+04  0.46999998093E+01 0. -1.
       -5    1    3    3    0  502  0.64567152159E+02  0.31224037257E+03  0.11631291495E+04  0.12060491184E+04  0.46999998093E+01 0.  1.
</event>
<event>
 5   0  0.1461146E-06  0.2809951E+04  0.7818609E-02  0.8300186E-01
        2   -1    0    0  501    0  0.00000000000E+00  0.00000000000E+00  0.12760734766E+04  0.12760734766E+04  0.25500000920E-02 0.  1.
       -2   -1    0    0    0  501  0.00000000000E+00  0.00000000000E+00 -0.15468989482E+04  0.15468989482E+04  0.25500000920E-02 0. -1.
    10030    2    1    2    0    0  0.00000000000E+00  0.00000000000E+00 -0.27082547160E+03  0.28229724247E+04  0.28099514008E+04 0.  0.
        1    1    3    3  502    0 -0.93658183405E+03 -0.96321841364E+03  0.27756569976E+03  0.13718665977E+04  0.50400001928E-02 0. -1.
       -1    1    3    3    0  502  0.93658183405E+03  0.96321841364E+03 -0.54839117136E+03  0.14511058270E+04  0.50400001928E-02 0.  1.
</event>
<event>
 5   0  0.5551565E-07  0.2803440E+04  0.7818609E-02  0.8302201E-01
       -1   -1    0    0    0  501  0.00000000000E+00  0.00000000000E+00  0.18138599330E+04  0.18138599330E+04  0.50400001928E-02 0.  1.
        1   -1    0    0  501    0  0.00000000000E+00  0.00000000000E+00 -0.10832254285E+04  0.10832254285E+04  0.50400001928E-02 0. -1.
    10030    2    1    2    0    0  0.00000000000E+00  0.00000000000E+00  0.73063450456E+03  0.28970853615E+04  0.28034401746E+04 0.  0.
        3    1    3    3  502    0 -0.11687861615E+04  0.92857747315E+02 -0.42854633862E+03  0.12483331394E+04  0.10100000352E+00 0. -1.
       -3    1    3    3    0  502  0.11687861615E+04 -0.92857747315E+02  0.11591808432E+04  0.16487522221E+04  0.10100000352E+00 0.  1.
</event>
<event>
 5   0  0.1394410E-06  0.2801444E+04  0.7818609E-02  0.8302820E-01
        2   -1    0    0  501    0  0.00000000000E+00  0.00000000000E+00  0.18890630984E+04  0.18890630984E+04  0.25500000920E-02 0. -1.
       -2   -1    0    0    0  501  0.00000000000E+00  0.00000000000E+00 -0.10386216578E+04  0.10386216578E+04  0.25500000920E-02 0.  1.
    10030    2    1    2    0    0  0.00000000000E+00  0.00000000000E+00  0.85044144058E+03  0.29276847561E+04  0.28014438041E+04 0.  0.
        4    1    3    3  502    0  0.78740171383E+03 -0.27800930267E+03 -0.75005898897E+03  0.11224440882E+04  0.12699999809E+01 0.  1.
       -4    1    3    3    0  502 -0.78740171383E+03  0.27800930267E+03  0.16005004295E+04  0.18052406679E+04  0.12699999809E+01 0. -1.
</event>
<event>
 5   0  0.1439207E-06  0.2800490E+04  0.7818609E-02  0.8303116E-01
        2   -1    0    0  501    0  0.00000000000E+00  0.00000000000E+00  0.21098787783E+04  0.21098787783E+04  0.25500000920E-02 0.  1.
       -2   -1    0    0    0  501  0.00000000000E+00  0.00000000000E+00 -0.92928868352E+03  0.92928868353E+03  0.25500000920E-02 0. -1.
    10030    2    1    2    0    0  0.00000000000E+00  0.00000000000E+00  0.11805900948E+04  0.30391674619E+04  0.28004902944E+04 0.  0.
        5    1    3    3  502    0  0.11259994662E+04 -0.41189541941E+02 -0.31187583877E+03  0.11691278823E+04  0.46999998093E+01 0. -1.
       -5    1    3    3    0  502 -0.11259994662E+04  0.41189541941E+02  0.14924659336E+04  0.18700395796E+04  0.46999998093E+01 0.  1.
</event>
<event>
 5   0  0.1499888E-06  0.2800010E+04  0.7818609E-02  0.8303265E-01
       -2   -1    0    0    0  501  0.00000000000E+00  0.00000000000E+00  0.14525455481E+04  0.14525455481E+04  0.25500000920E-02 0.  1.
        2   -1    0    0  501    0  0.00000000000E+00  0.00000000000E+00 -0.13493647689E+04  0.13493647689E+04  0.25500000920E-02 0. -1.
    10030    2    1    2    0    0  0.00000000000E+00  0.00000000000E+00  0.10318077913E+03  0.28019103170E+04  0.28000098484E+04 0.  0.
        3    1    3    3  502    0 -0.22362561142E+02 -0.13923377161E+04 -0.93108509595E+02  0.13956265992E+04  0.10100000352E+00 0.  1.
       -3    1    3    3    0  502  0.22362561142E+02  0.13923377161E+04  0.19628928873E+03  0.14062837177E+04  0.10100000352E+00 0. -1.
</event>
<event>
 5   0  0.5362952E-07  0.2796089E+04  0.7818609E-02  0.8304484E-01
        1   -1    0    0  501    0  0.00000000000E+00  0.00000000000E+00  0.13615616152E+04  0.13615616152E+04  0.50400001928E-02 0.  1.
       -1   -1    0    0    0  501  0.00000000000E+00  0.00000000000E+00 -0.14355051646E+04  0.14355051647E+04  0.50400001928E-02 0. -1.
    10030    2    1    2    0    0  0.00000000000E+00  0.00000000000E+00 -0.73943549459E+02  0.27970667798E+04  0.27960892193E+04 0.  0.
        1    1    3    3  502    0  0.46108999745E+03 -0.22439284909E+03  0.12640876421E+04  0.13641384473E+04  0.50400001928E-02 0.  1.
       -1    1    3    3    0  502 -0.46108999745E+03  0.22439284909E+03 -0.13380311916E+04  0.14329283325E+04  0.50400001928E-02 0. -1.
</event>
<event>
 5   0  0.5214658E-07  0.2826140E+04  0.7818609E-02  0.8295199E-01
       -1   -1    0    0    0  501  0.00000000000E+00  0.00000000000E+00  0.19188856057E+04  0.19188856057E+04  0.50400001928E-02 0.  1.
        1   -1    0    0  501    0  0.00000000000E+00  0.00000000000E+00 -0.10405863386E+04  0.10405863386E+04  0.50400001928E-02 0. -1.
    10030    2    1    2    0    0  0.00000000000E+00  0.00000000000E+00  0.87829926709E+03  0.29594719443E+04  0.28261395200E+04 0.  0.
        2    1    3    3  502    0 -0.13963796585E+04 -0.16003414196E+03  0.28639410257E+03  0.14344018472E+04  0.25500000920E-02 0. -1.
       -2    1    3    3    0  502  0.13963796585E+04  0.16003414196E+03  0.59190516452E+03  0.15250700971E+04  0.25500000920E-02 0.  1.
</event>
<event>
 5   0  0.5214658E-07  0.2803011E+04  0.7818609E-02  0.8302334E-01
        1   -1    0    0  501    0  0.00000000000E+00  0.00000000000E+00  0.21676559619E+04  0.21676559619E+04  0.50400001928E-02 0. -1.
       -1   -1    0    0    0  501  0.00000000000E+00  0.00000000000E+00 -0.90614846731E+03  0.90614846732E+03  0.50400001928E-02 0.  1.
    10030    2    1    2    0    0  0.00000000000E+00  0.00000000000E+00  0.12615074946E+04  0.30738044292E+04  0.28030113289E+04 0.  0.
        2    1    3    3  502    0 -0.51530654407E+03 -0.16907348210E+03  0.20479222960E+04  0.21185165581E+04  0.25500000920E-02 0. -1.
       -2    1    3    3    0  502  0.51530654407E+03  0.16907348210E+03 -0.78641480142E+03  0.95528787106E+03  0.25500000920E-02 0.  1.
</event>
<event>
 5   0  0.1377807E-06  0.2801794E+04  0.7818609E-02  0.8302712E-01
       -2   -1    0    0    0  501  0.00000000000E+00  0.00000000000E+00  0.11633736326E+04  0.11633736326E+04  0.25500000920E-02 0. -1.
        2   -1    0    0  501    0  0.00000000000E+00  0.00000000000E+00 -0.16869154128E+04  0.16869154128E+04  0.25500000920E-02 0.  1.
    10030    2    1    2    0    0  0.00000000000E+00  0.00000000000E+00 -0.52354178018E+03  0.28502890454E+04  0.28017943620E+04 0.  0.
        2    1    3    3  502    0  0.87487381178E+02 -0.54999709970E+03 -0.15694622489E+04  0.16653415873E+04  0.25500000920E-02 0.  1.
       -2    1    3    3    0  502 -0.87487381178E+02  0.54999709970E+03  0.10459204688E+04  0.11849474581E+04  0.25500000920E-02 0. -1.
</event>
<event>
 5   0  0.1394410E-06  0.2800818E+04  0.7818609E-02  0.8303014E-01
        2   -1    0    0  501    0  0.00000000000E+00  0.00000000000E+00  0.15740010173E+04  0.15740010173E+04  0.25500000920E-02 0.  1.
       -2   -1    0    0    0  501  0.00000000000E+00  0.00000000000E+00 -0.12459618361E+04  0.12459618361E+04  0.25500000920E-02 0. -1.
    10030    2    1    2    0    0  0.00000000000E+00  0.00000000000E+00  0.32803918114E+03  0.28199628534E+04  0.28008178788E+04 0.  0.
        4    1    3    3  502    0 -0.55404615501E+02 -0.12811592344E+04 -0.40259261941E+03  0.13440688544E+04  0.12699999809E+01 0. -1.
       -4    1    3    3    0  502  0.55404615501E+02  0.12811592344E+04  0.73063180056E+03  0.14758939990E+04  0.12699999809E+01 0.  1.
</event>
<event>
 5   0  0.1439207E-06  0.2799221E+04  0.7818609E-02  0.8303510E-01
        2   -1    0    0  501    0  0.00000000000E+00  0.00000000000E+00  0.14528725605E+04  0.14528725605E+04  0.25500000920E-02 0. -1.
       -2   -1    0    0    0  501  0.00000000000E+00  0.00000000000E+00 -0.13483006949E+04  0.13483006949E+04  0.25500000920E-02 0.  1.
    10030    2    1    2    0    0  0.00000000000E+00  0.00000000000E+00  0.10457186551E+03  0.28011732554E+04  0.27992206651E+04 0.  0.
        5    1    3    3  502    0 -0.14473472830E+03 -0.13743118832E+04  0.27426424167E+03  0.14088734003E+04  0.46999998093E+01 0.  1.
       -5    1    3    3    0  502  0.14473472830E+03  0.13743118832E+04 -0.16969237617E+03  0.13922998551E+04  0.46999998093E+01 0. -1.
</event>
<event>
 5   0  0.5362952E-07  0.2795305E+04  0.7818609E-02  0.8304728E-01
       -1   -1    0    0    0  501  0.00000000000E+00  0.00000000000E+00  0.85916490635E+03  0.85916490636E+03  0.50400001928E-02 0. -1.
        1   -1    0    0  501    0  0.00000000000E+00  0.00000000000E+00 -0.22736404892E+04  0.22736404892E+04  0.50400001928E-02 0.  1.
    10030    2    1    2    0    0  0.00000000000E+00  0.00000000000E+00 -0.14144755829E+04  0.31328053956E+04  0.27953047190E+04 0.  0.
        1    1    3    3  502    0  0.34304533814E+03  0.62309693568E+03  0.64114710753E+03  0.95760091311E+03  0.50400001928E-02 0. -1.
       -1    1    3    3    0  502 -0.34304533814E+03 -0.62309693568E+03 -0.20556226904E+04  0.21752044825E+04  0.50400001928E-02 0.  1.
</event>
<event>
 5   0  0.5282098E-07  0.2796422E+04  0.7818609E-02  0.8304380E-01
       -1   -1    0    0    0  501  0.00000000000E+00  0.00000000000E+00  0.14318203168E+04  0.14318203168E+04  0.50400001928E-02 0. -1.
        1   -1    0    0  501    0  0.00000000000E+00  0.00000000000E+00 -0.13653902944E+04  0.13653902944E+04  0.50400001928E-02 0.  1.
    10030    2    1    2    0    0  0.00000000000E+00  0.00000000000E+00  0.66430022400E+02  0.27972106112E+04  0.27964216877E+04 0.  0.
        4    1    3    3  502    0  0.73417378769E+03 -0.46936739851E+03 -0.10605627478E+04  0.13726295422E+04  0.12699999809E+01 0.  1.
       -4    1    3    3    0  502 -0.73417378769E+03  0.46936739851E+03  0.11269927702E+04  0.14245810690E+04  0.12699999809E+01 0. -1.
</event>
<event>
 5   0  0.1377807E-06  0.2802693E+04  0.7818609E-02  0.8302433E-01
       -2   -1    0    0    0  501  0.00000000000E+00  0.00000000000E+00  0.10828150305E+04  0.10828150305E+04  0.25500000920E-02 0. -1.
        2   -1    0    0  501    0  0.00000000000E+00  0.00000000000E+00 -0.18135797377E+04  0.18135797377E+04  0.25500000920E-02 0.  1.
    10030    2    1    2    0    0  0.00000000000E+00  0.00000000000E+00 -0.73076470714E+03  0.28963947682E+04  0.28026925618E+04 0.  0.
        2    1    3    3  502    0  0.16483402754E+03 -0.84911526179E+03  0.77402345127E+03  0.11607236052E+04  0.25500000920E-02 0. -1.
       -2    1    3    3    0  502 -0.16483402754E+03  0.84911526179E+03 -0.15047881584E+04  0.17356711630E+04  0.25500000920E-02 0.  1.
</event>
<event>
 5   0  0.1461146E-06  0.2806236E+04  0.7818609E-02  0.8301335E-01
        2   -1    0    0  501    0  0.00000000000E+00  0.00000000000E+00  0.22035311728E+04  0.22035311728E+04  0.25500000920E-02 0. -1.
       -2   -1    0    0    0  501  0.00000000000E+00  0.00000000000E+00 -0.89344806208E+03  0.89344806208E+03  0.25500000920E-02 0.  1.
    10030    2    1    2    0    0  0.00000000000E+00  0.00000000000E+00  0.13100831107E+04  0.30969792349E+04  0.28062363807E+04 0.  0.
        1    1    3    3  502    0 -0.55227325052E+03 -0.10947316822E+04 -0.97758049086E+02  0.12300405828E+04  0.50400001928E-02 0.  1.
       -1    1    3    3    0  502  0.55227325052E+03  0.10947316822E+04  0.14078411598E+04  0.18669386520E+04  0.50400001928E-02 0. -1.
</event>
<event>
 5   0  0.1461146E-06  0.2788349E+04  0.7818609E-02  0.8306895E-01
       -2   -1    0    0    0  501  0.00000000000E+00  0.00000000000E+00  0.13056758465E+04  0.13056758465E+04  0.25500000920E-02 0.  1.
        2   -1    0    0  501    0  0.00000000000E+00  0.00000000000E+00 -0.14886713529E+04  0.14886713529E+04  0.25500000920E-02 0. -1.
    10030    2    1    2    0    0  0.00000000000E+00  0.00000000000E+00 -0.18299550641E+03  0.27943471994E+04  0.27883487794E+04 0.  0.
        1    1    3    3  502    0  0.15415334199E+03 -0.29461322337E+03  0.12653580489E+04  0.13083161683E+04  0.50400001928E-02 0.  1.
       -1    1    3    3    0  502 -0.15415334199E+03  0.29461322337E+03 -0.14483535553E+04  0.14860310311E+04  0.50400001928E-02 0. -1.
</event>
<event>
 5   0  0.5214658E-07  0.2800873E+04  0.7818609E-02  0.8302997E-01
        1   -1    0    0  501    0  0.00000000000E+00  0.00000000000E+00  0.17929147735E+04  0.17929147735E+04  0.50400001928E-02 0.  1.
       -1   -1    0    0    0  501  0.00000000000E+00  0.00000000000E+00 -0.10938738662E+04  0.10938738662E+04  0.50400001928E-02 0. -1.
    10030    2    1    2    0    0  0.00000000000E+00  0.00000000000E+00  0.69904090725E+03  0.28867886397E+04  0.28008731603E+04 0.  0.
        2    1    3    3  502    0  0.40937576162E+03 -0.52982672863E+03 -0.91821665529E+03  0.11364095664E+04  0.25500000920E-02 0. -1.
       -2    1    3    3    0  502 -0.40937576162E+03  0.52982672863E+03  0.16172575625E+04  0.17503790733E+04  0.25500000920E-02 0.  1.
</event>
<event>
 5   0  0.1439207E-06  0.2796384E+04  0.7818609E-02  0.8304392E-01
       -2   -1    0    0    0  501  0.00000000000E+00  0.00000000000E+00  0.16725547030E+04  0.16725547030E+04  0.25500000920E-02 0. -1.
        2   -1    0    0  501    0  0.00000000000E+00  0.00000000000E+00 -0.11688354024E+04  0.11688354024E+04  0.25500000920E-02 0.  1.
    10030    2    1    2    0    0  0.00000000000E+00  0.00000000000E+00  0.50371930060E+03  0.28413901054E+04  0.27963842005E+04 0.  0.
        5    1    3    3  502    0  0.57856785349E+03  0.12100807493E+04  0.65303406935E+03  0.14918149237E+04  0.46999998093E+01 0. -1.
       -5    1    3    3    0  502 -0.57856785349E+03 -0.12100807493E+04 -0.14931476874E+03  0.13495751817E+04  0.46999998093E+01 0.  1.
</event>
<event>
 5   0  0.5282098E-07  0.2796023E+04  0.7818609E-02  0.8304504E-01
       -1   -1    0    0    0  501  0.00000000000E+00  0.00000000000E+00  0.12346922019E+04  0.12346922019E+04  0.50400001928E-02 0.  1.
        1   -1    0    0  501    0  0.00000000000E+00  0.00000000000E+00 -0.15829337096E+04  0.15829337096E+04  0.50400001928E-02 0. -1.
    10030    2    1    2    0    0  0.00000000000E+00  0.00000000000E+00 -0.34824150771E+03  0.28176259116E+04  0.27960228236E+04 0.  0.
        4    1    3    3  502    0  0.94936174418E+02 -0.33061493744E+03  0.11913820020E+04  0.12400450805E+04  0.12699999809E+01 0.  1.
       -4    1    3    3    0  502 -0.94936174418E+02  0.33061493744E+03 -0.15396235097E+04  0.15775808311E+04  0.12699999809E+01 0. -1.
</event>
<event>
 5   0  0.5362952E-07  0.2799337E+04  0.7818609E-02  0.8303474E-01
       -1   -1    0    0    0  501  0.00000000000E+00  0.00000000000E+00  0.19976650408E+04  0.19976650408E+04  0.50400001928E-02 0. -1.
        1   -1    0    0  501    0  0.00000000000E+00  0.00000000000E+00 -0.98068112861E+03  0.98068112862E+03  0.50400001928E-02 0.  1.
    10030    2    1    2    0    0  0.00000000000E+00  0.00000000000E+00  0.10169839121E+04  0.29783461694E+04  0.27993373550E+04 0.  0.
        1    1    3    3  502    0  0.11915751217E+04 -0.72200709685E+03  0.65094521519E+03  0.15378150707E+04  0.50400001928E-02 0.  1.
       -1    1    3    3    0  502 -0.11915751217E+04  0.72200709685E+03  0.36603869696E+03  0.14405310987E+04  0.50400001928E-02 0. -1.
</event>
<event>
 5   0  0.5362952E-07  0.2741810E+04  0.7818609E-02  0.8321565E-01
        1   -1    0    0  501    0  0.00000000000E+00  0.00000000000E+00  0.15308570380E+04  0.15308570380E+04  0.50400001928E-02 0.  1.
       -1   -1    0    0    0  501  0.00000000000E+00  0.00000000000E+00 -0.12276651981E+04  0.12276651981E+04  0.50400001928E-02 0. -1.
    10030    2    1    2    0    0  0.00000000000E+00  0.00000000000E+00  0.30319183992E+03  0.27585222362E+04  0.27418095549E+04 0.  0.
        1    1    3    3  502    0  0.10899433986E+04 -0.79758206048E+03 -0.84924598889E+02  0.13532649197E+04  0.50400001928E-02 0. -1.
       -1    1    3    3    0  502 -0.10899433986E+04  0.79758206048E+03  0.38811643881E+03  0.14052573165E+04  0.50400001928E-02 0.  1.
</event>
<event>
 5   0  0.5214658E-07  0.2803857E+04  0.7818609E-02  0.8302072E-01
        1   -1    0    0  501    0  0.00000000000E+00  0.00000000000E+00  0.15253040505E+04  0.15253040505E+04  0.50400001928E-02 0. -1.
       -1   -1    0    0    0  501  0.00000000000E+00  0.00000000000E+00 -0.12885321577E+04  0.12885321577E+04  0.50400001928E-02 0.  1.
    10030    2    1    2    0    0  0.00000000000E+00  0.00000000000E+00  0.23677189282E+03  0.28138362081E+04  0.28038568574E+04 0.  0.
        2    1    3    3  502    0 -0.73460217755E+03 -0.88675845627E+03  0.92087090093E+03  0.14744436697E+04  0.25500000920E-02 0. -1.
       -2    1    3    3    0  502  0.73460217755E+03  0.88675845627E+03 -0.68409900812E+03  0.13393925384E+04  0.25500000920E-02 0.  1.
</event>
<event>
 5   0  0.5551565E-07  0.2800401E+04  0.7818609E-02  0.8303144E-01
       -1   -1    0    0    0  501  0.00000000000E+00  0.00000000000E+00  0.11558876560E+04  0.11558876560E+04  0.50400001928E-02 0.  1.
        1   -1    0    0  501    0  0.00000000000E+00  0.00000000000E+00 -0.16961516778E+04  0.16961516778E+04  0.50400001928E-02 0. -1.
    10030    2    1    2    0    0  0.00000000000E+00  0.00000000000E+00 -0.54026402180E+03  0.28520393337E+04  0.28004005335E+04 0.  0.
        3    1    3    3  502    0  0.77658902656E+03 -0.11507464280E+04 -0.84415615284E+02  0.13908392661E+04  0.10100000352E+00 0.  1.
       -3    1    3    3    0  502 -0.77658902656E+03  0.11507464280E+04 -0.45584840652E+03  0.14612000677E+04  0.10100000352E+00 0. -1.
</event>
<event>
 5   0  0.1499888E-06  0.2799946E+04  0.7818609E-02  0.8303285E-01
       -2   -1    0    0    0  501  0.00000000000E+00  0.00000000000E+00  0.13624456450E+04  0.13624456450E+04  0.25500000920E-02 0. -1.
        2   -1    0    0  501    0  0.00000000000E+00  0.00000000000E+00 -0.14385335486E+04  0.14385335486E+04  0.25500000920E-02 0.  1.
    10030    2    1    2    0    0  0.00000000000E+00  0.00000000000E+00 -0.76087903646E+02  0.28009791936E+04  0.27999455484E+04 0.  0.
        3    1    3    3  502    0  0.36008883402E+03  0.61252447066E+03 -0.12447535644E+04  0.14332695635E+04  0.10100000352E+00 0.  1.
       -3    1    3    3    0  502 -0.36008883402E+03 -0.61252447066E+03  0.11686656607E+04  0.13677096301E+04  0.10100000352E+00 0. -1.
</event>
<event>
 5   0  0.5551565E-07  0.2788231E+04  0.7818609E-02  0.8306931E-01
       -1   -1    0    0    0  501  0.00000000000E+00  0.00000000000E+00  0.10193942652E+04  0.10193942652E+04  0.50400001928E-02 0.  1.
        1   -1    0    0  501    0  0.00000000000E+00  0.00000000000E+00 -0.19065819254E+04  0.19065819254E+04  0.50400001928E-02 0. -1.
    10030    2    1    2    0    0  0.00000000000E+00  0.00000000000E+00 -0.88718766024E+03  0.29259761906E+04  0.27882314688E+04 0.  0.
        3    1    3    3  502    0 -0.47338036280E+03 -0.12735006369E+04 -0.11563956196E+03  0.13635488105E+04  0.10100000352E+00 0.  1.
       -3    1    3    3    0  502  0.47338036280E+03  0.12735006369E+04 -0.77154809828E+03  0.15624273801E+04  0.10100000352E+00 0. -1.
</event>
<event>
 5   0  0.1394410E-06  0.2798498E+04  0.7818609E-02  0.8303735E-01
        2   -1    0    0  501    0  0.00000000000E+00  0.00000000000E+00  0.23937273032E+04  0.23937273032E+04  0.25500000920E-02 0. -1.
       -2   -1    0    0    0  501  0.00000000000E+00  0.00000000000E+00 -0.81792875395E+03  0.81792875396E+03  0.25500000920E-02 0.  1.
    10030    2    1    2    0    0  0.00000000000E+00  0.00000000000E+00  0.15757985493E+04  0.32116560572E+04  0.27984984477E+04 0.  0.
        4    1    3    3  502    0  0.10836374419E+04 -0.47579831673E+03 -0.68795518582E+02  0.11854908604E+04  0.12699999809E+01 0.  1.
       -4    1    3    3    0  502 -0.10836374419E+04  0.47579831673E+03  0.16445940678E+04  0.20261651968E+04  0.12699999809E+01 0. -1.
</event>
<event>
 5   0  0.1499888E-06  0.2806937E+04  0.7818609E-02  0.8301118E-01
        2   -1    0    0  501    0  0.00000000000E+00  0.00000000000E+00  0.14342890811E+04  0.14342890811E+04  0.25500000920E-02 0.  1.
       -2   -1    0    0    0  501  0.00000000000E+00  0.00000000000E+00 -0.13733105283E+04  0.13733105283E+04  0.25500000920E-02 0. -1.
    10030    2    1    2    0    0  0.00000000000E+00  0.00000000000E+00  0.60978552741E+02  0.28075996094E+04  0.28069373315E+04 0.  0.
        3    1    3    3  502    0  0.12167162193E+04 -0.63815322107E+03  0.31706410721E+03  0.14100239538E+04  0.10100000352E+00 0.  1.
       -3    1    3    3    0  502 -0.12167162193E+04  0.63815322107E+03 -0.25608555446E+03  0.13975756557E+04  0.10100000352E+00 0. -1.
</event>
<event>
 5   0  0.1377807E-06  0.2798197E+04  0.7818609E-02  0.8303828E-01
        2   -1    0    0  501    0  0.00000000000E+00  0.00000000000E+00  0.12406611321E+04  0.12406611321E+04  0.25500000920E-02 0.  1.
       -2   -1    0    0    0  501  0.00000000000E+00  0.00000000000E+00 -0.15777684844E+04  0.15777684844E+04  0.25500000920E-02 0. -1.
    10030    2    1    2    0    0  0.00000000000E+00  0.00000000000E+00 -0.33710735229E+03  0.28184296165E+04  0.27981965864E+04 0.  0.
        2    1    3    3  502    0  0.74667763022E+03  0.21030543887E+03  0.10042194363E+04  0.12689415027E+04  0.25500000920E-02 0.  1.
       -2    1    3    3    0  502 -0.74667763022E+03 -0.21030543887E+03 -0.13413267886E+04  0.15494881138E+04  0.25500000920E-02 0. -1.
</event>
<event>
 5   0  0.5297741E-07  0.2800197E+04  0.7818609E-02  0.8303207E-01
       -1   -1    0    0    0  501  0.00000000000E+00  0.00000000000E+00  0.16617944172E+04  0.16617944172E+04  0.50400001928E-02 0. -1.
        1   -1    0    0  501    0  0.00000000000E+00  0.00000000000E+00 -0.11796137018E+04  0.11796137018E+04  0.50400001928E-02 0.  1.
    10030    2    1    2    0    0  0.00000000000E+00  0.00000000000E+00  0.48218071539E+03  0.28414081190E+04  0.28001967532E+04 0.  0.
        5    1    3    3  502    0 -0.62959267517E+03 -0.49297337090E+03 -0.92510358890E+03  0.12228035088E+04  0.46999998093E+01 0.  1.
       -5    1    3    3    0  502  0.62959267517E+03  0.49297337090E+03  0.14072843043E+04  0.16186046102E+04  0.46999998093E+01 0. -1.
</event>
<event>
 5   0  0.5362952E-07  0.2792885E+04  0.7818609E-02  0.8305481E-01
       -1   -1    0    0    0  501  0.00000000000E+00  0.00000000000E+00  0.10923636264E+04  0.10923636264E+04  0.50400001928E-02 0.  1.
        1   -1    0    0  501    0  0.00000000000E+00  0.00000000000E+00 -0.17851672291E+04  0.17851672291E+04  0.50400001928E-02 0. -1.
    10030    2    1    2    0    0  0.00000000000E+00  0.00000000000E+00 -0.69280360277E+03  0.28775308555E+04  0.27928850661E+04 0.  0.
        1    1    3    3  502    0  0.35614408123E+03  0.66429398427E+03 -0.15575838365E+04  0.17303735181E+04  0.50400001928E-02 0. -1.
       -1    1    3    3    0  502 -0.35614408123E+03 -0.66429398427E+03  0.86478023376E+03  0.11471573374E+04  0.50400001928E-02 0.  1.
</event>
<event>
 5   0  0.1394410E-06  0.2794340E+04  0.7818609E-02  0.8305028E-01
        2   -1    0    0  501    0  0.00000000000E+00  0.00000000000E+00  0.15411639983E+04  0.15411639983E+04  0.25500000920E-02 0. -1.
       -2   -1    0    0    0  501  0.00000000000E+00  0.00000000000E+00 -0.12666293151E+04  0.12666293151E+04  0.25500000920E-02 0.  1.
    10030    2    1    2    0    0  0.00000000000E+00  0.00000000000E+00  0.27453468322E+03  0.28077933134E+04  0.27943396355E+04 0.  0.
        4    1    3    3  502    0  0.62951127516E+02  0.53742721151E+03 -0.11570692463E+04  0.12773416559E+04  0.12699999809E+01 0.  1.
       -4    1    3    3    0  502 -0.62951127516E+02 -0.53742721151E+03  0.14316039295E+04  0.15304516576E+04  0.12699999809E+01 0. -1.
</event>
<event>
 5   0  0.1394410E-06  0.2800481E+04  0.7818609E-02  0.8303119E-01
        2   -1    0    0  501    0  0.00000000000E+00  0.00000000000E+00  0.18907123553E+04  0.18907123553E+04  0.25500000920E-02 0.  1.
       -2   -1    0    0    0  501  0.00000000000E+00  0.00000000000E+00 -0.10370024633E+04  0.10370024633E+04  0.25500000920E-02 0. -1.
    10030    2    1    2    0    0  0.00000000000E+00  0.00000000000E+00  0.85370989195E+03  0.29277148186E+04  0.28004809371E+04 0.  0.
        4    1    3    3  502    0 -0.57990117808E+03 -0.14402789061E+03 -0.89702897695E+03  0.10778181702E+04  0.12699999809E+01 0. -1.
       -4    1    3    3    0  502  0.57990117808E+03  0.14402789061E+03  0.17507388689E+04  0.18498966484E+04  0.12699999809E+01 0.  1.
</event>
<event>
 5   0  0.4710000E-07  0.2799570E+04  0.7818609E-02  0.8303402E-01
        4   -1    0    0  501    0  0.00000000000E+00  0.00000000000E+00  0.10723562349E+04  0.10723569870E+04  0.12699999809E+01 0.  1.
       -4   -1    0    0    0  501  0.00000000000E+00  0.00000000000E+00 -0.18271878688E+04  0.18271883101E+04  0.12699999809E+01 0. -1.
    10030    2    1    2    0    0  0.00000000000E+00  0.00000000000E+00 -0.75483163384E+03  0.28995452971E+04  0.27995699910E+04 0.  0.
        4    1    3    3  502    0 -0.45214343304E+03 -0.10859254340E+04  0.40844838055E+03  0.12451905174E+04  0.12699999809E+01 0.  1.
       -4    1    3    3    0  502  0.45214343304E+03  0.10859254340E+04 -0.11632800144E+04  0.16543547797E+04  0.12699999809E+01 0. -1.
</event>
<event>
 5   0  0.1499888E-06  0.2801667E+04  0.7818609E-02  0.8302751E-01
       -2   -1    0    0    0  501  0.00000000000E+00  0.00000000000E+00  0.92004451735E+03  0.92004451736E+03  0.25500000920E-02 0.  1.
        2   -1    0    0  501    0  0.00000000000E+00  0.00000000000E+00 -0.21328690740E+04  0.21328690740E+04  0.25500000920E-02 0. -1.
    10030    2    1    2    0    0  0.00000000000E+00  0.00000000000E+00 -0.12128245567E+04  0.30529135914E+04  0.28016670022E+04 0.  0.
        3    1    3    3  502    0 -0.46828498715E+02  0.64360858308E+03  0.74843405488E+03  0.98821984458E+03  0.10100000352E+00 0.  1.
       -3    1    3    3    0  502  0.46828498715E+02 -0.64360858308E+03 -0.19612586116E+04  0.20646937468E+04  0.10100000352E+00 0. -1.
</event>
<event>
 5   0  0.1394410E-06  0.2811387E+04  0.7818609E-02  0.8299742E-01
       -2   -1    0    0    0  501  0.00000000000E+00  0.00000000000E+00  0.12356434430E+04  0.12356434430E+04  0.25500000920E-02 0.  1.
        2   -1    0    0  501    0  0.00000000000E+00  0.00000000000E+00 -0.15991462020E+04  0.15991462020E+04  0.25500000920E-02 0. -1.
    10030    2    1    2    0    0  0.00000000000E+00  0.00000000000E+00 -0.36350275900E+03  0.28347896450E+04  0.28113872155E+04 0.  0.
        4    1    3    3  502    0  0.93228369891E+03  0.94867851286E+03 -0.64032174182E+03  0.14761969252E+04  0.12699999809E+01 0. -1.
       -4    1    3    3    0  502 -0.93228369891E+03 -0.94867851286E+03  0.27681898282E+03  0.13585927198E+04  0.12699999809E+01 0.  1.
</event>
<event>
 5   0  0.5297741E-07  0.2799490E+04  0.7818609E-02  0.8303427E-01
       -1   -1    0    0    0  501  0.00000000000E+00  0.00000000000E+00  0.91128693061E+03  0.91128693062E+03  0.50400001928E-02 0. -1.
        1   -1    0    0  501    0  0.00000000000E+00  0.00000000000E+00 -0.21500203271E+04  0.21500203271E+04  0.50400001928E-02 0.  1.
    10030    2    1    2    0    0  0.00000000000E+00  0.00000000000E+00 -0.12387333965E+04  0.30613072577E+04  0.27994895425E+04 0.  0.
        5    1    3    3  502    0 -0.41151152848E+03 -0.13023432492E+04 -0.95431999145E+03  0.16661897890E+04  0.46999998093E+01 0.  1.
       -5    1    3    3    0  502  0.41151152848E+03  0.13023432492E+04 -0.28441340505E+03  0.13951174688E+04  0.46999998093E+01 0. -1.
</event>
<event>
 5   0  0.5214658E-07  0.2799276E+04  0.7818609E-02  0.8303493E-01
        1   -1    0    0  501    0  0.00000000000E+00  0.00000000000E+00  0.22397185818E+04  0.22397185818E+04  0.50400001928E-02 0.  1.
       -1   -1    0    0    0  501  0.00000000000E+00  0.00000000000E+00 -0.87465718685E+03  0.87465718687E+03  0.50400001928E-02 0. -1.
    10030    2    1    2    0    0  0.00000000000E+00  0.00000000000E+00  0.13650613949E+04  0.31143757686E+04  0.27992755878E+04 0.  0.
        2    1    3    3  502    0  0.98166211059E+03 -0.60112411450E+03 -0.20332199205E+03  0.11689099764E+04  0.25500000920E-02 0. -1.
       -2    1    3    3    0  502 -0.98166211059E+03  0.60112411450E+03  0.15683833870E+04  0.19454657923E+04  0.25500000920E-02 0.  1.
</event>
<event>
 5   0  0.1394410E-06  0.2802747E+04  0.7818609E-02  0.8302416E-01
       -2   -1    0    0    0  501  0.00000000000E+00  0.00000000000E+00  0.10597734372E+04  0.10597734372E+04  0.25500000920E-02 0.  1.
        2   -1    0    0  501    0  0.00000000000E+00  0.00000000000E+00 -0.18530821524E+04  0.18530821524E+04  0.25500000920E-02 0. -1.
    10030    2    1    2    0    0  0.00000000000E+00  0.00000000000E+00 -0.79330871516E+03  0.29128555896E+04  0.28027466829E+04 0.  0.
        4    1    3    3  502    0 -0.36115521419E+03 -0.63193314019E+03 -0.16412284137E+04  0.17953843325E+04  0.12699999809E+01 0. -1.
       -4    1    3    3    0  502  0.36115521419E+03  0.63193314019E+03  0.84791969859E+03  0.11174712571E+04  0.12699999809E+01 0.  1.
</event>
<event>
 5   0  0.1499888E-06  0.2805256E+04  0.7818609E-02  0.8301638E-01
        2   -1    0    0  501    0  0.00000000000E+00  0.00000000000E+00  0.21272297179E+04  0.21272297179E+04  0.25500000920E-02 0.  1.
       -2   -1    0    0    0  501  0.00000000000E+00  0.00000000000E+00 -0.92484883568E+03  0.92484883568E+03  0.25500000920E-02 0. -1.
    10030    2    1    2    0    0  0.00000000000E+00  0.00000000000E+00  0.12023808822E+04  0.30520785535E+04  0.28052564430E+04 0.  0.
        3    1    3    3  502    0 -0.17910977954E+03  0.80560707790E+03 -0.63274198391E+03  0.10399257211E+04  0.10100000352E+00 0. -1.
       -3    1    3    3    0  502  0.17910977954E+03 -0.80560707790E+03  0.18351228661E+04  0.20121528324E+04  0.10100000352E+00 0.  1.
</event>
<event>
 5   0  0.4710000E-07  0.2795538E+04  0.7818609E-02  0.8304655E-01
       -3   -1    0    0    0  501  0.00000000000E+00  0.00000000000E+00  0.13878388186E+04  0.13878388222E+04  0.10100000352E+00 0.  1.
        3   -1    0    0  501    0  0.00000000000E+00  0.00000000000E+00 -0.14077704714E+04  0.14077704751E+04  0.10100000352E+00 0. -1.
    10030    2    1    2    0    0  0.00000000000E+00  0.00000000000E+00 -0.19931652875E+02  0.27956092973E+04  0.27955382438E+04 0.  0.
        3    1    3    3  502    0  0.48320146466E+03  0.13077715003E+04 -0.11001113725E+03  0.13985179344E+04  0.10100000352E+00 0. -1.
       -3    1    3    3    0  502 -0.48320146466E+03 -0.13077715003E+04  0.90079484376E+02  0.13970913628E+04  0.10100000352E+00 0.  1.
</event>
<event>
 5   0  0.1377807E-06  0.2801719E+04  0.7818609E-02  0.8302735E-01
        2   -1    0    0  501    0  0.00000000000E+00  0.00000000000E+00  0.19477418955E+04  0.19477418955E+04  0.25500000920E-02 0.  1.
       -2   -1    0    0    0  501  0.00000000000E+00  0.00000000000E+00 -0.10075296869E+04  0.10075296869E+04  0.25500000920E-02 0. -1.
    10030    2    1    2    0    0  0.00000000000E+00  0.00000000000E+00  0.94021220862E+03  0.29552715824E+04  0.28017193165E+04 0.  0.
        2    1    3    3  502    0 -0.51134247464E+03 -0.14374268040E+03 -0.89719107259E+03  0.10426336391E+04  0.25500000920E-02 0. -1.
       -2    1    3    3    0  502  0.51134247464E+03  0.14374268040E+03  0.18374032812E+04  0.19126379433E+04  0.25500000920E-02 0.  1.
</event>
<event>
 5   0  0.1394410E-06  0.2800743E+04  0.7818609E-02  0.8303038E-01
       -2   -1    0    0    0  501  0.00000000000E+00  0.00000000000E+00  0.20473293218E+04  0.20473293218E+04  0.25500000920E-02 0. -1.
        2   -1    0    0  501    0  0.00000000000E+00  0.00000000000E+00 -0.95785272668E+03  0.95785272669E+03  0.25500000920E-02 0.  1.
    10030    2    1    2    0    0  0.00000000000E+00  0.00000000000E+00  0.10894765951E+04  0.30051820485E+04  0.28007427396E+04 0.  0.
        4    1    3    3  502    0  0.57609756924E+03  0.71079103420E+03 -0.59280107407E+03  0.10901958677E+04  0.12699999809E+01 0.  1.
       -4    1    3    3    0  502 -0.57609756924E+03 -0.71079103420E+03  0.16822776692E+04  0.19149861808E+04  0.12699999809E+01 0. -1.
</event>
<event>
 5   0  0.5362952E-07  0.2784230E+04  0.7818609E-02  0.8308181E-01
       -1   -1    0    0    0  501  0.00000000000E+00  0.00000000000E+00  0.15094789481E+04  0.15094789481E+04  0.50400001928E-02 0. -1.
        1   -1    0    0  501    0  0.00000000000E+00  0.00000000000E+00 -0.12838759643E+04  0.12838759643E+04  0.50400001928E-02 0.  1.
    10030    2    1    2    0    0  0.00000000000E+00  0.00000000000E+00  0.22560298379E+03  0.27933549124E+04  0.27842296889E+04 0.  0.
        1    1    3    3  502    0  0.35417991211E+03 -0.13455961373E+04  0.15666394193E+03  0.14002199705E+04  0.50400001928E-02 0. -1.
       -1    1    3    3    0  502 -0.35417991211E+03  0.13455961373E+04  0.68939041862E+02  0.13931349419E+04  0.50400001928E-02 0.  1.
</event>
<event>
 5   0  0.1377807E-06  0.2803219E+04  0.7818609E-02  0.8302270E-01
       -2   -1    0    0    0  501  0.00000000000E+00  0.00000000000E+00  0.91025011273E+03  0.91025011274E+03  0.25500000920E-02 0. -1.
        2   -1    0    0  501    0  0.00000000000E+00  0.00000000000E+00 -0.21582087726E+04  0.21582087726E+04  0.25500000920E-02 0.  1.
    10030    2    1    2    0    0  0.00000000000E+00  0.00000000000E+00 -0.12479586599E+04  0.30684588854E+04  0.28032194196E+04 0.  0.
        2    1    3    3  502    0 -0.13368430059E+04  0.10846762227E+03 -0.10694173255E+04  0.17153914607E+04  0.25500000920E-02 0.  1.
       -2    1    3    3    0  502  0.13368430059E+04 -0.10846762227E+03 -0.17854133437E+03  0.13530674246E+04  0.25500000920E-02 0. -1.
</event>
<event>
 5   0  0.5297741E-07  0.2800559E+04  0.7818609E-02  0.8303095E-01
       -1   -1    0    0    0  501  0.00000000000E+00  0.00000000000E+00  0.81972769346E+03  0.81972769347E+03  0.50400001928E-02 0.  1.
        1   -1    0    0  501    0  0.00000000000E+00  0.00000000000E+00 -0.23919932398E+04  0.23919932398E+04  0.50400001928E-02 0. -1.
    10030    2    1    2    0    0  0.00000000000E+00  0.00000000000E+00 -0.15722655463E+04  0.32117209333E+04  0.28005593022E+04 0.  0.
        5    1    3    3  502    0  0.18756318681E+03 -0.11950156023E+04 -0.15950382299E+04  0.20018519635E+04  0.46999998093E+01 0. -1.
       -5    1    3    3    0  502 -0.18756318681E+03  0.11950156023E+04  0.22772683575E+02  0.12098689698E+04  0.46999998093E+01 0.  1.
</event>
<event>
 5   0  0.5551565E-07  0.2796844E+04  0.7818609E-02  0.8304249E-01
       -1   -1    0    0    0  501  0.00000000000E+00  0.00000000000E+00  0.12830611321E+04  0.12830611321E+04  0.50400001928E-02 0.  1.
        1   -1    0    0  501    0  0.00000000000E+00  0.00000000000E+00 -0.15241552341E+04  0.15241552341E+04  0.50400001928E-02 0. -1.
    10030    2    1    2    0    0  0.00000000000E+00  0.00000000000E+00 -0.24109410206E+03  0.28072163662E+04  0.27968441788E+04 0.  0.
        3    1    3    3  502    0  0.62643601950E+03  0.10666053177E+04  0.53418744995E+03  0.13473771678E+04  0.10100000352E+00 0.  1.
       -3    1    3    3    0  502 -0.62643601950E+03 -0.10666053177E+04 -0.77528155201E+03  0.14598391985E+04  0.10100000352E+00 0. -1.
</event>
<event>
 5   0  0.1439207E-06  0.2796323E+04  0.7818609E-02  0.8304411E-01
        2   -1    0    0  501    0  0.00000000000E+00  0.00000000000E+00  0.26759583048E+04  0.26759583048E+04  0.25500000920E-02 0. -1.
       -2   -1    0    0    0  501  0.00000000000E+00  0.00000000000E+00 -0.73052559855E+03  0.73052559856E+03  0.25500000920E-02 0.  1.
    10030    2    1    2    0    0  0.00000000000E+00  0.00000000000E+00  0.19454327062E+04  0.34064839033E+04  0.27963233306E+04 0.  0.
        5    1    3    3  502    0  0.13704455725E+04 -0.27513285285E+03  0.93390946408E+03  0.16810794541E+04  0.46999998093E+01 0. -1.
       -5    1    3    3    0  502 -0.13704455725E+04  0.27513285285E+03  0.10115232422E+04  0.17254044492E+04  0.46999998093E+01 0.  1.
</event>
<event>
 5   0  0.5297741E-07  0.2804055E+04  0.7818609E-02  0.8302011E-01
       -1   -1    0    0    0  501  0.00000000000E+00  0.00000000000E+00  0.89026027069E+03  0.89026027071E+03  0.50400001928E-02 0.  1.
        1   -1    0    0  501    0  0.00000000000E+00  0.00000000000E+00 -0.22079844952E+04  0.22079844952E+04  0.50400001928E-02 0. -1.
    10030    2    1    2    0    0  0.00000000000E+00  0.00000000000E+00 -0.13177242245E+04  0.30982447659E+04  0.28040548314E+04 0.  0.
        5    1    3    3  502    0  0.13523843817E+04 -0.21575568090E+03 -0.32708408075E+03  0.14080128250E+04  0.46999998093E+01 0. -1.
       -5    1    3    3    0  502 -0.13523843817E+04  0.21575568090E+03 -0.99064014377E+03  0.16902319409E+04  0.46999998093E+01 0.  1.
</event>
<event>
 5   0  0.1499888E-06  0.2799608E+04  0.7818609E-02  0.8303390E-01
       -2   -1    0    0    0  501  0.00000000000E+00  0.00000000000E+00  0.11885378903E+04  0.11885378903E+04  0.25500000920E-02 0.  1.
        2   -1    0    0  501    0  0.00000000000E+00  0.00000000000E+00 -0.16486231553E+04  0.16486231553E+04  0.25500000920E-02 0. -1.
    10030    2    1    2    0    0  0.00000000000E+00  0.00000000000E+00 -0.46008526505E+03  0.28371610456E+04  0.27996078918E+04 0.  0.
        3    1    3    3  502    0 -0.11276199190E+04  0.26906933895E+03 -0.10251211343E+04  0.15475135997E+04  0.10100000352E+00 0. -1.
       -3    1    3    3    0  502  0.11276199190E+04 -0.26906933895E+03  0.56503586930E+03  0.12896474459E+04  0.10100000352E+00 0.  1.
</event>
<event>
 5   0  0.5362952E-07  0.2797937E+04  0.7818609E-02  0.8303909E-01
       -1   -1    0    0    0  501  0.00000000000E+00  0.00000000000E+00  0.13987302082E+04  0.13987302082E+04  0.50400001928E-02 0.  1.
        1   -1    0    0  501    0  0.00000000000E+00  0.00000000000E+00 -0.13992070678E+04  0.13992070678E+04  0.50400001928E-02 0. -1.
    10030    2    1    2    0    0  0.00000000000E+00  0.00000000000E+00 -0.47685960867E+00  0.27979372761E+04  0.27979372354E+04 0.  0.
        1    1    3    3  502    0  0.45170752364E+03 -0.21613232304E+03 -0.13065157261E+04  0.13991912702E+04  0.50400001928E-02 0. -1.
       -1    1    3    3    0  502 -0.45170752364E+03  0.21613232304E+03  0.13060388665E+04  0.13987460059E+04  0.50400001928E-02 0.  1.
</event>
<event>
 5   0  0.5297741E-07  0.2799126E+04  0.7818609E-02  0.8303540E-01
       -1   -1    0    0    0  501  0.00000000000E+00  0.00000000000E+00  0.78244083421E+03  0.78244083423E+03  0.50400001928E-02 0.  1.
        1   -1    0    0  501    0  0.00000000000E+00  0.00000000000E+00 -0.25034188134E+04  0.25034188134E+04  0.50400001928E-02 0. -1.
    10030    2    1    2    0    0  0.00000000000E+00  0.00000000000E+00 -0.17209779792E+04  0.32858596476E+04  0.27991263671E+04 0.  0.
        5    1    3    3  502    0 -0.22465429415E+03 -0.10800448996E+04  0.15054683707E+03  0.11133970438E+04  0.46999998093E+01 0.  1.
       -5    1    3    3    0  502  0.22465429415E+03  0.10800448996E+04 -0.18715248162E+04  0.21724626038E+04  0.46999998093E+01 0. -1.
</event>
<event>
 5   0  0.1499888E-06  0.2802261E+04  0.7818609E-02  0.8302567E-01
        2   -1    0    0  501    0  0.00000000000E+00  0.00000000000E+00  0.15644604249E+04  0.15644604249E+04  0.25500000920E-02 0. -1.
       -2   -1    0    0    0  501  0.00000000000E+00  0.00000000000E+00 -0.12548525932E+04  0.12548525932E+04  0.25500000920E-02 0.  1.
    10030    2    1    2    0    0  0.00000000000E+00  0.00000000000E+00  0.30960783170E+03  0.28193130181E+04  0.28022613876E+04 0.  0.
        3    1    3    3  502    0 -0.25863817433E+03 -0.81195190124E+03  0.12737800934E+04  0.15325388516E+04  0.10100000352E+00 0. -1.
       -3    1    3    3    0  502  0.25863817433E+03  0.81195190124E+03 -0.96417226168E+03  0.12867741665E+04  0.10100000352E+00 0.  1.
</event>
<event>
 5   0  0.1439207E-06  0.2800325E+04  0.7818609E-02  0.8303167E-01
        2   -1    0    0  501    0  0.00000000000E+00  0.00000000000E+00  0.14914485109E+04  0.14914485109E+04  0.25500000920E-02 0.  1.
       -2   -1    0    0    0  501  0.00000000000E+00  0.00000000000E+00 -0.13144638220E+04  0.13144638220E+04  0.25500000920E-02 0. -1.
    10030    2    1    2    0    0  0.00000000000E+00  0.00000000000E+00  0.17698468893E+03  0.28059123329E+04  0.28003250596E+04 0.  0.
        5    1    3    3  502    0  0.35766998264E+03  0.24760854847E+03 -0.12450256045E+04  0.13188436813E+04  0.46999998093E+01 0. -1.
       -5    1    3    3    0  502 -0.35766998264E+03 -0.24760854847E+03  0.14220102935E+04  0.14870686516E+04  0.46999998093E+01 0.  1.
</event>
<event>
 5   0  0.1439207E-06  0.2803841E+04  0.7818609E-02  0.8302077E-01
       -2   -1    0    0    0  501  0.00000000000E+00  0.00000000000E+00  0.71056077556E+03  0.71056077557E+03  0.25500000920E-02 0. -1.
        2   -1    0    0  501    0  0.00000000000E+00  0.00000000000E+00 -0.27659575307E+04  0.27659575307E+04  0.25500000920E-02 0.  1.
    10030    2    1    2    0    0  0.00000000000E+00  0.00000000000E+00 -0.20553967551E+04  0.34765183063E+04  0.28038408858E+04 0.  0.
        5    1    3    3  502    0  0.92835133780E+03 -0.30908547352E+03 -0.22725540710E+04  0.24742461745E+04  0.46999998093E+01 0.  1.
       -5    1    3    3    0  502 -0.92835133780E+03  0.30908547352E+03  0.21715731585E+03  0.10022721318E+04  0.46999998093E+01 0. -1.
</event>
<event>
 5   0  0.5282098E-07  0.2797195E+04  0.7818609E-02  0.8304140E-01
        1   -1    0    0  501    0  0.00000000000E+00  0.00000000000E+00  0.18868637452E+04  0.18868637453E+04  0.50400001928E-02 0. -1.
       -1   -1    0    0    0  501  0.00000000000E+00  0.00000000000E+00 -0.10366808469E+04  0.10366808469E+04  0.50400001928E-02 0.  1.
    10030    2    1    2    0    0  0.00000000000E+00  0.00000000000E+00  0.85018289832E+03  0.29235445922E+04  0.27971953850E+04 0.  0.
        4    1    3    3  502    0  0.25059121512E+03  0.21634152723E+03  0.18453210189E+04  0.18747828912E+04  0.12699999809E+01 0. -1.
       -4    1    3    3    0  502 -0.25059121512E+03 -0.21634152723E+03 -0.99513812058E+03  0.10487617010E+04  0.12699999809E+01 0.  1.
</event>
<event>
 5   0  0.4710000E-07  0.2800744E+04  0.7818609E-02  0.8303037E-01
        3   -1    0    0  501    0  0.00000000000E+00  0.00000000000E+00  0.26008681076E+04  0.26008681095E+04  0.10100000352E+00 0.  1.
       -3   -1    0    0    0  501  0.00000000000E+00  0.00000000000E+00 -0.75399530630E+03  0.75399531306E+03  0.10100000352E+00 0. -1.
    10030    2    1    2    0    0  0.00000000000E+00  0.00000000000E+00  0.18468728013E+04  0.33548634226E+04  0.28007444439E+04 0.  0.
        4    1    3    3  502    0  0.12498534403E+04  0.12576130637E+03  0.16648361930E+04  0.20855768245E+04  0.12699999809E+01 0.  1.
       -4    1    3    3    0  502 -0.12498534403E+04 -0.12576130637E+03  0.18203660830E+03  0.12692865981E+04  0.12699999809E+01 0. -1.
</event>
<event>
 5   0  0.5282098E-07  0.2797435E+04  0.7818609E-02  0.8304065E-01
       -1   -1    0    0    0  501  0.00000000000E+00  0.00000000000E+00  0.10799844172E+04  0.10799844172E+04  0.50400001928E-02 0. -1.
        1   -1    0    0  501    0  0.00000000000E+00  0.00000000000E+00 -0.18115173448E+04  0.18115173448E+04  0.50400001928E-02 0.  1.
    10030    2    1    2    0    0  0.00000000000E+00  0.00000000000E+00 -0.73153292759E+03  0.28915017620E+04  0.27974348993E+04 0.  0.
        4    1    3    3  502    0  0.19709120997E+03 -0.27003835960E+03  0.10380801665E+04  0.10905859460E+04  0.12699999809E+01 0. -1.
       -4    1    3    3    0  502 -0.19709120997E+03  0.27003835960E+03 -0.17696130941E+04  0.18009158160E+04  0.12699999809E+01 0.  1.
</event>
<event>
 5   0  0.5551565E-07  0.2827974E+04  0.7818609E-02  0.8294636E-01
        1   -1    0    0  501    0  0.00000000000E+00  0.00000000000E+00  0.78450681643E+03  0.78450681645E+03  0.50400001928E-02 0.  1.
       -1   -1    0    0    0  501  0.00000000000E+00  0.00000000000E+00 -0.25485550983E+04  0.25485550983E+04  0.50400001928E-02 0. -1.
    10030    2    1    2    0    0  0.00000000000E+00  0.00000000000E+00 -0.17640482818E+04  0.33330619147E+04  0.28279737245E+04 0.  0.
        3    1    3    3  502    0  0.10342618562E+04  0.37805393232E+03  0.16337623895E+03  0.11132448825E+04  0.10100000352E+00 0.  1.
       -3    1    3    3    0  502 -0.10342618562E+04 -0.37805393232E+03 -0.19274245208E+04  0.22198170322E+04  0.10100000352E+00 0. -1.
</event>
<event>
 5   0  0.5362952E-07  0.2798187E+04  0.7818609E-02  0.8303832E-01
        1   -1    0    0  501    0  0.00000000000E+00  0.00000000000E+00  0.26247531988E+04  0.26247531988E+04  0.50400001928E-02 0.  1.
       -1   -1    0    0    0  501  0.00000000000E+00  0.00000000000E+00 -0.74576992363E+03  0.74576992364E+03  0.50400001928E-02 0. -1.
    10030    2    1    2    0    0  0.00000000000E+00  0.00000000000E+00  0.18789832752E+04  0.33705231224E+04  0.27981865504E+04 0.  0.
        1    1    3    3  502    0  0.25749369182E+03  0.83951922068E+03  0.22514802872E+04  0.24166627830E+04  0.50400001928E-02 0.  1.
       -1    1    3    3    0  502 -0.25749369182E+03 -0.83951922068E+03 -0.37249701199E+03  0.95386033945E+03  0.50400001928E-02 0. -1.
</event>
<event>
 5   0  0.1499888E-06  0.2790857E+04  0.7818609E-02  0.8306112E-01
       -2   -1    0    0    0  501  0.00000000000E+00  0.00000000000E+00  0.17009042379E+04  0.17009042379E+04  0.25500000920E-02 0.  1.
        2   -1    0    0  501    0  0.00000000000E+00  0.00000000000E+00 -0.11448152389E+04  0.11448152390E+04  0.25500000920E-02 0. -1.
    10030    2    1    2    0    0  0.00000000000E+00  0.00000000000E+00  0.55608899893E+03  0.28457194768E+04  0.27908572816E+04 0.  0.
        3    1    3    3  502    0  0.31322779343E+03  0.12544453405E+04 -0.25713145632E+03  0.13182796967E+04  0.10100000352E+00 0. -1.
       -3    1    3    3    0  502 -0.31322779343E+03 -0.12544453405E+04  0.81322045525E+03  0.15274397801E+04  0.10100000352E+00 0.  1.
</event>
<event>
 5   0  0.1439207E-06  0.2803453E+04  0.7818609E-02  0.8302197E-01
        2   -1    0    0  501    0  0.00000000000E+00  0.00000000000E+00  0.11026410773E+04  0.11026410773E+04  0.25500000920E-02 0. -1.
       -2   -1    0    0    0  501  0.00000000000E+00  0.00000000000E+00 -0.17819368137E+04  0.17819368137E+04  0.25500000920E-02 0.  1.
    10030    2    1    2    0    0  0.00000000000E+00  0.00000000000E+00 -0.67929573641E+03  0.28845778910E+04  0.28034526769E+04 0.  0.
        5    1    3    3  502    0  0.76375582904E+03  0.59333888215E+03 -0.13836219004E+04  0.16881367387E+04  0.46999998093E+01 0.  1.
       -5    1    3    3    0  502 -0.76375582904E+03 -0.59333888215E+03  0.70432616398E+03  0.11964411522E+04  0.46999998093E+01 0. -1.
</event>
<event>
 5   0  0.1439207E-06  0.2801041E+04  0.7818609E-02  0.8302945E-01
       -2   -1    0    0    0  501  0.00000000000E+00  0.00000000000E+00  0.11237698763E+04  0.11237698763E+04  0.25500000920E-02 0.  1.
        2   -1    0    0  501    0  0.00000000000E+00  0.00000000000E+00 -0.17454262070E+04  0.17454262070E+04  0.25500000920E-02 0. -1.
    10030    2    1    2    0    0  0.00000000000E+00  0.00000000000E+00 -0.62165633069E+03  0.28691960833E+04  0.28010408014E+04 0.  0.
        5    1    3    3  502    0  0.72809183523E+03 -0.96929021884E+03 -0.10291721032E+04  0.15902385220E+04  0.46999998093E+01 0. -1.
       -5    1    3    3    0  502 -0.72809183523E+03  0.96929021884E+03  0.40751577250E+03  0.12789575613E+04  0.46999998093E+01 0.  1.
</event>
<event>
 5   0  0.5362952E-07  0.2800548E+04  0.7818609E-02  0.8303098E-01
       -1   -1    0    0    0  501  0.00000000000E+00  0.00000000000E+00  0.10289692411E+04  0.10289692411E+04  0.50400001928E-02 0. -1.
        1   -1    0    0  501    0  0.00000000000E+00  0.00000000000E+00 -0.19055641130E+04  0.19055641130E+04  0.50400001928E-02 0.  1.
    10030    2    1    2    0    0  0.00000000000E+00  0.00000000000E+00 -0.87659487189E+03  0.29345333541E+04  0.28005477030E+04 0.  0.
        1    1    3    3  502    0  0.15289444554E+03 -0.13552861543E+04 -0.77062976383E+03  0.15665399785E+04  0.50400001928E-02 0.  1.
       -1    1    3    3    0  502 -0.15289444554E+03  0.13552861543E+04 -0.10596510807E+03  0.13679933756E+04  0.50400001928E-02 0. -1.
</event>
<event>
 5   0  0.1461146E-06  0.2824815E+04  0.7818609E-02  0.8295606E-01
        2   -1    0    0  501    0  0.00000000000E+00  0.00000000000E+00  0.13647758467E+04  0.13647758467E+04  0.25500000920E-02 0. -1.
       -2   -1    0    0    0  501  0.00000000000E+00  0.00000000000E+00 -0.14617013184E+04  0.14617013184E+04  0.25500000920E-02 0.  1.
    10030    2    1    2    0    0  0.00000000000E+00  0.00000000000E+00 -0.96925471641E+02  0.28264771651E+04  0.28248147935E+04 0.  0.
        1    1    3    3  502    0  0.12051758195E+03 -0.64584019019E+03 -0.12995027349E+04  0.14561392093E+04  0.50400001928E-02 0.  1.
       -1    1    3    3    0  502 -0.12051758195E+03  0.64584019019E+03  0.12025772633E+04  0.13703379558E+04  0.50400001928E-02 0. -1.
</event>
<event>
 5   0  0.1461146E-06  0.2876121E+04  0.7818609E-02  0.8280018E-01
        2   -1    0    0  501    0  0.00000000000E+00  0.00000000000E+00  0.21386424741E+04  0.21386424741E+04  0.25500000920E-02 0. -1.
       -2   -1    0    0    0  501  0.00000000000E+00  0.00000000000E+00 -0.96697719419E+03  0.96697719419E+03  0.25500000920E-02 0.  1.
    10030    2    1    2    0    0  0.00000000000E+00  0.00000000000E+00  0.11716652799E+04  0.31056196683E+04  0.28761213458E+04 0.  0.
        1    1    3    3  502    0  0.84988014319E+03 -0.74264611162E+03 -0.37645682120E+03  0.11897643646E+04  0.50400001928E-02 0.  1.
       -1    1    3    3    0  502 -0.84988014319E+03  0.74264611162E+03  0.15481221011E+04  0.19158553037E+04  0.50400001928E-02 0. -1.
</event>
<event>
 5   0  0.5551565E-07  0.2796637E+04  0.7818609E-02  0.8304313E-01
       -1   -1    0    0    0  501  0.00000000000E+00  0.00000000000E+00  0.12631800292E+04  0.12631800292E+04  0.50400001928E-02 0. -1.
        1   -1    0    0  501    0  0.00000000000E+00  0.00000000000E+00 -0.15479145769E+04  0.15479145769E+04  0.50400001928E-02 0.  1.
    10030    2    1    2    0    0  0.00000000000E+00  0.00000000000E+00 -0.28473454769E+03  0.28110946062E+04  0.27966371095E+04 0.  0.
        3    1    3    3  502    0  0.76439648515E+02 -0.11029419227E+04  0.71819579019E+03  0.13183812453E+04  0.10100000352E+00 0. -1.
       -3    1    3    3    0  502 -0.76439648515E+02  0.11029419227E+04 -0.10029303379E+04  0.14927133608E+04  0.10100000352E+00 0.  1.
</event>
<event>
 5   0  0.1394410E-06  0.2798484E+04  0.7818609E-02  0.8303739E-01
       -2   -1    0    0    0  501  0.00000000000E+00  0.00000000000E+00  0.18801929321E+04  0.18801929321E+04  0.25500000920E-02 0.  1.
        2   -1    0    0  501    0  0.00000000000E+00  0.00000000000E+00 -0.10413178569E+04  0.10413178569E+04  0.25500000920E-02 0. -1.
    10030    2    1    2    0    0  0.00000000000E+00  0.00000000000E+00  0.83887507517E+03  0.29215107890E+04  0.27984842144E+04 0.  0.
        4    1    3    3  502    0  0.93661451274E+03  0.79695877363E+03 -0.27735271610E+03  0.12606808376E+04  0.12699999809E+01 0. -1.
       -4    1    3    3    0  502 -0.93661451274E+03 -0.79695877363E+03  0.11162277913E+04  0.16608299513E+04  0.12699999809E+01 0.  1.
</event>
<event>
 5   0  0.5214658E-07  0.2802728E+04  0.7818609E-02  0.8302422E-01
        1   -1    0    0  501    0  0.00000000000E+00  0.00000000000E+00  0.12459363126E+04  0.12459363126E+04  0.50400001928E-02 0.  1.
       -1   -1    0    0    0  501  0.00000000000E+00  0.00000000000E+00 -0.15761806220E+04  0.15761806220E+04  0.50400001928E-02 0. -1.
    10030    2    1    2    0    0  0.00000000000E+00  0.00000000000E+00 -0.33024430937E+03  0.28221169346E+04  0.28027277229E+04 0.  0.
        2    1    3    3  502    0  0.35443135938E+02  0.43176890036E+02  0.12448147994E+04  0.12460675522E+04  0.25500000920E-02 0.  1.
       -2    1    3    3    0  502 -0.35443135938E+02 -0.43176890036E+02 -0.15750591088E+04  0.15760493824E+04  0.25500000920E-02 0. -1.
</event>
<event>
 5   0  0.1377807E-06  0.2793870E+04  0.7818609E-02  0.8305174E-01
        2   -1    0    0  501    0  0.00000000000E+00  0.00000000000E+00  0.14424704168E+04  0.14424704168E+04  0.25500000920E-02 0.  1.
       -2   -1    0    0    0  501  0.00000000000E+00  0.00000000000E+00 -0.13528373232E+04  0.13528373232E+04  0.25500000920E-02 0. -1.
    10030    2    1    2    0    0  0.00000000000E+00  0.00000000000E+00  0.89633093508E+02  0.27953077400E+04  0.27938703030E+04 0.  0.
        2    1    3    3  502    0  0.31512820817E+03 -0.76283539921E+02 -0.13146698171E+04  0.13540611855E+04  0.25500000920E-02 0. -1.
       -2    1    3    3    0  502 -0.31512820817E+03  0.76283539921E+02  0.14043029106E+04  0.14412465545E+04  0.25500000920E-02 0.  1.
</event>
<event>
 5   0  0.5362952E-07  0.2789736E+04  0.7818609E-02  0.8306462E-01
        1   -1    0    0  501    0  0.00000000000E+00  0.00000000000E+00  0.15797094026E+04  0.15797094026E+04  0.50400001928E-02 0. -1.
       -1   -1    0    0    0  501  0.00000000000E+00  0.00000000000E+00 -0.12316551419E+04  0.12316551419E+04  0.50400001928E-02 0.  1.
    10030    2    1    2    0    0  0.00000000000E+00  0.00000000000E+00  0.34805426070E+03  0.28113645445E+04  0.27897363377E+04 0.  0.
        1    1    3    3  502    0 -0.55304842638E+03 -0.73603080688E+03 -0.88197723712E+03  0.12749461782E+04  0.50400001928E-02 0.  1.
       -1    1    3    3    0  502  0.55304842638E+03  0.73603080688E+03  0.12300314978E+04  0.15364183663E+04  0.50400001928E-02 0. -1.
</event>
<event>
 5   0  0.1377807E-06  0.2803504E+04  0.7818609E-02  0.8302181E-01
       -2   -1    0    0    0  501  0.00000000000E+00  0.00000000000E+00  0.92418839381E+03  0.92418839381E+03  0.25500000920E-02 0.  1.
        2   -1    0    0  501    0  0.00000000000E+00  0.00000000000E+00 -0.21260909970E+04  0.21260909970E+04  0.25500000920E-02 0. -1.
    10030    2    1    2    0    0  0.00000000000E+00  0.00000000000E+00 -0.12019026032E+04  0.30502793908E+04  0.28035039673E+04 0.  0.
        2    1    3    3  502    0 -0.12196517746E+04 -0.46864052005E+03 -0.48588401958E+02  0.13074919583E+04  0.25500000920E-02 0.  1.
       -2    1    3    3    0  502  0.12196517746E+04  0.46864052005E+03 -0.11533142012E+04  0.17427874325E+04  0.25500000920E-02 0. -1.
</event>
<event>
 5   0  0.1439207E-06  0.2773265E+04  0.7818609E-02  0.8311617E-01
       -2   -1    0    0    0  501  0.00000000000E+00  0.00000000000E+00  0.12507756453E+04  0.12507756453E+04  0.25500000920E-02 0. -1.
        2   -1    0    0  501    0  0.00000000000E+00  0.00000000000E+00 -0.15372459955E+04  0.15372459955E+04  0.25500000920E-02 0.  1.
    10030    2    1    2    0    0  0.00000000000E+00  0.00000000000E+00 -0.28647035019E+03  0.27880216408E+04  0.27732651168E+04 0.  0.
        5    1    3    3  502    0 -0.39108364811E+03  0.81756306767E+03 -0.11982820653E+04  0.15024173147E+04  0.46999998093E+01 0.  1.
       -5    1    3    3    0  502  0.39108364811E+03 -0.81756306767E+03  0.91181171512E+03  0.12856043261E+04  0.46999998093E+01 0. -1.
</event>
<event>
 5   0  0.1439207E-06  0.2801459E+04  0.7818609E-02  0.8302816E-01
       -2   -1    0    0    0  501  0.00000000000E+00  0.00000000000E+00  0.12440009048E+04  0.12440009048E+04  0.25500000920E-02 0.  1.
        2   -1    0    0  501    0  0.00000000000E+00  0.00000000000E+00 -0.15772039745E+04  0.15772039745E+04  0.25500000920E-02 0. -1.
    10030    2    1    2    0    0  0.00000000000E+00  0.00000000000E+00 -0.33320306972E+03  0.28212048793E+04  0.28014590280E+04 0.  0.
        5    1    3    3  502    0  0.18258557664E+03  0.13765816391E+04 -0.35148909506E+03  0.14324388908E+04  0.46999998093E+01 0.  1.
       -5    1    3    3    0  502 -0.18258557664E+03 -0.13765816391E+04  0.18286025335E+02  0.13887659885E+04  0.46999998093E+01 0. -1.
</event>
<event>
 5   0  0.4710000E-07  0.2801879E+04  0.7818609E-02  0.8302685E-01
       -4   -1    0    0    0  501  0.00000000000E+00  0.00000000000E+00  0.13355632786E+04  0.13355638824E+04  0.12699999809E+01 0. -1.
        4   -1    0    0  501    0  0.00000000000E+00  0.00000000000E+00 -0.14695147885E+04  0.14695153372E+04  0.12699999809E+01 0.  1.
    10030    2    1    2    0    0  0.00000000000E+00  0.00000000000E+00 -0.13395150984E+03  0.28050792197E+04  0.28018790876E+04 0.  0.
        3    1    3    3  502    0 -0.10737987958E+03 -0.47734703381E+03  0.12472462854E+04  0.13397813015E+04  0.10100000352E+00 0. -1.
       -3    1    3    3    0  502  0.10737987958E+03  0.47734703381E+03 -0.13811977952E+04  0.14652979182E+04  0.10100000352E+00 0.  1.
</event>
<event>
 5   0  0.5551565E-07  0.2800395E+04  0.7818609E-02  0.8303146E-01
        1   -1    0    0  501    0  0.00000000000E+00  0.00000000000E+00  0.13509851816E+04  0.13509851816E+04  0.50400001928E-02 0. -1.
       -1   -1    0    0    0  501  0.00000000000E+00  0.00000000000E+00 -0.14512023870E+04  0.14512023870E+04  0.50400001928E-02 0.  1.
    10030    2    1    2    0    0  0.00000000000E+00  0.00000000000E+00 -0.10021720535E+03  0.28021875686E+04  0.28003949152E+04 0.  0.
        3    1    3    3  502    0 -0.20527573352E+03 -0.82332015676E+03 -0.11646253057E+04  0.14409532678E+04  0.10100000352E+00 0.  1.
       -3    1    3    3    0  502  0.20527573352E+03  0.82332015676E+03  0.10644081003E+04  0.13612343007E+04  0.10100000352E+00 0. -1.
</event>
<event>
 5   0  0.5551565E-07  0.2796531E+04  0.7818609E-02  0.8304346E-01
        1   -1    0    0  501    0  0.00000000000E+00  0.00000000000E+00  0.32289192347E+04  0.32289192347E+04  0.50400001928E-02 0.  1.
       -1   -1    0    0    0  501  0.00000000000E+00  0.00000000000E+00 -0.60551114445E+03  0.60551114447E+03  0.50400001928E-02 0. -1.
    10030    2    1    2    0    0  0.00000000000E+00  0.00000000000E+00  0.26234080902E+04  0.38344303792E+04  0.27965311235E+04 0.  0.
        3    1    3    3  502    0 -0.52891800110E+03  0.38075319008E+02  0.30856953189E+04  0.31309295094E+04  0.10100000352E+00 0.  1.
       -3    1    3    3    0  502  0.52891800110E+03 -0.38075319008E+02 -0.46228722863E+03  0.70350086976E+03  0.10100000352E+00 0. -1.
</event>
<event>
 5   0  0.5551565E-07  0.2798245E+04  0.7818609E-02  0.8303813E-01
        1   -1    0    0  501    0  0.00000000000E+00  0.00000000000E+00  0.14558868554E+04  0.14558868554E+04  0.50400001928E-02 0. -1.
       -1   -1    0    0    0  501  0.00000000000E+00  0.00000000000E+00 -0.13445716333E+04  0.13445716333E+04  0.50400001928E-02 0.  1.
    10030    2    1    2    0    0  0.00000000000E+00  0.00000000000E+00  0.11131522210E+03  0.28004584887E+04  0.27982452838E+04 0.  0.
        3    1    3    3  502    0  0.61316223299E+03  0.99960121660E+03 -0.70808006240E+03  0.13698714908E+04  0.10100000352E+00 0.  1.
       -3    1    3    3    0  502 -0.61316223299E+03 -0.99960121660E+03  0.81939528450E+03  0.14305869979E+04  0.10100000352E+00 0. -1.
</event>
<event>
 5   0  0.1461146E-06  0.2803248E+04  0.7818609E-02  0.8302261E-01
       -2   -1    0    0    0  501  0.00000000000E+00  0.00000000000E+00  0.13599085590E+04  0.13599085590E+04  0.25500000920E-02 0.  1.
        2   -1    0    0  501    0  0.00000000000E+00  0.00000000000E+00 -0.14446186254E+04  0.14446186254E+04  0.25500000920E-02 0. -1.
    10030    2    1    2    0    0  0.00000000000E+00  0.00000000000E+00 -0.84710066442E+02  0.28045271844E+04  0.28032475689E+04 0.  0.
        1    1    3    3  502    0 -0.36760300358E+03 -0.53656143380E+03  0.11997909916E+04  0.13647448714E+04  0.50400001928E-02 0.  1.
       -1    1    3    3    0  502  0.36760300358E+03  0.53656143380E+03 -0.12845010581E+04  0.14397823130E+04  0.50400001928E-02 0. -1.
</event>
<event>
 5   0  0.5297741E-07  0.2793761E+04  0.7818609E-02  0.8305208E-01
        1   -1    0    0  501    0  0.00000000000E+00  0.00000000000E+00  0.14603193841E+04  0.14603193841E+04  0.50400001928E-02 0.  1.
       -1   -1    0    0    0  501  0.00000000000E+00  0.00000000000E+00 -0.13361978092E+04  0.13361978092E+04  0.50400001928E-02 0. -1.
    10030    2    1    2    0    0  0.00000000000E+00  0.00000000000E+00  0.12412157496E+03  0.27965171933E+04  0.27937613082E+04 0.  0.
        5    1    3    3  502    0  0.40781394560E+03 -0.11589202161E+04  0.72743085752E+03  0.14277906093E+04  0.46999998093E+01 0.  1.
       -5    1    3    3    0  502 -0.40781394560E+03  0.11589202161E+04 -0.60330928256E+03  0.13687265840E+04  0.46999998093E+01 0. -1.
</event>
<event>
 5   0  0.1461146E-06  0.2804308E+04  0.7818609E-02  0.8301932E-01
       -2   -1    0    0    0  501  0.00000000000E+00  0.00000000000E+00  0.89377339303E+03  0.89377339304E+03  0.25500000920E-02 0.  1.
        2   -1    0    0  501    0  0.00000000000E+00  0.00000000000E+00 -0.21997034730E+04  0.21997034730E+04  0.25500000920E-02 0. -1.
    10030    2    1    2    0    0  0.00000000000E+00  0.00000000000E+00 -0.13059300800E+04  0.30934768661E+04  0.28043084258E+04 0.  0.
        1    1    3    3  502    0 -0.12968275228E+04 -0.29430134809E+02 -0.12402213196E+04  0.17946522444E+04  0.50400001928E-02 0. -1.
       -1    1    3    3    0  502  0.12968275228E+04  0.29430134809E+02 -0.65708760389E+02  0.12988246217E+04  0.50400001928E-02 0.  1.
</event>
<event>
 5   0  0.1499888E-06  0.2797706E+04  0.7818609E-02  0.8303981E-01
       -2   -1    0    0    0  501  0.00000000000E+00  0.00000000000E+00  0.73311988342E+03  0.73311988343E+03  0.25500000920E-02 0.  1.
        2   -1    0    0  501    0  0.00000000000E+00  0.00000000000E+00 -0.26691273100E+04  0.26691273100E+04  0.25500000920E-02 0. -1.
    10030    2    1    2    0    0  0.00000000000E+00  0.00000000000E+00 -0.19360074266E+04  0.34022471934E+04  0.27977064195E+04 0.  0.
        3    1    3    3  502    0 -0.40783258079E+03 -0.87665138008E+03 -0.21973593501E+04  0.24006734846E+04  0.10100000352E+00 0. -1.
       -3    1    3    3    0  502  0.40783258079E+03  0.87665138008E+03  0.26135192347E+03  0.10015737088E+04  0.10100000352E+00 0.  1.
</event>
<event>
 5   0  0.1377807E-06  0.2800879E+04  0.7818609E-02  0.8302996E-01
       -2   -1    0    0    0  501  0.00000000000E+00  0.00000000000E+00  0.18608462891E+04  0.18608462891E+04  0.25500000920E-02 0. -1.
        2   -1    0    0  501    0  0.00000000000E+00  0.00000000000E+00 -0.10539453092E+04  0.10539453092E+04  0.25500000920E-02 0.  1.
    10030    2    1    2    0    0  0.00000000000E+00  0.00000000000E+00  0.80690097985E+03  0.29147915983E+04  0.28008785890E+04 0.  0.
        2    1    3    3  502    0  0.15738579254E+03  0.12063892415E+04  0.11252624948E+04  0.16572148237E+04  0.25500000920E-02 0. -1.
       -2    1    3    3    0  502 -0.15738579254E+03 -0.12063892415E+04 -0.31836151500E+03  0.12575767746E+04  0.25500000920E-02 0.  1.
</event>
<event>
 5   0  0.5214658E-07  0.2801750E+04  0.7818609E-02  0.8302725E-01
       -1   -1    0    0    0  501  0.00000000000E+00  0.00000000000E+00  0.13099425835E+04  0.13099425835E+04  0.50400001928E-02 0. -1.
        1   -1    0    0  501    0  0.00000000000E+00  0.00000000000E+00 -0.14981196442E+04  0.14981196442E+04  0.50400001928E-02 0.  1.
    10030    2    1    2    0    0  0.00000000000E+00  0.00000000000E+00 -0.18817706064E+03  0.28080622277E+04  0.28017499654E+04 0.  0.
        2    1    3    3  502    0 -0.39795111416E+03  0.41843391365E+03  0.11851093164E+04  0.13183080524E+04  0.25500000920E-02 0. -1.
       -2    1    3    3    0  502  0.39795111416E+03 -0.41843391365E+03 -0.13732863770E+04  0.14897541752E+04  0.25500000920E-02 0.  1.
</event>
<event>
 5   0  0.1439207E-06  0.2815581E+04  0.7818609E-02  0.8298447E-01
        2   -1    0    0  501    0  0.00000000000E+00  0.00000000000E+00  0.18424630963E+04  0.18424630963E+04  0.25500000920E-02 0. -1.
       -2   -1    0    0    0  501  0.00000000000E+00  0.00000000000E+00 -0.10756655211E+04  0.10756655211E+04  0.25500000920E-02 0.  1.
    10030    2    1    2    0    0  0.00000000000E+00  0.00000000000E+00  0.76679757521E+03  0.29181286174E+04  0.28155809536E+04 0.  0.
        5    1    3    3  502    0 -0.72967083627E+03  0.72920749353E+03 -0.60945234547E+03  0.11981725040E+04  0.46999998093E+01 0.  1.
       -5    1    3    3    0  502  0.72967083627E+03 -0.72920749353E+03  0.13762499207E+04  0.17199561134E+04  0.46999998093E+01 0. -1.
</event>
<event>
 5   0  0.1439207E-06  0.2799613E+04  0.7818609E-02  0.8303389E-01
       -2   -1    0    0    0  501  0.00000000000E+00  0.00000000000E+00  0.18095972061E+04  0.18095972061E+04  0.25500000920E-02 0. -1.
        2   -1    0    0  501    0  0.00000000000E+00  0.00000000000E+00 -0.10828145484E+04  0.10828145484E+04  0.25500000920E-02 0.  1.
    10030    2    1    2    0    0  0.00000000000E+00  0.00000000000E+00  0.72678265770E+03  0.28924117545E+04  0.27996129601E+04 0.  0.
        5    1    3    3  502    0  0.42309372410E+03 -0.11447879268E+04  0.10715971335E+04  0.16241583061E+04  0.46999998093E+01 0. -1.
       -5    1    3    3    0  502 -0.42309372410E+03  0.11447879268E+04 -0.34481447576E+03  0.12682534484E+04  0.46999998093E+01 0.  1.
</event>
<event>
 5   0  0.1461146E-06  0.2824158E+04  0.7818609E-02  0.8295807E-01
       -2   -1    0    0    0  501  0.00000000000E+00  0.00000000000E+00  0.14112310145E+04  0.14112310145E+04  0.25500000920E-02 0. -1.
        2   -1    0    0  501    0  0.00000000000E+00  0.00000000000E+00 -0.14129271421E+04  0.14129271421E+04  0.25500000920E-02 0.  1.
    10030    2    1    2    0    0  0.00000000000E+00  0.00000000000E+00 -0.16961275327E+01  0.28241581566E+04  0.28241576473E+04 0.  0.
        1    1    3    3  502    0 -0.49362621837E+02 -0.73783624703E+03 -0.12038144516E+04  0.14128015536E+04  0.50400001928E-02 0.  1.
       -1    1    3    3    0  502  0.49362621837E+02  0.73783624703E+03  0.12021183241E+04  0.14113566030E+04  0.50400001928E-02 0. -1.
</event>
<event>
 5   0  0.1394410E-06  0.2800755E+04  0.7818609E-02  0.8303034E-01
       -2   -1    0    0    0  501  0.00000000000E+00  0.00000000000E+00  0.75004707262E+03  0.75004707262E+03  0.25500000920E-02 0.  1.
        2   -1    0    0  501    0  0.00000000000E+00  0.00000000000E+00 -0.26145787462E+04  0.26145787462E+04  0.25500000920E-02 0. -1.
    10030    2    1    2    0    0  0.00000000000E+00  0.00000000000E+00 -0.18645316735E+04  0.33646258188E+04  0.28007549944E+04 0.  0.
        4    1    3    3  502    0  0.13971180189E+04  0.82361560779E+02 -0.99029553687E+03  0.17144704864E+04  0.12699999809E+01 0. -1.
       -4    1    3    3    0  502 -0.13971180189E+04 -0.82361560779E+02 -0.87423613668E+03  0.16501553324E+04  0.12699999809E+01 0.  1.
</event>
<event>
 5   0  0.5214658E-07  0.2800591E+04  0.7818609E-02  0.8303085E-01
        1   -1    0    0  501    0  0.00000000000E+00  0.00000000000E+00  0.16293993934E+04  0.16293993934E+04  0.50400001928E-02 0. -1.
       -1   -1    0    0    0  501  0.00000000000E+00  0.00000000000E+00 -0.12034053514E+04  0.12034053514E+04  0.50400001928E-02 0.  1.
    10030    2    1    2    0    0  0.00000000000E+00  0.00000000000E+00  0.42599404201E+03  0.28328047448E+04  0.28005913301E+04 0.  0.
        2    1    3    3  502    0  0.16066992408E+03  0.10908127541E+04 -0.66014729740E+03  0.12850998962E+04  0.25500000920E-02 0.  1.
       -2    1    3    3    0  502 -0.16066992408E+03 -0.10908127541E+04  0.10861413394E+04  0.15477048485E+04  0.25500000920E-02 0. -1.
</event>
<event>
 5   0  0.5214658E-07  0.2805562E+04  0.7818609E-02  0.8301544E-01
       -1   -1    0    0    0  501  0.00000000000E+00  0.00000000000E+00  0.80268809955E+03  0.80268809956E+03  0.50400001928E-02 0.  1.
        1   -1    0    0  501    0  0.00000000000E+00  0.00000000000E+00 -0.24515050565E+04  0.24515050565E+04  0.50400001928E-02 0. -1.
    10030    2    1    2    0    0  0.00000000000E+00  0.00000000000E+00 -0.16488169569E+04  0.32541931560E+04  0.28055615729E+04 0.  0.
        2    1    3    3  502    0 -0.73561348552E+03  0.29341338631E+03 -0.21673872032E+04  0.23075497619E+04  0.25500000920E-02 0. -1.
       -2    1    3    3    0  502  0.73561348552E+03 -0.29341338631E+03  0.51857024623E+03  0.94664339412E+03  0.25500000920E-02 0.  1.
</event>
<event>
 5   0  0.1439207E-06  0.2798947E+04  0.7818609E-02  0.8303595E-01
        2   -1    0    0  501    0  0.00000000000E+00  0.00000000000E+00  0.15203534223E+04  0.15203534223E+04  0.25500000920E-02 0. -1.
       -2   -1    0    0    0  501  0.00000000000E+00  0.00000000000E+00 -0.12882041742E+04  0.12882041742E+04  0.25500000920E-02 0.  1.
    10030    2    1    2    0    0  0.00000000000E+00  0.00000000000E+00  0.23214924811E+03  0.28085575966E+04  0.27989466768E+04 0.  0.
        5    1    3    3  502    0 -0.86502572144E+03  0.15678493368E+03 -0.97654104494E+03  0.13139655690E+04  0.46999998093E+01 0.  1.
       -5    1    3    3    0  502  0.86502572144E+03 -0.15678493368E+03  0.12086902931E+04  0.14945920275E+04  0.46999998093E+01 0. -1.
</event>
<event>
 5   0  0.1499888E-06  0.2795384E+04  0.7818609E-02  0.8304703E-01
       -2   -1    0    0    0  501  0.00000000000E+00  0.00000000000E+00  0.11142952222E+04  0.11142952222E+04  0.25500000920E-02 0. -1.
        2   -1    0    0  501    0  0.00000000000E+00  0.00000000000E+00 -0.17531643044E+04  0.17531643044E+04  0.25500000920E-02 0.  1.
    10030    2    1    2    0    0  0.00000000000E+00  0.00000000000E+00 -0.63886908218E+03  0.28674595267E+04  0.27953837720E+04 0.  0.
        3    1    3    3  502    0  0.36542879849E+03  0.12931630803E+04 -0.71370619515E+03  0.15215733641E+04  0.10100000352E+00 0. -1.
       -3    1    3    3    0  502 -0.36542879849E+03 -0.12931630803E+04  0.74837112973E+02  0.13458861626E+04  0.10100000352E+00 0.  1.
</event>
<event>
 5   0  0.5214658E-07  0.2805020E+04  0.7818609E-02  0.8301711E-01
        1   -1    0    0  501    0  0.00000000000E+00  0.00000000000E+00  0.27932999054E+04  0.27932999054E+04  0.50400001928E-02 0. -1.
       -1   -1    0    0    0  501  0.00000000000E+00  0.00000000000E+00 -0.70419749515E+03  0.70419749517E+03  0.50400001928E-02 0.  1.
    10030    2    1    2    0    0  0.00000000000E+00  0.00000000000E+00  0.20891024102E+04  0.34974974006E+04  0.28050203540E+04 0.  0.
        2    1    3    3  502    0 -0.73369364597E+03  0.64271502955E+03 -0.21203569074E+03  0.99817238466E+03  0.25500000920E-02 0.  1.
       -2    1    3    3    0  502  0.73369364597E+03 -0.64271502955E+03  0.23011381010E+04  0.24993250159E+04  0.25500000920E-02 0. -1.
</event>
<event>
 5   0  0.1394410E-06  0.2798780E+04  0.7818609E-02  0.8303647E-01
       -2   -1    0    0    0  501  0.00000000000E+00  0.00000000000E+00  0.14683894933E+04  0.14683894933E+04  0.25500000920E-02 0. -1.
        2   -1    0    0  501    0  0.00000000000E+00  0.00000000000E+00 -0.13336329258E+04  0.13336329258E+04  0.25500000920E-02 0.  1.
    10030    2    1    2    0    0  0.00000000000E+00  0.00000000000E+00  0.13475656748E+03  0.28020224192E+04  0.27987801459E+04 0.  0.
        4    1    3    3  502    0  0.76661024085E+03  0.11491414776E+04 -0.15665218274E+03  0.13902370000E+04  0.12699999809E+01 0.  1.
       -4    1    3    3    0  502 -0.76661024085E+03 -0.11491414776E+04  0.29140875022E+03  0.14117854191E+04  0.12699999809E+01 0. -1.
</event>
<event>
 5   0  0.5282098E-07  0.2802271E+04  0.7818609E-02  0.8302564E-01
        1   -1    0    0  501    0  0.00000000000E+00  0.00000000000E+00  0.13039549831E+04  0.13039549831E+04  0.50400001928E-02 0.  1.
       -1   -1    0    0    0  501  0.00000000000E+00  0.00000000000E+00 -0.15055583130E+04  0.15055583130E+04  0.50400001928E-02 0. -1.
    10030    2    1    2    0    0  0.00000000000E+00  0.00000000000E+00 -0.20160332994E+03  0.28095132961E+04  0.28022706968E+04 0.  0.
        4    1    3    3  502    0 -0.69145931789E+03 -0.10117957961E+04 -0.78177132647E+03  0.14536212509E+04  0.12699999809E+01 0. -1.
       -4    1    3    3    0  502  0.69145931789E+03  0.10117957961E+04  0.58016799653E+03  0.13558920452E+04  0.12699999809E+01 0.  1.
</event>
<event>
 5   0  0.5551565E-07  0.2806685E+04  0.7818609E-02  0.8301196E-01
       -1   -1    0    0    0  501  0.00000000000E+00  0.00000000000E+00  0.84058983759E+03  0.84058983761E+03  0.50400001928E-02 0. -1.
        1   -1    0    0  501    0  0.00000000000E+00  0.00000000000E+00 -0.23428426980E+04  0.23428426980E+04  0.50400001928E-02 0.  1.
    10030    2    1    2    0    0  0.00000000000E+00  0.00000000000E+00 -0.15022528604E+04  0.31834325356E+04  0.28066847083E+04 0.  0.
        3    1    3    3  502    0  0.81266959058E+03  0.10125781052E+04 -0.13551767316E+04  0.18767659062E+04  0.10100000352E+00 0.  1.
       -3    1    3    3    0  502 -0.81266959058E+03 -0.10125781052E+04 -0.14707612874E+03  0.13066666294E+04  0.10100000352E+00 0. -1.
</event>
<event>
 5   0  0.1461146E-06  0.2790734E+04  0.7818609E-02  0.8306151E-01
       -2   -1    0    0    0  501  0.00000000000E+00  0.00000000000E+00  0.68267330418E+03  0.68267330418E+03  0.25500000920E-02 0. -1.
        2   -1    0    0  501    0  0.00000000000E+00  0.00000000000E+00 -0.28520954499E+04  0.28520954499E+04  0.25500000920E-02 0.  1.
    10030    2    1    2    0    0  0.00000000000E+00  0.00000000000E+00 -0.21694221457E+04  0.35347687540E+04  0.27907342579E+04 0.  0.
        1    1    3    3  502    0  0.13443106831E+04 -0.34113551448E+03 -0.12788982510E+04  0.18865644405E+04  0.50400001928E-02 0. -1.
       -1    1    3    3    0  502 -0.13443106831E+04  0.34113551448E+03 -0.89052389472E+03  0.16482043135E+04  0.50400001928E-02 0.  1.
</event>
<event>
 5   0  0.5214658E-07  0.2829521E+04  0.7818609E-02  0.8294162E-01
       -1   -1    0    0    0  501  0.00000000000E+00  0.00000000000E+00  0.17519098595E+04  0.17519098595E+04  0.50400001928E-02 0. -1.
        1   -1    0    0  501    0  0.00000000000E+00  0.00000000000E+00 -0.11424942761E+04  0.11424942761E+04  0.50400001928E-02 0.  1.
    10030    2    1    2    0    0  0.00000000000E+00  0.00000000000E+00  0.60941558340E+03  0.28944041356E+04  0.28295207981E+04 0.  0.
        2    1    3    3  502    0  0.21015153655E+03 -0.12948674764E+04  0.84666958954E+03  0.15613118982E+04  0.25500000920E-02 0. -1.
       -2    1    3    3    0  502 -0.21015153655E+03  0.12948674764E+04 -0.23725400613E+03  0.13330922373E+04  0.25500000920E-02 0.  1.
</event>
<event>
 5   0  0.1461146E-06  0.2808867E+04  0.7818609E-02  0.8300521E-01
        2   -1    0    0  501    0  0.00000000000E+00  0.00000000000E+00  0.18176109053E+04  0.18176109053E+04  0.25500000920E-02 0. -1.
       -2   -1    0    0    0  501  0.00000000000E+00  0.00000000000E+00 -0.10851790400E+04  0.10851790400E+04  0.25500000920E-02 0.  1.
    10030    2    1    2    0    0  0.00000000000E+00  0.00000000000E+00  0.73243186530E+03  0.29027899452E+04  0.28088668585E+04 0.  0.
        1    1    3    3  502    0 -0.32843718900E+03  0.13648625028E+04  0.32344834415E+03  0.14406038561E+04  0.50400001928E-02 0. -1.
       -1    1    3    3    0  502  0.32843718900E+03 -0.13648625028E+04  0.40898352115E+03  0.14621860892E+04  0.50400001928E-02 0.  1.
</event>
<event>
 5   0  0.1499888E-06  0.2801213E+04  0.7818609E-02  0.8302892E-01
        2   -1    0    0  501    0  0.00000000000E+00  0.00000000000E+00  0.16761183026E+04  0.16761183026E+04  0.25500000920E-02 0.  1.
       -2   -1    0    0    0  501  0.00000000000E+00  0.00000000000E+00 -0.11703822753E+04  0.11703822753E+04  0.25500000920E-02 0. -1.
    10030    2    1    2    0    0  0.00000000000E+00  0.00000000000E+00  0.50573602735E+03  0.28465005779E+04  0.28012134175E+04 0.  0.
        3    1    3    3  502    0 -0.11415843591E+04  0.27759835098E+03  0.10277067960E+04  0.15609154244E+04  0.10100000352E+00 0.  1.
       -3    1    3    3    0  502  0.11415843591E+04 -0.27759835098E+03 -0.52197076869E+03  0.12855851535E+04  0.10100000352E+00 0. -1.
</event>
<event>
 5   0  0.5362952E-07  0.2779741E+04  0.7818609E-02  0.8309586E-01
       -1   -1    0    0    0  501  0.00000000000E+00  0.00000000000E+00  0.13855768696E+04  0.13855768696E+04  0.50400001928E-02 0. -1.
        1   -1    0    0  501    0  0.00000000000E+00  0.00000000000E+00 -0.13941775713E+04  0.13941775713E+04  0.50400001928E-02 0.  1.
    10030    2    1    2    0    0  0.00000000000E+00  0.00000000000E+00 -0.86007016336E+01  0.27797544409E+04  0.27797411354E+04 0.  0.
        1    1    3    3  502    0 -0.12631667214E+04  0.45050974418E+03 -0.36925551836E+03  0.13910064103E+04  0.50400001928E-02 0.  1.
       -1    1    3    3    0  502  0.12631667214E+04 -0.45050974418E+03  0.36065481673E+03  0.13887480306E+04  0.50400001928E-02 0. -1.
</event>
<event>
 5   0  0.5362952E-07  0.2766953E+04  0.7818609E-02  0.8313602E-01
       -1   -1    0    0    0  501  0.00000000000E+00  0.00000000000E+00  0.85376814653E+03  0.85376814654E+03  0.50400001928E-02 0. -1.
        1   -1    0    0  501    0  0.00000000000E+00  0.00000000000E+00 -0.22418353633E+04  0.22418353633E+04  0.50400001928E-02 0.  1.
    10030    2    1    2    0    0  0.00000000000E+00  0.00000000000E+00 -0.13880672168E+04  0.30956035099E+04  0.27669532869E+04 0.  0.
        1    1    3    3  502    0 -0.36036647574E+03 -0.12826674687E+04 -0.11110055245E+04  0.17347717739E+04  0.50400001928E-02 0.  1.
       -1    1    3    3    0  502  0.36036647574E+03  0.12826674687E+04 -0.27706169225E+03  0.13608317359E+04  0.50400001928E-02 0. -1.
</event>
<event>
 5   0  0.1461146E-06  0.2800346E+04  0.7818609E-02  0.8303161E-01
       -2   -1    0    0    0  501  0.00000000000E+00  0.00000000000E+00  0.97889001072E+03  0.97889001072E+03  0.25500000920E-02 0.  1.
        2   -1    0    0  501    0  0.00000000000E+00  0.00000000000E+00 -0.20027632774E+04  0.20027632774E+04  0.25500000920E-02 0. -1.
    10030    2    1    2    0    0  0.00000000000E+00  0.00000000000E+00 -0.10238732667E+04  0.29816532881E+04  0.28003463829E+04 0.  0.
        1    1    3    3  502    0  0.78744061984E+03  0.10868909779E+04 -0.93662186048E+03  0.16366597805E+04  0.50400001928E-02 0. -1.
       -1    1    3    3    0  502 -0.78744061984E+03 -0.10868909779E+04 -0.87251406209E+02  0.13449935076E+04  0.50400001928E-02 0.  1.
</event>
<event>
 5   0  0.5214658E-07  0.2799187E+04  0.7818609E-02  0.8303521E-01
        1   -1    0    0  501    0  0.00000000000E+00  0.00000000000E+00  0.18085724895E+04  0.18085724895E+04  0.50400001928E-02 0.  1.
       -1   -1    0    0    0  501  0.00000000000E+00  0.00000000000E+00 -0.10830987064E+04  0.10830987064E+04  0.50400001928E-02 0. -1.
    10030    2    1    2    0    0  0.00000000000E+00  0.00000000000E+00  0.72547378311E+03  0.28916711959E+04  0.27991873991E+04 0.  0.
        2    1    3    3  502    0 -0.56636280004E+03 -0.78692382184E+03  0.14054656104E+04  0.17074394585E+04  0.25500000920E-02 0. -1.
       -2    1    3    3    0  502  0.56636280004E+03  0.78692382184E+03 -0.67999182726E+03  0.11842317374E+04  0.25500000920E-02 0.  1.
</event>
<event>
 5   0  0.5362952E-07  0.2804456E+04  0.7818609E-02  0.8301886E-01
       -1   -1    0    0    0  501  0.00000000000E+00  0.00000000000E+00  0.19323570378E+04  0.19323570378E+04  0.50400001928E-02 0.  1.
        1   -1    0    0  501    0  0.00000000000E+00  0.00000000000E+00 -0.10175361094E+04  0.10175361094E+04  0.50400001928E-02 0. -1.
    10030    2    1    2    0    0  0.00000000000E+00  0.00000000000E+00  0.91482092834E+03  0.29498931472E+04  0.28044557848E+04 0.  0.
        1    1    3    3  502    0 -0.69282428770E+03  0.11768428285E+04  0.12266371136E+03  0.13711349032E+04  0.50400001928E-02 0. -1.
       -1    1    3    3    0  502  0.69282428770E+03 -0.11768428285E+04  0.79215721698E+03  0.15787582440E+04  0.50400001928E-02 0.  1.
</event>
<event>
 5   0  0.1499888E-06  0.2801477E+04  0.7818609E-02  0.8302810E-01
       -2   -1    0    0    0  501  0.00000000000E+00  0.00000000000E+00  0.18327637460E+04  0.18327637460E+04  0.25500000920E-02 0.  1.
        2   -1    0    0  501    0  0.00000000000E+00  0.00000000000E+00 -0.10705516047E+04  0.10705516047E+04  0.25500000920E-02 0. -1.
    10030    2    1    2    0    0  0.00000000000E+00  0.00000000000E+00  0.76221214127E+03  0.29033153507E+04  0.28014768743E+04 0.  0.
        3    1    3    3  502    0 -0.11834497977E+03  0.13776662893E+04  0.14914328374E+03  0.13907601044E+04  0.10100000352E+00 0. -1.
       -3    1    3    3    0  502  0.11834497977E+03 -0.13776662893E+04  0.61306885753E+03  0.15125552463E+04  0.10100000352E+00 0.  1.
</event>
<event>
 5   0  0.5282098E-07  0.2797730E+04  0.7818609E-02  0.8303973E-01
        1   -1    0    0  501    0  0.00000000000E+00  0.00000000000E+00  0.11079590808E+04  0.11079590809E+04  0.50400001928E-02 0.  1.
       -1   -1    0    0    0  501  0.00000000000E+00  0.00000000000E+00 -0.17661514481E+04  0.17661514482E+04  0.50400001928E-02 0. -1.
    10030    2    1    2    0    0  0.00000000000E+00  0.00000000000E+00 -0.65819236730E+03  0.28741105290E+04  0.27977301765E+04 0.  0.
        4    1    3    3  502    0  0.75596021741E+03  0.27461609641E+03 -0.15048652394E+04  0.17063149921E+04  0.12699999809E+01 0. -1.
       -4    1    3    3    0  502 -0.75596021741E+03 -0.27461609641E+03  0.84667287209E+03  0.11677955369E+04  0.12699999809E+01 0.  1.
</event>
<event>
 5   0  0.5362952E-07  0.2806002E+04  0.7818609E-02  0.8301407E-01
       -1   -1    0    0    0  501  0.00000000000E+00  0.00000000000E+00  0.11397226306E+04  0.11397226306E+04  0.50400001928E-02 0.  1.
        1   -1    0    0  501    0  0.00000000000E+00  0.00000000000E+00 -0.17270972103E+04  0.17270972103E+04  0.50400001928E-02 0. -1.
    10030    2    1    2    0    0  0.00000000000E+00  0.00000000000E+00 -0.58737457967E+03  0.28668198409E+04  0.28060019785E+04 0.  0.
        1    1    3    3  502    0 -0.34970746863E+03 -0.32503082840E+03 -0.16415506788E+04  0.17095698243E+04  0.50400001928E-02 0. -1.
       -1    1    3    3    0  502  0.34970746863E+03  0.32503082840E+03  0.10541760991E+04  0.11572500166E+04  0.50400001928E-02 0.  1.
</event>
<event>
 5   0  0.5362952E-07  0.2795830E+04  0.7818609E-02  0.8304564E-01
        1   -1    0    0  501    0  0.00000000000E+00  0.00000000000E+00  0.12118688118E+04  0.12118688118E+04  0.50400001928E-02 0.  1.
       -1   -1    0    0    0  501  0.00000000000E+00  0.00000000000E+00 -0.16125229465E+04  0.16125229465E+04  0.50400001928E-02 0. -1.
    10030    2    1    2    0    0  0.00000000000E+00  0.00000000000E+00 -0.40065413474E+03  0.28243917583E+04  0.27958299428E+04 0.  0.
        1    1    3    3  502    0 -0.15594059265E+03 -0.12938531304E+04  0.31059940607E+03  0.13397183967E+04  0.50400001928E-02 0.  1.
       -1    1    3    3    0  502  0.15594059265E+03  0.12938531304E+04 -0.71125354080E+03  0.14846733616E+04  0.50400001928E-02 0. -1.
</event>
<event>
 5   0  0.1377807E-06  0.2800837E+04  0.7818609E-02  0.8303008E-01
        2   -1    0    0  501    0  0.00000000000E+00  0.00000000000E+00  0.21826094541E+04  0.21826094541E+04  0.25500000920E-02 0. -1.
       -2   -1    0    0    0  501  0.00000000000E+00  0.00000000000E+00 -0.89854490257E+03  0.89854490257E+03  0.25500000920E-02 0.  1.
    10030    2    1    2    0    0  0.00000000000E+00  0.00000000000E+00  0.12840645515E+04  0.30811543566E+04  0.28008374457E+04 0.  0.
        2    1    3    3  502    0 -0.98708948571E+03 -0.96254594347E+03  0.91224159544E+03  0.16531863399E+04  0.25500000920E-02 0. -1.
       -2    1    3    3    0  502  0.98708948571E+03  0.96254594347E+03  0.37182295607E+03  0.14279680167E+04  0.25500000920E-02 0.  1.
</event>
<event>
 5   0  0.1394410E-06  0.2797538E+04  0.7818609E-02  0.8304033E-01
        2   -1    0    0  501    0  0.00000000000E+00  0.00000000000E+00  0.16843920933E+04  0.16843920933E+04  0.25500000920E-02 0. -1.
       -2   -1    0    0    0  501  0.00000000000E+00  0.00000000000E+00 -0.11615795075E+04  0.11615795075E+04  0.25500000920E-02 0.  1.
    10030    2    1    2    0    0  0.00000000000E+00  0.00000000000E+00  0.52281258578E+03  0.28459716008E+04  0.27975384452E+04 0.  0.
        4    1    3    3  502    0  0.82233463460E+03 -0.37448806915E+03 -0.82482375322E+03  0.12234424392E+04  0.12699999809E+01 0.  1.
       -4    1    3    3    0  502 -0.82233463460E+03  0.37448806915E+03  0.13476363390E+04  0.16225291616E+04  0.12699999809E+01 0. -1.
</event>
<event>
 5   0  0.1499888E-06  0.2802673E+04  0.7818609E-02  0.8302439E-01
       -2   -1    0    0    0  501  0.00000000000E+00  0.00000000000E+00  0.73790863850E+03  0.73790863850E+03  0.25500000920E-02 0. -1.
        2   -1    0    0  501    0  0.00000000000E+00  0.00000000000E+00 -0.26612292021E+04  0.26612292021E+04  0.25500000920E-02 0.  1.
    10030    2    1    2    0    0  0.00000000000E+00  0.00000000000E+00 -0.19233205636E+04  0.33991378406E+04  0.28026730222E+04 0.  0.
        3    1    3    3  502    0 -0.20943595589E+03 -0.11245974186E+04 -0.19433414031E+04  0.22550296212E+04  0.10100000352E+00 0.  1.
       -3    1    3    3    0  502  0.20943595589E+03  0.11245974186E+04  0.20020839448E+02  0.11441082194E+04  0.10100000352E+00 0. -1.
</event>
<event>
 5   0  0.5551565E-07  0.2803029E+04  0.7818609E-02  0.8302329E-01
        1   -1    0    0  501    0  0.00000000000E+00  0.00000000000E+00  0.16816837369E+04  0.16816837369E+04  0.50400001928E-02 0. -1.
       -1   -1    0    0    0  501  0.00000000000E+00  0.00000000000E+00 -0.11680216704E+04  0.11680216704E+04  0.50400001928E-02 0.  1.
    10030    2    1    2    0    0  0.00000000000E+00  0.00000000000E+00  0.51366206652E+03  0.28497054073E+04  0.28030291096E+04 0.  0.
        3    1    3    3  502    0  0.23462509056E+03 -0.68492913289E+03  0.14768415800E+04  0.16447607464E+04  0.10100000352E+00 0. -1.
       -3    1    3    3    0  502 -0.23462509056E+03  0.68492913289E+03 -0.96317951352E+03  0.12049446608E+04  0.10100000352E+00 0.  1.
</event>
<event>
 5   0  0.1439207E-06  0.2792222E+04  0.7818609E-02  0.8305687E-01
       -2   -1    0    0    0  501  0.00000000000E+00  0.00000000000E+00  0.13850635696E+04  0.13850635696E+04  0.25500000920E-02 0.  1.
        2   -1    0    0  501    0  0.00000000000E+00  0.00000000000E+00 -0.14072462212E+04  0.14072462212E+04  0.25500000920E-02 0. -1.
    10030    2    1    2    0    0  0.00000000000E+00  0.00000000000E+00 -0.22182651588E+02  0.27923097907E+04  0.27922216777E+04 0.  0.
        5    1    3    3  502    0 -0.45594392231E+03  0.58858426901E+03 -0.11921396369E+04  0.14055373727E+04  0.46999998093E+01 0. -1.
       -5    1    3    3    0  502  0.45594392231E+03 -0.58858426901E+03  0.11699569853E+04  0.13867724181E+04  0.46999998093E+01 0.  1.
</event>
<event>
 5   0  0.1377807E-06  0.2798881E+04  0.7818609E-02  0.8303616E-01
       -2   -1    0    0    0  501  0.00000000000E+00  0.00000000000E+00  0.14605414146E+04  0.14605414146E+04  0.25500000920E-02 0.  1.
        2   -1    0    0  501    0  0.00000000000E+00  0.00000000000E+00 -0.13408953571E+04  0.13408953571E+04  0.25500000920E-02 0. -1.
    10030    2    1    2    0    0  0.00000000000E+00  0.00000000000E+00  0.11964605752E+03  0.28014367716E+04  0.27988806346E+04 0.  0.
        2    1    3    3  502    0  0.12722108159E+04 -0.36335591243E+03  0.51618385866E+03  0.14202090182E+04  0.25500000920E-02 0. -1.
       -2    1    3    3    0  502 -0.12722108159E+04  0.36335591243E+03 -0.39653780114E+03  0.13812277535E+04  0.25500000920E-02 0.  1.
</event>
<event>
 5   0  0.5551565E-07  0.2790225E+04  0.7818609E-02  0.8306310E-01
       -1   -1    0    0    0  501  0.00000000000E+00  0.00000000000E+00  0.12048437698E+04  0.12048437699E+04  0.50400001928E-02 0.  1.
        1   -1    0    0  501    0  0.00000000000E+00  0.00000000000E+00 -0.16154279003E+04  0.16154279003E+04  0.50400001928E-02 0. -1.
    10030    2    1    2    0    0  0.00000000000E+00  0.00000000000E+00 -0.41058413043E+03  0.28202716701E+04  0.27902245367E+04 0.  0.
        3    1    3    3  502    0 -0.10053242898E+04  0.57351995156E+03 -0.99261288103E+03  0.15247565065E+04  0.10100000352E+00 0. -1.
       -3    1    3    3    0  502  0.10053242898E+04 -0.57351995156E+03  0.58202875060E+03  0.12955151636E+04  0.10100000352E+00 0.  1.
</event>
<event>
 5   0  0.1439207E-06  0.2799672E+04  0.7818609E-02  0.8303370E-01
        2   -1    0    0  501    0  0.00000000000E+00  0.00000000000E+00  0.13161538384E+04  0.13161538384E+04  0.25500000920E-02 0.  1.
       -2   -1    0    0    0  501  0.00000000000E+00  0.00000000000E+00 -0.14888389959E+04  0.14888389959E+04  0.25500000920E-02 0. -1.
    10030    2    1    2    0    0  0.00000000000E+00  0.00000000000E+00 -0.17268515759E+03  0.28049928343E+04  0.27996722374E+04 0.  0.
        5    1    3    3  502    0 -0.46180720512E+03  0.94406631414E+03 -0.10127575891E+04  0.14595297614E+04  0.46999998093E+01 0. -1.
       -5    1    3    3    0  502  0.46180720512E+03 -0.94406631414E+03  0.84007243154E+03  0.13454630729E+04  0.46999998093E+01 0.  1.
</event>
<event>
 5   0  0.4710000E-07  0.2794958E+04  0.7818609E-02  0.8304835E-01
        3   -1    0    0  501    0  0.00000000000E+00  0.00000000000E+00  0.20137476152E+04  0.20137476177E+04  0.10100000352E+00 0. -1.
       -3   -1    0    0    0  501  0.00000000000E+00  0.00000000000E+00 -0.96980751945E+03  0.96980752471E+03  0.10100000352E+00 0.  1.
    10030    2    1    2    0    0  0.00000000000E+00  0.00000000000E+00  0.10439400957E+04  0.29835551424E+04  0.27949580255E+04 0.  0.
        4    1    3    3  502    0  0.89203783076E+02 -0.41003756291E+03 -0.90096515171E+03  0.99389533423E+03  0.12699999809E+01 0.  1.
       -4    1    3    3    0  502 -0.89203783076E+02  0.41003756291E+03  0.19449052474E+04  0.19896598082E+04  0.12699999809E+01 0. -1.
</event>
<event>
 5   0  0.1439207E-06  0.2797622E+04  0.7818609E-02  0.8304007E-01
        2   -1    0    0  501    0  0.00000000000E+00  0.00000000000E+00  0.13448013312E+04  0.13448013312E+04  0.25500000920E-02 0.  1.
       -2   -1    0    0    0  501  0.00000000000E+00  0.00000000000E+00 -0.14549899758E+04  0.14549899758E+04  0.25500000920E-02 0. -1.
    10030    2    1    2    0    0  0.00000000000E+00  0.00000000000E+00 -0.11018864458E+03  0.27997913070E+04  0.27976221734E+04 0.  0.
        5    1    3    3  502    0 -0.14791470393E+03  0.50722736525E+03 -0.13512788379E+04  0.14509083181E+04  0.46999998093E+01 0. -1.
       -5    1    3    3    0  502  0.14791470393E+03 -0.50722736525E+03  0.12410901933E+04  0.13488829889E+04  0.46999998093E+01 0.  1.
</event>
<event>
 5   0  0.1461146E-06  0.2798727E+04  0.7818609E-02  0.8303664E-01
        2   -1    0    0  501    0  0.00000000000E+00  0.00000000000E+00  0.17921498687E+04  0.17921498687E+04  0.25500000920E-02 0. -1.
       -2   -1    0    0    0  501  0.00000000000E+00  0.00000000000E+00 -0.10926646436E+04  0.10926646436E+04  0.25500000920E-02 0.  1.
    10030    2    1    2    0    0  0.00000000000E+00  0.00000000000E+00  0.69948522507E+03  0.28848145123E+04  0.27987274233E+04 0.  0.
        1    1    3    3  502    0  0.35033385164E+03  0.83968319961E+03 -0.74617183642E+03  0.11766792651E+04  0.50400001928E-02 0.  1.
       -1    1    3    3    0  502 -0.35033385164E+03 -0.83968319961E+03  0.14456570615E+04  0.17081352472E+04  0.50400001928E-02 0. -1.
</event>
<event>
 5   0  0.1394410E-06  0.2801025E+04  0.7818609E-02  0.8302950E-01
        2   -1    0    0  501    0  0.00000000000E+00  0.00000000000E+00  0.24515534733E+04  0.24515534733E+04  0.25500000920E-02 0. -1.
       -2   -1    0    0    0  501  0.00000000000E+00  0.00000000000E+00 -0.80007855386E+03  0.80007855387E+03  0.25500000920E-02 0.  1.
    10030    2    1    2    0    0  0.00000000000E+00  0.00000000000E+00  0.16514749194E+04  0.32516320271E+04  0.28010250678E+04 0.  0.
        4    1    3    3  502    0 -0.87544978545E+03 -0.83840963034E+03  0.16400797327E+04  0.20394131945E+04  0.12699999809E+01 0. -1.
       -4    1    3    3    0  502  0.87544978545E+03  0.83840963034E+03  0.11395186658E+02  0.12122188327E+04  0.12699999809E+01 0.  1.
</event>
<event>
 5   0  0.5551565E-07  0.2751240E+04  0.7818609E-02  0.8318568E-01
       -1   -1    0    0    0  501  0.00000000000E+00  0.00000000000E+00  0.92203075522E+03  0.92203075523E+03  0.50400001928E-02 0.  1.
        1   -1    0    0  501    0  0.00000000000E+00  0.00000000000E+00 -0.20523501705E+04  0.20523501705E+04  0.50400001928E-02 0. -1.
    10030    2    1    2    0    0  0.00000000000E+00  0.00000000000E+00 -0.11303194153E+04  0.29743809257E+04  0.27512397043E+04 0.  0.
        3    1    3    3  502    0  0.26636948629E+02 -0.11744367183E+04  0.20865738486E+03  0.11931257464E+04  0.10100000352E+00 0.  1.
       -3    1    3    3    0  502 -0.26636948629E+02  0.11744367183E+04 -0.13389768001E+04  0.17812551793E+04  0.10100000352E+00 0. -1.
</event>
<event>
 5   0  0.5282098E-07  0.2793571E+04  0.7818609E-02  0.8305267E-01
       -1   -1    0    0    0  501  0.00000000000E+00  0.00000000000E+00  0.11149902777E+04  0.11149902777E+04  0.50400001928E-02 0.  1.
        1   -1    0    0  501    0  0.00000000000E+00  0.00000000000E+00 -0.17497993968E+04  0.17497993968E+04  0.50400001928E-02 0. -1.
    10030    2    1    2    0    0  0.00000000000E+00  0.00000000000E+00 -0.63480911915E+03  0.28647896745E+04  0.27935707010E+04 0.  0.
        4    1    3    3  502    0 -0.72392785666E+03  0.11874646290E+04 -0.45057636448E+03  0.14619043949E+04  0.12699999809E+01 0.  1.
       -4    1    3    3    0  502  0.72392785666E+03 -0.11874646290E+04 -0.18423275467E+03  0.14028852796E+04  0.12699999809E+01 0. -1.
</event>
<event>
 5   0  0.1461146E-06  0.2797459E+04  0.7818609E-02  0.8304058E-01
       -2   -1    0    0    0  501  0.00000000000E+00  0.00000000000E+00  0.27342342305E+04  0.27342342305E+04  0.25500000920E-02 0. -1.
        2   -1    0    0  501    0  0.00000000000E+00  0.00000000000E+00 -0.71553623821E+03  0.71553623822E+03  0.25500000920E-02 0.  1.
    10030    2    1    2    0    0  0.00000000000E+00  0.00000000000E+00  0.20186979922E+04  0.34497704687E+04  0.27974586150E+04 0.  0.
        1    1    3    3  502    0 -0.55858127149E+03 -0.10938127518E+04  0.18394299459E+03  0.12418834076E+04  0.50400001928E-02 0.  1.
       -1    1    3    3    0  502  0.55858127149E+03  0.10938127518E+04  0.18347549977E+04  0.22078870610E+04  0.50400001928E-02 0. -1.
</event>
<event>
 5   0  0.5362952E-07  0.2802092E+04  0.7818609E-02  0.8302619E-01
       -1   -1    0    0    0  501  0.00000000000E+00  0.00000000000E+00  0.15140318727E+04  0.15140318728E+04  0.50400001928E-02 0. -1.
        1   -1    0    0  501    0  0.00000000000E+00  0.00000000000E+00 -0.12964921279E+04  0.12964921279E+04  0.50400001928E-02 0.  1.
    10030    2    1    2    0    0  0.00000000000E+00  0.00000000000E+00  0.21753974488E+03  0.28105240006E+04  0.28020923642E+04 0.  0.
        1    1    3    3  502    0 -0.13538337745E+04  0.34622610019E+03  0.21002910224E+03  0.14130996516E+04  0.50400001928E-02 0. -1.
       -1    1    3    3    0  502  0.13538337745E+04 -0.34622610019E+03  0.75106426377E+01  0.13974243490E+04  0.50400001928E-02 0.  1.
</event>
<event>
 5   0  0.1394410E-06  0.2792511E+04  0.7818609E-02  0.8305597E-01
        2   -1    0    0  501    0  0.00000000000E+00  0.00000000000E+00  0.18382470463E+04  0.18382470463E+04  0.25500000920E-02 0.  1.
       -2   -1    0    0    0  501  0.00000000000E+00  0.00000000000E+00 -0.10605372077E+04  0.10605372077E+04  0.25500000920E-02 0. -1.
    10030    2    1    2    0    0  0.00000000000E+00  0.00000000000E+00  0.77770983864E+03  0.28987842540E+04  0.27925109773E+04 0.  0.
        4    1    3    3  502    0 -0.31598056538E+03  0.12220458271E+04 -0.23075967134E+03  0.12831567948E+04  0.12699999809E+01 0. -1.
       -4    1    3    3    0  502  0.31598056538E+03 -0.12220458271E+04  0.10084695100E+04  0.16156274592E+04  0.12699999809E+01 0.  1.
</event>
<event>
 5   0  0.1439207E-06  0.2810631E+04  0.7818609E-02  0.8299975E-01
       -2   -1    0    0    0  501  0.00000000000E+00  0.00000000000E+00  0.88664921639E+03  0.88664921639E+03  0.25500000920E-02 0. -1.
        2   -1    0    0  501    0  0.00000000000E+00  0.00000000000E+00 -0.22273878003E+04  0.22273878003E+04  0.25500000920E-02 0.  1.
    10030    2    1    2    0    0  0.00000000000E+00  0.00000000000E+00 -0.13407385839E+04  0.31140370167E+04  0.28106309952E+04 0.  0.
        5    1    3    3  502    0  0.44587524286E+03  0.13308987280E+04 -0.59366108378E+03  0.15239920370E+04  0.46999998093E+01 0. -1.
       -5    1    3    3    0  502 -0.44587524286E+03 -0.13308987280E+04 -0.74707750014E+03  0.15900449797E+04  0.46999998093E+01 0.  1.
</event>
<event>
 5   0  0.1439207E-06  0.2785475E+04  0.7818609E-02  0.8307792E-01
       -2   -1    0    0    0  501  0.00000000000E+00  0.00000000000E+00  0.16097920263E+04  0.16097920263E+04  0.25500000920E-02 0. -1.
        2   -1    0    0  501    0  0.00000000000E+00  0.00000000000E+00 -0.12049494083E+04  0.12049494083E+04  0.25500000920E-02 0.  1.
    10030    2    1    2    0    0  0.00000000000E+00  0.00000000000E+00  0.40484261796E+03  0.28147414346E+04  0.27854751477E+04 0.  0.
        5    1    3    3  502    0 -0.89679950199E+02  0.62404897103E+03  0.14573292149E+04  0.15878633891E+04  0.46999998093E+01 0. -1.
       -5    1    3    3    0  502  0.89679950199E+02 -0.62404897103E+03 -0.10524865970E+04  0.12268780455E+04  0.46999998093E+01 0.  1.
</event>
<event>
 5   0  0.5282098E-07  0.2797868E+04  0.7818609E-02  0.8303931E-01
       -1   -1    0    0    0  501  0.00000000000E+00  0.00000000000E+00  0.10813843156E+04  0.10813843156E+04  0.50400001928E-02 0.  1.
        1   -1    0    0  501    0  0.00000000000E+00  0.00000000000E+00 -0.18097318621E+04  0.18097318622E+04  0.50400001928E-02 0. -1.
    10030    2    1    2    0    0  0.00000000000E+00  0.00000000000E+00 -0.72834754657E+03  0.28911161777E+04  0.27978675102E+04 0.  0.
        4    1    3    3  502    0 -0.13457347340E+03  0.24376807221E+02  0.10744591448E+04  0.10831289467E+04  0.12699999809E+01 0.  1.
       -4    1    3    3    0  502  0.13457347340E+03 -0.24376807221E+02 -0.18028066913E+04  0.18079872311E+04  0.12699999809E+01 0. -1.
</event>
<event>
 5   0  0.5282098E-07  0.2801119E+04  0.7818609E-02  0.8302921E-01
        1   -1    0    0  501    0  0.00000000000E+00  0.00000000000E+00  0.26082349582E+04  0.26082349582E+04  0.50400001928E-02 0.  1.
       -1   -1    0    0    0  501  0.00000000000E+00  0.00000000000E+00 -0.75206690462E+03  0.75206690464E+03  0.50400001928E-02 0. -1.
    10030    2    1    2    0    0  0.00000000000E+00  0.00000000000E+00  0.18561680536E+04  0.33603018629E+04  0.28011191989E+04 0.  0.
        4    1    3    3  502    0  0.39791664695E+03 -0.68844878732E+03 -0.45501310747E+03  0.91615387984E+03  0.12699999809E+01 0.  1.
       -4    1    3    3    0  502 -0.39791664695E+03  0.68844878732E+03  0.23111811611E+04  0.24441479830E+04  0.12699999809E+01 0. -1.
</event>
<event>
 5   0  0.5362952E-07  0.2799848E+04  0.7818609E-02  0.8303315E-01
        1   -1    0    0  501    0  0.00000000000E+00  0.00000000000E+00  0.14931077630E+04  0.14931077630E+04  0.50400001928E-02 0.  1.
       -1   -1    0    0    0  501  0.00000000000E+00  0.00000000000E+00 -0.13125559313E+04  0.13125559313E+04  0.50400001928E-02 0. -1.
    10030    2    1    2    0    0  0.00000000000E+00  0.00000000000E+00  0.18055183169E+03  0.28056636943E+04  0.27998481747E+04 0.  0.
        1    1    3    3  502    0 -0.49784006154E+02 -0.35442399039E+02  0.14917704931E+04  0.14930217061E+04  0.50400001928E-02 0.  1.
       -1    1    3    3    0  502  0.49784006154E+02  0.35442399039E+02 -0.13112186614E+04  0.13126419881E+04  0.50400001928E-02 0. -1.
</event>
<event>
 5   0  0.1439207E-06  0.2798333E+04  0.7818609E-02  0.8303786E-01
        2   -1    0    0  501    0  0.00000000000E+00  0.00000000000E+00  0.24918324447E+04  0.24918324447E+04  0.25500000920E-02 0.  1.
       -2   -1    0    0    0  501  0.00000000000E+00  0.00000000000E+00 -0.78563319620E+03  0.78563319621E+03  0.25500000920E-02 0. -1.
    10030    2    1    2    0    0  0.00000000000E+00  0.00000000000E+00  0.17061992485E+04  0.32774656409E+04  0.27983325663E+04 0.  0.
        5    1    3    3  502    0 -0.22521018360E+03 -0.68991119835E+03 -0.54794062405E+03  0.90937236922E+03  0.46999998093E+01 0. -1.
       -5    1    3    3    0  502  0.22521018360E+03  0.68991119835E+03  0.22541398726E+04  0.23680932717E+04  0.46999998093E+01 0.  1.
</event>
<event>
 5   0  0.1394410E-06  0.2803847E+04  0.7818609E-02  0.8302075E-01
        2   -1    0    0  501    0  0.00000000000E+00  0.00000000000E+00  0.10799501211E+04  0.10799501211E+04  0.25500000920E-02 0. -1.
       -2   -1    0    0    0  501  0.00000000000E+00  0.00000000000E+00 -0.18198897308E+04  0.18198897308E+04  0.25500000920E-02 0.  1.
    10030    2    1    2    0    0  0.00000000000E+00  0.00000000000E+00 -0.73993960964E+03  0.28998398519E+04  0.28038474532E+04 0.  0.
        4    1    3    3  502    0  0.97651681234E+03  0.95649654852E+03 -0.47995374030E+02  0.13677631012E+04  0.12699999809E+01 0. -1.
       -4    1    3    3    0  502 -0.97651681234E+03 -0.95649654852E+03 -0.69194423561E+03  0.15320767508E+04  0.12699999809E+01 0.  1.
</event>
<event>
 5   0  0.1461146E-06  0.2796224E+04  0.7818609E-02  0.8304442E-01
        2   -1    0    0  501    0  0.00000000000E+00  0.00000000000E+00  0.19271271726E+04  0.19271271726E+04  0.25500000920E-02 0. -1.
       -2   -1    0    0    0  501  0.00000000000E+00  0.00000000000E+00 -0.10143165403E+04  0.10143165403E+04  0.25500000920E-02 0.  1.
    10030    2    1    2    0    0  0.00000000000E+00  0.00000000000E+00  0.91281063230E+03  0.29414437130E+04  0.27962238584E+04 0.  0.
        1    1    3    3  502    0  0.94330380866E+03  0.40012465365E+03 -0.54420214718E+03  0.11602059261E+04  0.50400001928E-02 0.  1.
       -1    1    3    3    0  502 -0.94330380866E+03 -0.40012465365E+03  0.14570127795E+04  0.17812377869E+04  0.50400001928E-02 0. -1.
</event>
<event>
 5   0  0.1461146E-06  0.2799736E+04  0.7818609E-02  0.8303350E-01
       -2   -1    0    0    0  501  0.00000000000E+00  0.00000000000E+00  0.89200588818E+03  0.89200588819E+03  0.25500000920E-02 0.  1.
        2   -1    0    0  501    0  0.00000000000E+00  0.00000000000E+00 -0.21968806301E+04  0.21968806301E+04  0.25500000920E-02 0. -1.
    10030    2    1    2    0    0  0.00000000000E+00  0.00000000000E+00 -0.13048747420E+04  0.30888865183E+04  0.27997360288E+04 0.  0.
        1    1    3    3  502    0 -0.15439317608E+03  0.26256494488E+03  0.85500219879E+03  0.90763779287E+03  0.50400001928E-02 0.  1.
       -1    1    3    3    0  502  0.15439317608E+03 -0.26256494488E+03 -0.21598769408E+04  0.21812487255E+04  0.50400001928E-02 0. -1.
</event>
<event>
 5   0  0.5214658E-07  0.2791560E+04  0.7818609E-02  0.8305893E-01
       -1   -1    0    0    0  501  0.00000000000E+00  0.00000000000E+00  0.10871968222E+04  0.10871968222E+04  0.50400001928E-02 0.  1.
        1   -1    0    0  501    0  0.00000000000E+00  0.00000000000E+00 -0.17919495417E+04  0.17919495418E+04  0.50400001928E-02 0. -1.
    10030    2    1    2    0    0  0.00000000000E+00  0.00000000000E+00 -0.70475271953E+03  0.28791463640E+04  0.27915600279E+04 0.  0.
        2    1    3    3  502    0  0.13303231530E+04 -0.24287013631E+02  0.82580827280E+02  0.13331050759E+04  0.25500000920E-02 0.  1.
       -2    1    3    3    0  502 -0.13303231530E+04  0.24287013631E+02 -0.78733354681E+03  0.15460412881E+04  0.25500000920E-02 0. -1.
</event>
<event>
 5   0  0.5297741E-07  0.2799603E+04  0.7818609E-02  0.8303392E-01
        1   -1    0    0  501    0  0.00000000000E+00  0.00000000000E+00  0.14282845145E+04  0.14282845145E+04  0.50400001928E-02 0.  1.
       -1   -1    0    0    0  501  0.00000000000E+00  0.00000000000E+00 -0.13718862644E+04  0.13718862644E+04  0.50400001928E-02 0. -1.
    10030    2    1    2    0    0  0.00000000000E+00  0.00000000000E+00  0.56398250103E+02  0.28001707789E+04  0.27996027626E+04 0.  0.
        5    1    3    3  502    0 -0.11506213246E+03 -0.51062239878E+02  0.14226036292E+04  0.14281700958E+04  0.46999998093E+01 0.  1.
       -5    1    3    3    0  502  0.11506213246E+03  0.51062239878E+02 -0.13662053791E+04  0.13720006831E+04  0.46999998093E+01 0. -1.
</event>
<event>
 5   0  0.1439207E-06  0.2809704E+04  0.7818609E-02  0.8300262E-01
        2   -1    0    0  501    0  0.00000000000E+00  0.00000000000E+00  0.18139447365E+04  0.18139447365E+04  0.25500000920E-02 0. -1.
       -2   -1    0    0    0  501  0.00000000000E+00  0.00000000000E+00 -0.10880205205E+04  0.10880205205E+04  0.25500000920E-02 0.  1.
    10030    2    1    2    0    0  0.00000000000E+00  0.00000000000E+00  0.72592421603E+03  0.29019652570E+04  0.28097039676E+04 0.  0.
        5    1    3    3  502    0 -0.14754735677E+03  0.74646995254E+03 -0.85674731766E+03  0.11458733215E+04  0.46999998093E+01 0.  1.
       -5    1    3    3    0  502  0.14754735677E+03 -0.74646995254E+03  0.15826715337E+04  0.17560919355E+04  0.46999998093E+01 0. -1.
</event>
<event>
 5   0  0.5282098E-07  0.2807833E+04  0.7818609E-02  0.8300841E-01
       -1   -1    0    0    0  501  0.00000000000E+00  0.00000000000E+00  0.13003083833E+04  0.13003083833E+04  0.50400001928E-02 0. -1.
        1   -1    0    0  501    0  0.00000000000E+00  0.00000000000E+00 -0.15157796248E+04  0.15157796248E+04  0.50400001928E-02 0.  1.
    10030    2    1    2    0    0  0.00000000000E+00  0.00000000000E+00 -0.21547124147E+03  0.28160880081E+04  0.28078325829E+04 0.  0.
        4    1    3    3  502    0 -0.55521245124E+02 -0.16858594858E+03  0.12890095029E+04  0.13011729102E+04  0.12699999809E+01 0. -1.
       -4    1    3    3    0  502  0.55521245124E+02  0.16858594858E+03 -0.15044807444E+04  0.15149150979E+04  0.12699999809E+01 0.  1.
</event>
<event>
 5   0  0.1377807E-06  0.2868722E+04  0.7818609E-02  0.8282245E-01
       -2   -1    0    0    0  501  0.00000000000E+00  0.00000000000E+00  0.10211035452E+04  0.10211035452E+04  0.25500000920E-02 0.  1.
        2   -1    0    0  501    0  0.00000000000E+00  0.00000000000E+00 -0.20148707715E+04  0.20148707715E+04  0.25500000920E-02 0. -1.
    10030    2    1    2    0    0  0.00000000000E+00  0.00000000000E+00 -0.99376722634E+03  0.30359743167E+04  0.28687221461E+04 0.  0.
        2    1    3    3  502    0 -0.78956974781E+03 -0.16078728048E+03  0.75894174454E+03  0.11069171188E+04  0.25500000920E-02 0.  1.
       -2    1    3    3    0  502  0.78956974781E+03  0.16078728048E+03 -0.17527089709E+04  0.19290571979E+04  0.25500000920E-02 0. -1.
</event>
<event>
 5   0  0.5362952E-07  0.2796717E+04  0.7818609E-02  0.8304288E-01
        1   -1    0    0  501    0  0.00000000000E+00  0.00000000000E+00  0.21740713851E+04  0.21740713851E+04  0.50400001928E-02 0. -1.
       -1   -1    0    0    0  501  0.00000000000E+00  0.00000000000E+00 -0.89942123364E+03  0.89942123365E+03  0.50400001928E-02 0.  1.
    10030    2    1    2    0    0  0.00000000000E+00  0.00000000000E+00  0.12746501515E+04  0.30734926188E+04  0.27967166229E+04 0.  0.
        1    1    3    3  502    0 -0.13831426064E+04  0.13243867431E+03  0.46432104350E+03  0.14649974415E+04  0.50400001928E-02 0. -1.
       -1    1    3    3    0  502  0.13831426064E+04 -0.13243867431E+03  0.81032910799E+03  0.16084951773E+04  0.50400001928E-02 0.  1.
</event>
<event>
 5   0  0.1499888E-06  0.2800118E+04  0.7818609E-02  0.8303232E-01
       -2   -1    0    0    0  501  0.00000000000E+00  0.00000000000E+00  0.11812612163E+04  0.11812612163E+04  0.25500000920E-02 0.  1.
        2   -1    0    0  501    0  0.00000000000E+00  0.00000000000E+00 -0.16593838312E+04  0.16593838312E+04  0.25500000920E-02 0. -1.
    10030    2    1    2    0    0  0.00000000000E+00  0.00000000000E+00 -0.47812261487E+03  0.28406450475E+04  0.28001183995E+04 0.  0.
        3    1    3    3  502    0 -0.45776992036E+03 -0.41520871459E+03 -0.15135134876E+04  0.16348316929E+04  0.10100000352E+00 0. -1.
       -3    1    3    3    0  502  0.45776992036E+03  0.41520871459E+03  0.10353908727E+04  0.12058133546E+04  0.10100000352E+00 0.  1.
</event>
<event>
 5   0  0.1439207E-06  0.2800770E+04  0.7818609E-02  0.8303029E-01
       -2   -1    0    0    0  501  0.00000000000E+00  0.00000000000E+00  0.14218228756E+04  0.14218228756E+04  0.25500000920E-02 0. -1.
        2   -1    0    0  501    0  0.00000000000E+00  0.00000000000E+00 -0.13792707519E+04  0.13792707519E+04  0.25500000920E-02 0.  1.
    10030    2    1    2    0    0  0.00000000000E+00  0.00000000000E+00  0.42552123697E+02  0.28010936274E+04  0.28007703987E+04 0.  0.
        5    1    3    3  502    0  0.57702632843E+03 -0.11881577058E+04  0.48649476863E+03  0.14076140691E+04  0.46999998093E+01 0. -1.
       -5    1    3    3    0  502 -0.57702632843E+03  0.11881577058E+04 -0.44394264494E+03  0.13934795584E+04  0.46999998093E+01 0.  1.
</event>
<event>
 5   0  0.5362952E-07  0.2800319E+04  0.7818609E-02  0.8303169E-01
        1   -1    0    0  501    0  0.00000000000E+00  0.00000000000E+00  0.19903775892E+04  0.19903775892E+04  0.50400001928E-02 0. -1.
       -1   -1    0    0    0  501  0.00000000000E+00  0.00000000000E+00 -0.98496234438E+03  0.98496234439E+03  0.50400001928E-02 0.  1.
    10030    2    1    2    0    0  0.00000000000E+00  0.00000000000E+00  0.10054152448E+04  0.29753399336E+04  0.28003192507E+04 0.  0.
        1    1    3    3  502    0  0.12356332865E+04  0.41909801890E+03 -0.36990436826E+02  0.13052973074E+04  0.50400001928E-02 0.  1.
       -1    1    3    3    0  502 -0.12356332865E+04 -0.41909801890E+03  0.10424056817E+04  0.16700426262E+04  0.50400001928E-02 0. -1.
</event>
<event>
 5   0  0.5282098E-07  0.2812833E+04  0.7818609E-02  0.8299295E-01
       -1   -1    0    0    0  501  0.00000000000E+00  0.00000000000E+00  0.89391235868E+03  0.89391235869E+03  0.50400001928E-02 0. -1.
        1   -1    0    0  501    0  0.00000000000E+00  0.00000000000E+00 -0.22127530000E+04  0.22127530000E+04  0.50400001928E-02 0.  1.
    10030    2    1    2    0    0  0.00000000000E+00  0.00000000000E+00 -0.13188406413E+04  0.31066653587E+04  0.28128329161E+04 0.  0.
        4    1    3    3  502    0 -0.12149425536E+04 -0.62140851799E+03 -0.10352159441E+04  0.17128653241E+04  0.12699999809E+01 0.  1.
       -4    1    3    3    0  502  0.12149425536E+04  0.62140851799E+03 -0.28362469720E+03  0.13938000346E+04  0.12699999809E+01 0. -1.
</event>
<event>
 5   0  0.4710000E-07  0.2799433E+04  0.7818609E-02  0.8303444E-01
        3   -1    0    0  501    0  0.00000000000E+00  0.00000000000E+00  0.93747608598E+03  0.93747609142E+03  0.10100000352E+00 0. -1.
       -3   -1    0    0    0  501  0.00000000000E+00  0.00000000000E+00 -0.20898740079E+04  0.20898740103E+04  0.10100000352E+00 0.  1.
    10030    2    1    2    0    0  0.00000000000E+00  0.00000000000E+00 -0.11523979219E+04  0.30273501017E+04  0.27994334548E+04 0.  0.
        4    1    3    3  502    0 -0.10703044924E+04  0.72984462373E+03 -0.29668229940E+01  0.12954672116E+04  0.12699999809E+01 0. -1.
       -4    1    3    3    0  502  0.10703044924E+04 -0.72984462373E+03 -0.11494310989E+04  0.17318828902E+04  0.12699999809E+01 0.  1.
</event>
<event>
 5   0  0.5297741E-07  0.2809828E+04  0.7818609E-02  0.8300224E-01
       -1   -1    0    0    0  501  0.00000000000E+00  0.00000000000E+00  0.72636196473E+03  0.72636196475E+03  0.50400001928E-02 0.  1.
        1   -1    0    0  501    0  0.00000000000E+00  0.00000000000E+00 -0.27173556580E+04  0.27173556581E+04  0.50400001928E-02 0. -1.
    10030    2    1    2    0    0  0.00000000000E+00  0.00000000000E+00 -0.19909936933E+04  0.34437176228E+04  0.28098283184E+04 0.  0.
        5    1    3    3  502    0  0.69913852555E+03  0.10958888443E+04 -0.34236202177E+03  0.13442473288E+04  0.46999998093E+01 0.  1.
       -5    1    3    3    0  502 -0.69913852555E+03 -0.10958888443E+04 -0.16486316715E+04  0.20994702940E+04  0.46999998093E+01 0. -1.
</event>
<event>
 5   0  0.1439207E-06  0.2801545E+04  0.7818609E-02  0.8302789E-01
        2   -1    0    0  501    0  0.00000000000E+00  0.00000000000E+00  0.18116023421E+04  0.18116023421E+04  0.25500000920E-02 0.  1.
       -2   -1    0    0    0  501  0.00000000000E+00  0.00000000000E+00 -0.10831093167E+04  0.10831093167E+04  0.25500000920E-02 0. -1.
    10030    2    1    2    0    0  0.00000000000E+00  0.00000000000E+00  0.72849302545E+03  0.28947116588E+04  0.28015448416E+04 0.  0.
        5    1    3    3  502    0 -0.13864570172E+04 -0.19942470334E+03  0.37498501455E+03  0.14500583175E+04  0.46999998093E+01 0. -1.
       -5    1    3    3    0  502  0.13864570172E+04  0.19942470334E+03  0.35350801089E+03  0.14446533414E+04  0.46999998093E+01 0.  1.
</event>
<event>
 5   0  0.1439207E-06  0.2801003E+04  0.7818609E-02  0.8302957E-01
        2   -1    0    0  501    0  0.00000000000E+00  0.00000000000E+00  0.15202633249E+04  0.15202633249E+04  0.25500000920E-02 0. -1.
       -2   -1    0    0    0  501  0.00000000000E+00  0.00000000000E+00 -0.12901745586E+04  0.12901745586E+04  0.25500000920E-02 0.  1.
    10030    2    1    2    0    0  0.00000000000E+00  0.00000000000E+00  0.23008876629E+03  0.28104378836E+04  0.28010034375E+04 0.  0.
        5    1    3    3  502    0  0.71672173812E+03  0.62326448058E+03 -0.91761327312E+03  0.13206759147E+04  0.46999998093E+01 0.  1.
       -5    1    3    3    0  502 -0.71672173812E+03 -0.62326448058E+03  0.11477020394E+04  0.14897619689E+04  0.46999998093E+01 0. -1.
</event>
<event>
 5   0  0.1499888E-06  0.2800568E+04  0.7818609E-02  0.8303092E-01
        2   -1    0    0  501    0  0.00000000000E+00  0.00000000000E+00  0.12167644966E+04  0.12167644966E+04  0.25500000920E-02 0. -1.
       -2   -1    0    0    0  501  0.00000000000E+00  0.00000000000E+00 -0.16114835227E+04  0.16114835227E+04  0.25500000920E-02 0.  1.
    10030    2    1    2    0    0  0.00000000000E+00  0.00000000000E+00 -0.39471902610E+03  0.28282480193E+04  0.28005684689E+04 0.  0.
        3    1    3    3  502    0  0.13011506379E+04  0.41210812778E+03  0.11873538511E+03  0.13700088297E+04  0.10100000352E+00 0. -1.
       -3    1    3    3    0  502 -0.13011506379E+04 -0.41210812778E+03 -0.51345441121E+03  0.14582391896E+04  0.10100000352E+00 0.  1.
</event>
<event>
 5   0  0.1439207E-06  0.2801416E+04  0.7818609E-02  0.8302829E-01
       -2   -1    0    0    0  501  0.00000000000E+00  0.00000000000E+00  0.11594181328E+04  0.11594181328E+04  0.25500000920E-02 0. -1.
        2   -1    0    0  501    0  0.00000000000E+00  0.00000000000E+00 -0.16922128585E+04  0.16922128585E+04  0.25500000920E-02 0.  1.
    10030    2    1    2    0    0  0.00000000000E+00  0.00000000000E+00 -0.53279472574E+03  0.28516309913E+04  0.28014155513E+04 0.  0.
        5    1    3    3  502    0  0.66243650520E+03 -0.32606753900E+03 -0.14780351987E+04  0.16521962056E+04  0.46999998093E+01 0.  1.
       -5    1    3    3    0  502 -0.66243650520E+03  0.32606753900E+03  0.94524047294E+03  0.11994347857E+04  0.46999998093E+01 0. -1.
</event>
<event>
 5   0  0.5214658E-07  0.2816481E+04  0.7818609E-02  0.8298170E-01
       -1   -1    0    0    0  501  0.00000000000E+00  0.00000000000E+00  0.15920307784E+04  0.15920307784E+04  0.50400001928E-02 0. -1.
        1   -1    0    0  501    0  0.00000000000E+00  0.00000000000E+00 -0.12456674285E+04  0.12456674285E+04  0.50400001928E-02 0.  1.
    10030    2    1    2    0    0  0.00000000000E+00  0.00000000000E+00  0.34636334991E+03  0.28376982070E+04  0.28164807018E+04 0.  0.
        2    1    3    3  502    0 -0.89866261808E+03  0.63115941979E+03 -0.71504006655E+03  0.13104346649E+04  0.25500000920E-02 0.  1.
       -2    1    3    3    0  502  0.89866261808E+03 -0.63115941979E+03  0.10614034165E+04  0.15272635420E+04  0.25500000920E-02 0. -1.
</event>
<event>
 5   0  0.1499888E-06  0.2800219E+04  0.7818609E-02  0.8303200E-01
       -2   -1    0    0    0  501  0.00000000000E+00  0.00000000000E+00  0.92639817926E+03  0.92639817926E+03  0.25500000920E-02 0. -1.
        2   -1    0    0  501    0  0.00000000000E+00  0.00000000000E+00 -0.21160526350E+04  0.21160526350E+04  0.25500000920E-02 0.  1.
    10030    2    1    2    0    0  0.00000000000E+00  0.00000000000E+00 -0.11896544558E+04  0.30424508143E+04  0.28002194973E+04 0.  0.
        3    1    3    3  502    0  0.85747361107E+03  0.61380905833E+03 -0.15955235857E+04  0.19125161637E+04  0.10100000352E+00 0.  1.
       -3    1    3    3    0  502 -0.85747361107E+03 -0.61380905833E+03  0.40586912992E+03  0.11299346506E+04  0.10100000352E+00 0. -1.
</event>
<event>
 5   0  0.1377807E-06  0.2809527E+04  0.7818609E-02  0.8300317E-01
        2   -1    0    0  501    0  0.00000000000E+00  0.00000000000E+00  0.17706304415E+04  0.17706304415E+04  0.25500000920E-02 0. -1.
       -2   -1    0    0    0  501  0.00000000000E+00  0.00000000000E+00 -0.11144956436E+04  0.11144956436E+04  0.25500000920E-02 0.  1.
    10030    2    1    2    0    0  0.00000000000E+00  0.00000000000E+00  0.65613479789E+03  0.28851260852E+04  0.28095265890E+04 0.  0.
        2    1    3    3  502    0  0.10676549821E+04 -0.89906379858E+03  0.16518978012E+03  0.14055214471E+04  0.25500000920E-02 0. -1.
       -2    1    3    3    0  502 -0.10676549821E+04  0.89906379858E+03  0.49094501777E+03  0.14796046381E+04  0.25500000920E-02 0.  1.
</event>
<event>
 5   0  0.1499888E-06  0.2780713E+04  0.7818609E-02  0.8309281E-01
        2   -1    0    0  501    0  0.00000000000E+00  0.00000000000E+00  0.16837133085E+04  0.16837133085E+04  0.25500000920E-02 0.  1.
       -2   -1    0    0    0  501  0.00000000000E+00  0.00000000000E+00 -0.11481118745E+04  0.11481118745E+04  0.25500000920E-02 0. -1.
    10030    2    1    2    0    0  0.00000000000E+00  0.00000000000E+00  0.53560143406E+03  0.28318251830E+04  0.27807130328E+04 0.  0.
        3    1    3    3  502    0  0.23753606997E+03  0.46808623166E+02  0.16620816941E+04  0.16796219812E+04  0.10100000352E+00 0.  1.
       -3    1    3    3    0  502 -0.23753606997E+03 -0.46808623166E+02 -0.11264802600E+04  0.11522032018E+04  0.10100000352E+00 0. -1.
</event>
<event>
 5   0  0.5214658E-07  0.2803016E+04  0.7818609E-02  0.8302333E-01
       -1   -1    0    0    0  501  0.00000000000E+00  0.00000000000E+00  0.10926200085E+04  0.10926200085E+04  0.50400001928E-02 0.  1.
        1   -1    0    0  501    0  0.00000000000E+00  0.00000000000E+00 -0.17977198982E+04  0.17977198982E+04  0.50400001928E-02 0. -1.
    10030    2    1    2    0    0  0.00000000000E+00  0.00000000000E+00 -0.70509988965E+03  0.28903399067E+04  0.28030160402E+04 0.  0.
        2    1    3    3  502    0 -0.11218394527E+04  0.20206437820E+03  0.48824872962E+03  0.12400566893E+04  0.25500000920E-02 0.  1.
       -2    1    3    3    0  502  0.11218394527E+04 -0.20206437820E+03 -0.11933486193E+04  0.16502832174E+04  0.25500000920E-02 0. -1.
</event>
<event>
 5   0  0.1377807E-06  0.2778271E+04  0.7818609E-02  0.8310046E-01
        2   -1    0    0  501    0  0.00000000000E+00  0.00000000000E+00  0.19368974406E+04  0.19368974406E+04  0.25500000920E-02 0.  1.
       -2   -1    0    0    0  501  0.00000000000E+00  0.00000000000E+00 -0.99628283225E+03  0.99628283225E+03  0.25500000920E-02 0. -1.
    10030    2    1    2    0    0  0.00000000000E+00  0.00000000000E+00  0.94061460831E+03  0.29331802728E+04  0.27782711659E+04 0.  0.
        2    1    3    3  502    0  0.28446940001E+03 -0.12444832414E+04 -0.10798979956E+03  0.12811413562E+04  0.25500000920E-02 0. -1.
       -2    1    3    3    0  502 -0.28446940001E+03  0.12444832414E+04  0.10486044079E+04  0.16520389166E+04  0.25500000920E-02 0.  1.
</event>
<event>
 5   0  0.5282098E-07  0.2804159E+04  0.7818609E-02  0.8301978E-01
        1   -1    0    0  501    0  0.00000000000E+00  0.00000000000E+00  0.15588764815E+04  0.15588764815E+04  0.50400001928E-02 0.  1.
       -1   -1    0    0    0  501  0.00000000000E+00  0.00000000000E+00 -0.12610539998E+04  0.12610539998E+04  0.50400001928E-02 0. -1.
    10030    2    1    2    0    0  0.00000000000E+00  0.00000000000E+00  0.29782248162E+03  0.28199304813E+04  0.28041593551E+04 0.  0.
        4    1    3    3  502    0 -0.29339962528E+03 -0.13227280653E+03  0.15212277262E+04  0.15549002679E+04  0.12699999809E+01 0.  1.
       -4    1    3    3    0  502  0.29339962528E+03  0.13227280653E+03 -0.12234052446E+04  0.12650302134E+04  0.12699999809E+01 0. -1.
</event>
<event>
 5   0  0.5282098E-07  0.2809993E+04  0.7818609E-02  0.8300173E-01
       -1   -1    0    0    0  501  0.00000000000E+00  0.00000000000E+00  0.10947434492E+04  0.10947434492E+04  0.50400001928E-02 0.  1.
        1   -1    0    0  501    0  0.00000000000E+00  0.00000000000E+00 -0.18031756806E+04  0.18031756806E+04  0.50400001928E-02 0. -1.
    10030    2    1    2    0    0  0.00000000000E+00  0.00000000000E+00 -0.70843223139E+03  0.28979191298E+04  0.28099927147E+04 0.  0.
        4    1    3    3  502    0 -0.96401213392E+03  0.10100390312E+04 -0.51568774978E+03  0.14884333062E+04  0.12699999809E+01 0. -1.
       -4    1    3    3    0  502  0.96401213392E+03 -0.10100390312E+04 -0.19274448161E+03  0.14094858236E+04  0.12699999809E+01 0.  1.
</event>
<event>
 5   0  0.1394410E-06  0.2798517E+04  0.7818609E-02  0.8303729E-01
        2   -1    0    0  501    0  0.00000000000E+00  0.00000000000E+00  0.13410871615E+04  0.13410871615E+04  0.25500000920E-02 0. -1.
       -2   -1    0    0    0  501  0.00000000000E+00  0.00000000000E+00 -0.14599533643E+04  0.14599533643E+04  0.25500000920E-02 0.  1.
    10030    2    1    2    0    0  0.00000000000E+00  0.00000000000E+00 -0.11886620279E+03  0.28010405258E+04  0.27985172597E+04 0.  0.
        4    1    3    3  502    0 -0.87066868276E+03 -0.96628154994E+03  0.45693816940E+03  0.13786073018E+04  0.12699999809E+01 0. -1.
       -4    1    3    3    0  502  0.87066868276E+03  0.96628154994E+03 -0.57580437219E+03  0.14224332240E+04  0.12699999809E+01 0.  1.
</event>
<event>
 5   0  0.5551565E-07  0.2800665E+04  0.7818609E-02  0.8303062E-01
        1   -1    0    0  501    0  0.00000000000E+00  0.00000000000E+00  0.14911689319E+04  0.14911689319E+04  0.50400001928E-02 0. -1.
       -1   -1    0    0    0  501  0.00000000000E+00  0.00000000000E+00 -0.13150295317E+04  0.13150295318E+04  0.50400001928E-02 0.  1.
    10030    2    1    2    0    0  0.00000000000E+00  0.00000000000E+00  0.17613940019E+03  0.28061984637E+04  0.28006650513E+04 0.  0.
        3    1    3    3  502    0  0.12409798305E+04  0.61336996352E+02  0.73520798051E+03  0.14437187925E+04  0.10100000352E+00 0. -1.
       -3    1    3    3    0  502 -0.12409798305E+04 -0.61336996352E+02 -0.55906858032E+03  0.13624796713E+04  0.10100000352E+00 0.  1.
</event>
<event>
 5   0  0.5214658E-07  0.2798930E+04  0.7818609E-02  0.8303601E-01
       -1   -1    0    0    0  501  0.00000000000E+00  0.00000000000E+00  0.13076512563E+04  0.13076512563E+04  0.50400001928E-02 0.  1.
        1   -1    0    0  501    0  0.00000000000E+00  0.00000000000E+00 -0.14977256161E+04  0.14977256161E+04  0.50400001928E-02 0. -1.
    10030    2    1    2    0    0  0.00000000000E+00  0.00000000000E+00 -0.19007435984E+03  0.28053768724E+04  0.27989303553E+04 0.  0.
        2    1    3    3  502    0  0.31862426975E+03 -0.12170568700E+04 -0.70943672841E+03  0.14443162125E+04  0.25500000920E-02 0. -1.
       -2    1    3    3    0  502 -0.31862426975E+03  0.12170568700E+04  0.51936236857E+03  0.13610606599E+04  0.25500000920E-02 0.  1.
</event>
<event>
 5   0  0.1499888E-06  0.2724451E+04  0.7818609E-02  0.8327115E-01
       -2   -1    0    0    0  501  0.00000000000E+00  0.00000000000E+00  0.12254146697E+04  0.12254146697E+04  0.25500000920E-02 0. -1.
        2   -1    0    0  501    0  0.00000000000E+00  0.00000000000E+00 -0.15143100710E+04  0.15143100710E+04  0.25500000920E-02 0.  1.
    10030    2    1    2    0    0  0.00000000000E+00  0.00000000000E+00 -0.28889540123E+03  0.27397247407E+04  0.27244506055E+04 0.  0.
        3    1    3    3  502    0 -0.20357845838E+03  0.52931707228E+02  0.12089847671E+04  0.12271471516E+04  0.10100000352E+00 0. -1.
       -3    1    3    3    0  502  0.20357845838E+03 -0.52931707228E+02 -0.14978801683E+04  0.15125775891E+04  0.10100000352E+00 0.  1.
</event>
<event>
 5   0  0.1499888E-06  0.2801938E+04  0.7818609E-02  0.8302667E-01
        2   -1    0    0  501    0  0.00000000000E+00  0.00000000000E+00  0.11267518195E+04  0.11267518195E+04  0.25500000920E-02 0. -1.
       -2   -1    0    0    0  501  0.00000000000E+00  0.00000000000E+00 -0.17419221873E+04  0.17419221873E+04  0.25500000920E-02 0.  1.
    10030    2    1    2    0    0  0.00000000000E+00  0.00000000000E+00 -0.61517036776E+03  0.28686740068E+04  0.28019378965E+04 0.  0.
        3    1    3    3  502    0  0.35278070196E+03 -0.12921613063E+04  0.11277766322E+03  0.13441926487E+04  0.10100000352E+00 0. -1.
       -3    1    3    3    0  502 -0.35278070196E+03  0.12921613063E+04 -0.72794803098E+03  0.15244813581E+04  0.10100000352E+00 0.  1.
</event>
<event>
 5   0  0.1377807E-06  0.2825392E+04  0.7818609E-02  0.8295428E-01
        2   -1    0    0  501    0  0.00000000000E+00  0.00000000000E+00  0.28664516820E+04  0.28664516820E+04  0.25500000920E-02 0.  1.
       -2   -1    0    0    0  501  0.00000000000E+00  0.00000000000E+00 -0.69623007811E+03  0.69623007812E+03  0.25500000920E-02 0. -1.
    10030    2    1    2    0    0  0.00000000000E+00  0.00000000000E+00  0.21702216039E+04  0.35626817601E+04  0.28253919222E+04 0.  0.
        2    1    3    3  502    0 -0.51278057596E+03  0.86182388938E+03 -0.16953613598E+03  0.10170677641E+04  0.25500000920E-02 0. -1.
       -2    1    3    3    0  502  0.51278057596E+03 -0.86182388938E+03  0.23397577399E+04  0.25456139960E+04  0.25500000920E-02 0.  1.
</event>
<event>
 5   0  0.5362952E-07  0.2803087E+04  0.7818609E-02  0.8302311E-01
        1   -1    0    0  501    0  0.00000000000E+00  0.00000000000E+00  0.13427613432E+04  0.13427613432E+04  0.50400001928E-02 0.  1.
       -1   -1    0    0    0  501  0.00000000000E+00  0.00000000000E+00 -0.14628987458E+04  0.14628987458E+04  0.50400001928E-02 0. -1.
    10030    2    1    2    0    0  0.00000000000E+00  0.00000000000E+00 -0.12013740257E+03  0.28056600890E+04  0.28030867878E+04 0.  0.
        1    1    3    3  502    0  0.13440805509E+04 -0.33606769358E+03 -0.27199371273E+03  0.14119046008E+04  0.50400001928E-02 0.  1.
       -1    1    3    3    0  502 -0.13440805509E+04  0.33606769358E+03  0.15185631016E+03  0.13937554882E+04  0.50400001928E-02 0. -1.
</event>
<event>
 5   0  0.1394410E-06  0.2810784E+04  0.7818609E-02  0.8299928E-01
        2   -1    0    0  501    0  0.00000000000E+00  0.00000000000E+00  0.12664236078E+04  0.12664236078E+04  0.25500000920E-02 0. -1.
       -2   -1    0    0    0  501  0.00000000000E+00  0.00000000000E+00 -0.15596096101E+04  0.15596096101E+04  0.25500000920E-02 0.  1.
    10030    2    1    2    0    0  0.00000000000E+00  0.00000000000E+00 -0.29318600225E+03  0.28260332179E+04  0.28107838260E+04 0.  0.
        4    1    3    3  502    0  0.40476429354E+03  0.11805976662E+04 -0.79622523716E+03  0.14804125182E+04  0.12699999809E+01 0.  1.
       -4    1    3    3    0  502 -0.40476429354E+03 -0.11805976662E+04  0.50303923491E+03  0.13456206997E+04  0.12699999809E+01 0. -1.
</event>
<event>
 5   0  0.5551565E-07  0.2799325E+04  0.7818609E-02  0.8303478E-01
       -1   -1    0    0    0  501  0.00000000000E+00  0.00000000000E+00  0.13957888864E+04  0.13957888864E+04  0.50400001928E-02 0.  1.
        1   -1    0    0  501    0  0.00000000000E+00  0.00000000000E+00 -0.14035463757E+04  0.14035463758E+04  0.50400001928E-02 0. -1.
    10030    2    1    2    0    0  0.00000000000E+00  0.00000000000E+00 -0.77574893448E+01  0.27993352622E+04  0.27993245134E+04 0.  0.
        3    1    3    3  502    0  0.13044841806E+04  0.46409060491E+03 -0.20880721529E+03  0.14002355268E+04  0.10100000352E+00 0. -1.
       -3    1    3    3    0  502 -0.13044841806E+04 -0.46409060491E+03  0.20104972595E+03  0.13990997354E+04  0.10100000352E+00 0.  1.
</event>
<event>
 5   0  0.1499888E-06  0.2802716E+04  0.7818609E-02  0.8302426E-01
       -2   -1    0    0    0  501  0.00000000000E+00  0.00000000000E+00  0.98245078347E+03  0.98245078347E+03  0.25500000920E-02 0. -1.
        2   -1    0    0  501    0  0.00000000000E+00  0.00000000000E+00 -0.19988834251E+04  0.19988834251E+04  0.25500000920E-02 0.  1.
    10030    2    1    2    0    0  0.00000000000E+00  0.00000000000E+00 -0.10164326416E+04  0.29813342086E+04  0.28027162447E+04 0.  0.
        3    1    3    3  502    0 -0.13699411579E+04  0.29451612403E+03 -0.52742404854E+03  0.14972156359E+04  0.10100000352E+00 0.  1.
       -3    1    3    3    0  502  0.13699411579E+04 -0.29451612403E+03 -0.48900859309E+03  0.14841185726E+04  0.10100000352E+00 0. -1.
</event>
<event>
 5   0  0.1499888E-06  0.2796831E+04  0.7818609E-02  0.8304253E-01
       -2   -1    0    0    0  501  0.00000000000E+00  0.00000000000E+00  0.97065253430E+03  0.97065253430E+03  0.25500000920E-02 0.  1.
        2   -1    0    0  501    0  0.00000000000E+00  0.00000000000E+00 -0.20146925077E+04  0.20146925077E+04  0.25500000920E-02 0. -1.
    10030    2    1    2    0    0  0.00000000000E+00  0.00000000000E+00 -0.10440399734E+04  0.29853450420E+04  0.27968313417E+04 0.  0.
        3    1    3    3  502    0  0.11982657454E+04 -0.41194627941E+03 -0.11535271945E+04  0.17135243017E+04  0.10100000352E+00 0. -1.
       -3    1    3    3    0  502 -0.11982657454E+04  0.41194627941E+03  0.10948722112E+03  0.12718207403E+04  0.10100000352E+00 0.  1.
</event>
<event>
 5   0  0.5362952E-07  0.2786825E+04  0.7818609E-02  0.8307370E-01
        1   -1    0    0  501    0  0.00000000000E+00  0.00000000000E+00  0.11082483309E+04  0.11082483309E+04  0.50400001928E-02 0.  1.
       -1   -1    0    0    0  501  0.00000000000E+00  0.00000000000E+00 -0.17519524255E+04  0.17519524255E+04  0.50400001928E-02 0. -1.
    10030    2    1    2    0    0  0.00000000000E+00  0.00000000000E+00 -0.64370409463E+03  0.28602007564E+04  0.27868249685E+04 0.  0.
        1    1    3    3  502    0 -0.41433723327E+03  0.56723182157E+03  0.91323269808E+03  0.11521376841E+04  0.50400001928E-02 0.  1.
       -1    1    3    3    0  502  0.41433723327E+03 -0.56723182157E+03 -0.15569367927E+04  0.17080630723E+04  0.50400001928E-02 0. -1.
</event>
<event>
 5   0  0.5362952E-07  0.2806117E+04  0.7818609E-02  0.8301372E-01
       -1   -1    0    0    0  501  0.00000000000E+00  0.00000000000E+00  0.78114659150E+03  0.78114659152E+03  0.50400001928E-02 0. -1.
        1   -1    0    0  501    0  0.00000000000E+00  0.00000000000E+00 -0.25201074909E+04  0.25201074909E+04  0.50400001928E-02 0.  1.
    10030    2    1    2    0    0  0.00000000000E+00  0.00000000000E+00 -0.17389608994E+04  0.33012540824E+04  0.28061171585E+04 0.  0.
        1    1    3    3  502    0  0.11104607501E+04 -0.15766578379E+03  0.12222625100E+03  0.11282379330E+04  0.50400001928E-02 0. -1.
       -1    1    3    3    0  502 -0.11104607501E+04  0.15766578379E+03 -0.18611871504E+04  0.21730161495E+04  0.50400001928E-02 0.  1.
</event>
<event>
 5   0  0.1461146E-06  0.2800165E+04  0.7818609E-02  0.8303217E-01
        2   -1    0    0  501    0  0.00000000000E+00  0.00000000000E+00  0.20420348795E+04  0.20420348795E+04  0.25500000920E-02 0. -1.
       -2   -1    0    0    0  501  0.00000000000E+00  0.00000000000E+00 -0.95994013151E+03  0.95994013152E+03  0.25500000920E-02 0.  1.
    10030    2    1    2    0    0  0.00000000000E+00  0.00000000000E+00  0.10820947480E+04  0.30019750110E+04  0.28001651600E+04 0.  0.
        1    1    3    3  502    0 -0.48247196993E+03 -0.11314997647E+04  0.12579415465E+04  0.17593998561E+04  0.50400001928E-02 0. -1.
       -1    1    3    3    0  502  0.48247196993E+03  0.11314997647E+04 -0.17584679846E+03  0.12425751550E+04  0.50400001928E-02 0.  1.
</event>
<event>
 5   0  0.5282098E-07  0.2816685E+04  0.7818609E-02  0.8298107E-01
       -1   -1    0    0    0  501  0.00000000000E+00  0.00000000000E+00  0.17465488337E+04  0.17465488337E+04  0.50400001928E-02 0.  1.
        1   -1    0    0  501    0  0.00000000000E+00  0.00000000000E+00 -0.11356270947E+04  0.11356270947E+04  0.50400001928E-02 0. -1.
    10030    2    1    2    0    0  0.00000000000E+00  0.00000000000E+00  0.61092173898E+03  0.28821759284E+04  0.28166847021E+04 0.  0.
        4    1    3    3  502    0  0.44534639058E+03 -0.10772244831E+04  0.11142052028E+04  0.16125138267E+04  0.12699999809E+01 0.  1.
       -4    1    3    3    0  502 -0.44534639058E+03  0.10772244831E+04 -0.50328346380E+03  0.12696621017E+04  0.12699999809E+01 0. -1.
</event>
<event>
 5   0  0.1439207E-06  0.2799864E+04  0.7818609E-02  0.8303311E-01
        2   -1    0    0  501    0  0.00000000000E+00  0.00000000000E+00  0.15029496526E+04  0.15029496526E+04  0.25500000920E-02 0.  1.
       -2   -1    0    0    0  501  0.00000000000E+00  0.00000000000E+00 -0.13039755632E+04  0.13039755632E+04  0.25500000920E-02 0. -1.
    10030    2    1    2    0    0  0.00000000000E+00  0.00000000000E+00  0.19897408940E+03  0.28069252158E+04  0.27998640107E+04 0.  0.
        5    1    3    3  502    0  0.75693777086E+03  0.49535054841E+03  0.11705730915E+04  0.14793885248E+04  0.46999998093E+01 0.  1.
       -5    1    3    3    0  502 -0.75693777086E+03 -0.49535054841E+03 -0.97159900214E+03  0.13275366909E+04  0.46999998093E+01 0. -1.
</event>
<event>
 5   0  0.5214658E-07  0.2798311E+04  0.7818609E-02  0.8303793E-01
       -1   -1    0    0    0  501  0.00000000000E+00  0.00000000000E+00  0.17082221839E+04  0.17082221839E+04  0.50400001928E-02 0. -1.
        1   -1    0    0  501    0  0.00000000000E+00  0.00000000000E+00 -0.11460080373E+04  0.11460080373E+04  0.50400001928E-02 0.  1.
    10030    2    1    2    0    0  0.00000000000E+00  0.00000000000E+00  0.56221414659E+03  0.28542302212E+04  0.27983111709E+04 0.  0.
        2    1    3    3  502    0  0.58882041839E+03  0.11354456029E+04  0.85961841228E+03  0.15410678171E+04  0.25500000920E-02 0.  1.
       -2    1    3    3    0  502 -0.58882041839E+03 -0.11354456029E+04 -0.29740426569E+03  0.13131624041E+04  0.25500000920E-02 0. -1.
</event>
<event>
 5   0  0.5297741E-07  0.2810710E+04  0.7818609E-02  0.8299951E-01
        1   -1    0    0  501    0  0.00000000000E+00  0.00000000000E+00  0.17429295865E+04  0.17429295865E+04  0.50400001928E-02 0. -1.
       -1   -1    0    0    0  501  0.00000000000E+00  0.00000000000E+00 -0.11331622923E+04  0.11331622924E+04  0.50400001928E-02 0.  1.
    10030    2    1    2    0    0  0.00000000000E+00  0.00000000000E+00  0.60976729414E+03  0.28760918788E+04  0.28107095799E+04 0.  0.
        5    1    3    3  502    0 -0.53304666944E+03  0.66873343186E+03  0.14460187457E+04  0.16799807908E+04  0.46999998093E+01 0. -1.
       -5    1    3    3    0  502  0.53304666944E+03 -0.66873343186E+03 -0.83625145154E+03  0.11961110880E+04  0.46999998093E+01 0.  1.
</event>
<event>
 5   0  0.5362952E-07  0.2799994E+04  0.7818609E-02  0.8303270E-01
        1   -1    0    0  501    0  0.00000000000E+00  0.00000000000E+00  0.19934751083E+04  0.19934751083E+04  0.50400001928E-02 0. -1.
       -1   -1    0    0    0  501  0.00000000000E+00  0.00000000000E+00 -0.98320315627E+03  0.98320315629E+03  0.50400001928E-02 0.  1.
    10030    2    1    2    0    0  0.00000000000E+00  0.00000000000E+00  0.10102719520E+04  0.29766782646E+04  0.27999935846E+04 0.  0.
        1    1    3    3  502    0  0.26071363143E+03 -0.80493070165E+03 -0.68064246468E+03  0.10858909691E+04  0.50400001928E-02 0.  1.
       -1    1    3    3    0  502 -0.26071363143E+03  0.80493070165E+03  0.16909144167E+04  0.18907872955E+04  0.50400001928E-02 0. -1.
</event>
<event>
 5   0  0.1439207E-06  0.2779571E+04  0.7818609E-02  0.8309639E-01
       -2   -1    0    0    0  501  0.00000000000E+00  0.00000000000E+00  0.18390060644E+04  0.18390060644E+04  0.25500000920E-02 0.  1.
        2   -1    0    0  501    0  0.00000000000E+00  0.00000000000E+00 -0.10502977185E+04  0.10502977185E+04  0.25500000920E-02 0. -1.
    10030    2    1    2    0    0  0.00000000000E+00  0.00000000000E+00  0.78870834590E+03  0.28893037830E+04  0.27795710992E+04 0.  0.
        5    1    3    3  502    0 -0.71421325653E+03  0.11860148102E+04  0.52059870522E+03  0.14791135209E+04  0.46999998093E+01 0. -1.
       -5    1    3    3    0  502  0.71421325653E+03 -0.11860148102E+04  0.26810964068E+03  0.14101902621E+04  0.46999998093E+01 0.  1.
</event>
<event>
 5   0  0.5214658E-07  0.2803944E+04  0.7818609E-02  0.8302045E-01
       -1   -1    0    0    0  501  0.00000000000E+00  0.00000000000E+00  0.12223586893E+04  0.12223586893E+04  0.50400001928E-02 0.  1.
        1   -1    0    0  501    0  0.00000000000E+00  0.00000000000E+00 -0.16079776347E+04  0.16079776347E+04  0.50400001928E-02 0. -1.
    10030    2    1    2    0    0  0.00000000000E+00  0.00000000000E+00 -0.38561894540E+03  0.28303363239E+04  0.28039439608E+04 0.  0.
        2    1    3    3  502    0  0.12418256395E+04 -0.64717467137E+03 -0.26096881644E+03  0.14244545263E+04  0.25500000920E-02 0.  1.
       -2    1    3    3    0  502 -0.12418256395E+04  0.64717467137E+03 -0.12465012896E+03  0.14058817976E+04  0.25500000920E-02 0. -1.
</event>
<event>
 5   0  0.5551565E-07  0.2801348E+04  0.7818609E-02  0.8302850E-01
       -1   -1    0    0    0  501  0.00000000000E+00  0.00000000000E+00  0.12480708203E+04  0.12480708203E+04  0.50400001928E-02 0. -1.
        1   -1    0    0  501    0  0.00000000000E+00  0.00000000000E+00 -0.15719363193E+04  0.15719363193E+04  0.50400001928E-02 0.  1.
    10030    2    1    2    0    0  0.00000000000E+00  0.00000000000E+00 -0.32386549903E+03  0.28200071397E+04  0.28013481409E+04 0.  0.
        3    1    3    3  502    0 -0.29659679708E+02  0.57772101980E+03  0.11221996550E+04  0.12625265737E+04  0.10100000352E+00 0. -1.
       -3    1    3    3    0  502  0.29659679708E+02 -0.57772101980E+03 -0.14460651541E+04  0.15574805660E+04  0.10100000352E+00 0.  1.
</event>
<event>
 5   0  0.1499888E-06  0.2798831E+04  0.7818609E-02  0.8303631E-01
       -2   -1    0    0    0  501  0.00000000000E+00  0.00000000000E+00  0.12933170227E+04  0.12933170227E+04  0.25500000920E-02 0.  1.
        2   -1    0    0  501    0  0.00000000000E+00  0.00000000000E+00 -0.15142175369E+04  0.15142175369E+04  0.25500000920E-02 0. -1.
    10030    2    1    2    0    0  0.00000000000E+00  0.00000000000E+00 -0.22090051419E+03  0.28075345597E+04  0.27988306963E+04 0.  0.
        3    1    3    3  502    0  0.28730683072E+03  0.12667713851E+04  0.41184962645E+03  0.13626720376E+04  0.10100000352E+00 0.  1.
       -3    1    3    3    0  502 -0.28730683072E+03 -0.12667713851E+04 -0.63275014064E+03  0.14448625221E+04  0.10100000352E+00 0. -1.
</event>
<event>
 5   0  0.1439207E-06  0.2806586E+04  0.7818609E-02  0.8301227E-01
        2   -1    0    0  501    0  0.00000000000E+00  0.00000000000E+00  0.83195578046E+03  0.83195578046E+03  0.25500000920E-02 0. -1.
       -2   -1    0    0    0  501  0.00000000000E+00  0.00000000000E+00 -0.23669906421E+04  0.23669906421E+04  0.25500000920E-02 0.  1.
    10030    2    1    2    0    0  0.00000000000E+00  0.00000000000E+00 -0.15350348617E+04  0.31989464226E+04  0.28065862160E+04 0.  0.
        5    1    3    3  502    0  0.13350293374E+04  0.14266145619E+03 -0.30235364548E+03  0.13762613995E+04  0.46999998093E+01 0. -1.
       -5    1    3    3    0  502 -0.13350293374E+04 -0.14266145619E+03 -0.12326812162E+04  0.18226850231E+04  0.46999998093E+01 0.  1.
</event>
<event>
 5   0  0.1461146E-06  0.2805004E+04  0.7818609E-02  0.8301717E-01
       -2   -1    0    0    0  501  0.00000000000E+00  0.00000000000E+00  0.11127254524E+04  0.11127254524E+04  0.25500000920E-02 0. -1.
        2   -1    0    0  501    0  0.00000000000E+00  0.00000000000E+00 -0.17677418968E+04  0.17677418968E+04  0.25500000920E-02 0.  1.
    10030    2    1    2    0    0  0.00000000000E+00  0.00000000000E+00 -0.65501644445E+03  0.28804673492E+04  0.28050036733E+04 0.  0.
        1    1    3    3  502    0 -0.96185621895E+03  0.42920459282E+03  0.62348813793E+03  0.12239777067E+04  0.50400001928E-02 0. -1.
       -1    1    3    3    0  502  0.96185621895E+03 -0.42920459282E+03 -0.12785045824E+04  0.16564896425E+04  0.50400001928E-02 0.  1.
</event>
<event>
 5   0  0.5282098E-07  0.2803709E+04  0.7818609E-02  0.8302118E-01
       -1   -1    0    0    0  501  0.00000000000E+00  0.00000000000E+00  0.15359683797E+04  0.15359683797E+04  0.50400001928E-02 0. -1.
        1   -1    0    0  501    0  0.00000000000E+00  0.00000000000E+00 -0.12794504146E+04  0.12794504146E+04  0.50400001928E-02 0.  1.
    10030    2    1    2    0    0  0.00000000000E+00  0.00000000000E+00  0.25651796517E+03  0.28154187943E+04  0.28037085299E+04 0.  0.
        4    1    3    3  502    0  0.12663133260E+04  0.40021655693E+03 -0.32247100341E+03  0.13666425622E+04  0.12699999809E+01 0.  1.
       -4    1    3    3    0  502 -0.12663133260E+04 -0.40021655693E+03  0.57898896858E+03  0.14487762321E+04  0.12699999809E+01 0. -1.
</event>
<event>
 5   0  0.5297741E-07  0.2795732E+04  0.7818609E-02  0.8304595E-01
       -1   -1    0    0    0  501  0.00000000000E+00  0.00000000000E+00  0.20431749699E+04  0.20431749699E+04  0.50400001928E-02 0. -1.
        1   -1    0    0  501    0  0.00000000000E+00  0.00000000000E+00 -0.95636919587E+03  0.95636919588E+03  0.50400001928E-02 0.  1.
    10030    2    1    2    0    0  0.00000000000E+00  0.00000000000E+00  0.10868057741E+04  0.29995441658E+04  0.27957321782E+04 0.  0.
        5    1    3    3  502    0  0.34383899341E+03  0.76354763492E+03  0.17442746366E+04  0.19348763118E+04  0.46999998093E+01 0. -1.
       -5    1    3    3    0  502 -0.34383899341E+03 -0.76354763492E+03 -0.65746886253E+03  0.10646678540E+04  0.46999998093E+01 0.  1.
</event>
<event>
 5   0  0.5362952E-07  0.2797971E+04  0.7818609E-02  0.8303899E-01
        1   -1    0    0  501    0  0.00000000000E+00  0.00000000000E+00  0.12287418971E+04  0.12287418971E+04  0.50400001928E-02 0.  1.
       -1   -1    0    0    0  501  0.00000000000E+00  0.00000000000E+00 -0.15928161492E+04  0.15928161492E+04  0.50400001928E-02 0. -1.
    10030    2    1    2    0    0  0.00000000000E+00  0.00000000000E+00 -0.36407425213E+03  0.28215580464E+04  0.27979706481E+04 0.  0.
        1    1    3    3  502    0  0.39961962259E+03  0.13266373249E+04  0.13238035116E+02  0.13855820727E+04  0.50400001928E-02 0. -1.
       -1    1    3    3    0  502 -0.39961962259E+03 -0.13266373249E+04 -0.37731228724E+03  0.14359759736E+04  0.50400001928E-02 0.  1.
</event>
<event>
 5   0  0.1377807E-06  0.2778453E+04  0.7818609E-02  0.8309989E-01
       -2   -1    0    0    0  501  0.00000000000E+00  0.00000000000E+00  0.72183580403E+03  0.72183580404E+03  0.25500000920E-02 0.  1.
        2   -1    0    0  501    0  0.00000000000E+00  0.00000000000E+00 -0.26736684283E+04  0.26736684283E+04  0.25500000920E-02 0. -1.
    10030    2    1    2    0    0  0.00000000000E+00  0.00000000000E+00 -0.19518326243E+04  0.33955042323E+04  0.27784525187E+04 0.  0.
        2    1    3    3  502    0 -0.59905659509E+03 -0.87171075226E+03  0.12477510033E+03  0.10650433162E+04  0.25500000920E-02 0.  1.
       -2    1    3    3    0  502  0.59905659509E+03  0.87171075226E+03 -0.20766077246E+04  0.23304609161E+04  0.25500000920E-02 0. -1.
</event>
<event>
 5   0  0.5551565E-07  0.2801118E+04  0.7818609E-02  0.8302921E-01
        1   -1    0    0  501    0  0.00000000000E+00  0.00000000000E+00  0.16159943523E+04  0.16159943523E+04  0.50400001928E-02 0. -1.
       -1   -1    0    0    0  501  0.00000000000E+00  0.00000000000E+00 -0.12138441913E+04  0.12138441913E+04  0.50400001928E-02 0.  1.
    10030    2    1    2    0    0  0.00000000000E+00  0.00000000000E+00  0.40215016099E+03  0.28298385436E+04  0.28011178895E+04 0.  0.
        3    1    3    3  502    0 -0.10181375874E+04 -0.31136592883E+03 -0.71820681297E+03  0.12842795354E+04  0.10100000352E+00 0.  1.
       -3    1    3    3    0  502  0.10181375874E+04  0.31136592883E+03  0.11203569740E+04  0.15455590082E+04  0.10100000352E+00 0. -1.
</event>
<event>
 5   0  0.5214658E-07  0.2798369E+04  0.7818609E-02  0.8303775E-01
       -1   -1    0    0    0  501  0.00000000000E+00  0.00000000000E+00  0.14258599116E+04  0.14258599116E+04  0.50400001928E-02 0.  1.
        1   -1    0    0  501    0  0.00000000000E+00  0.00000000000E+00 -0.13730085259E+04  0.13730085259E+04  0.50400001928E-02 0. -1.
    10030    2    1    2    0    0  0.00000000000E+00  0.00000000000E+00  0.52851385659E+02  0.27988684375E+04  0.27983693934E+04 0.  0.
        2    1    3    3  502    0 -0.11772663338E+04 -0.74469769991E+03  0.15754876881E+03  0.14019102324E+04  0.25500000920E-02 0.  1.
       -2    1    3    3    0  502  0.11772663338E+04  0.74469769991E+03 -0.10469738315E+03  0.13969582052E+04  0.25500000920E-02 0. -1.
</event>
<event>
 5   0  0.5282098E-07  0.2798302E+04  0.7818609E-02  0.8303796E-01
       -1   -1    0    0    0  501  0.00000000000E+00  0.00000000000E+00  0.13193958544E+04  0.13193958544E+04  0.50400001928E-02 0.  1.
        1   -1    0    0  501    0  0.00000000000E+00  0.00000000000E+00 -0.14837271089E+04  0.14837271089E+04  0.50400001928E-02 0. -1.
    10030    2    1    2    0    0  0.00000000000E+00  0.00000000000E+00 -0.16433125455E+03  0.28031229633E+04  0.27983019112E+04 0.  0.
        4    1    3    3  502    0 -0.86709997765E+03  0.10005184121E+04 -0.53540765810E+03  0.14281324999E+04  0.12699999809E+01 0.  1.
       -4    1    3    3    0  502  0.86709997765E+03 -0.10005184121E+04  0.37107640356E+03  0.13749904633E+04  0.12699999809E+01 0. -1.
</event>
<event>
 5   0  0.1461146E-06  0.2746491E+04  0.7818609E-02  0.8320076E-01
        2   -1    0    0  501    0  0.00000000000E+00  0.00000000000E+00  0.25135020977E+04  0.25135020977E+04  0.25500000920E-02 0.  1.
       -2   -1    0    0    0  501  0.00000000000E+00  0.00000000000E+00 -0.75026906253E+03  0.75026906253E+03  0.25500000920E-02 0. -1.
    10030    2    1    2    0    0  0.00000000000E+00  0.00000000000E+00  0.17632330352E+04  0.32637711602E+04  0.27464907519E+04 0.  0.
        1    1    3    3  502    0  0.47356249708E+03 -0.21899512960E+03 -0.62789751559E+03  0.81637956585E+03  0.50400001928E-02 0. -1.
       -1    1    3    3    0  502 -0.47356249708E+03  0.21899512960E+03  0.23911305508E+04  0.24473915944E+04  0.50400001928E-02 0.  1.
</event>
<event>
 5   0  0.1499888E-06  0.2799716E+04  0.7818609E-02  0.8303356E-01
        2   -1    0    0  501    0  0.00000000000E+00  0.00000000000E+00  0.14095279402E+04  0.14095279402E+04  0.25500000920E-02 0. -1.
       -2   -1    0    0    0  501  0.00000000000E+00  0.00000000000E+00 -0.13902545347E+04  0.13902545347E+04  0.25500000920E-02 0.  1.
    10030    2    1    2    0    0  0.00000000000E+00  0.00000000000E+00  0.19273405564E+02  0.27997824749E+04  0.27997161360E+04 0.  0.
        3    1    3    3  502    0  0.11408132209E+04 -0.37577001180E+03 -0.70936899389E+03  0.13949416785E+04  0.10100000352E+00 0.  1.
       -3    1    3    3    0  502 -0.11408132209E+04  0.37577001180E+03  0.72864239945E+03  0.14048407964E+04  0.10100000352E+00 0. -1.
</event>
<event>
 5   0  0.5214658E-07  0.2771846E+04  0.7818609E-02  0.8312063E-01
        1   -1    0    0  501    0  0.00000000000E+00  0.00000000000E+00  0.17577669014E+04  0.17577669014E+04  0.50400001928E-02 0. -1.
       -1   -1    0    0    0  501  0.00000000000E+00  0.00000000000E+00 -0.10927398461E+04  0.10927398461E+04  0.50400001928E-02 0.  1.
    10030    2    1    2    0    0  0.00000000000E+00  0.00000000000E+00  0.66502705526E+03  0.28505067475E+04  0.27718455465E+04 0.  0.
        2    1    3    3  502    0  0.20868152735E+03 -0.56192681313E+02 -0.10753050279E+04  0.10968074126E+04  0.25500000920E-02 0.  1.
       -2    1    3    3    0  502 -0.20868152735E+03  0.56192681313E+02  0.17403320832E+04  0.17536993349E+04  0.25500000920E-02 0. -1.
</event>
<event>
 5   0  0.5297741E-07  0.2798420E+04  0.7818609E-02  0.8303759E-01
       -1   -1    0    0    0  501  0.00000000000E+00  0.00000000000E+00  0.14256624717E+04  0.14256624717E+04  0.50400001928E-02 0.  1.
        1   -1    0    0  501    0  0.00000000000E+00  0.00000000000E+00 -0.13732479902E+04  0.13732479902E+04  0.50400001928E-02 0. -1.
    10030    2    1    2    0    0  0.00000000000E+00  0.00000000000E+00  0.52414481568E+02  0.27989104619E+04  0.27984196426E+04 0.  0.
        5    1    3    3  502    0  0.40647907081E+03 -0.62754401875E+03 -0.11566790586E+04  0.13773036213E+04  0.46999998093E+01 0. -1.
       -5    1    3    3    0  502 -0.40647907081E+03  0.62754401875E+03  0.12090935402E+04  0.14216068407E+04  0.46999998093E+01 0.  1.
</event>
<event>
 5   0  0.1439207E-06  0.2799621E+04  0.7818609E-02  0.8303386E-01
       -2   -1    0    0    0  501  0.00000000000E+00  0.00000000000E+00  0.88111521725E+03  0.88111521726E+03  0.25500000920E-02 0. -1.
        2   -1    0    0  501    0  0.00000000000E+00  0.00000000000E+00 -0.22238512219E+04  0.22238512219E+04  0.25500000920E-02 0.  1.
    10030    2    1    2    0    0  0.00000000000E+00  0.00000000000E+00 -0.13427360047E+04  0.31049664392E+04  0.27996207976E+04 0.  0.
        5    1    3    3  502    0 -0.40386871814E+03  0.12193072017E+04 -0.12884987145E+04  0.18193600580E+04  0.46999998093E+01 0. -1.
       -5    1    3    3    0  502  0.40386871814E+03 -0.12193072017E+04 -0.54237290219E+02  0.12856063812E+04  0.46999998093E+01 0.  1.
</event>
<event>
 5   0  0.1461146E-06  0.2799801E+04  0.7818609E-02  0.8303330E-01
       -2   -1    0    0    0  501  0.00000000000E+00  0.00000000000E+00  0.10433606558E+04  0.10433606558E+04  0.25500000920E-02 0. -1.
        2   -1    0    0  501    0  0.00000000000E+00  0.00000000000E+00 -0.18782783884E+04  0.18782783884E+04  0.25500000920E-02 0.  1.
    10030    2    1    2    0    0  0.00000000000E+00  0.00000000000E+00 -0.83491773267E+03  0.29216390442E+04  0.27998012580E+04 0.  0.
        1    1    3    3  502    0 -0.81553144425E+03 -0.52102418322E+02 -0.16035455279E+04  0.17997678902E+04  0.50400001928E-02 0.  1.
       -1    1    3    3    0  502  0.81553144425E+03  0.52102418322E+02  0.76862779522E+03  0.11218711540E+04  0.50400001928E-02 0. -1.
</event>
<event>
 5   0  0.4710000E-07  0.2804353E+04  0.7818609E-02  0.8301918E-01
        3   -1    0    0  501    0  0.00000000000E+00  0.00000000000E+00  0.13382811185E+04  0.13382811223E+04  0.10100000352E+00 0. -1.
       -3   -1    0    0    0  501  0.00000000000E+00  0.00000000000E+00 -0.14691224064E+04  0.14691224099E+04  0.10100000352E+00 0.  1.
    10030    2    1    2    0    0  0.00000000000E+00  0.00000000000E+00 -0.13084128791E+03  0.28074035322E+04  0.28043528933E+04 0.  0.
        4    1    3    3  502    0 -0.18360069267E+03 -0.58070040230E+03  0.11989556553E+04  0.13447744970E+04  0.12699999809E+01 0. -1.
       -4    1    3    3    0  502  0.18360069267E+03  0.58070040230E+03 -0.13297969432E+04  0.14626290352E+04  0.12699999809E+01 0.  1.
</event>
<event>
 5   0  0.5282098E-07  0.2797418E+04  0.7818609E-02  0.8304071E-01
       -1   -1    0    0    0  501  0.00000000000E+00  0.00000000000E+00  0.14223232234E+04  0.14223232234E+04  0.50400001928E-02 0.  1.
        1   -1    0    0  501    0  0.00000000000E+00  0.00000000000E+00 -0.13754864790E+04  0.13754864790E+04  0.50400001928E-02 0. -1.
    10030    2    1    2    0    0  0.00000000000E+00  0.00000000000E+00  0.46836744387E+02  0.27978097025E+04  0.27974176396E+04 0.  0.
        4    1    3    3  502    0 -0.11152911909E+04  0.68407866995E+03 -0.47116755021E+03  0.13906252336E+04  0.12699999809E+01 0. -1.
       -4    1    3    3    0  502  0.11152911909E+04 -0.68407866995E+03  0.51800429459E+03  0.14071844688E+04  0.12699999809E+01 0.  1.
</event>
<event>
 5   0  0.1394410E-06  0.2810824E+04  0.7818609E-02  0.8299916E-01
        2   -1    0    0  501    0  0.00000000000E+00  0.00000000000E+00  0.20661833641E+04  0.20661833641E+04  0.25500000920E-02 0.  1.
       -2   -1    0    0    0  501  0.00000000000E+00  0.00000000000E+00 -0.95595733939E+03  0.95595733940E+03  0.25500000920E-02 0. -1.
    10030    2    1    2    0    0  0.00000000000E+00  0.00000000000E+00  0.11102260247E+04  0.30221407034E+04  0.28108241862E+04 0.  0.
        4    1    3    3  502    0  0.22338643970E+03 -0.76899491700E+03  0.17968997186E+04  0.19672582178E+04  0.12699999809E+01 0.  1.
       -4    1    3    3    0  502 -0.22338643970E+03  0.76899491700E+03 -0.68667369392E+03  0.10548824857E+04  0.12699999809E+01 0. -1.
</event>
<event>
 5   0  0.1499888E-06  0.2776997E+04  0.7818609E-02  0.8310446E-01
        2   -1    0    0  501    0  0.00000000000E+00  0.00000000000E+00  0.13049098005E+04  0.13049098005E+04  0.25500000920E-02 0. -1.
       -2   -1    0    0    0  501  0.00000000000E+00  0.00000000000E+00 -0.14774415169E+04  0.14774415169E+04  0.25500000920E-02 0.  1.
    10030    2    1    2    0    0  0.00000000000E+00  0.00000000000E+00 -0.17253171643E+03  0.27823513175E+04  0.27769968780E+04 0.  0.
        3    1    3    3  502    0 -0.46989941683E+03  0.19056748216E+03  0.12088232460E+04  0.13108680625E+04  0.10100000352E+00 0. -1.
       -3    1    3    3    0  502  0.46989941683E+03 -0.19056748216E+03 -0.13813549624E+04  0.14714832549E+04  0.10100000352E+00 0.  1.
</event>
<event>
 5   0  0.1439207E-06  0.2798822E+04  0.7818609E-02  0.8303634E-01
       -2   -1    0    0    0  501  0.00000000000E+00  0.00000000000E+00  0.14489987402E+04  0.14489987402E+04  0.25500000920E-02 0.  1.
        2   -1    0    0  501    0  0.00000000000E+00  0.00000000000E+00 -0.13515199065E+04  0.13515199065E+04  0.25500000920E-02 0. -1.
    10030    2    1    2    0    0  0.00000000000E+00  0.00000000000E+00  0.97478833692E+02  0.28005186467E+04  0.27988216391E+04 0.  0.
        5    1    3    3  502    0 -0.95749555561E+03 -0.13489921075E+03 -0.96347318216E+03  0.13650268125E+04  0.46999998093E+01 0. -1.
       -5    1    3    3    0  502  0.95749555561E+03  0.13489921075E+03  0.10609520158E+04  0.14354918342E+04  0.46999998093E+01 0.  1.
</event>
<event>
 5   0  0.1439207E-06  0.2805824E+04  0.7818609E-02  0.8301463E-01
       -2   -1    0    0    0  501  0.00000000000E+00  0.00000000000E+00  0.15343338230E+04  0.15343338230E+04  0.25500000920E-02 0. -1.
        2   -1    0    0  501    0  0.00000000000E+00  0.00000000000E+00 -0.12827469023E+04  0.12827469023E+04  0.25500000920E-02 0.  1.
    10030    2    1    2    0    0  0.00000000000E+00  0.00000000000E+00  0.25158692070E+03  0.28170807252E+04  0.28058239135E+04 0.  0.
        5    1    3    3  502    0 -0.57798018821E+03 -0.89300085894E+03  0.10441369232E+04  0.14905554792E+04  0.46999998093E+01 0. -1.
       -5    1    3    3    0  502  0.57798018821E+03  0.89300085894E+03 -0.79255000251E+03  0.13265252461E+04  0.46999998093E+01 0.  1.
</event>
<event>
 5   0  0.1439207E-06  0.2797888E+04  0.7818609E-02  0.8303924E-01
       -2   -1    0    0    0  501  0.00000000000E+00  0.00000000000E+00  0.10323566566E+04  0.10323566566E+04  0.25500000920E-02 0. -1.
        2   -1    0    0  501    0  0.00000000000E+00  0.00000000000E+00 -0.18957060576E+04  0.18957060576E+04  0.25500000920E-02 0.  1.
    10030    2    1    2    0    0  0.00000000000E+00  0.00000000000E+00 -0.86334940103E+03  0.29280627143E+04  0.27978883234E+04 0.  0.
        5    1    3    3  502    0  0.95929832697E+03 -0.79498499632E+03  0.23413975478E+03  0.12677136661E+04  0.46999998093E+01 0. -1.
       -5    1    3    3    0  502 -0.95929832697E+03  0.79498499632E+03 -0.10974891558E+04  0.16603490481E+04  0.46999998093E+01 0.  1.
</event>
<event>
 5   0  0.5297741E-07  0.2809994E+04  0.7818609E-02  0.8300172E-01
       -1   -1    0    0    0  501  0.00000000000E+00  0.00000000000E+00  0.10529928868E+04  0.10529928868E+04  0.50400001928E-02 0.  1.
        1   -1    0    0  501    0  0.00000000000E+00  0.00000000000E+00 -0.18746726733E+04  0.18746726733E+04  0.50400001928E-02 0. -1.
    10030    2    1    2    0    0  0.00000000000E+00  0.00000000000E+00 -0.82167978651E+03  0.29276655601E+04  0.28099942990E+04 0.  0.
        5    1    3    3  502    0  0.13266877307E+04  0.99484021569E+02  0.59734663592E+02  0.13317611368E+04  0.46999998093E+01 0.  1.
       -5    1    3    3    0  502 -0.13266877307E+04 -0.99484021569E+02 -0.88141445011E+03  0.15959044233E+04  0.46999998093E+01 0. -1.
</event>
<event>
 5   0  0.1461146E-06  0.2809897E+04  0.7818609E-02  0.8300202E-01
       -2   -1    0    0    0  501  0.00000000000E+00  0.00000000000E+00  0.11876197732E+04  0.11876197732E+04  0.25500000920E-02 0. -1.
        2   -1    0    0  501    0  0.00000000000E+00  0.00000000000E+00 -0.16620470408E+04  0.16620470408E+04  0.25500000920E-02 0.  1.
    10030    2    1    2    0    0  0.00000000000E+00  0.00000000000E+00 -0.47442726752E+03  0.28496668140E+04  0.28098967452E+04 0.  0.
        1    1    3    3  502    0 -0.14012109660E+04 -0.10206161379E+03 -0.24577018990E+03  0.14262579467E+04  0.50400001928E-02 0.  1.
       -1    1    3    3    0  502  0.14012109660E+04  0.10206161379E+03 -0.22865707763E+03  0.14234088673E+04  0.50400001928E-02 0. -1.
</event>
<event>
 5   0  0.5214658E-07  0.2813270E+04  0.7818609E-02  0.8299160E-01
        1   -1    0    0  501    0  0.00000000000E+00  0.00000000000E+00  0.12690129441E+04  0.12690129441E+04  0.50400001928E-02 0. -1.
       -1   -1    0    0    0  501  0.00000000000E+00  0.00000000000E+00 -0.15591819754E+04  0.15591819754E+04  0.50400001928E-02 0.  1.
    10030    2    1    2    0    0  0.00000000000E+00  0.00000000000E+00 -0.29016903127E+03  0.28281949195E+04  0.28132700609E+04 0.  0.
        2    1    3    3  502    0  0.85114836947E+03 -0.80691143634E+03 -0.92577533773E+03  0.14941952981E+04  0.25500000920E-02 0.  1.
       -2    1    3    3    0  502 -0.85114836947E+03  0.80691143634E+03  0.63560630647E+03  0.13339996214E+04  0.25500000920E-02 0. -1.
</event>
<event>
 5   0  0.5282098E-07  0.2799274E+04  0.7818609E-02  0.8303494E-01
        1   -1    0    0  501    0  0.00000000000E+00  0.00000000000E+00  0.15704625575E+04  0.15704625575E+04  0.50400001928E-02 0. -1.
       -1   -1    0    0    0  501  0.00000000000E+00  0.00000000000E+00 -0.12473926470E+04  0.12473926470E+04  0.50400001928E-02 0.  1.
    10030    2    1    2    0    0  0.00000000000E+00  0.00000000000E+00  0.32306991045E+03  0.28178552045E+04  0.27992737963E+04 0.  0.
        4    1    3    3  502    0 -0.47732236192E+03  0.62698159953E+03 -0.10028798648E+04  0.12754262815E+04  0.12699999809E+01 0.  1.
       -4    1    3    3    0  502  0.47732236192E+03 -0.62698159953E+03  0.13259497752E+04  0.15424289231E+04  0.12699999809E+01 0. -1.
</event>
<event>
 5   0  0.5551565E-07  0.2741879E+04  0.7818609E-02  0.8321543E-01
       -1   -1    0    0    0  501  0.00000000000E+00  0.00000000000E+00  0.10532757929E+04  0.10532757929E+04  0.50400001928E-02 0. -1.
        1   -1    0    0  501    0  0.00000000000E+00  0.00000000000E+00 -0.17844094772E+04  0.17844094772E+04  0.50400001928E-02 0.  1.
    10030    2    1    2    0    0  0.00000000000E+00  0.00000000000E+00 -0.73113368429E+03  0.28376852701E+04  0.27418791418E+04 0.  0.
        3    1    3    3  502    0 -0.12143295420E+04 -0.12961239286E+03 -0.10102946084E+04  0.15849576698E+04  0.10100000352E+00 0.  1.
       -3    1    3    3    0  502  0.12143295420E+04  0.12961239286E+03  0.27916092411E+03  0.12527276004E+04  0.10100000352E+00 0. -1.
</event>
<event>
 5   0  0.1461146E-06  0.2800296E+04  0.7818609E-02  0.8303176E-01
       -2   -1    0    0    0  501  0.00000000000E+00  0.00000000000E+00  0.19669021048E+04  0.19669021048E+04  0.25500000920E-02 0.  1.
        2   -1    0    0  501    0  0.00000000000E+00  0.00000000000E+00 -0.99670159310E+03  0.99670159310E+03  0.25500000920E-02 0. -1.
    10030    2    1    2    0    0  0.00000000000E+00  0.00000000000E+00  0.97020051174E+03  0.29636036979E+04  0.28002960282E+04 0.  0.
        1    1    3    3  502    0 -0.13026098670E+04 -0.36865870331E+03  0.86331053016E+03  0.16056172572E+04  0.50400001928E-02 0.  1.
       -1    1    3    3    0  502  0.13026098670E+04  0.36865870331E+03  0.10688998158E+03  0.13579864408E+04  0.50400001928E-02 0. -1.
</event>
<event>
 5   0  0.5282098E-07  0.2796631E+04  0.7818609E-02  0.8304315E-01
       -1   -1    0    0    0  501  0.00000000000E+00  0.00000000000E+00  0.12134123639E+04  0.12134123639E+04  0.50400001928E-02 0. -1.
        1   -1    0    0  501    0  0.00000000000E+00  0.00000000000E+00 -0.16113949908E+04  0.16113949908E+04  0.50400001928E-02 0.  1.
    10030    2    1    2    0    0  0.00000000000E+00  0.00000000000E+00 -0.39798262686E+03  0.28248073547E+04  0.27966312627E+04 0.  0.
        4    1    3    3  502    0 -0.58908898012E+03  0.19018242313E+03 -0.14654537224E+04  0.15908335570E+04  0.12699999809E+01 0.  1.
       -4    1    3    3    0  502  0.58908898012E+03 -0.19018242313E+03  0.10674710956E+04  0.12339737977E+04  0.12699999809E+01 0. -1.
</event>
<event>
 5   0  0.5282098E-07  0.2800312E+04  0.7818609E-02  0.8303171E-01
       -1   -1    0    0    0  501  0.00000000000E+00  0.00000000000E+00  0.11886764248E+04  0.11886764248E+04  0.50400001928E-02 0.  1.
        1   -1    0    0  501    0  0.00000000000E+00  0.00000000000E+00 -0.16492606224E+04  0.16492606224E+04  0.50400001928E-02 0. -1.
    10030    2    1    2    0    0  0.00000000000E+00  0.00000000000E+00 -0.46058419766E+03  0.28379370472E+04  0.28003122827E+04 0.  0.
        4    1    3    3  502    0  0.46540219909E+03  0.12869579954E+04  0.69615624969E+02  0.13702948723E+04  0.12699999809E+01 0. -1.
       -4    1    3    3    0  502 -0.46540219909E+03 -0.12869579954E+04 -0.53019982263E+03  0.14676421749E+04  0.12699999809E+01 0.  1.
</event>
<event>
 5   0  0.5297741E-07  0.2814947E+04  0.7818609E-02  0.8298643E-01
       -1   -1    0    0    0  501  0.00000000000E+00  0.00000000000E+00  0.92367252818E+03  0.92367252820E+03  0.50400001928E-02 0. -1.
        1   -1    0    0  501    0  0.00000000000E+00  0.00000000000E+00 -0.21446803702E+04  0.21446803702E+04  0.50400001928E-02 0.  1.
    10030    2    1    2    0    0  0.00000000000E+00  0.00000000000E+00 -0.12210078420E+04  0.30683528984E+04  0.28149474877E+04 0.  0.
        5    1    3    3  502    0  0.31564411051E+01 -0.99414508224E+03  0.47549101088E+03  0.11020200538E+04  0.46999998093E+01 0. -1.
       -5    1    3    3    0  502 -0.31564411051E+01  0.99414508224E+03 -0.16964988529E+04  0.19663328445E+04  0.46999998093E+01 0.  1.
</event>
<event>
 5   0  0.1377807E-06  0.2798556E+04  0.7818609E-02  0.8303717E-01
       -2   -1    0    0    0  501  0.00000000000E+00  0.00000000000E+00  0.92656269743E+03  0.92656269743E+03  0.25500000920E-02 0. -1.
        2   -1    0    0  501    0  0.00000000000E+00  0.00000000000E+00 -0.21131635938E+04  0.21131635938E+04  0.25500000920E-02 0.  1.
    10030    2    1    2    0    0  0.00000000000E+00  0.00000000000E+00 -0.11866008963E+04  0.30397262912E+04  0.27985557415E+04 0.  0.
        2    1    3    3  502    0  0.97747551531E+03  0.98405038943E+03 -0.79406696251E+03  0.15982352433E+04  0.25500000920E-02 0.  1.
       -2    1    3    3    0  502 -0.97747551531E+03 -0.98405038943E+03 -0.39253393383E+03  0.14414910479E+04  0.25500000920E-02 0. -1.
</event>
<event>
 5   0  0.1394410E-06  0.2781962E+04  0.7818609E-02  0.8308890E-01
        2   -1    0    0  501    0  0.00000000000E+00  0.00000000000E+00  0.25706932883E+04  0.25706932883E+04  0.25500000920E-02 0. -1.
       -2   -1    0    0    0  501  0.00000000000E+00  0.00000000000E+00 -0.75264832937E+03  0.75264832937E+03  0.25500000920E-02 0.  1.
    10030    2    1    2    0    0  0.00000000000E+00  0.00000000000E+00  0.18180449590E+04  0.33233416177E+04  0.27819619040E+04 0.  0.
        4    1    3    3  502    0 -0.11348915781E+04 -0.42541078454E+03  0.17243979757E+04  0.21077246550E+04  0.12699999809E+01 0. -1.
       -4    1    3    3    0  502  0.11348915781E+04  0.42541078454E+03  0.93646983277E+02  0.12156169627E+04  0.12699999809E+01 0.  1.
</event>
<event>
 5   0  0.1439207E-06  0.2804550E+04  0.7818609E-02  0.8301857E-01
       -2   -1    0    0    0  501  0.00000000000E+00  0.00000000000E+00  0.12061140915E+04  0.12061140915E+04  0.25500000920E-02 0.  1.
        2   -1    0    0  501    0  0.00000000000E+00  0.00000000000E+00 -0.16303391092E+04  0.16303391092E+04  0.25500000920E-02 0. -1.
    10030    2    1    2    0    0  0.00000000000E+00  0.00000000000E+00 -0.42422501773E+03  0.28364532007E+04  0.28045498559E+04 0.  0.
        5    1    3    3  502    0  0.97707268486E+03  0.92744736871E+03  0.18157539198E+03  0.13593459332E+04  0.46999998093E+01 0.  1.
       -5    1    3    3    0  502 -0.97707268486E+03 -0.92744736871E+03 -0.60580040970E+03  0.14771072675E+04  0.46999998093E+01 0. -1.
</event>
<event>
 5   0  0.1499888E-06  0.2799374E+04  0.7818609E-02  0.8303463E-01
       -2   -1    0    0    0  501  0.00000000000E+00  0.00000000000E+00  0.15182342841E+04  0.15182342841E+04  0.25500000920E-02 0. -1.
        2   -1    0    0  501    0  0.00000000000E+00  0.00000000000E+00 -0.12903960190E+04  0.12903960190E+04  0.25500000920E-02 0.  1.
    10030    2    1    2    0    0  0.00000000000E+00  0.00000000000E+00  0.22783826514E+03  0.28086303031E+04  0.27993738414E+04 0.  0.
        3    1    3    3  502    0  0.65181690778E+02  0.10253149230E+04  0.10676432802E+04  0.14816819929E+04  0.10100000352E+00 0. -1.
       -3    1    3    3    0  502 -0.65181690778E+02 -0.10253149230E+04 -0.83980501509E+03  0.13269483101E+04  0.10100000352E+00 0.  1.
</event>
<event>
 5   0  0.1439207E-06  0.2798292E+04  0.7818609E-02  0.8303799E-01
        2   -1    0    0  501    0  0.00000000000E+00  0.00000000000E+00  0.31062983511E+04  0.31062983511E+04  0.25500000920E-02 0. -1.
       -2   -1    0    0    0  501  0.00000000000E+00  0.00000000000E+00 -0.63020631447E+03  0.63020631448E+03  0.25500000920E-02 0.  1.
    10030    2    1    2    0    0  0.00000000000E+00  0.00000000000E+00  0.24760920366E+04  0.37365046655E+04  0.27982915041E+04 0.  0.
        5    1    3    3  502    0 -0.51977768014E+02  0.66714786009E+02 -0.62677959724E+03  0.63247711781E+03  0.46999998093E+01 0.  1.
       -5    1    3    3    0  502  0.51977768014E+02 -0.66714786009E+02  0.31028716338E+04  0.31040275477E+04  0.46999998093E+01 0. -1.
</event>
<event>
 5   0  0.1377807E-06  0.2800694E+04  0.7818609E-02  0.8303053E-01
        2   -1    0    0  501    0  0.00000000000E+00  0.00000000000E+00  0.22054556721E+04  0.22054556721E+04  0.25500000920E-02 0.  1.
       -2   -1    0    0    0  501  0.00000000000E+00  0.00000000000E+00 -0.88914576650E+03  0.88914576650E+03  0.25500000920E-02 0. -1.
    10030    2    1    2    0    0  0.00000000000E+00  0.00000000000E+00  0.13163099056E+04  0.30946014386E+04  0.28006938955E+04 0.  0.
        2    1    3    3  502    0 -0.54471357057E+03  0.98192595448E+03 -0.26635789520E+03  0.11540528508E+04  0.25500000920E-02 0. -1.
       -2    1    3    3    0  502  0.54471357057E+03 -0.98192595448E+03  0.15826678008E+04  0.19405485878E+04  0.25500000920E-02 0.  1.
</event>
<event>
 5   0  0.5362952E-07  0.2805494E+04  0.7818609E-02  0.8301565E-01
       -1   -1    0    0    0  501  0.00000000000E+00  0.00000000000E+00  0.91518180349E+03  0.91518180350E+03  0.50400001928E-02 0. -1.
        1   -1    0    0  501    0  0.00000000000E+00  0.00000000000E+00 -0.21500635500E+04  0.21500635500E+04  0.50400001928E-02 0.  1.
    10030    2    1    2    0    0  0.00000000000E+00  0.00000000000E+00 -0.12348817465E+04  0.30652453535E+04  0.28054939225E+04 0.  0.
        1    1    3    3  502    0  0.32136900244E+03 -0.73139283346E+03 -0.18772295981E+04  0.20401481507E+04  0.50400001928E-02 0.  1.
       -1    1    3    3    0  502 -0.32136900244E+03  0.73139283346E+03  0.64234785167E+03  0.10250972028E+04  0.50400001928E-02 0. -1.
</event>
<event>
 5   0  0.5282098E-07  0.2804954E+04  0.7818609E-02  0.8301732E-01
        1   -1    0    0  501    0  0.00000000000E+00  0.00000000000E+00  0.16632699026E+04  0.16632699026E+04  0.50400001928E-02 0.  1.
       -1   -1    0    0    0  501  0.00000000000E+00  0.00000000000E+00 -0.11825753770E+04  0.11825753770E+04  0.50400001928E-02 0. -1.
    10030    2    1    2    0    0  0.00000000000E+00  0.00000000000E+00  0.48069452565E+03  0.28458452796E+04  0.28049542115E+04 0.  0.
        4    1    3    3  502    0  0.64841466931E+02 -0.84916028647E+03 -0.89019641536E+03  0.12319613950E+04  0.12699999809E+01 0. -1.
       -4    1    3    3    0  502 -0.64841466931E+02  0.84916028647E+03  0.13708909410E+04  0.16138838846E+04  0.12699999809E+01 0.  1.
</event>
<event>
 5   0  0.1394410E-06  0.2798899E+04  0.7818609E-02  0.8303610E-01
        2   -1    0    0  501    0  0.00000000000E+00  0.00000000000E+00  0.18700032142E+04  0.18700032142E+04  0.25500000920E-02 0. -1.
       -2   -1    0    0    0  501  0.00000000000E+00  0.00000000000E+00 -0.10473024039E+04  0.10473024039E+04  0.25500000920E-02 0.  1.
    10030    2    1    2    0    0  0.00000000000E+00  0.00000000000E+00  0.82270081027E+03  0.29173056181E+04  0.27988989704E+04 0.  0.
        4    1    3    3  502    0  0.12306980027E+04  0.11749177627E+03  0.10948634198E+04  0.16514083118E+04  0.12699999809E+01 0. -1.
       -4    1    3    3    0  502 -0.12306980027E+04 -0.11749177627E+03 -0.27216260956E+03  0.12658973063E+04  0.12699999809E+01 0.  1.
</event>
<event>
 5   0  0.1394410E-06  0.2797952E+04  0.7818609E-02  0.8303904E-01
        2   -1    0    0  501    0  0.00000000000E+00  0.00000000000E+00  0.22376807227E+04  0.22376807228E+04  0.25500000920E-02 0.  1.
       -2   -1    0    0    0  501  0.00000000000E+00  0.00000000000E+00 -0.87462616570E+03  0.87462616571E+03  0.25500000920E-02 0. -1.
    10030    2    1    2    0    0  0.00000000000E+00  0.00000000000E+00  0.13630545570E+04  0.31123068885E+04  0.27979521873E+04 0.  0.
        4    1    3    3  502    0  0.71666836349E+03  0.44765890174E+03 -0.55869272765E+03  0.10129912203E+04  0.12699999809E+01 0. -1.
       -4    1    3    3    0  502 -0.71666836349E+03 -0.44765890174E+03  0.19217472847E+04  0.20993156682E+04  0.12699999809E+01 0.  1.
</event>
<event>
 5   0  0.5214658E-07  0.2794547E+04  0.7818609E-02  0.8304963E-01
       -1   -1    0    0    0  501  0.00000000000E+00  0.00000000000E+00  0.20071382406E+04  0.20071382406E+04  0.50400001928E-02 0.  1.
        1   -1    0    0  501    0  0.00000000000E+00  0.00000000000E+00 -0.97271461466E+03  0.97271461467E+03  0.50400001928E-02 0. -1.
    10030    2    1    2    0    0  0.00000000000E+00  0.00000000000E+00  0.10344236260E+04  0.29798528553E+04  0.27945466182E+04 0.  0.
        2    1    3    3  502    0  0.20949236901E+03 -0.10845681203E+04  0.14296377511E+04  0.18066652041E+04  0.25500000920E-02 0.  1.
       -2    1    3    3    0  502 -0.20949236901E+03  0.10845681203E+04 -0.39521412516E+03  0.11731876512E+04  0.25500000920E-02 0. -1.
</event>
<event>
 5   0  0.5214658E-07  0.2801420E+04  0.7818609E-02  0.8302828E-01
       -1   -1    0    0    0  501  0.00000000000E+00  0.00000000000E+00  0.17831340556E+04  0.17831340556E+04  0.50400001928E-02 0.  1.
        1   -1    0    0  501    0  0.00000000000E+00  0.00000000000E+00 -0.11003037631E+04  0.11003037631E+04  0.50400001928E-02 0. -1.
    10030    2    1    2    0    0  0.00000000000E+00  0.00000000000E+00  0.68283029254E+03  0.28834378187E+04  0.28014204336E+04 0.  0.
        2    1    3    3  502    0  0.17258876716E+03  0.13898426885E+04  0.36532297915E+03  0.14473805513E+04  0.25500000920E-02 0. -1.
       -2    1    3    3    0  502 -0.17258876716E+03 -0.13898426885E+04  0.31750731339E+03  0.14360572674E+04  0.25500000920E-02 0.  1.
</event>
<event>
 5   0  0.1377807E-06  0.2796409E+04  0.7818609E-02  0.8304384E-01
        2   -1    0    0  501    0  0.00000000000E+00  0.00000000000E+00  0.10305150011E+04  0.10305150011E+04  0.25500000920E-02 0.  1.
       -2   -1    0    0    0  501  0.00000000000E+00  0.00000000000E+00 -0.18970865934E+04  0.18970865934E+04  0.25500000920E-02 0. -1.
    10030    2    1    2    0    0  0.00000000000E+00  0.00000000000E+00 -0.86657159231E+03  0.29276015945E+04  0.27964092639E+04 0.  0.
        2    1    3    3  502    0  0.43849997466E+03  0.39700352054E+03 -0.17596410988E+04  0.18564026556E+04  0.25500000920E-02 0. -1.
       -2    1    3    3    0  502 -0.43849997466E+03 -0.39700352054E+03  0.89306950651E+03  0.10711989388E+04  0.25500000920E-02 0.  1.
</event>
<event>
 5   0  0.1499888E-06  0.2795622E+04  0.7818609E-02  0.8304629E-01
       -2   -1    0    0    0  501  0.00000000000E+00  0.00000000000E+00  0.80541422004E+03  0.80541422004E+03  0.25500000920E-02 0.  1.
        2   -1    0    0  501    0  0.00000000000E+00  0.00000000000E+00 -0.24259262459E+04  0.24259262459E+04  0.25500000920E-02 0. -1.
    10030    2    1    2    0    0  0.00000000000E+00  0.00000000000E+00 -0.16205120259E+04  0.32313404660E+04  0.27956219310E+04 0.  0.
        3    1    3    3  502    0 -0.53606587054E+03 -0.33560120871E+03  0.63057522720E+03  0.89309569263E+03  0.10100000352E+00 0.  1.
       -3    1    3    3    0  502  0.53606587054E+03  0.33560120871E+03 -0.22510872531E+04  0.23382447734E+04  0.10100000352E+00 0. -1.
</event>
<event>
 5   0  0.1377807E-06  0.2803671E+04  0.7818609E-02  0.8302129E-01
       -2   -1    0    0    0  501  0.00000000000E+00  0.00000000000E+00  0.63810768815E+03  0.63810768815E+03  0.25500000920E-02 0.  1.
        2   -1    0    0  501    0  0.00000000000E+00  0.00000000000E+00 -0.30796421006E+04  0.30796421006E+04  0.25500000920E-02 0. -1.
    10030    2    1    2    0    0  0.00000000000E+00  0.00000000000E+00 -0.24415344125E+04  0.37177497888E+04  0.28036713796E+04 0.  0.
        2    1    3    3  502    0 -0.12504239864E+04 -0.42244109377E+03 -0.59440030733E+03  0.14475249044E+04  0.25500000920E-02 0.  1.
       -2    1    3    3    0  502  0.12504239864E+04  0.42244109377E+03 -0.18471341051E+04  0.22702248844E+04  0.25500000920E-02 0. -1.
</event>
<event>
 5   0  0.1461146E-06  0.2799525E+04  0.7818609E-02  0.8303416E-01
       -2   -1    0    0    0  501  0.00000000000E+00  0.00000000000E+00  0.10664747165E+04  0.10664747165E+04  0.25500000920E-02 0.  1.
        2   -1    0    0  501    0  0.00000000000E+00  0.00000000000E+00 -0.18372073964E+04  0.18372073964E+04  0.25500000920E-02 0. -1.
    10030    2    1    2    0    0  0.00000000000E+00  0.00000000000E+00 -0.77073267987E+03  0.29036821130E+04  0.27995251293E+04 0.  0.
        1    1    3    3  502    0 -0.12306052748E+04  0.36263157964E+03 -0.96605699961E+03  0.16059754455E+04  0.50400001928E-02 0. -1.
       -1    1    3    3    0  502  0.12306052748E+04 -0.36263157964E+03  0.19532431974E+03  0.12977066675E+04  0.50400001928E-02 0.  1.
</event>
<event>
 5   0  0.5297741E-07  0.2798470E+04  0.7818609E-02  0.8303743E-01
        1   -1    0    0  501    0  0.00000000000E+00  0.00000000000E+00  0.16298313561E+04  0.16298313561E+04  0.50400001928E-02 0. -1.
       -1   -1    0    0    0  501  0.00000000000E+00  0.00000000000E+00 -0.12012648938E+04  0.12012648938E+04  0.50400001928E-02 0.  1.
    10030    2    1    2    0    0  0.00000000000E+00  0.00000000000E+00  0.42856646225E+03  0.28310962499E+04  0.27984704329E+04 0.  0.
        5    1    3    3  502    0  0.19941094575E+03  0.12242266567E+04  0.86939864471E+03  0.15147183652E+04  0.46999998093E+01 0. -1.
       -5    1    3    3    0  502 -0.19941094575E+03 -0.12242266567E+04 -0.44083218247E+03  0.13163778847E+04  0.46999998093E+01 0.  1.
</event>
<event>
 5   0  0.1439207E-06  0.2883008E+04  0.7818609E-02  0.8277951E-01
       -2   -1    0    0    0  501  0.00000000000E+00  0.00000000000E+00  0.14689214922E+04  0.14689214922E+04  0.25500000920E-02 0. -1.
        2   -1    0    0  501    0  0.00000000000E+00  0.00000000000E+00 -0.14145983576E+04  0.14145983576E+04  0.25500000920E-02 0.  1.
    10030    2    1    2    0    0  0.00000000000E+00  0.00000000000E+00  0.54323134588E+02  0.28835198498E+04  0.28830081029E+04 0.  0.
        5    1    3    3  502    0  0.22424750815E+03  0.31531938184E+03 -0.13616808181E+04  0.14155952804E+04  0.46999998093E+01 0.  1.
       -5    1    3    3    0  502 -0.22424750815E+03 -0.31531938184E+03  0.14160039527E+04  0.14679245694E+04  0.46999998093E+01 0. -1.
</event>
<event>
 5   0  0.1394410E-06  0.2798315E+04  0.7818609E-02  0.8303792E-01
       -2   -1    0    0    0  501  0.00000000000E+00  0.00000000000E+00  0.12189886542E+04  0.12189886542E+04  0.25500000920E-02 0. -1.
        2   -1    0    0  501    0  0.00000000000E+00  0.00000000000E+00 -0.16059558972E+04  0.16059558972E+04  0.25500000920E-02 0.  1.
    10030    2    1    2    0    0  0.00000000000E+00  0.00000000000E+00 -0.38696724299E+03  0.28249445513E+04  0.27983152201E+04 0.  0.
        4    1    3    3  502    0 -0.11710752170E+04 -0.20623106459E+03  0.55088791856E+03  0.13105065920E+04  0.12699999809E+01 0. -1.
       -4    1    3    3    0  502  0.11710752170E+04  0.20623106459E+03 -0.93785516155E+03  0.15144379594E+04  0.12699999809E+01 0.  1.
</event>
<event>
 5   0  0.1377807E-06  0.2802648E+04  0.7818609E-02  0.8302447E-01
       -2   -1    0    0    0  501  0.00000000000E+00  0.00000000000E+00  0.85954567964E+03  0.85954567964E+03  0.25500000920E-02 0.  1.
        2   -1    0    0  501    0  0.00000000000E+00  0.00000000000E+00 -0.22845898059E+04  0.22845898059E+04  0.25500000920E-02 0. -1.
    10030    2    1    2    0    0  0.00000000000E+00  0.00000000000E+00 -0.14250441263E+04  0.31441354856E+04  0.28026482458E+04 0.  0.
        2    1    3    3  502    0  0.64807822006E+02  0.10743873656E+04 -0.17191867168E+04  0.20283272006E+04  0.25500000920E-02 0. -1.
       -2    1    3    3    0  502 -0.64807822006E+02 -0.10743873656E+04  0.29414259056E+03  0.11158082850E+04  0.25500000920E-02 0.  1.
</event>
<event>
 5   0  0.5297741E-07  0.2812131E+04  0.7818609E-02  0.8299512E-01
       -1   -1    0    0    0  501  0.00000000000E+00  0.00000000000E+00  0.67937167832E+03  0.67937167834E+03  0.50400001928E-02 0. -1.
        1   -1    0    0  501    0  0.00000000000E+00  0.00000000000E+00 -0.29100723786E+04  0.29100723786E+04  0.50400001928E-02 0.  1.
    10030    2    1    2    0    0  0.00000000000E+00  0.00000000000E+00 -0.22307007003E+04  0.35894440570E+04  0.28121314023E+04 0.  0.
        5    1    3    3  502    0  0.65077127800E+03  0.44570466199E+03  0.37036642528E+03  0.87140649582E+03  0.46999998093E+01 0. -1.
       -5    1    3    3    0  502 -0.65077127800E+03 -0.44570466199E+03 -0.26010671256E+04  0.27180375612E+04  0.46999998093E+01 0.  1.
</event>
<event>
 5   0  0.5297741E-07  0.2800346E+04  0.7818609E-02  0.8303161E-01
        1   -1    0    0  501    0  0.00000000000E+00  0.00000000000E+00  0.22545417647E+04  0.22545417647E+04  0.50400001928E-02 0.  1.
       -1   -1    0    0    0  501  0.00000000000E+00  0.00000000000E+00 -0.86957103186E+03  0.86957103187E+03  0.50400001928E-02 0. -1.
    10030    2    1    2    0    0  0.00000000000E+00  0.00000000000E+00  0.13849707328E+04  0.31241127966E+04  0.28003458420E+04 0.  0.
        5    1    3    3  502    0  0.71541415670E+03  0.49444482588E+02 -0.64913365291E+03  0.96729455793E+03  0.46999998093E+01 0. -1.
       -5    1    3    3    0  502 -0.71541415670E+03 -0.49444482588E+02  0.20341043858E+04  0.21568182387E+04  0.46999998093E+01 0.  1.
</event>
<event>
 5   0  0.1461146E-06  0.2800303E+04  0.7818609E-02  0.8303174E-01
        2   -1    0    0  501    0  0.00000000000E+00  0.00000000000E+00  0.24356721875E+04  0.24356721875E+04  0.25500000920E-02 0.  1.
       -2   -1    0    0    0  501  0.00000000000E+00  0.00000000000E+00 -0.80488003098E+03  0.80488003098E+03  0.25500000920E-02 0. -1.
    10030    2    1    2    0    0  0.00000000000E+00  0.00000000000E+00  0.16307921566E+04  0.32405522185E+04  0.28003027735E+04 0.  0.
        1    1    3    3  502    0 -0.52673832205E+03  0.93944686729E+03  0.18507059350E+04  0.21412907636E+04  0.50400001928E-02 0.  1.
       -1    1    3    3    0  502  0.52673832205E+03 -0.93944686729E+03 -0.21991377841E+03  0.10992614550E+04  0.50400001928E-02 0. -1.
</event>
<event>
 5   0  0.1439207E-06  0.2796164E+04  0.7818609E-02  0.8304460E-01
        2   -1    0    0  501    0  0.00000000000E+00  0.00000000000E+00  0.21080201099E+04  0.21080201099E+04  0.25500000920E-02 0.  1.
       -2   -1    0    0    0  501  0.00000000000E+00  0.00000000000E+00 -0.92723622250E+03  0.92723622250E+03  0.25500000920E-02 0. -1.
    10030    2    1    2    0    0  0.00000000000E+00  0.00000000000E+00  0.11807838874E+04  0.30352563324E+04  0.27961635172E+04 0.  0.
        5    1    3    3  502    0 -0.40350958574E+03  0.95964379204E+03  0.16033945230E+04  0.19117092561E+04  0.46999998093E+01 0. -1.
       -5    1    3    3    0  502  0.40350958574E+03 -0.95964379204E+03 -0.42261063561E+03  0.11235470763E+04  0.46999998093E+01 0.  1.
</event>
<event>
 5   0  0.1439207E-06  0.2839680E+04  0.7818609E-02  0.8291054E-01
        2   -1    0    0  501    0  0.00000000000E+00  0.00000000000E+00  0.19445999951E+04  0.19445999951E+04  0.25500000920E-02 0. -1.
       -2   -1    0    0    0  501  0.00000000000E+00  0.00000000000E+00 -0.10366888371E+04  0.10366888371E+04  0.25500000920E-02 0.  1.
    10030    2    1    2    0    0  0.00000000000E+00  0.00000000000E+00  0.90791115806E+03  0.29812888322E+04  0.28396796351E+04 0.  0.
        5    1    3    3  502    0  0.90994143293E+03 -0.57699611118E+03 -0.51682048011E+03  0.11950077081E+04  0.46999998093E+01 0.  1.
       -5    1    3    3    0  502 -0.90994143293E+03  0.57699611118E+03  0.14247316382E+04  0.17862811241E+04  0.46999998093E+01 0. -1.
</event>
<event>
 5   0  0.5282098E-07  0.2801841E+04  0.7818609E-02  0.8302697E-01
       -1   -1    0    0    0  501  0.00000000000E+00  0.00000000000E+00  0.12522275050E+04  0.12522275050E+04  0.50400001928E-02 0. -1.
        1   -1    0    0  501    0  0.00000000000E+00  0.00000000000E+00 -0.15672699682E+04  0.15672699682E+04  0.50400001928E-02 0.  1.
    10030    2    1    2    0    0  0.00000000000E+00  0.00000000000E+00 -0.31504246317E+03  0.28194974732E+04  0.28018412246E+04 0.  0.
        4    1    3    3  502    0  0.12356873715E+04  0.10819425625E+03  0.49769449990E+03  0.13365368328E+04  0.12699999809E+01 0. -1.
       -4    1    3    3    0  502 -0.12356873715E+04 -0.10819425625E+03 -0.81273696306E+03  0.14829606405E+04  0.12699999809E+01 0.  1.
</event>
<event>
 5   0  0.5282098E-07  0.2859794E+04  0.7818609E-02  0.8284942E-01
        1   -1    0    0  501    0  0.00000000000E+00  0.00000000000E+00  0.20355256732E+04  0.20355256732E+04  0.50400001928E-02 0.  1.
       -1   -1    0    0    0  501  0.00000000000E+00  0.00000000000E+00 -0.10044603234E+04  0.10044603234E+04  0.50400001928E-02 0. -1.
    10030    2    1    2    0    0  0.00000000000E+00  0.00000000000E+00  0.10310653498E+04  0.30399859966E+04  0.28597935422E+04 0.  0.
        4    1    3    3  502    0  0.32751025876E+03 -0.23558705786E+03  0.19737697186E+04  0.20145800422E+04  0.12699999809E+01 0.  1.
       -4    1    3    3    0  502 -0.32751025876E+03  0.23558705786E+03 -0.94270436884E+03  0.10254059544E+04  0.12699999809E+01 0. -1.
</event>
<event>
 5   0  0.5214658E-07  0.2801438E+04  0.7818609E-02  0.8302822E-01
       -1   -1    0    0    0  501  0.00000000000E+00  0.00000000000E+00  0.25463349597E+04  0.25463349597E+04  0.50400001928E-02 0. -1.
        1   -1    0    0  501    0  0.00000000000E+00  0.00000000000E+00 -0.77052481636E+03  0.77052481638E+03  0.50400001928E-02 0.  1.
    10030    2    1    2    0    0  0.00000000000E+00  0.00000000000E+00  0.17758101434E+04  0.33168597761E+04  0.28014384000E+04 0.  0.
        2    1    3    3  502    0  0.91269481055E+02 -0.54907162638E+03  0.24097764021E+04  0.24732230141E+04  0.25500000920E-02 0. -1.
       -2    1    3    3    0  502 -0.91269481055E+02  0.54907162638E+03 -0.63396625875E+03  0.84363676206E+03  0.25500000920E-02 0.  1.
</event>
<event>
 5   0  0.1461146E-06  0.2801454E+04  0.7818609E-02  0.8302817E-01
        2   -1    0    0  501    0  0.00000000000E+00  0.00000000000E+00  0.30206271185E+04  0.30206271185E+04  0.25500000920E-02 0.  1.
       -2   -1    0    0    0  501  0.00000000000E+00  0.00000000000E+00 -0.64954606453E+03  0.64954606453E+03  0.25500000920E-02 0. -1.
    10030    2    1    2    0    0  0.00000000000E+00  0.00000000000E+00  0.23710810540E+04  0.36701731831E+04  0.28014542347E+04 0.  0.
        1    1    3    3  502    0  0.86729381631E+03 -0.10990879130E+04  0.11292879243E+04  0.17987451238E+04  0.50400001928E-02 0. -1.
       -1    1    3    3    0  502 -0.86729381631E+03  0.10990879130E+04  0.12417931297E+04  0.18714280593E+04  0.50400001928E-02 0.  1.
</event>
<event>
 5   0  0.1439207E-06  0.2797021E+04  0.7818609E-02  0.8304194E-01
        2   -1    0    0  501    0  0.00000000000E+00  0.00000000000E+00  0.82817104285E+03  0.82817104285E+03  0.25500000920E-02 0. -1.
       -2   -1    0    0    0  501  0.00000000000E+00  0.00000000000E+00 -0.23616280202E+04  0.23616280202E+04  0.25500000920E-02 0.  1.
    10030    2    1    2    0    0  0.00000000000E+00  0.00000000000E+00 -0.15334569773E+04  0.31897990630E+04  0.27970212300E+04 0.  0.
        5    1    3    3  502    0 -0.10498356711E+04 -0.74188754047E+03 -0.13947485936E+04  0.18968125338E+04  0.46999998093E+01 0.  1.
       -5    1    3    3    0  502  0.10498356711E+04  0.74188754047E+03 -0.13870838373E+03  0.12929865292E+04  0.46999998093E+01 0. -1.
</event>
<event>
 5   0  0.1499888E-06  0.2790819E+04  0.7818609E-02  0.8306124E-01
       -2   -1    0    0    0  501  0.00000000000E+00  0.00000000000E+00  0.20475900222E+04  0.20475900222E+04  0.25500000920E-02 0.  1.
        2   -1    0    0  501    0  0.00000000000E+00  0.00000000000E+00 -0.95095564064E+03  0.95095564064E+03  0.25500000920E-02 0. -1.
    10030    2    1    2    0    0  0.00000000000E+00  0.00000000000E+00  0.10966343815E+04  0.29985456628E+04  0.27908187195E+04 0.  0.
        3    1    3    3  502    0 -0.63779019959E+03  0.70389921552E+03 -0.54998007111E+03  0.10976012633E+04  0.10100000352E+00 0. -1.
       -3    1    3    3    0  502  0.63779019959E+03 -0.70389921552E+03  0.16466144527E+04  0.19009443996E+04  0.10100000352E+00 0.  1.
</event>
<event>
 5   0  0.5282098E-07  0.2716556E+04  0.7818609E-02  0.8329653E-01
        1   -1    0    0  501    0  0.00000000000E+00  0.00000000000E+00  0.16237576409E+04  0.16237576409E+04  0.50400001928E-02 0.  1.
       -1   -1    0    0    0  501  0.00000000000E+00  0.00000000000E+00 -0.11362033197E+04  0.11362033198E+04  0.50400001928E-02 0. -1.
    10030    2    1    2    0    0  0.00000000000E+00  0.00000000000E+00  0.48755432112E+03  0.27599609606E+04  0.27165557768E+04 0.  0.
        4    1    3    3  502    0 -0.20999158665E+03  0.37436972660E+03 -0.10654823212E+04  0.11486963691E+04  0.12699999809E+01 0. -1.
       -4    1    3    3    0  502  0.20999158665E+03 -0.37436972660E+03  0.15530366423E+04  0.16112645915E+04  0.12699999809E+01 0.  1.
</event>
<event>
 5   0  0.1461146E-06  0.2765756E+04  0.7818609E-02  0.8313979E-01
        2   -1    0    0  501    0  0.00000000000E+00  0.00000000000E+00  0.19565354746E+04  0.19565354746E+04  0.25500000920E-02 0. -1.
       -2   -1    0    0    0  501  0.00000000000E+00  0.00000000000E+00 -0.97741705019E+03  0.97741705019E+03  0.25500000920E-02 0.  1.
    10030    2    1    2    0    0  0.00000000000E+00  0.00000000000E+00  0.97911842441E+03  0.29339525248E+04  0.27657556885E+04 0.  0.
        1    1    3    3  502    0 -0.59849089545E+03 -0.12408322339E+04  0.61727676519E+03  0.15095981549E+04  0.50400001928E-02 0. -1.
       -1    1    3    3    0  502  0.59849089545E+03  0.12408322339E+04  0.36184165923E+03  0.14243543699E+04  0.50400001928E-02 0.  1.
</event>
<event>
 5   0  0.5282098E-07  0.2799049E+04  0.7818609E-02  0.8303564E-01
       -1   -1    0    0    0  501  0.00000000000E+00  0.00000000000E+00  0.10393510006E+04  0.10393510007E+04  0.50400001928E-02 0. -1.
        1   -1    0    0  501    0  0.00000000000E+00  0.00000000000E+00 -0.18845108255E+04  0.18845108255E+04  0.50400001928E-02 0.  1.
    10030    2    1    2    0    0  0.00000000000E+00  0.00000000000E+00 -0.84515982488E+03  0.29238618262E+04  0.27990485614E+04 0.  0.
        4    1    3    3  502    0  0.90797372905E+03  0.74671201838E+03  0.37067111678E+03  0.12326369379E+04  0.12699999809E+01 0. -1.
       -4    1    3    3    0  502 -0.90797372905E+03 -0.74671201838E+03 -0.12158309417E+04  0.16912248883E+04  0.12699999809E+01 0.  1.
</event>
<event>
 5   0  0.1499888E-06  0.2793269E+04  0.7818609E-02  0.8305361E-01
       -2   -1    0    0    0  501  0.00000000000E+00  0.00000000000E+00  0.13081189623E+04  0.13081189623E+04  0.25500000920E-02 0.  1.
        2   -1    0    0  501    0  0.00000000000E+00  0.00000000000E+00 -0.14911392189E+04  0.14911392189E+04  0.25500000920E-02 0. -1.
    10030    2    1    2    0    0  0.00000000000E+00  0.00000000000E+00 -0.18302025660E+03  0.27992581812E+04  0.27932686858E+04 0.  0.
        3    1    3    3  502    0  0.10810536565E+04 -0.48289771676E+03  0.65083479535E+03  0.13510933181E+04  0.10100000352E+00 0. -1.
       -3    1    3    3    0  502 -0.10810536565E+04  0.48289771676E+03 -0.83385505195E+03  0.14481648632E+04  0.10100000352E+00 0.  1.
</event>
<event>
 5   0  0.1394410E-06  0.2784998E+04  0.7818609E-02  0.8307941E-01
       -2   -1    0    0    0  501  0.00000000000E+00  0.00000000000E+00  0.12398266036E+04  0.12398266036E+04  0.25500000920E-02 0.  1.
        2   -1    0    0  501    0  0.00000000000E+00  0.00000000000E+00 -0.15639711003E+04  0.15639711003E+04  0.25500000920E-02 0. -1.
    10030    2    1    2    0    0  0.00000000000E+00  0.00000000000E+00 -0.32414449672E+03  0.28037977038E+04  0.27849976498E+04 0.  0.
        4    1    3    3  502    0 -0.10114382483E+04 -0.56478991560E+03 -0.93998253875E+03  0.14918323515E+04  0.12699999809E+01 0. -1.
       -4    1    3    3    0  502  0.10114382483E+04  0.56478991560E+03  0.61583804202E+03  0.13119653524E+04  0.12699999809E+01 0.  1.
</event>
<event>
 5   0  0.5362952E-07  0.2802238E+04  0.7818609E-02  0.8302574E-01
        1   -1    0    0  501    0  0.00000000000E+00  0.00000000000E+00  0.15155902117E+04  0.15155902117E+04  0.50400001928E-02 0.  1.
       -1   -1    0    0    0  501  0.00000000000E+00  0.00000000000E+00 -0.12952936232E+04  0.12952936232E+04  0.50400001928E-02 0. -1.
    10030    2    1    2    0    0  0.00000000000E+00  0.00000000000E+00  0.22029658853E+03  0.28108838349E+04  0.28022379175E+04 0.  0.
        1    1    3    3  502    0  0.66633710874E+03  0.12324903759E+04  0.12001059025E+03  0.14062148523E+04  0.50400001928E-02 0.  1.
       -1    1    3    3    0  502 -0.66633710874E+03 -0.12324903759E+04  0.10028599828E+03  0.14046689826E+04  0.50400001928E-02 0. -1.
</event>
<event>
 5   0  0.1461146E-06  0.2796089E+04  0.7818609E-02  0.8304484E-01
        2   -1    0    0  501    0  0.00000000000E+00  0.00000000000E+00  0.22139283468E+04  0.22139283468E+04  0.25500000920E-02 0. -1.
       -2   -1    0    0    0  501  0.00000000000E+00  0.00000000000E+00 -0.88283251330E+03  0.88283251331E+03  0.25500000920E-02 0.  1.
    10030    2    1    2    0    0  0.00000000000E+00  0.00000000000E+00  0.13310958335E+04  0.30967608601E+04  0.27960886443E+04 0.  0.
        1    1    3    3  502    0  0.10482183213E+04  0.96942993420E+02  0.16844593527E+04  0.19863441051E+04  0.50400001928E-02 0. -1.
       -1    1    3    3    0  502 -0.10482183213E+04 -0.96942993420E+02 -0.35336351922E+03  0.11104167550E+04  0.50400001928E-02 0.  1.
</event>
<event>
 5   0  0.5297741E-07  0.2796938E+04  0.7818609E-02  0.8304220E-01
        1   -1    0    0  501    0  0.00000000000E+00  0.00000000000E+00  0.11893444667E+04  0.11893444667E+04  0.50400001928E-02 0. -1.
       -1   -1    0    0    0  501  0.00000000000E+00  0.00000000000E+00 -0.16443644951E+04  0.16443644952E+04  0.50400001928E-02 0.  1.
    10030    2    1    2    0    0  0.00000000000E+00  0.00000000000E+00 -0.45502002846E+03  0.28337089618E+04  0.27969381928E+04 0.  0.
        5    1    3    3  502    0  0.12670575228E+04 -0.56429486414E+03 -0.40826591875E+03  0.14458791824E+04  0.46999998093E+01 0.  1.
       -5    1    3    3    0  502 -0.12670575228E+04  0.56429486414E+03 -0.46754109708E+02  0.13878297794E+04  0.46999998093E+01 0. -1.
</event>
<event>
 5   0  0.5297741E-07  0.2787024E+04  0.7818609E-02  0.8307308E-01
        1   -1    0    0  501    0  0.00000000000E+00  0.00000000000E+00  0.22359373334E+04  0.22359373334E+04  0.50400001928E-02 0. -1.
       -1   -1    0    0    0  501  0.00000000000E+00  0.00000000000E+00 -0.86848415694E+03  0.86848415696E+03  0.50400001928E-02 0.  1.
    10030    2    1    2    0    0  0.00000000000E+00  0.00000000000E+00  0.13674531765E+04  0.31044214904E+04  0.27870243272E+04 0.  0.
        5    1    3    3  502    0 -0.85249851275E+03 -0.12688418954E+01 -0.54412451882E+03  0.10113599291E+04  0.46999998093E+01 0.  1.
       -5    1    3    3    0  502  0.85249851275E+03  0.12688418954E+01  0.19115776953E+04  0.20930615613E+04  0.46999998093E+01 0. -1.
</event>
<event>
 5   0  0.5362952E-07  0.2799136E+04  0.7818609E-02  0.8303537E-01
        1   -1    0    0  501    0  0.00000000000E+00  0.00000000000E+00  0.14897527529E+04  0.14897527529E+04  0.50400001928E-02 0. -1.
       -1   -1    0    0    0  501  0.00000000000E+00  0.00000000000E+00 -0.13148427367E+04  0.13148427367E+04  0.50400001928E-02 0.  1.
    10030    2    1    2    0    0  0.00000000000E+00  0.00000000000E+00  0.17491001620E+03  0.28045954897E+04  0.27991360001E+04 0.  0.
        1    1    3    3  502    0  0.89253082866E+03  0.91387635306E+03 -0.48550761950E+03  0.13665646408E+04  0.50400001928E-02 0.  1.
       -1    1    3    3    0  502 -0.89253082866E+03 -0.91387635306E+03  0.66041763571E+03  0.14380308489E+04  0.50400001928E-02 0. -1.
</event>
<event>
 5   0  0.5551565E-07  0.2792321E+04  0.7818609E-02  0.8305656E-01
        1   -1    0    0  501    0  0.00000000000E+00  0.00000000000E+00  0.12467337381E+04  0.12467337381E+04  0.50400001928E-02 0. -1.
       -1   -1    0    0    0  501  0.00000000000E+00  0.00000000000E+00 -0.15634970036E+04  0.15634970036E+04  0.50400001928E-02 0.  1.
    10030    2    1    2    0    0  0.00000000000E+00  0.00000000000E+00 -0.31676326546E+03  0.28102307417E+04  0.27923212307E+04 0.  0.
        3    1    3    3  502    0 -0.32167138938E+03 -0.63098556868E+03  0.10525183325E+04  0.12686252879E+04  0.10100000352E+00 0. -1.
       -3    1    3    3    0  502  0.32167138938E+03  0.63098556868E+03 -0.13692815979E+04  0.15416054538E+04  0.10100000352E+00 0.  1.
</event>
<event>
 5   0  0.5551565E-07  0.2800724E+04  0.7818609E-02  0.8303044E-01
       -1   -1    0    0    0  501  0.00000000000E+00  0.00000000000E+00  0.16825129284E+04  0.16825129284E+04  0.50400001928E-02 0. -1.
        1   -1    0    0  501    0  0.00000000000E+00  0.00000000000E+00 -0.11655269144E+04  0.11655269144E+04  0.50400001928E-02 0.  1.
    10030    2    1    2    0    0  0.00000000000E+00  0.00000000000E+00  0.51698601403E+03  0.28480398428E+04  0.28007242648E+04 0.  0.
        3    1    3    3  502    0 -0.10458901914E+04  0.91979799090E+03  0.40620349270E+03  0.14508328382E+04  0.10100000352E+00 0. -1.
       -3    1    3    3    0  502  0.10458901914E+04 -0.91979799090E+03  0.11078252133E+03  0.13972070047E+04  0.10100000352E+00 0.  1.
</event>
<event>
 5   0  0.5282098E-07  0.2800035E+04  0.7818609E-02  0.8303257E-01
       -1   -1    0    0    0  501  0.00000000000E+00  0.00000000000E+00  0.11478853020E+04  0.11478853020E+04  0.50400001928E-02 0.  1.
        1   -1    0    0  501    0  0.00000000000E+00  0.00000000000E+00 -0.17075305294E+04  0.17075305294E+04  0.50400001928E-02 0. -1.
    10030    2    1    2    0    0  0.00000000000E+00  0.00000000000E+00 -0.55964522740E+03  0.28554158314E+04  0.28000351408E+04 0.  0.
        4    1    3    3  502    0 -0.17603991679E+03  0.11995671814E+04 -0.99373761667E+03  0.15676311870E+04  0.12699999809E+01 0. -1.
       -4    1    3    3    0  502  0.17603991679E+03 -0.11995671814E+04  0.43409238927E+03  0.12877846443E+04  0.12699999809E+01 0.  1.
</event>
<event>
 5   0  0.5551565E-07  0.2750583E+04  0.7818609E-02  0.8318777E-01
       -1   -1    0    0    0  501  0.00000000000E+00  0.00000000000E+00  0.15814618212E+04  0.15814618212E+04  0.50400001928E-02 0. -1.
        1   -1    0    0  501    0  0.00000000000E+00  0.00000000000E+00 -0.11959988316E+04  0.11959988316E+04  0.50400001928E-02 0.  1.
    10030    2    1    2    0    0  0.00000000000E+00  0.00000000000E+00  0.38546298961E+03  0.27774606529E+04  0.27505828404E+04 0.  0.
        3    1    3    3  502    0  0.11015706568E+04  0.46403624983E+03  0.87955361201E+03  0.14840492309E+04  0.10100000352E+00 0. -1.
       -3    1    3    3    0  502 -0.11015706568E+04 -0.46403624983E+03 -0.49409062240E+03  0.12934114220E+04  0.10100000352E+00 0.  1.
</event>
<event>
 5   0  0.5362952E-07  0.2788091E+04  0.7818609E-02  0.8306975E-01
       -1   -1    0    0    0  501  0.00000000000E+00  0.00000000000E+00  0.98726683344E+03  0.98726683346E+03  0.50400001928E-02 0. -1.
        1   -1    0    0  501    0  0.00000000000E+00  0.00000000000E+00 -0.19684267254E+04  0.19684267254E+04  0.50400001928E-02 0.  1.
    10030    2    1    2    0    0  0.00000000000E+00  0.00000000000E+00 -0.98115989196E+03  0.29556935589E+04  0.27880906873E+04 0.  0.
        1    1    3    3  502    0  0.60736818543E+03  0.45409386377E+03  0.74946557915E+03  0.10662063610E+04  0.50400001928E-02 0. -1.
       -1    1    3    3    0  502 -0.60736818543E+03 -0.45409386377E+03 -0.17306254711E+04  0.18894871979E+04  0.50400001928E-02 0.  1.
</event>
<event>
 5   0  0.5297741E-07  0.2800734E+04  0.7818609E-02  0.8303040E-01
       -1   -1    0    0    0  501  0.00000000000E+00  0.00000000000E+00  0.86913169571E+03  0.86913169572E+03  0.50400001928E-02 0.  1.
        1   -1    0    0  501    0  0.00000000000E+00  0.00000000000E+00 -0.22563074709E+04  0.22563074709E+04  0.50400001928E-02 0. -1.
    10030    2    1    2    0    0  0.00000000000E+00  0.00000000000E+00 -0.13871757752E+04  0.31254391667E+04  0.28007344310E+04 0.  0.
        5    1    3    3  502    0  0.11729518728E+03  0.35489055638E+03 -0.21996051733E+04  0.22311410705E+04  0.46999998093E+01 0. -1.
       -5    1    3    3    0  502 -0.11729518728E+03 -0.35489055638E+03  0.81242939808E+03  0.89429809618E+03  0.46999998093E+01 0.  1.
</event>
<event>
 5   0  0.1499888E-06  0.2799130E+04  0.7818609E-02  0.8303539E-01
       -2   -1    0    0    0  501  0.00000000000E+00  0.00000000000E+00  0.17019971588E+04  0.17019971588E+04  0.25500000920E-02 0. -1.
        2   -1    0    0  501    0  0.00000000000E+00  0.00000000000E+00 -0.11508724668E+04  0.11508724668E+04  0.25500000920E-02 0.  1.
    10030    2    1    2    0    0  0.00000000000E+00  0.00000000000E+00  0.55112469194E+03  0.28528696256E+04  0.27991296281E+04 0.  0.
        3    1    3    3  502    0  0.11340620090E+04 -0.26254264363E+03  0.10674977884E+04  0.15794229385E+04  0.10100000352E+00 0.  1.
       -3    1    3    3    0  502 -0.11340620090E+04  0.26254264363E+03 -0.51637309649E+03  0.12734466872E+04  0.10100000352E+00 0. -1.
</event>
<event>
 5   0  0.1377807E-06  0.2799855E+04  0.7818609E-02  0.8303313E-01
       -2   -1    0    0    0  501  0.00000000000E+00  0.00000000000E+00  0.10848053136E+04  0.10848053136E+04  0.25500000920E-02 0.  1.
        2   -1    0    0  501    0  0.00000000000E+00  0.00000000000E+00 -0.18065882138E+04  0.18065882138E+04  0.25500000920E-02 0. -1.
    10030    2    1    2    0    0  0.00000000000E+00  0.00000000000E+00 -0.72178290018E+03  0.28913935274E+04  0.27998546347E+04 0.  0.
        2    1    3    3  502    0 -0.13685715009E+04 -0.18335181047E+03 -0.12272017211E+03  0.13862417106E+04  0.25500000920E-02 0.  1.
       -2    1    3    3    0  502  0.13685715009E+04  0.18335181047E+03 -0.59906272807E+03  0.15051518168E+04  0.25500000920E-02 0. -1.
</event>
<event>
 5   0  0.5297741E-07  0.2799186E+04  0.7818609E-02  0.8303521E-01
        1   -1    0    0  501    0  0.00000000000E+00  0.00000000000E+00  0.21206547294E+04  0.21206547294E+04  0.50400001928E-02 0. -1.
       -1   -1    0    0    0  501  0.00000000000E+00  0.00000000000E+00 -0.92370527070E+03  0.92370527071E+03  0.50400001928E-02 0.  1.
    10030    2    1    2    0    0  0.00000000000E+00  0.00000000000E+00  0.11969494587E+04  0.30443600001E+04  0.27991855608E+04 0.  0.
        5    1    3    3  502    0 -0.61293902022E+03  0.16187618255E+02 -0.76984796624E+03  0.98419726814E+03  0.46999998093E+01 0.  1.
       -5    1    3    3    0  502  0.61293902022E+03 -0.16187618255E+02  0.19667974250E+04  0.20601627320E+04  0.46999998093E+01 0. -1.
</event>
<event>
 5   0  0.1499888E-06  0.2783200E+04  0.7818609E-02  0.8308503E-01
        2   -1    0    0  501    0  0.00000000000E+00  0.00000000000E+00  0.14272978941E+04  0.14272978941E+04  0.25500000920E-02 0.  1.
       -2   -1    0    0    0  501  0.00000000000E+00  0.00000000000E+00 -0.13567953980E+04  0.13567953980E+04  0.25500000920E-02 0. -1.
    10030    2    1    2    0    0  0.00000000000E+00  0.00000000000E+00  0.70502496106E+02  0.27840932921E+04  0.27832004702E+04 0.  0.
        3    1    3    3  502    0  0.59394064858E+03  0.11059738943E+04 -0.56544738745E+03  0.13768349600E+04  0.10100000352E+00 0. -1.
       -3    1    3    3    0  502 -0.59394064858E+03 -0.11059738943E+04  0.63594988356E+03  0.14072583321E+04  0.10100000352E+00 0.  1.
</event>
<event>
 5   0  0.1461146E-06  0.2816026E+04  0.7818609E-02  0.8298310E-01
       -2   -1    0    0    0  501  0.00000000000E+00  0.00000000000E+00  0.88825904621E+03  0.88825904622E+03  0.25500000920E-02 0.  1.
        2   -1    0    0  501    0  0.00000000000E+00  0.00000000000E+00 -0.22318943748E+04  0.22318943748E+04  0.25500000920E-02 0. -1.
    10030    2    1    2    0    0  0.00000000000E+00  0.00000000000E+00 -0.13436353286E+04  0.31201534210E+04  0.28160258299E+04 0.  0.
        1    1    3    3  502    0 -0.10479831306E+04 -0.81211302909E+03 -0.11970420312E+04  0.17862546959E+04  0.50400001928E-02 0.  1.
       -1    1    3    3    0  502  0.10479831306E+04  0.81211302909E+03 -0.14659329733E+03  0.13338987251E+04  0.50400001928E-02 0. -1.
</event>
<event>
 5   0  0.1394410E-06  0.2802836E+04  0.7818609E-02  0.8302388E-01
        2   -1    0    0  501    0  0.00000000000E+00  0.00000000000E+00  0.23940787605E+04  0.23940787605E+04  0.25500000920E-02 0.  1.
       -2   -1    0    0    0  501  0.00000000000E+00  0.00000000000E+00 -0.82034607060E+03  0.82034607061E+03  0.25500000920E-02 0. -1.
    10030    2    1    2    0    0  0.00000000000E+00  0.00000000000E+00  0.15737326899E+04  0.32144248311E+04  0.28028364946E+04 0.  0.
        4    1    3    3  502    0  0.99004473312E+03 -0.86907637162E+03  0.13350654573E+04  0.18756022237E+04  0.12699999809E+01 0.  1.
       -4    1    3    3    0  502 -0.99004473312E+03  0.86907637162E+03  0.23866723255E+03  0.13388226074E+04  0.12699999809E+01 0. -1.
</event>
<event>
 5   0  0.1377807E-06  0.2800104E+04  0.7818609E-02  0.8303236E-01
        2   -1    0    0  501    0  0.00000000000E+00  0.00000000000E+00  0.10379429425E+04  0.10379429425E+04  0.25500000920E-02 0. -1.
       -2   -1    0    0    0  501  0.00000000000E+00  0.00000000000E+00 -0.18884903091E+04  0.18884903091E+04  0.25500000920E-02 0.  1.
    10030    2    1    2    0    0  0.00000000000E+00  0.00000000000E+00 -0.85054736651E+03  0.29264332516E+04  0.28001037040E+04 0.  0.
        2    1    3    3  502    0 -0.51772729805E+03  0.86369438925E+03 -0.14418528536E+04  0.17586782550E+04  0.25500000920E-02 0.  1.
       -2    1    3    3    0  502  0.51772729805E+03 -0.86369438925E+03  0.59130548705E+03  0.11677549966E+04  0.25500000920E-02 0. -1.
</event>
<event>
 5   0  0.5297741E-07  0.2800695E+04  0.7818609E-02  0.8303053E-01
        1   -1    0    0  501    0  0.00000000000E+00  0.00000000000E+00  0.22833063567E+04  0.22833063568E+04  0.50400001928E-02 0.  1.
       -1   -1    0    0    0  501  0.00000000000E+00  0.00000000000E+00 -0.85883034150E+03  0.85883034151E+03  0.50400001928E-02 0. -1.
    10030    2    1    2    0    0  0.00000000000E+00  0.00000000000E+00  0.14244760152E+04  0.31421366983E+04  0.28006947553E+04 0.  0.
        5    1    3    3  502    0 -0.13806895219E+03 -0.33918239814E+03 -0.80414847398E+03  0.88362016329E+03  0.46999998093E+01 0. -1.
       -5    1    3    3    0  502  0.13806895219E+03  0.33918239814E+03  0.22286244892E+04  0.22585165350E+04  0.46999998093E+01 0.  1.
</event>
<event>
 5   0  0.1377807E-06  0.2786715E+04  0.7818609E-02  0.8307405E-01
        2   -1    0    0  501    0  0.00000000000E+00  0.00000000000E+00  0.18988750204E+04  0.18988750204E+04  0.25500000920E-02 0. -1.
       -2   -1    0    0    0  501  0.00000000000E+00  0.00000000000E+00 -0.10224185184E+04  0.10224185184E+04  0.25500000920E-02 0.  1.
    10030    2    1    2    0    0  0.00000000000E+00  0.00000000000E+00  0.87645650204E+03  0.29212935388E+04  0.27867149011E+04 0.  0.
        2    1    3    3  502    0 -0.89716201144E+03  0.22383517720E+03 -0.65443454495E+03  0.11328223316E+04  0.25500000920E-02 0.  1.
       -2    1    3    3    0  502  0.89716201144E+03 -0.22383517720E+03  0.15308910470E+04  0.17884712072E+04  0.25500000920E-02 0. -1.
</event>
<event>
 5   0  0.5297741E-07  0.2824178E+04  0.7818609E-02  0.8295801E-01
       -1   -1    0    0    0  501  0.00000000000E+00  0.00000000000E+00  0.76251103667E+03  0.76251103668E+03  0.50400001928E-02 0.  1.
        1   -1    0    0  501    0  0.00000000000E+00  0.00000000000E+00 -0.26150379744E+04  0.26150379744E+04  0.50400001928E-02 0. -1.
    10030    2    1    2    0    0  0.00000000000E+00  0.00000000000E+00 -0.18525269378E+04  0.33775490111E+04  0.28241779808E+04 0.  0.
        5    1    3    3  502    0 -0.17702383287E+03 -0.73955826120E+03  0.49669944787E+03  0.90830407388E+03  0.46999998093E+01 0.  1.
       -5    1    3    3    0  502  0.17702383287E+03  0.73955826120E+03 -0.23492263856E+04  0.24692449372E+04  0.46999998093E+01 0. -1.
</event>
<event>
 5   0  0.5282098E-07  0.2788607E+04  0.7818609E-02  0.8306814E-01
        1   -1    0    0  501    0  0.00000000000E+00  0.00000000000E+00  0.12737657757E+04  0.12737657757E+04  0.50400001928E-02 0. -1.
       -1   -1    0    0    0  501  0.00000000000E+00  0.00000000000E+00 -0.15262473907E+04  0.15262473907E+04  0.50400001928E-02 0.  1.
    10030    2    1    2    0    0  0.00000000000E+00  0.00000000000E+00 -0.25248161493E+03  0.28000131664E+04  0.27886065994E+04 0.  0.
        4    1    3    3  502    0  0.99584909479E+02 -0.70491846948E+03  0.10775178285E+04  0.12914617635E+04  0.12699999809E+01 0. -1.
       -4    1    3    3    0  502 -0.99584909479E+02  0.70491846948E+03 -0.13299994435E+04  0.15085514029E+04  0.12699999809E+01 0.  1.
</event>
<event>
 5   0  0.5214658E-07  0.2796883E+04  0.7818609E-02  0.8304237E-01
        1   -1    0    0  501    0  0.00000000000E+00  0.00000000000E+00  0.75903760334E+03  0.75903760336E+03  0.50400001928E-02 0. -1.
       -1   -1    0    0    0  501  0.00000000000E+00  0.00000000000E+00 -0.25764716041E+04  0.25764716041E+04  0.50400001928E-02 0.  1.
    10030    2    1    2    0    0  0.00000000000E+00  0.00000000000E+00 -0.18174340008E+04  0.33355092075E+04  0.27968831449E+04 0.  0.
        2    1    3    3  502    0  0.83209281789E+03  0.54164831941E+02 -0.22475591112E+04  0.23972555652E+04  0.25500000920E-02 0.  1.
       -2    1    3    3    0  502 -0.83209281789E+03 -0.54164831941E+02  0.43012511042E+03  0.93825364227E+03  0.25500000920E-02 0. -1.
</event>
<event>
 5   0  0.5282098E-07  0.2800054E+04  0.7818609E-02  0.8303252E-01
        1   -1    0    0  501    0  0.00000000000E+00  0.00000000000E+00  0.17562447491E+04  0.17562447491E+04  0.50400001928E-02 0. -1.
       -1   -1    0    0    0  501  0.00000000000E+00  0.00000000000E+00 -0.11160604757E+04  0.11160604757E+04  0.50400001928E-02 0.  1.
    10030    2    1    2    0    0  0.00000000000E+00  0.00000000000E+00  0.64018427335E+03  0.28723052248E+04  0.28000538210E+04 0.  0.
        4    1    3    3  502    0 -0.81602653504E+03  0.58011596617E+03  0.13239340498E+04  0.16598906052E+04  0.12699999809E+01 0. -1.
       -4    1    3    3    0  502  0.81602653504E+03 -0.58011596617E+03 -0.68374977645E+03  0.12124146196E+04  0.12699999809E+01 0.  1.
</event>
<event>
 5   0  0.1461146E-06  0.2798468E+04  0.7818609E-02  0.8303744E-01
        2   -1    0    0  501    0  0.00000000000E+00  0.00000000000E+00  0.20156059416E+04  0.20156059416E+04  0.25500000920E-02 0. -1.
       -2   -1    0    0    0  501  0.00000000000E+00  0.00000000000E+00 -0.97134826669E+03  0.97134826670E+03  0.25500000920E-02 0.  1.
    10030    2    1    2    0    0  0.00000000000E+00  0.00000000000E+00  0.10442576749E+04  0.29869542083E+04  0.27984676791E+04 0.  0.
        1    1    3    3  502    0 -0.73827948174E+01  0.86379815764E+03  0.16970196381E+04  0.19042261985E+04  0.50400001928E-02 0. -1.
       -1    1    3    3    0  502  0.73827948174E+01 -0.86379815764E+03 -0.65276196315E+03  0.10827280099E+04  0.50400001928E-02 0.  1.
</event>
<event>
 5   0  0.1394410E-06  0.2803985E+04  0.7818609E-02  0.8302032E-01
       -2   -1    0    0    0  501  0.00000000000E+00  0.00000000000E+00  0.15844051941E+04  0.15844051941E+04  0.25500000920E-02 0. -1.
        2   -1    0    0  501    0  0.00000000000E+00  0.00000000000E+00 -0.12405807614E+04  0.12405807614E+04  0.25500000920E-02 0.  1.
    10030    2    1    2    0    0  0.00000000000E+00  0.00000000000E+00  0.34382443274E+03  0.28249859555E+04  0.28039847375E+04 0.  0.
        4    1    3    3  502    0 -0.27406075324E+03  0.64547064445E+03  0.13950227882E+04  0.15613557704E+04  0.12699999809E+01 0. -1.
       -4    1    3    3    0  502  0.27406075324E+03 -0.64547064445E+03 -0.10511983555E+04  0.12636301851E+04  0.12699999809E+01 0.  1.
</event>
<event>
 5   0  0.5551565E-07  0.2801114E+04  0.7818609E-02  0.8302923E-01
        1   -1    0    0  501    0  0.00000000000E+00  0.00000000000E+00  0.21907146327E+04  0.21907146327E+04  0.50400001928E-02 0. -1.
       -1   -1    0    0    0  501  0.00000000000E+00  0.00000000000E+00 -0.89539738236E+03  0.89539738238E+03  0.50400001928E-02 0.  1.
    10030    2    1    2    0    0  0.00000000000E+00  0.00000000000E+00  0.12953172503E+04  0.30861120151E+04  0.28011141695E+04 0.  0.
        3    1    3    3  502    0  0.48833407508E+03  0.99226731190E+03 -0.29913389094E+03  0.11456638609E+04  0.10100000352E+00 0.  1.
       -3    1    3    3    0  502 -0.48833407508E+03 -0.99226731190E+03  0.15944511413E+04  0.19404481542E+04  0.10100000352E+00 0. -1.
</event>
<event>
 5   0  0.1499888E-06  0.2797234E+04  0.7818609E-02  0.8304128E-01
        2   -1    0    0  501    0  0.00000000000E+00  0.00000000000E+00  0.20831864485E+04  0.20831864485E+04  0.25500000920E-02 0.  1.
       -2   -1    0    0    0  501  0.00000000000E+00  0.00000000000E+00 -0.93900803928E+03  0.93900803929E+03  0.25500000920E-02 0. -1.
    10030    2    1    2    0    0  0.00000000000E+00  0.00000000000E+00  0.11441784092E+04  0.30221944878E+04  0.27972335065E+04 0.  0.
        3    1    3    3  502    0 -0.24004339313E+02  0.13973770643E+04  0.51400762543E+03  0.14891080274E+04  0.10100000352E+00 0. -1.
       -3    1    3    3    0  502  0.24004339313E+02 -0.13973770643E+04  0.63017078377E+03  0.15330864604E+04  0.10100000352E+00 0.  1.
</event>
<event>
 5   0  0.5551565E-07  0.2803506E+04  0.7818609E-02  0.8302181E-01
       -1   -1    0    0    0  501  0.00000000000E+00  0.00000000000E+00  0.70790732437E+03  0.70790732438E+03  0.50400001928E-02 0.  1.
        1   -1    0    0  501    0  0.00000000000E+00  0.00000000000E+00 -0.27756623310E+04  0.27756623311E+04  0.50400001928E-02 0. -1.
    10030    2    1    2    0    0  0.00000000000E+00  0.00000000000E+00 -0.20677550067E+04  0.34835696554E+04  0.28035061578E+04 0.  0.
        3    1    3    3  502    0  0.21873495717E+03 -0.81917495721E+03 -0.24209058375E+04  0.25650882395E+04  0.10100000352E+00 0. -1.
       -3    1    3    3    0  502 -0.21873495717E+03  0.81917495721E+03  0.35315083080E+03  0.91848141598E+03  0.10100000352E+00 0.  1.
</event>
<event>
 5   0  0.5214658E-07  0.2824246E+04  0.7818609E-02  0.8295780E-01
       -1   -1    0    0    0  501  0.00000000000E+00  0.00000000000E+00  0.70438191832E+03  0.70438191834E+03  0.50400001928E-02 0.  1.
        1   -1    0    0  501    0  0.00000000000E+00  0.00000000000E+00 -0.28309802956E+04  0.28309802956E+04  0.50400001928E-02 0. -1.
    10030    2    1    2    0    0  0.00000000000E+00  0.00000000000E+00 -0.21265983773E+04  0.35353622140E+04  0.28242459747E+04 0.  0.
        2    1    3    3  502    0  0.55631957063E+03 -0.12564048521E+04 -0.65565617258E+03  0.15224748384E+04  0.25500000920E-02 0.  1.
       -2    1    3    3    0  502 -0.55631957063E+03  0.12564048521E+04 -0.14709422047E+04  0.20128873755E+04  0.25500000920E-02 0. -1.
</event>
<event>
 5   0  0.1377807E-06  0.2799940E+04  0.7818609E-02  0.8303287E-01
        2   -1    0    0  501    0  0.00000000000E+00  0.00000000000E+00  0.15376617945E+04  0.15376617945E+04  0.25500000920E-02 0.  1.
       -2   -1    0    0    0  501  0.00000000000E+00  0.00000000000E+00 -0.12746079961E+04  0.12746079961E+04  0.25500000920E-02 0. -1.
    10030    2    1    2    0    0  0.00000000000E+00  0.00000000000E+00  0.26305379839E+03  0.28122697905E+04  0.27999400126E+04 0.  0.
        2    1    3    3  502    0 -0.36154650463E+03  0.10076727123E+04  0.10376057423E+04  0.14908876036E+04  0.25500000920E-02 0.  1.
       -2    1    3    3    0  502  0.36154650463E+03 -0.10076727123E+04 -0.77455194390E+03  0.13213821869E+04  0.25500000920E-02 0. -1.
</event>
<event>
 5   0  0.4710000E-07  0.2798861E+04  0.7818609E-02  0.8303622E-01
        3   -1    0    0  501    0  0.00000000000E+00  0.00000000000E+00  0.20231019290E+04  0.20231019315E+04  0.10100000352E+00 0. -1.
       -3   -1    0    0    0  501  0.00000000000E+00  0.00000000000E+00 -0.96802125142E+03  0.96802125669E+03  0.10100000352E+00 0.  1.
    10030    2    1    2    0    0  0.00000000000E+00  0.00000000000E+00  0.10550806775E+04  0.29911231882E+04  0.27988609631E+04 0.  0.
        2    1    3    3  502    0 -0.12651572442E+04 -0.41825312266E+03  0.70560471634E+02  0.13343677557E+04  0.25500000920E-02 0.  1.
       -2    1    3    3    0  502  0.12651572442E+04  0.41825312266E+03  0.98452020590E+03  0.16567554325E+04  0.25500000920E-02 0. -1.
</event>
<event>
 5   0  0.5362952E-07  0.2800677E+04  0.7818609E-02  0.8303058E-01
        1   -1    0    0  501    0  0.00000000000E+00  0.00000000000E+00  0.30044533111E+04  0.30044533111E+04  0.50400001928E-02 0.  1.
       -1   -1    0    0    0  501  0.00000000000E+00  0.00000000000E+00 -0.65268031202E+03  0.65268031204E+03  0.50400001928E-02 0. -1.
    10030    2    1    2    0    0  0.00000000000E+00  0.00000000000E+00  0.23517729990E+04  0.36571336231E+04  0.28006767215E+04 0.  0.
        1    1    3    3  502    0  0.11654449309E+04 -0.81697553747E+02  0.16778319498E+03  0.11802913105E+04  0.50400001928E-02 0. -1.
       -1    1    3    3    0  502 -0.11654449309E+04  0.81697553747E+02  0.21839898041E+04  0.24768423126E+04  0.50400001928E-02 0.  1.
</event>
<event>
 5   0  0.1394410E-06  0.2807940E+04  0.7818609E-02  0.8300807E-01
       -2   -1    0    0    0  501  0.00000000000E+00  0.00000000000E+00  0.10477289013E+04  0.10477289013E+04  0.25500000920E-02 0.  1.
        2   -1    0    0  501    0  0.00000000000E+00  0.00000000000E+00 -0.18813381669E+04  0.18813381669E+04  0.25500000920E-02 0. -1.
    10030    2    1    2    0    0  0.00000000000E+00  0.00000000000E+00 -0.83360926561E+03  0.29290670682E+04  0.28079404342E+04 0.  0.
        4    1    3    3  502    0  0.37620238920E+03  0.82531542218E+03  0.70108464322E+03  0.11463834758E+04  0.12699999809E+01 0.  1.
       -4    1    3    3    0  502 -0.37620238920E+03 -0.82531542218E+03 -0.15346939088E+04  0.17826835923E+04  0.12699999809E+01 0. -1.
</event>
<event>
 5   0  0.5362952E-07  0.2800558E+04  0.7818609E-02  0.8303095E-01
        1   -1    0    0  501    0  0.00000000000E+00  0.00000000000E+00  0.13272573099E+04  0.13272573099E+04  0.50400001928E-02 0. -1.
       -1   -1    0    0    0  501  0.00000000000E+00  0.00000000000E+00 -0.14773182785E+04  0.14773182785E+04  0.50400001928E-02 0.  1.
    10030    2    1    2    0    0  0.00000000000E+00  0.00000000000E+00 -0.15006096864E+03  0.28045755884E+04  0.28005581474E+04 0.  0.
        1    1    3    3  502    0  0.39942187240E+03 -0.12015394770E+03 -0.14136629050E+04  0.14739123489E+04  0.50400001928E-02 0.  1.
       -1    1    3    3    0  502 -0.39942187240E+03  0.12015394770E+03  0.12636019364E+04  0.13306632395E+04  0.50400001928E-02 0. -1.
</event>
<event>
 5   0  0.1394410E-06  0.2788967E+04  0.7818609E-02  0.8306702E-01
        2   -1    0    0  501    0  0.00000000000E+00  0.00000000000E+00  0.94589854917E+03  0.94589854917E+03  0.25500000920E-02 0.  1.
       -2   -1    0    0    0  501  0.00000000000E+00  0.00000000000E+00 -0.20558068690E+04  0.20558068690E+04  0.25500000920E-02 0. -1.
    10030    2    1    2    0    0  0.00000000000E+00  0.00000000000E+00 -0.11099083198E+04  0.30017054182E+04  0.27889673607E+04 0.  0.
        4    1    3    3  502    0  0.56188823570E+03  0.83462459596E+03  0.48423517381E+03  0.11166028489E+04  0.12699999809E+01 0.  1.
       -4    1    3    3    0  502 -0.56188823570E+03 -0.83462459596E+03 -0.15941434936E+04  0.18851025693E+04  0.12699999809E+01 0. -1.
</event>
<event>
 5   0  0.1439207E-06  0.2796856E+04  0.7818609E-02  0.8304245E-01
        2   -1    0    0  501    0  0.00000000000E+00  0.00000000000E+00  0.23745153781E+04  0.23745153781E+04  0.25500000920E-02 0. -1.
       -2   -1    0    0    0  501  0.00000000000E+00  0.00000000000E+00 -0.82357912062E+03  0.82357912063E+03  0.25500000920E-02 0.  1.
    10030    2    1    2    0    0  0.00000000000E+00  0.00000000000E+00  0.15509362575E+04  0.31980944987E+04  0.27968562974E+04 0.  0.
        5    1    3    3  502    0 -0.13206357568E+04  0.20308954751E+03  0.12472824467E+04  0.18278566022E+04  0.46999998093E+01 0.  1.
       -5    1    3    3    0  502  0.13206357568E+04 -0.20308954751E+03  0.30365381080E+03  0.13702378966E+04  0.46999998093E+01 0. -1.
</event>
<event>
 5   0  0.5282098E-07  0.2802617E+04  0.7818609E-02  0.8302456E-01
       -1   -1    0    0    0  501  0.00000000000E+00  0.00000000000E+00  0.96566377022E+03  0.96566377023E+03  0.50400001928E-02 0.  1.
        1   -1    0    0  501    0  0.00000000000E+00  0.00000000000E+00 -0.20334872845E+04  0.20334872845E+04  0.50400001928E-02 0. -1.
    10030    2    1    2    0    0  0.00000000000E+00  0.00000000000E+00 -0.10678235143E+04  0.29991510547E+04  0.28026166330E+04 0.  0.
        4    1    3    3  502    0 -0.43170725405E+03  0.50793151560E+03 -0.18529460913E+04  0.19692070506E+04  0.12699999809E+01 0. -1.
       -4    1    3    3    0  502  0.43170725405E+03 -0.50793151560E+03  0.78512257707E+03  0.10299440041E+04  0.12699999809E+01 0.  1.
</event>
<event>
 5   0  0.1439207E-06  0.2796893E+04  0.7818609E-02  0.8304234E-01
        2   -1    0    0  501    0  0.00000000000E+00  0.00000000000E+00  0.17304274578E+04  0.17304274578E+04  0.25500000920E-02 0.  1.
       -2   -1    0    0    0  501  0.00000000000E+00  0.00000000000E+00 -0.11301559615E+04  0.11301559615E+04  0.25500000920E-02 0. -1.
    10030    2    1    2    0    0  0.00000000000E+00  0.00000000000E+00  0.60027149630E+03  0.28605834194E+04  0.27968932103E+04 0.  0.
        5    1    3    3  502    0  0.33827528946E+03  0.21266965814E+03  0.16707919797E+04  0.17179134100E+04  0.46999998093E+01 0.  1.
       -5    1    3    3    0  502 -0.33827528946E+03 -0.21266965814E+03 -0.10705204834E+04  0.11426700094E+04  0.46999998093E+01 0. -1.
</event>
<event>
 5   0  0.5214658E-07  0.2800470E+04  0.7818609E-02  0.8303122E-01
       -1   -1    0    0    0  501  0.00000000000E+00  0.00000000000E+00  0.95491558718E+03  0.95491558719E+03  0.50400001928E-02 0. -1.
        1   -1    0    0  501    0  0.00000000000E+00  0.00000000000E+00 -0.20532269206E+04  0.20532269206E+04  0.50400001928E-02 0.  1.
    10030    2    1    2    0    0  0.00000000000E+00  0.00000000000E+00 -0.10983113334E+04  0.30081425078E+04  0.28004702394E+04 0.  0.
        2    1    3    3  502    0 -0.64978926387E+03 -0.10386986723E+04  0.17900608449E+03  0.12382100782E+04  0.25500000920E-02 0. -1.
       -2    1    3    3    0  502  0.64978926387E+03  0.10386986723E+04 -0.12773174179E+04  0.17699324296E+04  0.25500000920E-02 0.  1.
</event>
<event>
 5   0  0.1377807E-06  0.2795496E+04  0.7818609E-02  0.8304668E-01
       -2   -1    0    0    0  501  0.00000000000E+00  0.00000000000E+00  0.74770000254E+03  0.74770000254E+03  0.25500000920E-02 0.  1.
        2   -1    0    0  501    0  0.00000000000E+00  0.00000000000E+00 -0.26129451078E+04  0.26129451078E+04  0.25500000920E-02 0. -1.
    10030    2    1    2    0    0  0.00000000000E+00  0.00000000000E+00 -0.18652451052E+04  0.33606451103E+04  0.27954957083E+04 0.  0.
        2    1    3    3  502    0 -0.86308839402E+03  0.21081926384E+03  0.36456381214E+03  0.96035051467E+03  0.25500000920E-02 0.  1.
       -2    1    3    3    0  502  0.86308839402E+03 -0.21081926384E+03 -0.22298089174E+04  0.24002945956E+04  0.25500000920E-02 0. -1.
</event>
<event>
 5   0  0.5297741E-07  0.2784496E+04  0.7818609E-02  0.8308098E-01
        1   -1    0    0  501    0  0.00000000000E+00  0.00000000000E+00  0.21974201246E+04  0.21974201246E+04  0.50400001928E-02 0.  1.
       -1   -1    0    0    0  501  0.00000000000E+00  0.00000000000E+00 -0.88210446397E+03  0.88210446399E+03  0.50400001928E-02 0. -1.
    10030    2    1    2    0    0  0.00000000000E+00  0.00000000000E+00  0.13153156607E+04  0.30795245886E+04  0.27844957182E+04 0.  0.
        5    1    3    3  502    0 -0.65070043275E+03  0.63948197570E+03  0.18207429429E+04  0.20365350978E+04  0.46999998093E+01 0.  1.
       -5    1    3    3    0  502  0.65070043275E+03 -0.63948197570E+03 -0.50542728221E+03  0.10429894909E+04  0.46999998093E+01 0. -1.
</event>
</LesHouchesEvents>
