<LesHouchesEvents version="3.0">
<header>
<!--
#*********************************************************************
#                                                                    *
#                        MadGraph5_aMC@NLO                           *
#                                                                    *
#                           Going Beyond                             *
#                                                                    *
#                   http://madgraph.hep.uiuc.edu                     *
#                   http://madgraph.phys.ucl.ac.be                   *
#                   http://amcatnlo.cern.ch                          *
#                                                                    *
#                     The MadGraph5_aMC@NLO team                     *
#                                                                    *
#....................................................................*
#                                                                    *
# This file contains all the information necessary to reproduce      *
# the events generated:                                              *
#                                                                    *
# 1. software version                                                *
# 2. proc_card          : code generation info including model       *
# 3. param_card         : model primary parameters in the LH format  *
# 4. run_card           : running parameters (collider and cuts)     *
# 5. pythia_card        : present only if pythia has been run        *
# 6. pgs_card           : present only if pgs has been run           *
# 7. delphes_cards      : present only if delphes has been run       *
#                                                                    *
#                                                                    *
#*********************************************************************
-->
<MGVersion>
#5.2.2.3
</MGVersion>
<MG5ProcCard>
#************************************************************
#*                     MadGraph5_aMC@NLO                    *
#*                                                          *
#*                *                       *                 *
#*                  *        * *        *                   *
#*                    * * * * 5 * * * *                     *
#*                  *        * *        *                   *
#*                *                       *                 *
#*                                                          *
#*                                                          *
#*         VERSION 2.2.3                 2015-02-10         *
#*                                                          *
#*    The MadGraph5_aMC@NLO Development Team - Find us at   *
#*    https://server06.fynu.ucl.ac.be/projects/madgraph     *
#*                                                          *
#************************************************************
#*                                                          *
#*               Command File for MadGraph5_aMC@NLO         *
#*                                                          *
#*     run as ./bin/mg5_aMC  filename                       *
#*                                                          *
#************************************************************
set group_subprocesses Auto
set ignore_six_quark_processes False
set loop_optimized_output True
set gauge unitary
set complex_mass_scheme False
import model sm
define p = g u c d s u~ c~ d~ s~
define j = g u c d s u~ c~ d~ s~
define l+ = e+ mu+
define l- = e- mu-
define vl = ve vm vt
define vl~ = ve~ vm~ vt~
import model Zprime_UFO
generate p p > zph, zph > j j
add process p p > zph, zph > b b~
output Dijet_signal
</MG5ProcCard>
<MGProcCard>
#*********************************************************************
#                        MadGraph/MadEvent                           *
#                   http://madgraph.hep.uiuc.edu                     *
#                                                                    *
#                          proc_card.dat                             *
#*********************************************************************
#                                                                    *
#            This Files is generated by MADGRAPH 5                   *
#                                                                    *
# WARNING: This Files is generated for MADEVENT (compatibility issue)*
#          This files is NOT a valid MG4 proc_card.dat               *
#          Running this in MG4 will NEVER reproduce the result of MG5*
#                                                                    *
#*********************************************************************
#*********************************************************************
# Process(es) requested : mg2 input                                  *
#*********************************************************************
# Begin PROCESS # This is TAG. Do not modify this line
p p > zph , zph > j j           #Process
# Be carefull the coupling are here in MG5 convention
          
end_coup           # End the couplings input

done               # this tells MG there are no more procs
# End PROCESS  # This is TAG. Do not modify this line
#*********************************************************************
# Model information                                                  *
#*********************************************************************
# Begin MODEL  # This is TAG. Do not modify this line
Zprime_UFO
# End   MODEL  # This is TAG. Do not modify this line
#*********************************************************************
# Start multiparticle definitions                                    *
#*********************************************************************
# Begin MULTIPARTICLES # This is TAG. Do not modify this line

# End  MULTIPARTICLES # This is TAG. Do not modify this line
</MGProcCard>
<MGRunCard>
#*********************************************************************
#                       MadGraph5_aMC@NLO                            *
#                                                                    *
#                     run_card.dat MadEvent                          *
#                                                                    *
#  This file is used to set the parameters of the run.               *
#                                                                    *
#  Some notation/conventions:                                        *
#                                                                    *
#   Lines starting with a '# ' are info or comments                  *
#                                                                    *
#   mind the format:   value    = variable     ! comment             *
#*********************************************************************
#
#*******************                                                 
# Running parameters
#*******************                                                 
#                                                                    
#*********************************************************************
# Tag name for the run (one word)                                    *
#*********************************************************************
  tag_1     = run_tag ! name of the run 
#*********************************************************************
# Run to generate the grid pack                                      *
#*********************************************************************
  .false.     = gridpack  !True = setting up the grid pack
#*********************************************************************
# Number of events and rnd seed                                      *
# Warning: Do not generate more than 1M events in a single run       *
# If you want to run Pythia, avoid more than 50k events in a run.    *
#*********************************************************************
  2000 = nevents ! Number of unweighted events requested 
 696 = iseed   ! rnd seed (0=assigned automatically=default))
#*********************************************************************
# Collider type and energy                                           *
# lpp: 0=No PDF, 1=proton, -1=antiproton, 2=photon from proton,      *
#                                         3=photon from electron     *
#*********************************************************************
        1     = lpp1    ! beam 1 type 
        1     = lpp2    ! beam 2 type
     4000     = ebeam1  ! beam 1 total energy in GeV
     4000     = ebeam2  ! beam 2 total energy in GeV
#*********************************************************************
# Beam polarization from -100 (left-handed) to 100 (right-handed)    *
#*********************************************************************
        0     = polbeam1 ! beam polarization for beam 1
        0     = polbeam2 ! beam polarization for beam 2
#*********************************************************************
# PDF CHOICE: this automatically fixes also alpha_s and its evol.    *
#*********************************************************************
 'nn23lo1'    = pdlabel     ! PDF set                                     
 230000    = lhaid     ! if pdlabel=lhapdf, this is the lhapdf number
#*********************************************************************
# Renormalization and factorization scales                           *
#*********************************************************************
 F        = fixed_ren_scale  ! if .true. use fixed ren scale
 F        = fixed_fac_scale  ! if .true. use fixed fac scale
 91.1880  = scale            ! fixed ren scale
 91.1880  = dsqrt_q2fact1    ! fixed fact scale for pdf1
 91.1880  = dsqrt_q2fact2    ! fixed fact scale for pdf2
 1        = scalefact        ! scale factor for event-by-event scales
#*********************************************************************
# Matching - Warning! ickkw > 1 is still beta
#*********************************************************************
 0        = ickkw            ! 0 no matching, 1 MLM, 2 CKKW matching
 1        = highestmult      ! for ickkw=2, highest mult group
 1        = ktscheme         ! for ickkw=1, 1 Durham kT, 2 Pythia pTE
 1        = alpsfact         ! scale factor for QCD emission vx
 F        = chcluster        ! cluster only according to channel diag
 T        = pdfwgt           ! for ickkw=1, perform pdf reweighting
 5        = asrwgtflavor     ! highest quark flavor for a_s reweight
 T        = clusinfo         ! include clustering tag in output
 3.0      = lhe_version       ! Change the way clustering information pass to shower.        
#*********************************************************************
#**********************************************************
#
#**********************************************************
# Automatic ptj and mjj cuts if xqcut > 0
# (turn off for VBF and single top processes)
#**********************************************************
   T  = auto_ptj_mjj  ! Automatic setting of ptj and mjj
#**********************************************************
#                                                                    
#**********************************
# BW cutoff (M+/-bwcutoff*Gamma)
#**********************************
  15  = bwcutoff      ! (M+/-bwcutoff*Gamma)
#**********************************************************
# Apply pt/E/eta/dr/mij cuts on decay products or not
# (note that etmiss/ptll/ptheavy/ht/sorted cuts always apply)
#**********************************************************
   T  = cut_decays    ! Cut decay products 
#*************************************************************
# Number of helicities to sum per event (0 = all helicities)
# 0 gives more stable result, but longer run time (needed for
# long decay chains e.g.).
# Use >=2 if most helicities contribute, e.g. pure QCD.
#*************************************************************
   0  = nhel          ! Number of helicities used per event
#*******************                                                 
# Standard Cuts
#*******************                                                 
#                                                                    
#*********************************************************************
# Minimum and maximum pt's (for max, -1 means no cut)                *
#*********************************************************************
 20  = ptj       ! minimum pt for the jets 
  0  = ptb       ! minimum pt for the b 
 10  = pta       ! minimum pt for the photons 
 10  = ptl       ! minimum pt for the charged leptons 
  0  = misset    ! minimum missing Et (sum of neutrino's momenta)
  0  = ptheavy   ! minimum pt for one heavy final state
 1.0 = ptonium   ! minimum pt for the quarkonium states
 -1  = ptjmax    ! maximum pt for the jets
 -1  = ptbmax    ! maximum pt for the b
 -1  = ptamax    ! maximum pt for the photons
 -1  = ptlmax    ! maximum pt for the charged leptons
 -1  = missetmax ! maximum missing Et (sum of neutrino's momenta)
#*********************************************************************
# Minimum and maximum E's (in the center of mass frame)              *
#*********************************************************************
  0  = ej     ! minimum E for the jets 
  0  = eb     ! minimum E for the b 
  0  = ea     ! minimum E for the photons 
  0  = el     ! minimum E for the charged leptons 
 -1   = ejmax ! maximum E for the jets
 -1   = ebmax ! maximum E for the b
 -1   = eamax ! maximum E for the photons
 -1   = elmax ! maximum E for the charged leptons
#*********************************************************************
# Maximum and minimum absolute rapidity (for max, -1 means no cut)   *
#*********************************************************************
   5  = etaj    ! max rap for the jets 
  -1  = etab    ! max rap for the b
 2.5  = etaa    ! max rap for the photons 
 2.5  = etal    ! max rap for the charged leptons 
 0.6  = etaonium ! max rap for the quarkonium states
   0  = etajmin ! min rap for the jets
   0  = etabmin ! min rap for the b
   0  = etaamin ! min rap for the photons
   0  = etalmin ! main rap for the charged leptons
#*********************************************************************
# Minimum and maximum DeltaR distance                                *
#*********************************************************************
 0.4 = drjj    ! min distance between jets 
 0   = drbb    ! min distance between b's 
 0.4 = drll    ! min distance between leptons 
 0.4 = draa    ! min distance between gammas 
 0   = drbj    ! min distance between b and jet 
 0.4 = draj    ! min distance between gamma and jet 
 0.4 = drjl    ! min distance between jet and lepton 
 0   = drab    ! min distance between gamma and b 
 0   = drbl    ! min distance between b and lepton 
 0.4 = dral    ! min distance between gamma and lepton 
 -1  = drjjmax ! max distance between jets
 -1  = drbbmax ! max distance between b's
 -1  = drllmax ! max distance between leptons
 -1  = draamax ! max distance between gammas
 -1  = drbjmax ! max distance between b and jet
 -1  = drajmax ! max distance between gamma and jet
 -1  = drjlmax ! max distance between jet and lepton
 -1  = drabmax ! max distance between gamma and b
 -1  = drblmax ! max distance between b and lepton
 -1  = dralmax ! maxdistance between gamma and lepton
#*********************************************************************
# Minimum and maximum invariant mass for pairs                       *
# WARNING: for four lepton final state mmll cut require to have      *
#          different lepton masses for each flavor!                  *           
#*********************************************************************
 0   = mmjj    ! min invariant mass of a jet pair 
 0   = mmbb    ! min invariant mass of a b pair 
 0   = mmaa    ! min invariant mass of gamma gamma pair
 0   = mmll    ! min invariant mass of l+l- (same flavour) lepton pair
 -1  = mmjjmax ! max invariant mass of a jet pair
 -1  = mmbbmax ! max invariant mass of a b pair
 -1  = mmaamax ! max invariant mass of gamma gamma pair
 -1  = mmllmax ! max invariant mass of l+l- (same flavour) lepton pair
#*********************************************************************
# Minimum and maximum invariant mass for all letpons                 *
#*********************************************************************
 0   = mmnl    ! min invariant mass for all letpons (l+- and vl) 
 -1  = mmnlmax ! max invariant mass for all letpons (l+- and vl) 
#*********************************************************************
# Minimum and maximum pt for 4-momenta sum of leptons                *
#*********************************************************************
 0   = ptllmin  ! Minimum pt for 4-momenta sum of leptons(l and vl)
 -1  = ptllmax  ! Maximum pt for 4-momenta sum of leptons(l and vl)
#*********************************************************************
# Inclusive cuts                                                     *
#*********************************************************************
 0  = xptj ! minimum pt for at least one jet  
 0  = xptb ! minimum pt for at least one b 
 0  = xpta ! minimum pt for at least one photon 
 0  = xptl ! minimum pt for at least one charged lepton 
#*********************************************************************
# Control the pt's of the jets sorted by pt                          *
#*********************************************************************
 0   = ptj1min ! minimum pt for the leading jet in pt
 0   = ptj2min ! minimum pt for the second jet in pt
 0   = ptj3min ! minimum pt for the third jet in pt
 0   = ptj4min ! minimum pt for the fourth jet in pt
 -1  = ptj1max ! maximum pt for the leading jet in pt 
 -1  = ptj2max ! maximum pt for the second jet in pt
 -1  = ptj3max ! maximum pt for the third jet in pt
 -1  = ptj4max ! maximum pt for the fourth jet in pt
 0   = cutuse  ! reject event if fails any (0) / all (1) jet pt cuts
#*********************************************************************
# Control the pt's of leptons sorted by pt                           *
#*********************************************************************
 0   = ptl1min ! minimum pt for the leading lepton in pt
 0   = ptl2min ! minimum pt for the second lepton in pt
 0   = ptl3min ! minimum pt for the third lepton in pt
 0   = ptl4min ! minimum pt for the fourth lepton in pt
 -1  = ptl1max ! maximum pt for the leading lepton in pt 
 -1  = ptl2max ! maximum pt for the second lepton in pt
 -1  = ptl3max ! maximum pt for the third lepton in pt
 -1  = ptl4max ! maximum pt for the fourth lepton in pt
#*********************************************************************
# Control the Ht(k)=Sum of k leading jets                            *
#*********************************************************************
 0   = htjmin ! minimum jet HT=Sum(jet pt)
 -1  = htjmax ! maximum jet HT=Sum(jet pt)
 0   = ihtmin  !inclusive Ht for all partons (including b)
 -1  = ihtmax  !inclusive Ht for all partons (including b)
 0   = ht2min ! minimum Ht for the two leading jets
 0   = ht3min ! minimum Ht for the three leading jets
 0   = ht4min ! minimum Ht for the four leading jets
 -1  = ht2max ! maximum Ht for the two leading jets
 -1  = ht3max ! maximum Ht for the three leading jets
 -1  = ht4max ! maximum Ht for the four leading jets
#***********************************************************************
# Photon-isolation cuts, according to hep-ph/9801442                   *
# When ptgmin=0, all the other parameters are ignored                  *
# When ptgmin>0, pta and draj are not going to be used                 *
#***********************************************************************
   0 = ptgmin ! Min photon transverse momentum
 0.4 = R0gamma ! Radius of isolation code
 1.0 = xn ! n parameter of eq.(3.4) in hep-ph/9801442
 1.0 = epsgamma ! epsilon_gamma parameter of eq.(3.4) in hep-ph/9801442
 .true. = isoEM ! isolate photons from EM energy (photons and leptons)
#*********************************************************************
# WBF cuts                                                           *
#*********************************************************************
 0   = xetamin ! minimum rapidity for two jets in the WBF case  
 0   = deltaeta ! minimum rapidity for two jets in the WBF case 
#*********************************************************************
# KT DURHAM CUT                                                      *
#*********************************************************************
 -1    =  ktdurham        
 0.4  =  dparameter 
#*********************************************************************
# maximal pdg code for quark to be considered as a light jet         *
# (otherwise b cuts are applied)                                     *
#*********************************************************************
 4 = maxjetflavor    ! Maximum jet pdg code
#*********************************************************************
# Jet measure cuts                                                   *
#*********************************************************************
 0   = xqcut   ! minimum kt jet measure between partons
#*********************************************************************
#
#*********************************************************************
# Store info for systematics studies                                 *
# WARNING: If use_syst is T, matched Pythia output is                *
#          meaningful ONLY if plotted taking matchscale              *
#          reweighting into account!                                 *
#*********************************************************************
   F  = use_syst      ! Enable systematics studies
#
#**************************************
# Parameter of the systematics study
#  will be used by SysCalc (if installed)
#**************************************                                  
#
0.5 1 2 = sys_scalefact  # factorization/renormalization scale factor
0.5 1 2 = sys_alpsfact  # \alpha_s emission scale factors
30 50 = sys_matchscale # variation of merging scale
# PDF sets and number of members (0 or none for all members).
CT10nlo.LHgrid = sys_pdf # matching scales
# MSTW2008nlo68cl.LHgrid 1  = sys_pdf
</MGRunCard>
<slha>
######################################################################
## PARAM_CARD AUTOMATICALY GENERATED BY MG5 FOLLOWING UFO MODEL   ####
######################################################################
##                                                                  ##
##  Width set on Auto will be computed following the information    ##
##        present in the decay.py files of the model.               ##
##        See  arXiv:1402.1178 for more details.                    ##
##                                                                  ##
######################################################################

###################################
## INFORMATION FOR CKMBLOCK
###################################
Block ckmblock 
    1 2.277360e-01 # cabi 

###################################
## INFORMATION FOR FRBLOCK
###################################
Block frblock 
    1 2.000000e-01 # gz 

###################################
## INFORMATION FOR MASS
###################################
Block mass 
    1 5.040000e-03 # MD 
    2 2.550000e-03 # MU 
    3 1.010000e-01 # MS 
    4 1.270000e+00 # MC 
    5 4.700000e+00 # MB 
    6 1.720000e+02 # MT 
   11 5.110000e-04 # Me 
   13 1.056600e-01 # MM 
   15 1.777000e+00 # MTA 
   23 9.118760e+01 # MZ 
   25 1.200000e+02 # MH 
  10030 2.700000e+03 # MZph 
  10031 3.000000e+02 # MZpl 
## Dependent parameters, given by model restrictions.
## Those values should be edited following the 
## analytical expression. MG5 ignores those values 
## but they are important for interfacing the output of MG5
## to external program such as Pythia.
  12 0.000000 # ve : 0.0 
  14 0.000000 # vm : 0.0 
  16 0.000000 # vt : 0.0 
  21 0.000000 # g : 0.0 
  22 0.000000 # a : 0.0 
  24 79.824360 # w+ : cmath.sqrt(MZ__exp__2/2. + cmath.sqrt(MZ__exp__4/4. - (aEW*cmath.pi*MZ__exp__2)/(Gf*sqrt__2))) 

###################################
## INFORMATION FOR SMINPUTS
###################################
Block sminputs 
    1 1.279000e+02 # aEWM1 
    2 1.166370e-05 # Gf 
    3 1.184000e-01 # aS 

###################################
## INFORMATION FOR YUKAWA
###################################
Block yukawa 
    1 5.040000e-03 # ymdo 
    2 2.550000e-03 # ymup 
    3 1.010000e-01 # yms 
    4 1.270000e+00 # ymc 
    5 4.700000e+00 # ymb 
    6 1.720000e+02 # ymt 
   11 5.110000e-04 # yme 
   13 1.056600e-01 # ymm 
   15 1.777000e+00 # ymtau 

###################################
## INFORMATION FOR DECAY
###################################
DECAY   6 1.508336e+00 # WT 
DECAY  23 2.495200e+00 # WZ 
DECAY  24 2.085000e+00 # WW 
DECAY  25 5.753088e-03 # WH 
## Dependent parameters, given by model restrictions.
## Those values should be edited following the 
## analytical expression. MG5 ignores those values 
## but they are important for interfacing the output of MG5
## to external program such as Pythia.
DECAY  1 0.000000 # d : 0.0 
DECAY  2 0.000000 # u : 0.0 
DECAY  3 0.000000 # s : 0.0 
DECAY  4 0.000000 # c : 0.0 
DECAY  5 0.000000 # b : 0.0 
DECAY  11 0.000000 # e- : 0.0 
DECAY  12 0.000000 # ve : 0.0 
DECAY  13 0.000000 # mu- : 0.0 
DECAY  14 0.000000 # vm : 0.0 
DECAY  15 0.000000 # ta- : 0.0 
DECAY  16 0.000000 # vt : 0.0 
DECAY  21 0.000000 # g : 0.0 
DECAY  22 0.000000 # a : 0.0 
DECAY  10030 0.308725 # zph : (gz__exp__2*MZph*(5 + cmath.sqrt(1 - (4*MT__exp__2)/MZph__exp__2)))/(144.*cmath.pi) 
DECAY  10031 0.132629 # zpl : (5*gz__exp__2*MZpl)/(144.*cmath.pi) 
#===========================================================
# QUANTUM NUMBERS OF NEW STATE(S) (NON SM PDG CODE)
#===========================================================

Block QNUMBERS 10030  # zph 
        1 0  # 3 times electric charge
        2 3  # number of spin states (2S+1)
        3 1  # colour rep (1: singlet, 3: triplet, 8: octet)
        4 0  # Particle/Antiparticle distinction (0=own anti)
Block QNUMBERS 10031  # zpl 
        1 0  # 3 times electric charge
        2 3  # number of spin states (2S+1)
        3 1  # colour rep (1: singlet, 3: triplet, 8: octet)
        4 0  # Particle/Antiparticle distinction (0=own anti)
</slha>
## END BANNER##
<MGGenerationInfo>
#  Number of Events        :         3882
#  Integrated weight (pb)  :  0.13133E-03
#  Max wgt                 :  0.50439E-07
#  Average wgt             :  0.33830E-07
</MGGenerationInfo>
</header>
<init>
     2212     2212  0.40000000000E+04  0.40000000000E+04 0 0  247000  247000 2   1
  0.13144177012E-03  0.26617634024E-06  0.50438900000E-07   0
</init>
<event>
 5   0  0.4992668E-07  0.2699893E+04  0.7818609E-02  0.8335040E-01
        2   -1    0    0  501    0  0.00000000000E+00  0.00000000000E+00  0.16464140617E+04  0.16464140617E+04  0.25500000920E-02 0.  1.
       -2   -1    0    0    0  501  0.00000000000E+00  0.00000000000E+00 -0.11068631161E+04  0.11068631161E+04  0.25500000920E-02 0. -1.
    10030    2    1    2    0    0  0.00000000000E+00  0.00000000000E+00  0.53955094560E+03  0.27532771779E+04  0.26998925896E+04 0.  0.
        1    1    3    3  502    0 -0.81589114537E+03 -0.68129466120E+03  0.11184043317E+04  0.15429416793E+04  0.50400001928E-02 0.  1.
       -1    1    3    3    0  502  0.81589114537E+03  0.68129466120E+03 -0.57885338611E+03  0.12103354986E+04  0.50400001928E-02 0. -1.
</event>
<event>
 5   0  0.4992668E-07  0.2699599E+04  0.7818609E-02  0.8335135E-01
       -2   -1    0    0    0  501  0.00000000000E+00  0.00000000000E+00  0.18704134202E+04  0.18704134202E+04  0.25500000920E-02 0. -1.
        2   -1    0    0  501    0  0.00000000000E+00  0.00000000000E+00 -0.97409397001E+03  0.97409397001E+03  0.25500000920E-02 0.  1.
    10030    2    1    2    0    0  0.00000000000E+00  0.00000000000E+00  0.89631945023E+03  0.28445073902E+04  0.26995988103E+04 0.  0.
        1    1    3    3  502    0 -0.36719563598E+03 -0.72296719811E+03 -0.68885786873E+03  0.10639733869E+04  0.50400001928E-02 0.  1.
       -1    1    3    3    0  502  0.36719563598E+03  0.72296719811E+03  0.15851773190E+04  0.17805340034E+04  0.50400001928E-02 0. -1.
</event>
<event>
 5   0  0.5043890E-07  0.2699382E+04  0.7818609E-02  0.8335206E-01
        2   -1    0    0  501    0  0.00000000000E+00  0.00000000000E+00  0.20974754222E+04  0.20974754222E+04  0.25500000920E-02 0.  1.
       -2   -1    0    0    0  501  0.00000000000E+00  0.00000000000E+00 -0.86850384834E+03  0.86850384835E+03  0.25500000920E-02 0. -1.
    10030    2    1    2    0    0  0.00000000000E+00  0.00000000000E+00  0.12289715739E+04  0.29659792706E+04  0.26993817633E+04 0.  0.
        3    1    3    3  502    0 -0.56416537327E+03 -0.89098979280E+03 -0.31103494027E+03  0.10994944855E+04  0.10100000352E+00 0. -1.
       -3    1    3    3    0  502  0.56416537327E+03  0.89098979280E+03  0.15400065141E+04  0.18664847851E+04  0.10100000352E+00 0.  1.
</event>
<event>
 5   0  0.4992668E-07  0.2699330E+04  0.7818609E-02  0.8335222E-01
        2   -1    0    0  501    0  0.00000000000E+00  0.00000000000E+00  0.11365420055E+04  0.11365420055E+04  0.25500000920E-02 0. -1.
       -2   -1    0    0    0  501  0.00000000000E+00  0.00000000000E+00 -0.16027528114E+04  0.16027528114E+04  0.25500000920E-02 0.  1.
    10030    2    1    2    0    0  0.00000000000E+00  0.00000000000E+00 -0.46621080595E+03  0.27392948169E+04  0.26993302092E+04 0.  0.
        1    1    3    3  502    0  0.37035544729E+03 -0.38198142805E+03 -0.14918416740E+04  0.15838764311E+04  0.50400001928E-02 0.  1.
       -1    1    3    3    0  502 -0.37035544729E+03  0.38198142805E+03  0.10256308680E+04  0.11554183858E+04  0.50400001928E-02 0. -1.
</event>
<event>
 5   0  0.5043890E-07  0.2701507E+04  0.7818609E-02  0.8334516E-01
        2   -1    0    0  501    0  0.00000000000E+00  0.00000000000E+00  0.18928611646E+04  0.18928611646E+04  0.25500000920E-02 0. -1.
       -2   -1    0    0    0  501  0.00000000000E+00  0.00000000000E+00 -0.96390301121E+03  0.96390301121E+03  0.25500000920E-02 0.  1.
    10030    2    1    2    0    0  0.00000000000E+00  0.00000000000E+00  0.92895815344E+03  0.28567641759E+04  0.27015066733E+04 0.  0.
        3    1    3    3  502    0 -0.62343773767E+02  0.92805557013E+03 -0.57128132519E+03  0.10915751234E+04  0.10100000352E+00 0.  1.
       -3    1    3    3    0  502  0.62343773767E+02 -0.92805557013E+03  0.15002394786E+04  0.17651890524E+04  0.10100000352E+00 0. -1.
</event>
<event>
 5   0  0.1888149E-07  0.2699795E+04  0.7818609E-02  0.8335071E-01
        1   -1    0    0  501    0  0.00000000000E+00  0.00000000000E+00  0.20081590389E+04  0.20081590389E+04  0.50400001928E-02 0.  1.
       -1   -1    0    0    0  501  0.00000000000E+00  0.00000000000E+00 -0.90741000904E+03  0.90741000905E+03  0.50400001928E-02 0. -1.
    10030    2    1    2    0    0  0.00000000000E+00  0.00000000000E+00  0.11007490299E+04  0.29155690480E+04  0.26997952601E+04 0.  0.
        1    1    3    3  502    0 -0.31338681504E+03 -0.68307643112E+03  0.17613420306E+04  0.19149753146E+04  0.50400001928E-02 0.  1.
       -1    1    3    3    0  502  0.31338681504E+03  0.68307643112E+03 -0.66059300076E+03  0.10005937334E+04  0.50400001928E-02 0. -1.
</event>
<event>
 5   0  0.1937896E-07  0.2697778E+04  0.7818609E-02  0.8335726E-01
       -1   -1    0    0    0  501  0.00000000000E+00  0.00000000000E+00  0.15021560891E+04  0.15021560891E+04  0.50400001928E-02 0. -1.
        1   -1    0    0  501    0  0.00000000000E+00  0.00000000000E+00 -0.12112600897E+04  0.12112600897E+04  0.50400001928E-02 0.  1.
    10030    2    1    2    0    0  0.00000000000E+00  0.00000000000E+00  0.29089599933E+03  0.27134161788E+04  0.26977781371E+04 0.  0.
        3    1    3    3  502    0  0.41411415969E+03 -0.34262350076E+03 -0.10989059053E+04  0.12233051947E+04  0.10100000352E+00 0.  1.
       -3    1    3    3    0  502 -0.41411415969E+03  0.34262350076E+03  0.13898019047E+04  0.14901109841E+04  0.10100000352E+00 0. -1.
</event>
<event>
 5   0  0.4992668E-07  0.2703630E+04  0.7818609E-02  0.8333828E-01
       -2   -1    0    0    0  501  0.00000000000E+00  0.00000000000E+00  0.11678275703E+04  0.11678275703E+04  0.25500000920E-02 0. -1.
        2   -1    0    0  501    0  0.00000000000E+00  0.00000000000E+00 -0.15647886376E+04  0.15647886376E+04  0.25500000920E-02 0.  1.
    10030    2    1    2    0    0  0.00000000000E+00  0.00000000000E+00 -0.39696106727E+03  0.27326162079E+04  0.27036296438E+04 0.  0.
        1    1    3    3  502    0  0.33088748819E+03 -0.12475165179E+04  0.20784870871E+03  0.13072815604E+04  0.50400001928E-02 0. -1.
       -1    1    3    3    0  502 -0.33088748819E+03  0.12475165179E+04 -0.60480977598E+03  0.14253346476E+04  0.50400001928E-02 0.  1.
</event>
<event>
 5   0  0.1964242E-07  0.2699953E+04  0.7818609E-02  0.8335020E-01
       -1   -1    0    0    0  501  0.00000000000E+00  0.00000000000E+00  0.18368869351E+04  0.18368869351E+04  0.50400001928E-02 0. -1.
        1   -1    0    0  501    0  0.00000000000E+00  0.00000000000E+00 -0.99213329274E+03  0.99213329275E+03  0.50400001928E-02 0.  1.
    10030    2    1    2    0    0  0.00000000000E+00  0.00000000000E+00  0.84475364233E+03  0.28290202278E+04  0.26999530983E+04 0.  0.
        2    1    3    3  502    0  0.10120635329E+04 -0.51624731681E+02 -0.51216694558E+03  0.11354526356E+04  0.25500000920E-02 0.  1.
       -2    1    3    3    0  502 -0.10120635329E+04  0.51624731681E+02  0.13569205879E+04  0.16935675922E+04  0.25500000920E-02 0. -1.
</event>
<event>
 5   0  0.4992668E-07  0.2698284E+04  0.7818609E-02  0.8335562E-01
       -2   -1    0    0    0  501  0.00000000000E+00  0.00000000000E+00  0.66095726332E+03  0.66095726332E+03  0.25500000920E-02 0.  1.
        2   -1    0    0  501    0  0.00000000000E+00  0.00000000000E+00 -0.27538607181E+04  0.27538607181E+04  0.25500000920E-02 0. -1.
    10030    2    1    2    0    0  0.00000000000E+00  0.00000000000E+00 -0.20929034548E+04  0.34148179814E+04  0.26982840798E+04 0.  0.
        1    1    3    3  502    0 -0.25010140508E+03 -0.25974778477E+03 -0.26917490530E+04  0.27157931785E+04  0.50400001928E-02 0. -1.
       -1    1    3    3    0  502  0.25010140508E+03  0.25974778477E+03  0.59884559819E+03  0.69902480286E+03  0.50400001928E-02 0.  1.
</event>
<event>
 5   0  0.1964242E-07  0.2699307E+04  0.7818609E-02  0.8335230E-01
        1   -1    0    0  501    0  0.00000000000E+00  0.00000000000E+00  0.21802575886E+04  0.21802575886E+04  0.50400001928E-02 0.  1.
       -1   -1    0    0    0  501  0.00000000000E+00  0.00000000000E+00 -0.83548119023E+03  0.83548119025E+03  0.50400001928E-02 0. -1.
    10030    2    1    2    0    0  0.00000000000E+00  0.00000000000E+00  0.13447763984E+04  0.30157387789E+04  0.26993067296E+04 0.  0.
        2    1    3    3  502    0 -0.75957925841E+03 -0.92434116334E+03 -0.25496101836E+02  0.11966692472E+04  0.25500000920E-02 0. -1.
       -2    1    3    3    0  502  0.75957925841E+03  0.92434116334E+03  0.13702725002E+04  0.18190695316E+04  0.25500000920E-02 0.  1.
</event>
<event>
 5   0  0.4843887E-07  0.2700206E+04  0.7818609E-02  0.8334938E-01
        2   -1    0    0  501    0  0.00000000000E+00  0.00000000000E+00  0.20951785646E+04  0.20951785646E+04  0.25500000920E-02 0.  1.
       -2   -1    0    0    0  501  0.00000000000E+00  0.00000000000E+00 -0.86998703542E+03  0.86998703542E+03  0.25500000920E-02 0. -1.
    10030    2    1    2    0    0  0.00000000000E+00  0.00000000000E+00  0.12251915292E+04  0.29651656000E+04  0.27002060574E+04 0.  0.
        5    1    3    3  502    0 -0.54579827566E+03  0.47227014112E+03  0.18655284093E+04  0.20002882741E+04  0.46999998093E+01 0.  1.
       -5    1    3    3    0  502  0.54579827566E+03 -0.47227014112E+03 -0.64033688011E+03  0.96487732585E+03  0.46999998093E+01 0. -1.
</event>
<event>
 5   0  0.1971600E-07  0.2701956E+04  0.7818609E-02  0.8334371E-01
        1   -1    0    0  501    0  0.00000000000E+00  0.00000000000E+00  0.16195296459E+04  0.16195296460E+04  0.50400001928E-02 0.  1.
       -1   -1    0    0    0  501  0.00000000000E+00  0.00000000000E+00 -0.11269578871E+04  0.11269578871E+04  0.50400001928E-02 0. -1.
    10030    2    1    2    0    0  0.00000000000E+00  0.00000000000E+00  0.49257175885E+03  0.27464875331E+04  0.27019561121E+04 0.  0.
        5    1    3    3  502    0 -0.12194014169E+04 -0.27339200782E+03  0.76800578627E+03  0.14668121840E+04  0.46999998093E+01 0.  1.
       -5    1    3    3    0  502  0.12194014169E+04  0.27339200782E+03 -0.27543402743E+03  0.12796753490E+04  0.46999998093E+01 0. -1.
</event>
<event>
 5   0  0.1888149E-07  0.2699165E+04  0.7818609E-02  0.8335276E-01
        1   -1    0    0  501    0  0.00000000000E+00  0.00000000000E+00  0.99758069359E+03  0.99758069360E+03  0.50400001928E-02 0. -1.
       -1   -1    0    0    0  501  0.00000000000E+00  0.00000000000E+00 -0.18257902712E+04  0.18257902712E+04  0.50400001928E-02 0.  1.
    10030    2    1    2    0    0  0.00000000000E+00  0.00000000000E+00 -0.82820957764E+03  0.28233709648E+04  0.26991651488E+04 0.  0.
        1    1    3    3  502    0 -0.71146848094E+03  0.88849891304E+03  0.34435115726E+03  0.11891994944E+04  0.50400001928E-02 0. -1.
       -1    1    3    3    0  502  0.71146848094E+03 -0.88849891304E+03 -0.11725607349E+04  0.16341714705E+04  0.50400001928E-02 0.  1.
</event>
<event>
 5   0  0.1937896E-07  0.2699412E+04  0.7818609E-02  0.8335196E-01
       -1   -1    0    0    0  501  0.00000000000E+00  0.00000000000E+00  0.19511798825E+04  0.19511798825E+04  0.50400001928E-02 0. -1.
        1   -1    0    0  501    0  0.00000000000E+00  0.00000000000E+00 -0.93364314474E+03  0.93364314475E+03  0.50400001928E-02 0.  1.
    10030    2    1    2    0    0  0.00000000000E+00  0.00000000000E+00  0.10175367377E+04  0.28848230272E+04  0.26994115814E+04 0.  0.
        3    1    3    3  502    0 -0.42809104978E+03 -0.37049799308E+03 -0.80061171546E+03  0.98056608085E+03  0.10100000352E+00 0.  1.
       -3    1    3    3    0  502  0.42809104978E+03  0.37049799308E+03  0.18181484532E+04  0.19042569464E+04  0.10100000352E+00 0. -1.
</event>
<event>
 5   0  0.1937896E-07  0.2702127E+04  0.7818609E-02  0.8334315E-01
        1   -1    0    0  501    0  0.00000000000E+00  0.00000000000E+00  0.12527657306E+04  0.12527657306E+04  0.50400001928E-02 0. -1.
       -1   -1    0    0    0  501  0.00000000000E+00  0.00000000000E+00 -0.14570738680E+04  0.14570738680E+04  0.50400001928E-02 0.  1.
    10030    2    1    2    0    0  0.00000000000E+00  0.00000000000E+00 -0.20430813742E+03  0.27098395986E+04  0.27021267245E+04 0.  0.
        3    1    3    3  502    0  0.97059237076E+03 -0.89053157855E+03 -0.40347160050E+03  0.13776376103E+04  0.10100000352E+00 0.  1.
       -3    1    3    3    0  502 -0.97059237076E+03  0.89053157855E+03  0.19916346308E+03  0.13322019884E+04  0.10100000352E+00 0. -1.
</event>
<event>
 5   0  0.4992668E-07  0.2705955E+04  0.7818609E-02  0.8333075E-01
        2   -1    0    0  501    0  0.00000000000E+00  0.00000000000E+00  0.13848090714E+04  0.13848090714E+04  0.25500000920E-02 0.  1.
       -2   -1    0    0    0  501  0.00000000000E+00  0.00000000000E+00 -0.13218775576E+04  0.13218775576E+04  0.25500000920E-02 0. -1.
    10030    2    1    2    0    0  0.00000000000E+00  0.00000000000E+00  0.62931513812E+02  0.27066866290E+04  0.27059549390E+04 0.  0.
        1    1    3    3  502    0  0.13357189069E+04  0.11721922713E+03 -0.14931132647E+03  0.13491401772E+04  0.50400001928E-02 0.  1.
       -1    1    3    3    0  502 -0.13357189069E+04 -0.11721922713E+03  0.21224284028E+03  0.13575464518E+04  0.50400001928E-02 0. -1.
</event>
<event>
 5   0  0.1965415E-07  0.2699164E+04  0.7818609E-02  0.8335276E-01
        1   -1    0    0  501    0  0.00000000000E+00  0.00000000000E+00  0.74204386313E+03  0.74204386314E+03  0.50400001928E-02 0.  1.
       -1   -1    0    0    0  501  0.00000000000E+00  0.00000000000E+00 -0.24545337369E+04  0.24545337369E+04  0.50400001928E-02 0. -1.
    10030    2    1    2    0    0  0.00000000000E+00  0.00000000000E+00 -0.17124898738E+04  0.31965776001E+04  0.26991640901E+04 0.  0.
        4    1    3    3  502    0 -0.30219494724E+03  0.12454537201E+04 -0.35534262459E+03  0.13299423856E+04  0.12699999809E+01 0.  1.
       -4    1    3    3    0  502  0.30219494724E+03 -0.12454537201E+04 -0.13571472492E+04  0.18666352145E+04  0.12699999809E+01 0. -1.
</event>
<event>
 5   0  0.1888149E-07  0.2703258E+04  0.7818609E-02  0.8333948E-01
       -1   -1    0    0    0  501  0.00000000000E+00  0.00000000000E+00  0.74899661636E+03  0.74899661638E+03  0.50400001928E-02 0.  1.
        1   -1    0    0  501    0  0.00000000000E+00  0.00000000000E+00 -0.24391320160E+04  0.24391320160E+04  0.50400001928E-02 0. -1.
    10030    2    1    2    0    0  0.00000000000E+00  0.00000000000E+00 -0.16901353996E+04  0.31881286324E+04  0.27032584981E+04 0.  0.
        1    1    3    3  502    0 -0.47855723929E+03  0.37483495233E+03  0.57868696872E+03  0.83928355194E+03  0.50400001928E-02 0.  1.
       -1    1    3    3    0  502  0.47855723929E+03 -0.37483495233E+03 -0.22688223683E+04  0.23488450804E+04  0.50400001928E-02 0. -1.
</event>
<event>
 5   0  0.4735120E-07  0.2699838E+04  0.7818609E-02  0.8335057E-01
       -2   -1    0    0    0  501  0.00000000000E+00  0.00000000000E+00  0.11463421042E+04  0.11463421042E+04  0.25500000920E-02 0.  1.
        2   -1    0    0  501    0  0.00000000000E+00  0.00000000000E+00 -0.15896491149E+04  0.15896491149E+04  0.25500000920E-02 0. -1.
    10030    2    1    2    0    0  0.00000000000E+00  0.00000000000E+00 -0.44330701070E+03  0.27359912191E+04  0.26998382999E+04 0.  0.
        2    1    3    3  502    0 -0.10919856782E+03 -0.17222785677E+03 -0.15739493351E+04  0.15871053120E+04  0.25500000920E-02 0. -1.
       -2    1    3    3    0  502  0.10919856782E+03  0.17222785677E+03  0.11306423244E+04  0.11488859071E+04  0.25500000920E-02 0.  1.
</event>
<event>
 5   0  0.1937896E-07  0.2699861E+04  0.7818609E-02  0.8335050E-01
       -1   -1    0    0    0  501  0.00000000000E+00  0.00000000000E+00  0.12647442311E+04  0.12647442311E+04  0.50400001928E-02 0.  1.
        1   -1    0    0  501    0  0.00000000000E+00  0.00000000000E+00 -0.14408542901E+04  0.14408542901E+04  0.50400001928E-02 0. -1.
    10030    2    1    2    0    0  0.00000000000E+00  0.00000000000E+00 -0.17611005907E+03  0.27055985212E+04  0.26998608492E+04 0.  0.
        3    1    3    3  502    0 -0.10299015462E+04  0.52655053392E+03  0.60938340120E+03  0.13074023097E+04  0.10100000352E+00 0.  1.
       -3    1    3    3    0  502  0.10299015462E+04 -0.52655053392E+03 -0.78549346027E+03  0.13981962115E+04  0.10100000352E+00 0. -1.
</event>
<event>
 5   0  0.5043890E-07  0.2700141E+04  0.7818609E-02  0.8334959E-01
        2   -1    0    0  501    0  0.00000000000E+00  0.00000000000E+00  0.25000121044E+04  0.25000121044E+04  0.25500000920E-02 0. -1.
       -2   -1    0    0    0  501  0.00000000000E+00  0.00000000000E+00 -0.72907269358E+03  0.72907269358E+03  0.25500000920E-02 0.  1.
    10030    2    1    2    0    0  0.00000000000E+00  0.00000000000E+00  0.17709394109E+04  0.32290847980E+04  0.27001411511E+04 0.  0.
        3    1    3    3  502    0  0.43525118203E+02 -0.10970523120E+04 -0.54105158602E+02  0.10992477381E+04  0.10100000352E+00 0.  1.
       -3    1    3    3    0  502 -0.43525118203E+02  0.10970523120E+04  0.18250445695E+04  0.21298370600E+04  0.10100000352E+00 0. -1.
</event>
<event>
 5   0  0.1888149E-07  0.2700457E+04  0.7818609E-02  0.8334857E-01
       -1   -1    0    0    0  501  0.00000000000E+00  0.00000000000E+00  0.91779652238E+03  0.91779652240E+03  0.50400001928E-02 0.  1.
        1   -1    0    0  501    0  0.00000000000E+00  0.00000000000E+00 -0.19864063422E+04  0.19864063422E+04  0.50400001928E-02 0. -1.
    10030    2    1    2    0    0  0.00000000000E+00  0.00000000000E+00 -0.10686098198E+04  0.29042028646E+04  0.27004568746E+04 0.  0.
        1    1    3    3  502    0  0.91824048247E+03  0.82111864969E+02 -0.15952495846E+04  0.18424790852E+04  0.50400001928E-02 0. -1.
       -1    1    3    3    0  502 -0.91824048247E+03 -0.82111864969E+02  0.52663976477E+03  0.10617237795E+04  0.50400001928E-02 0.  1.
</event>
<event>
 5   0  0.4735120E-07  0.2698453E+04  0.7818609E-02  0.8335507E-01
       -2   -1    0    0    0  501  0.00000000000E+00  0.00000000000E+00  0.88329620873E+03  0.88329620873E+03  0.25500000920E-02 0. -1.
        2   -1    0    0  501    0  0.00000000000E+00  0.00000000000E+00 -0.20609308122E+04  0.20609308122E+04  0.25500000920E-02 0.  1.
    10030    2    1    2    0    0  0.00000000000E+00  0.00000000000E+00 -0.11776346035E+04  0.29442270210E+04  0.26984531665E+04 0.  0.
        2    1    3    3  502    0  0.74835321113E+03  0.36337922496E+02  0.63545921439E+03  0.98242627529E+03  0.25500000920E-02 0. -1.
       -2    1    3    3    0  502 -0.74835321113E+03 -0.36337922496E+02 -0.18130938179E+04  0.19618007457E+04  0.25500000920E-02 0.  1.
</event>
<event>
 5   0  0.1964242E-07  0.2700572E+04  0.7818609E-02  0.8334819E-01
        1   -1    0    0  501    0  0.00000000000E+00  0.00000000000E+00  0.14178506319E+04  0.14178506319E+04  0.50400001928E-02 0.  1.
       -1   -1    0    0    0  501  0.00000000000E+00  0.00000000000E+00 -0.12859409163E+04  0.12859409164E+04  0.50400001928E-02 0. -1.
    10030    2    1    2    0    0  0.00000000000E+00  0.00000000000E+00  0.13190971552E+03  0.27037915482E+04  0.27005718956E+04 0.  0.
        2    1    3    3  502    0  0.10628446002E+04 -0.83256335969E+03  0.44209184729E+02  0.13508348693E+04  0.25500000920E-02 0.  1.
       -2    1    3    3    0  502 -0.10628446002E+04  0.83256335969E+03  0.87700530790E+02  0.13529566790E+04  0.25500000920E-02 0. -1.
</event>
<event>
 5   0  0.5043890E-07  0.2712997E+04  0.7818609E-02  0.8330800E-01
        2   -1    0    0  501    0  0.00000000000E+00  0.00000000000E+00  0.14276081367E+04  0.14276081367E+04  0.25500000920E-02 0.  1.
       -2   -1    0    0    0  501  0.00000000000E+00  0.00000000000E+00 -0.12889304431E+04  0.12889304431E+04  0.25500000920E-02 0. -1.
    10030    2    1    2    0    0  0.00000000000E+00  0.00000000000E+00  0.13867769364E+03  0.27165385798E+04  0.27129965633E+04 0.  0.
        3    1    3    3  502    0  0.50474953844E+03 -0.97681281752E+03  0.86482694097E+03  0.13988784883E+04  0.10100000352E+00 0.  1.
       -3    1    3    3    0  502 -0.50474953844E+03  0.97681281752E+03 -0.72614924733E+03  0.13176600915E+04  0.10100000352E+00 0. -1.
</event>
<event>
 5   0  0.4843887E-07  0.2700084E+04  0.7818609E-02  0.8334978E-01
       -2   -1    0    0    0  501  0.00000000000E+00  0.00000000000E+00  0.11577877306E+04  0.11577877306E+04  0.25500000920E-02 0. -1.
        2   -1    0    0  501    0  0.00000000000E+00  0.00000000000E+00 -0.15742201753E+04  0.15742201753E+04  0.25500000920E-02 0.  1.
    10030    2    1    2    0    0  0.00000000000E+00  0.00000000000E+00 -0.41643244469E+03  0.27320079060E+04  0.27000835575E+04 0.  0.
        5    1    3    3  502    0 -0.44368570741E+03 -0.42823898723E+03 -0.14233926488E+04  0.15512299507E+04  0.46999998093E+01 0.  1.
       -5    1    3    3    0  502  0.44368570741E+03  0.42823898723E+03  0.10069602041E+04  0.11807779553E+04  0.46999998093E+01 0. -1.
</event>
<event>
 5   0  0.1964242E-07  0.2700895E+04  0.7818609E-02  0.8334715E-01
        1   -1    0    0  501    0  0.00000000000E+00  0.00000000000E+00  0.12562976081E+04  0.12562976081E+04  0.50400001928E-02 0.  1.
       -1   -1    0    0    0  501  0.00000000000E+00  0.00000000000E+00 -0.14516534221E+04  0.14516534221E+04  0.50400001928E-02 0. -1.
    10030    2    1    2    0    0  0.00000000000E+00  0.00000000000E+00 -0.19535581399E+03  0.27079510302E+04  0.27008952012E+04 0.  0.
        2    1    3    3  502    0 -0.12352190247E+04 -0.51503691214E+03  0.83569521157E+02  0.13409000427E+04  0.25500000920E-02 0. -1.
       -2    1    3    3    0  502  0.12352190247E+04  0.51503691214E+03 -0.27892533514E+03  0.13670509875E+04  0.25500000920E-02 0.  1.
</event>
<event>
 5   0  0.5043890E-07  0.2697307E+04  0.7818609E-02  0.8335879E-01
        2   -1    0    0  501    0  0.00000000000E+00  0.00000000000E+00  0.15615325557E+04  0.15615325557E+04  0.25500000920E-02 0. -1.
       -2   -1    0    0    0  501  0.00000000000E+00  0.00000000000E+00 -0.11647959814E+04  0.11647959814E+04  0.25500000920E-02 0.  1.
    10030    2    1    2    0    0  0.00000000000E+00  0.00000000000E+00  0.39673657429E+03  0.27263285371E+04  0.26973074321E+04 0.  0.
        3    1    3    3  502    0 -0.35966922020E+03 -0.12919614790E+04  0.54213939616E+02  0.13421868621E+04  0.10100000352E+00 0. -1.
       -3    1    3    3    0  502  0.35966922020E+03  0.12919614790E+04  0.34252263468E+03  0.13841416751E+04  0.10100000352E+00 0.  1.
</event>
<event>
 5   0  0.4992668E-07  0.2700049E+04  0.7818609E-02  0.8334989E-01
        2   -1    0    0  501    0  0.00000000000E+00  0.00000000000E+00  0.91316255898E+03  0.91316255898E+03  0.25500000920E-02 0. -1.
       -2   -1    0    0    0  501  0.00000000000E+00  0.00000000000E+00 -0.19958830775E+04  0.19958830775E+04  0.25500000920E-02 0.  1.
    10030    2    1    2    0    0  0.00000000000E+00  0.00000000000E+00 -0.10827205185E+04  0.29090456365E+04  0.27000486651E+04 0.  0.
        1    1    3    3  502    0 -0.30527517963E+03 -0.68176531443E+03 -0.17529349070E+04  0.19054599621E+04  0.50400001928E-02 0.  1.
       -1    1    3    3    0  502  0.30527517963E+03  0.68176531443E+03  0.67021438844E+03  0.10035856743E+04  0.50400001928E-02 0. -1.
</event>
<event>
 5   0  0.1971600E-07  0.2700594E+04  0.7818609E-02  0.8334812E-01
        1   -1    0    0  501    0  0.00000000000E+00  0.00000000000E+00  0.13401819520E+04  0.13401819520E+04  0.50400001928E-02 0. -1.
       -1   -1    0    0    0  501  0.00000000000E+00  0.00000000000E+00 -0.13604885061E+04  0.13604885061E+04  0.50400001928E-02 0.  1.
    10030    2    1    2    0    0  0.00000000000E+00  0.00000000000E+00 -0.20306554111E+02  0.27006704582E+04  0.27005941138E+04 0.  0.
        5    1    3    3  502    0  0.79685257386E+03  0.99596926691E+03  0.43297463728E+03  0.13470033154E+04  0.46999998093E+01 0. -1.
       -5    1    3    3    0  502 -0.79685257386E+03 -0.99596926691E+03 -0.45328119139E+03  0.13536671428E+04  0.46999998093E+01 0.  1.
</event>
<event>
 5   0  0.5043890E-07  0.2695417E+04  0.7818609E-02  0.8336494E-01
        2   -1    0    0  501    0  0.00000000000E+00  0.00000000000E+00  0.29737944506E+04  0.29737944506E+04  0.25500000920E-02 0.  1.
       -2   -1    0    0    0  501  0.00000000000E+00  0.00000000000E+00 -0.61077456319E+03  0.61077456319E+03  0.25500000920E-02 0. -1.
    10030    2    1    2    0    0  0.00000000000E+00  0.00000000000E+00  0.23630198874E+04  0.35845690138E+04  0.26954168557E+04 0.  0.
        3    1    3    3  502    0 -0.78139340563E+01  0.11737705983E+04  0.20621642683E+04  0.23728295250E+04  0.10100000352E+00 0.  1.
       -3    1    3    3    0  502  0.78139340563E+01 -0.11737705983E+04  0.30085561903E+03  0.12117394887E+04  0.10100000352E+00 0. -1.
</event>
<event>
 5   0  0.1965415E-07  0.2701892E+04  0.7818609E-02  0.8334391E-01
        1   -1    0    0  501    0  0.00000000000E+00  0.00000000000E+00  0.14734776873E+04  0.14734776873E+04  0.50400001928E-02 0. -1.
       -1   -1    0    0    0  501  0.00000000000E+00  0.00000000000E+00 -0.12386037175E+04  0.12386037175E+04  0.50400001928E-02 0.  1.
    10030    2    1    2    0    0  0.00000000000E+00  0.00000000000E+00  0.23487396979E+03  0.27120814047E+04  0.27018918861E+04 0.  0.
        4    1    3    3  502    0  0.21462092058E+03  0.61137735332E+03  0.13073225690E+04  0.14590881811E+04  0.12699999809E+01 0. -1.
       -4    1    3    3    0  502 -0.21462092058E+03 -0.61137735332E+03 -0.10724485992E+04  0.12529932237E+04  0.12699999809E+01 0.  1.
</event>
<event>
 5   0  0.1888149E-07  0.2704862E+04  0.7818609E-02  0.8333429E-01
        1   -1    0    0  501    0  0.00000000000E+00  0.00000000000E+00  0.83714064748E+03  0.83714064749E+03  0.50400001928E-02 0.  1.
       -1   -1    0    0    0  501  0.00000000000E+00  0.00000000000E+00 -0.21849010904E+04  0.21849010904E+04  0.50400001928E-02 0. -1.
    10030    2    1    2    0    0  0.00000000000E+00  0.00000000000E+00 -0.13477604429E+04  0.30220417379E+04  0.27048619288E+04 0.  0.
        1    1    3    3  502    0  0.77488776990E+03  0.67321961429E+03  0.30994175915E+03  0.10722591101E+04  0.50400001928E-02 0.  1.
       -1    1    3    3    0  502 -0.77488776990E+03 -0.67321961429E+03 -0.16577022020E+04  0.19497826278E+04  0.50400001928E-02 0. -1.
</event>
<event>
 5   0  0.1937896E-07  0.2699901E+04  0.7818609E-02  0.8335037E-01
       -1   -1    0    0    0  501  0.00000000000E+00  0.00000000000E+00  0.89105869129E+03  0.89105869130E+03  0.50400001928E-02 0.  1.
        1   -1    0    0  501    0  0.00000000000E+00  0.00000000000E+00 -0.20451702919E+04  0.20451702919E+04  0.50400001928E-02 0. -1.
    10030    2    1    2    0    0  0.00000000000E+00  0.00000000000E+00 -0.11541116006E+04  0.29362289832E+04  0.26999013047E+04 0.  0.
        3    1    3    3  502    0  0.30290018478E+03 -0.82353241543E+03  0.53861238917E+03  0.10295909271E+04  0.10100000352E+00 0.  1.
       -3    1    3    3    0  502 -0.30290018478E+03  0.82353241543E+03 -0.16927239898E+04  0.19066380561E+04  0.10100000352E+00 0. -1.
</event>
<event>
 5   0  0.4983208E-07  0.2701151E+04  0.7818609E-02  0.8334632E-01
        2   -1    0    0  501    0  0.00000000000E+00  0.00000000000E+00  0.10237594266E+04  0.10237594266E+04  0.25500000920E-02 0.  1.
       -2   -1    0    0    0  501  0.00000000000E+00  0.00000000000E+00 -0.17817217922E+04  0.17817217922E+04  0.25500000920E-02 0. -1.
    10030    2    1    2    0    0  0.00000000000E+00  0.00000000000E+00 -0.75796236560E+03  0.28054812187E+04  0.27011512214E+04 0.  0.
        4    1    3    3  502    0 -0.10804929585E+04 -0.68405259345E+03 -0.83010758812E+03  0.15246223155E+04  0.12699999809E+01 0. -1.
       -4    1    3    3    0  502  0.10804929585E+04  0.68405259345E+03  0.72145222521E+02  0.12808589033E+04  0.12699999809E+01 0.  1.
</event>
<event>
 5   0  0.4983208E-07  0.2701272E+04  0.7818609E-02  0.8334593E-01
       -2   -1    0    0    0  501  0.00000000000E+00  0.00000000000E+00  0.29782710240E+04  0.29782710240E+04  0.25500000920E-02 0.  1.
        2   -1    0    0  501    0  0.00000000000E+00  0.00000000000E+00 -0.61250871954E+03  0.61250871955E+03  0.25500000920E-02 0. -1.
    10030    2    1    2    0    0  0.00000000000E+00  0.00000000000E+00  0.23657623044E+04  0.35907797435E+04  0.27012715312E+04 0.  0.
        4    1    3    3  502    0  0.87959076764E+02 -0.71848110882E+03  0.26986612599E+04  0.27940519164E+04  0.12699999809E+01 0.  1.
       -4    1    3    3    0  502 -0.87959076764E+02  0.71848110882E+03 -0.33289895554E+03  0.79672782706E+03  0.12699999809E+01 0. -1.
</event>
<event>
 5   0  0.1964242E-07  0.2700273E+04  0.7818609E-02  0.8334916E-01
       -1   -1    0    0    0  501  0.00000000000E+00  0.00000000000E+00  0.26007838116E+04  0.26007838116E+04  0.50400001928E-02 0.  1.
        1   -1    0    0  501    0  0.00000000000E+00  0.00000000000E+00 -0.70089188458E+03  0.70089188459E+03  0.50400001928E-02 0. -1.
    10030    2    1    2    0    0  0.00000000000E+00  0.00000000000E+00  0.18998919270E+04  0.33016756962E+04  0.27002727767E+04 0.  0.
        2    1    3    3  502    0  0.97558519126E+03  0.93270929146E+03  0.90838826579E+03  0.16269241928E+04  0.25500000920E-02 0. -1.
       -2    1    3    3    0  502 -0.97558519126E+03 -0.93270929146E+03  0.99150366122E+03  0.16747515034E+04  0.25500000920E-02 0.  1.
</event>
<event>
 5   0  0.1971600E-07  0.2697807E+04  0.7818609E-02  0.8335717E-01
        1   -1    0    0  501    0  0.00000000000E+00  0.00000000000E+00  0.19305371447E+04  0.19305371447E+04  0.50400001928E-02 0.  1.
       -1   -1    0    0    0  501  0.00000000000E+00  0.00000000000E+00 -0.94250507446E+03  0.94250507448E+03  0.50400001928E-02 0. -1.
    10030    2    1    2    0    0  0.00000000000E+00  0.00000000000E+00  0.98803207021E+03  0.28730422192E+04  0.26978072988E+04 0.  0.
        5    1    3    3  502    0 -0.94862656924E+03 -0.49199881462E+03 -0.38259345625E+03  0.11350572868E+04  0.46999998093E+01 0. -1.
       -5    1    3    3    0  502  0.94862656924E+03  0.49199881462E+03  0.13706255265E+04  0.17379849324E+04  0.46999998093E+01 0.  1.
</event>
<event>
 5   0  0.1971600E-07  0.2698984E+04  0.7818609E-02  0.8335335E-01
        1   -1    0    0  501    0  0.00000000000E+00  0.00000000000E+00  0.18958015023E+04  0.18958015023E+04  0.50400001928E-02 0.  1.
       -1   -1    0    0    0  501  0.00000000000E+00  0.00000000000E+00 -0.96061148604E+03  0.96061148606E+03  0.50400001928E-02 0. -1.
    10030    2    1    2    0    0  0.00000000000E+00  0.00000000000E+00  0.93519001622E+03  0.28564129883E+04  0.26989840299E+04 0.  0.
        5    1    3    3  502    0  0.56141747198E+03  0.77377314585E+03  0.14756177400E+04  0.17582332791E+04  0.46999998093E+01 0.  1.
       -5    1    3    3    0  502 -0.56141747198E+03 -0.77377314585E+03 -0.54042772381E+03  0.10981797092E+04  0.46999998093E+01 0. -1.
</event>
<event>
 5   0  0.4735120E-07  0.2700385E+04  0.7818609E-02  0.8334880E-01
       -2   -1    0    0    0  501  0.00000000000E+00  0.00000000000E+00  0.17825807756E+04  0.17825807756E+04  0.25500000920E-02 0.  1.
        2   -1    0    0  501    0  0.00000000000E+00  0.00000000000E+00 -0.10226855182E+04  0.10226855182E+04  0.25500000920E-02 0. -1.
    10030    2    1    2    0    0  0.00000000000E+00  0.00000000000E+00  0.75989525738E+03  0.28052662938E+04  0.27003848202E+04 0.  0.
        2    1    3    3  502    0 -0.41719463094E+03  0.85226492227E+03 -0.61788602367E+03  0.11323382869E+04  0.25500000920E-02 0. -1.
       -2    1    3    3    0  502  0.41719463094E+03 -0.85226492227E+03  0.13777812810E+04  0.16729280069E+04  0.25500000920E-02 0.  1.
</event>
<event>
 5   0  0.5043890E-07  0.2699898E+04  0.7818609E-02  0.8335038E-01
       -2   -1    0    0    0  501  0.00000000000E+00  0.00000000000E+00  0.10060599087E+04  0.10060599087E+04  0.25500000920E-02 0.  1.
        2   -1    0    0  501    0  0.00000000000E+00  0.00000000000E+00 -0.18113849098E+04  0.18113849098E+04  0.25500000920E-02 0. -1.
    10030    2    1    2    0    0  0.00000000000E+00  0.00000000000E+00 -0.80532500111E+03  0.28174448185E+04  0.26998975810E+04 0.  0.
        3    1    3    3  502    0  0.21921238451E+03 -0.26947003478E+02 -0.17924029754E+04  0.18059592041E+04  0.10100000352E+00 0. -1.
       -3    1    3    3    0  502 -0.21921238451E+03  0.26947003478E+02  0.98707797430E+03  0.10114856144E+04  0.10100000352E+00 0.  1.
</event>
<event>
 5   0  0.4992668E-07  0.2699384E+04  0.7818609E-02  0.8335205E-01
        2   -1    0    0  501    0  0.00000000000E+00  0.00000000000E+00  0.11653315348E+04  0.11653315348E+04  0.25500000920E-02 0. -1.
       -2   -1    0    0    0  501  0.00000000000E+00  0.00000000000E+00 -0.15632195491E+04  0.15632195491E+04  0.25500000920E-02 0.  1.
    10030    2    1    2    0    0  0.00000000000E+00  0.00000000000E+00 -0.39788801439E+03  0.27285510839E+04  0.26993844012E+04 0.  0.
        1    1    3    3  502    0  0.21960491903E+03 -0.88815521004E+03 -0.12019472840E+04  0.15105374113E+04  0.50400001928E-02 0.  1.
       -1    1    3    3    0  502 -0.21960491903E+03  0.88815521004E+03  0.80405926957E+03  0.12180136726E+04  0.50400001928E-02 0. -1.
</event>
<event>
 5   0  0.4735120E-07  0.2697050E+04  0.7818609E-02  0.8335963E-01
        2   -1    0    0  501    0  0.00000000000E+00  0.00000000000E+00  0.25186091808E+04  0.25186091808E+04  0.25500000920E-02 0. -1.
       -2   -1    0    0    0  501  0.00000000000E+00  0.00000000000E+00 -0.72203307677E+03  0.72203307678E+03  0.25500000920E-02 0.  1.
    10030    2    1    2    0    0  0.00000000000E+00  0.00000000000E+00  0.17965761041E+04  0.32406422576E+04  0.26970495999E+04 0.  0.
        2    1    3    3  502    0  0.11277031515E+03  0.48768980441E+03 -0.60627272786E+03  0.78620932955E+03  0.25500000920E-02 0.  1.
       -2    1    3    3    0  502 -0.11277031515E+03 -0.48768980441E+03  0.24028488319E+04  0.24544329281E+04  0.25500000920E-02 0. -1.
</event>
<event>
 5   0  0.5043890E-07  0.2699645E+04  0.7818609E-02  0.8335120E-01
        2   -1    0    0  501    0  0.00000000000E+00  0.00000000000E+00  0.30584685087E+04  0.30584685087E+04  0.25500000920E-02 0. -1.
       -2   -1    0    0    0  501  0.00000000000E+00  0.00000000000E+00 -0.59572988308E+03  0.59572988308E+03  0.25500000920E-02 0.  1.
    10030    2    1    2    0    0  0.00000000000E+00  0.00000000000E+00  0.24627386257E+04  0.36541983918E+04  0.26996452264E+04 0.  0.
        3    1    3    3  502    0  0.13413893286E+04 -0.13785171715E+03  0.11491157895E+04  0.17716646225E+04  0.10100000352E+00 0.  1.
       -3    1    3    3    0  502 -0.13413893286E+04  0.13785171715E+03  0.13136228362E+04  0.18825337693E+04  0.10100000352E+00 0. -1.
</event>
<event>
 5   0  0.1971600E-07  0.2699273E+04  0.7818609E-02  0.8335241E-01
       -1   -1    0    0    0  501  0.00000000000E+00  0.00000000000E+00  0.63100079018E+03  0.63100079020E+03  0.50400001928E-02 0. -1.
        1   -1    0    0  501    0  0.00000000000E+00  0.00000000000E+00 -0.28867141219E+04  0.28867141219E+04  0.50400001928E-02 0.  1.
    10030    2    1    2    0    0  0.00000000000E+00  0.00000000000E+00 -0.22557133317E+04  0.35177149121E+04  0.26992731555E+04 0.  0.
        5    1    3    3  502    0 -0.10268729531E+04  0.37639621559E+03 -0.21584254620E+04  0.24197034401E+04  0.46999998093E+01 0.  1.
       -5    1    3    3    0  502  0.10268729531E+04 -0.37639621559E+03 -0.97287869659E+02  0.10980114720E+04  0.46999998093E+01 0. -1.
</event>
<event>
 5   0  0.4843887E-07  0.2700474E+04  0.7818609E-02  0.8334851E-01
        2   -1    0    0  501    0  0.00000000000E+00  0.00000000000E+00  0.16460024205E+04  0.16460024205E+04  0.25500000920E-02 0.  1.
       -2   -1    0    0    0  501  0.00000000000E+00  0.00000000000E+00 -0.11076167880E+04  0.11076167880E+04  0.25500000920E-02 0. -1.
    10030    2    1    2    0    0  0.00000000000E+00  0.00000000000E+00  0.53838563251E+03  0.27536192085E+04  0.27004739687E+04 0.  0.
        5    1    3    3  502    0  0.40221148934E+03 -0.10452541322E+04 -0.49982946792E+03  0.12264509244E+04  0.46999998093E+01 0. -1.
       -5    1    3    3    0  502 -0.40221148934E+03  0.10452541322E+04  0.10382151004E+04  0.15271682840E+04  0.46999998093E+01 0.  1.
</event>
<event>
 5   0  0.1971600E-07  0.2700713E+04  0.7818609E-02  0.8334774E-01
        1   -1    0    0  501    0  0.00000000000E+00  0.00000000000E+00  0.27078809024E+04  0.27078809024E+04  0.50400001928E-02 0.  1.
       -1   -1    0    0    0  501  0.00000000000E+00  0.00000000000E+00 -0.67339112985E+03  0.67339112987E+03  0.50400001928E-02 0. -1.
    10030    2    1    2    0    0  0.00000000000E+00  0.00000000000E+00  0.20344897725E+04  0.33812720322E+04  0.27007132246E+04 0.  0.
        5    1    3    3  502    0 -0.10105831130E+02  0.98972532503E+03  0.21672953817E+04  0.23826140494E+04  0.46999998093E+01 0.  1.
       -5    1    3    3    0  502  0.10105831130E+02 -0.98972532503E+03 -0.13280560921E+03  0.99865798283E+03  0.46999998093E+01 0. -1.
</event>
<event>
 5   0  0.1937896E-07  0.2699241E+04  0.7818609E-02  0.8335251E-01
       -1   -1    0    0    0  501  0.00000000000E+00  0.00000000000E+00  0.13587601277E+04  0.13587601277E+04  0.50400001928E-02 0. -1.
        1   -1    0    0  501    0  0.00000000000E+00  0.00000000000E+00 -0.13405423162E+04  0.13405423162E+04  0.50400001928E-02 0.  1.
    10030    2    1    2    0    0  0.00000000000E+00  0.00000000000E+00  0.18217811494E+02  0.26993024439E+04  0.26992409664E+04 0.  0.
        3    1    3    3  502    0  0.54470743612E+03  0.12004347284E+04 -0.28025163788E+03  0.13476983041E+04  0.10100000352E+00 0. -1.
       -3    1    3    3    0  502 -0.54470743612E+03 -0.12004347284E+04  0.29846944938E+03  0.13516041398E+04  0.10100000352E+00 0.  1.
</event>
<event>
 5   0  0.5043890E-07  0.2700915E+04  0.7818609E-02  0.8334708E-01
        2   -1    0    0  501    0  0.00000000000E+00  0.00000000000E+00  0.22005820898E+04  0.22005820898E+04  0.25500000920E-02 0. -1.
       -2   -1    0    0    0  501  0.00000000000E+00  0.00000000000E+00 -0.82875165486E+03  0.82875165486E+03  0.25500000920E-02 0.  1.
    10030    2    1    2    0    0  0.00000000000E+00  0.00000000000E+00  0.13718304349E+04  0.30293337447E+04  0.27009154363E+04 0.  0.
        3    1    3    3  502    0  0.98290862098E+03 -0.73957239165E+01  0.17245704853E+04  0.19850207613E+04  0.10100000352E+00 0. -1.
       -3    1    3    3    0  502 -0.98290862098E+03  0.73957239165E+01 -0.35274005032E+03  0.10443129834E+04  0.10100000352E+00 0.  1.
</event>
<event>
 5   0  0.1888149E-07  0.2700797E+04  0.7818609E-02  0.8334746E-01
       -1   -1    0    0    0  501  0.00000000000E+00  0.00000000000E+00  0.13365574485E+04  0.13365574485E+04  0.50400001928E-02 0.  1.
        1   -1    0    0  501    0  0.00000000000E+00  0.00000000000E+00 -0.13643831166E+04  0.13643831166E+04  0.50400001928E-02 0. -1.
    10030    2    1    2    0    0  0.00000000000E+00  0.00000000000E+00 -0.27825668075E+02  0.27009405651E+04  0.27007972283E+04 0.  0.
        1    1    3    3  502    0 -0.10055242873E+02 -0.73365600703E+03 -0.11476502794E+04  0.13621502885E+04  0.50400001928E-02 0. -1.
       -1    1    3    3    0  502  0.10055242873E+02  0.73365600703E+03  0.11198246113E+04  0.13387902766E+04  0.50400001928E-02 0.  1.
</event>
<event>
 5   0  0.1937896E-07  0.2700581E+04  0.7818609E-02  0.8334817E-01
       -1   -1    0    0    0  501  0.00000000000E+00  0.00000000000E+00  0.13901515766E+04  0.13901515766E+04  0.50400001928E-02 0.  1.
        1   -1    0    0  501    0  0.00000000000E+00  0.00000000000E+00 -0.13115720936E+04  0.13115720936E+04  0.50400001928E-02 0. -1.
    10030    2    1    2    0    0  0.00000000000E+00  0.00000000000E+00  0.78579483059E+02  0.27017236702E+04  0.27005806885E+04 0.  0.
        3    1    3    3  502    0  0.67749315542E+02  0.56116874533E+03  0.12660973270E+04  0.13865434657E+04  0.10100000352E+00 0.  1.
       -3    1    3    3    0  502 -0.67749315542E+02 -0.56116874533E+03 -0.11875178440E+04  0.13151802045E+04  0.10100000352E+00 0. -1.
</event>
<event>
 5   0  0.1965415E-07  0.2700006E+04  0.7818609E-02  0.8335003E-01
       -1   -1    0    0    0  501  0.00000000000E+00  0.00000000000E+00  0.10431166302E+04  0.10431166302E+04  0.50400001928E-02 0.  1.
        1   -1    0    0  501    0  0.00000000000E+00  0.00000000000E+00 -0.17471758737E+04  0.17471758737E+04  0.50400001928E-02 0. -1.
    10030    2    1    2    0    0  0.00000000000E+00  0.00000000000E+00 -0.70405924350E+03  0.27902925040E+04  0.27000060813E+04 0.  0.
        4    1    3    3  502    0  0.12957275518E+02  0.69562393838E+03  0.84356905021E+03  0.10934673795E+04  0.12699999809E+01 0.  1.
       -4    1    3    3    0  502 -0.12957275518E+02 -0.69562393838E+03 -0.15476282937E+04  0.16968251245E+04  0.12699999809E+01 0. -1.
</event>
<event>
 5   0  0.1971600E-07  0.2700126E+04  0.7818609E-02  0.8334964E-01
        1   -1    0    0  501    0  0.00000000000E+00  0.00000000000E+00  0.14386162475E+04  0.14386162475E+04  0.50400001928E-02 0. -1.
       -1   -1    0    0    0  501  0.00000000000E+00  0.00000000000E+00 -0.12669602270E+04  0.12669602270E+04  0.50400001928E-02 0.  1.
    10030    2    1    2    0    0  0.00000000000E+00  0.00000000000E+00  0.17165602051E+03  0.27055764746E+04  0.27001256027E+04 0.  0.
        5    1    3    3  502    0  0.66489264005E+03 -0.51702083727E+03 -0.97141084917E+03  0.12857114361E+04  0.46999998093E+01 0.  1.
       -5    1    3    3    0  502 -0.66489264005E+03  0.51702083727E+03  0.11430668697E+04  0.14198650385E+04  0.46999998093E+01 0. -1.
</event>
<event>
 5   0  0.4983208E-07  0.2699405E+04  0.7818609E-02  0.8335198E-01
       -2   -1    0    0    0  501  0.00000000000E+00  0.00000000000E+00  0.14434331827E+04  0.14434331827E+04  0.25500000920E-02 0.  1.
        2   -1    0    0  501    0  0.00000000000E+00  0.00000000000E+00 -0.12620584774E+04  0.12620584774E+04  0.25500000920E-02 0. -1.
    10030    2    1    2    0    0  0.00000000000E+00  0.00000000000E+00  0.18137470533E+03  0.27054916601E+04  0.26994051825E+04 0.  0.
        4    1    3    3  502    0 -0.44683241138E+03 -0.63989624173E+03  0.11943373457E+04  0.14267339318E+04  0.12699999809E+01 0.  1.
       -4    1    3    3    0  502  0.44683241138E+03  0.63989624173E+03 -0.10129626404E+04  0.12787577283E+04  0.12699999809E+01 0. -1.
</event>
<event>
 5   0  0.4992668E-07  0.2703404E+04  0.7818609E-02  0.8333901E-01
       -2   -1    0    0    0  501  0.00000000000E+00  0.00000000000E+00  0.14773240631E+04  0.14773240631E+04  0.25500000920E-02 0.  1.
        2   -1    0    0  501    0  0.00000000000E+00  0.00000000000E+00 -0.12367624411E+04  0.12367624411E+04  0.25500000920E-02 0. -1.
    10030    2    1    2    0    0  0.00000000000E+00  0.00000000000E+00  0.24056162202E+03  0.27140865042E+04  0.27034044570E+04 0.  0.
        1    1    3    3  502    0 -0.53093284259E+03  0.12343504195E+04  0.26779086155E+03  0.13701177274E+04  0.50400001928E-02 0.  1.
       -1    1    3    3    0  502  0.53093284259E+03 -0.12343504195E+04 -0.27229239537E+02  0.13439687768E+04  0.50400001928E-02 0. -1.
</event>
<event>
 5   0  0.1965415E-07  0.2700328E+04  0.7818609E-02  0.8334899E-01
       -1   -1    0    0    0  501  0.00000000000E+00  0.00000000000E+00  0.91630272502E+03  0.91630272503E+03  0.50400001928E-02 0. -1.
        1   -1    0    0  501    0  0.00000000000E+00  0.00000000000E+00 -0.19894544122E+04  0.19894544122E+04  0.50400001928E-02 0.  1.
    10030    2    1    2    0    0  0.00000000000E+00  0.00000000000E+00 -0.10731516872E+04  0.29057571373E+04  0.27003277573E+04 0.  0.
        4    1    3    3  502    0 -0.42555287840E+03 -0.37178613917E+03 -0.18560837008E+04  0.19401980576E+04  0.12699999809E+01 0.  1.
       -4    1    3    3    0  502  0.42555287840E+03  0.37178613917E+03  0.78293201355E+03  0.96555907967E+03  0.12699999809E+01 0. -1.
</event>
<event>
 5   0  0.4735120E-07  0.2695897E+04  0.7818609E-02  0.8336338E-01
       -2   -1    0    0    0  501  0.00000000000E+00  0.00000000000E+00  0.15909040037E+04  0.15909040037E+04  0.25500000920E-02 0. -1.
        2   -1    0    0  501    0  0.00000000000E+00  0.00000000000E+00 -0.11420958124E+04  0.11420958124E+04  0.25500000920E-02 0.  1.
    10030    2    1    2    0    0  0.00000000000E+00  0.00000000000E+00  0.44880819130E+03  0.27329998161E+04  0.26958967344E+04 0.  0.
        2    1    3    3  502    0  0.45750362099E+03 -0.32576500331E+03  0.14666389309E+04  0.15704974225E+04  0.25500000920E-02 0. -1.
       -2    1    3    3    0  502 -0.45750362099E+03  0.32576500331E+03 -0.10178307396E+04  0.11625023936E+04  0.25500000920E-02 0.  1.
</event>
<event>
 5   0  0.1971600E-07  0.2699976E+04  0.7818609E-02  0.8335013E-01
       -1   -1    0    0    0  501  0.00000000000E+00  0.00000000000E+00  0.12505932284E+04  0.12505932284E+04  0.50400001928E-02 0.  1.
        1   -1    0    0  501    0  0.00000000000E+00  0.00000000000E+00 -0.14572827579E+04  0.14572827579E+04  0.50400001928E-02 0. -1.
    10030    2    1    2    0    0  0.00000000000E+00  0.00000000000E+00 -0.20668952946E+03  0.27078759863E+04  0.26999762583E+04 0.  0.
        5    1    3    3  502    0  0.71992649901E+03  0.10572701909E+04 -0.53626899543E+03  0.13869826769E+04  0.46999998093E+01 0. -1.
       -5    1    3    3    0  502 -0.71992649901E+03 -0.10572701909E+04  0.32957946597E+03  0.13208933094E+04  0.46999998093E+01 0.  1.
</event>
<event>
 5   0  0.4735120E-07  0.2701330E+04  0.7818609E-02  0.8334574E-01
       -2   -1    0    0    0  501  0.00000000000E+00  0.00000000000E+00  0.74790970389E+03  0.74790970390E+03  0.25500000920E-02 0.  1.
        2   -1    0    0  501    0  0.00000000000E+00  0.00000000000E+00 -0.24391928517E+04  0.24391928517E+04  0.25500000920E-02 0. -1.
    10030    2    1    2    0    0  0.00000000000E+00  0.00000000000E+00 -0.16912831478E+04  0.31871025556E+04  0.27013300453E+04 0.  0.
        2    1    3    3  502    0  0.99908054985E+02  0.12826322241E+04 -0.36037683920E+03  0.13360383633E+04  0.25500000920E-02 0. -1.
       -2    1    3    3    0  502 -0.99908054985E+02 -0.12826322241E+04 -0.13309063086E+04  0.18510641923E+04  0.25500000920E-02 0.  1.
</event>
<event>
 5   0  0.1965415E-07  0.2700485E+04  0.7818609E-02  0.8334848E-01
        1   -1    0    0  501    0  0.00000000000E+00  0.00000000000E+00  0.14231997516E+04  0.14231997516E+04  0.50400001928E-02 0. -1.
       -1   -1    0    0    0  501  0.00000000000E+00  0.00000000000E+00 -0.12810252945E+04  0.12810252945E+04  0.50400001928E-02 0.  1.
    10030    2    1    2    0    0  0.00000000000E+00  0.00000000000E+00  0.14217445711E+03  0.27042250460E+04  0.27004850534E+04 0.  0.
        4    1    3    3  502    0 -0.96761345839E+03  0.64620898424E+03 -0.61490999218E+03  0.13160462635E+04  0.12699999809E+01 0.  1.
       -4    1    3    3    0  502  0.96761345839E+03 -0.64620898424E+03  0.75708444929E+03  0.13881787826E+04  0.12699999809E+01 0. -1.
</event>
<event>
 5   0  0.1965415E-07  0.2702430E+04  0.7818609E-02  0.8334217E-01
        1   -1    0    0  501    0  0.00000000000E+00  0.00000000000E+00  0.19706135803E+04  0.19706135803E+04  0.50400001928E-02 0. -1.
       -1   -1    0    0    0  501  0.00000000000E+00  0.00000000000E+00 -0.92650455293E+03  0.92650455294E+03  0.50400001928E-02 0.  1.
    10030    2    1    2    0    0  0.00000000000E+00  0.00000000000E+00  0.10441090274E+04  0.28971181332E+04  0.27024303538E+04 0.  0.
        4    1    3    3  502    0  0.62457576044E+03  0.21664761232E+03  0.17854045425E+04  0.19038650325E+04  0.12699999809E+01 0. -1.
       -4    1    3    3    0  502 -0.62457576044E+03 -0.21664761232E+03 -0.74129551518E+03  0.99325310076E+03  0.12699999809E+01 0.  1.
</event>
<event>
 5   0  0.1965415E-07  0.2700282E+04  0.7818609E-02  0.8334914E-01
        1   -1    0    0  501    0  0.00000000000E+00  0.00000000000E+00  0.10626773252E+04  0.10626773252E+04  0.50400001928E-02 0.  1.
       -1   -1    0    0    0  501  0.00000000000E+00  0.00000000000E+00 -0.17153658548E+04  0.17153658548E+04  0.50400001928E-02 0. -1.
    10030    2    1    2    0    0  0.00000000000E+00  0.00000000000E+00 -0.65268852961E+03  0.27780431801E+04  0.27002817619E+04 0.  0.
        4    1    3    3  502    0  0.79385348220E+03  0.41466317691E+03  0.71306198446E+03  0.11448178493E+04  0.12699999809E+01 0.  1.
       -4    1    3    3    0  502 -0.79385348220E+03 -0.41466317691E+03 -0.13657505141E+04  0.16332253308E+04  0.12699999809E+01 0. -1.
</event>
<event>
 5   0  0.4735120E-07  0.2700405E+04  0.7818609E-02  0.8334874E-01
       -2   -1    0    0    0  501  0.00000000000E+00  0.00000000000E+00  0.69188308722E+03  0.69188308722E+03  0.25500000920E-02 0. -1.
        2   -1    0    0  501    0  0.00000000000E+00  0.00000000000E+00 -0.26349052322E+04  0.26349052322E+04  0.25500000920E-02 0.  1.
    10030    2    1    2    0    0  0.00000000000E+00  0.00000000000E+00 -0.19430221450E+04  0.33267883194E+04  0.27004046857E+04 0.  0.
        2    1    3    3  502    0 -0.48874574409E+03 -0.60844954613E+03 -0.23288836173E+04  0.24561722569E+04  0.25500000920E-02 0.  1.
       -2    1    3    3    0  502  0.48874574409E+03  0.60844954613E+03  0.38586147231E+03  0.87061606255E+03  0.25500000920E-02 0. -1.
</event>
<event>
 5   0  0.1641625E-07  0.2699490E+04  0.7818609E-02  0.8335170E-01
       -3   -1    0    0    0  501  0.00000000000E+00  0.00000000000E+00  0.23191166363E+04  0.23191166385E+04  0.10100000352E+00 0.  1.
        3   -1    0    0  501    0  0.00000000000E+00  0.00000000000E+00 -0.78556287091E+03  0.78556287740E+03  0.10100000352E+00 0. -1.
    10030    2    1    2    0    0  0.00000000000E+00  0.00000000000E+00  0.15335537654E+04  0.31046795159E+04  0.26994902750E+04 0.  0.
        3    1    3    3  502    0 -0.74757213741E+03  0.71135978047E+03 -0.23381872065E+03  0.10580964239E+04  0.10100000352E+00 0. -1.
       -3    1    3    3    0  502  0.74757213741E+03 -0.71135978047E+03  0.17673724860E+04  0.20465830920E+04  0.10100000352E+00 0.  1.
</event>
<event>
 5   0  0.4843887E-07  0.2699797E+04  0.7818609E-02  0.8335071E-01
       -2   -1    0    0    0  501  0.00000000000E+00  0.00000000000E+00  0.10557178929E+04  0.10557178929E+04  0.25500000920E-02 0. -1.
        2   -1    0    0  501    0  0.00000000000E+00  0.00000000000E+00 -0.17260532772E+04  0.17260532772E+04  0.25500000920E-02 0.  1.
    10030    2    1    2    0    0  0.00000000000E+00  0.00000000000E+00 -0.67033538439E+03  0.27817711701E+04  0.26997965322E+04 0.  0.
        5    1    3    3  502    0  0.10299562412E+04 -0.79643411564E+03  0.32147894657E+02  0.13023719655E+04  0.46999998093E+01 0. -1.
       -5    1    3    3    0  502 -0.10299562412E+04  0.79643411564E+03 -0.70248327905E+03  0.14793992046E+04  0.46999998093E+01 0.  1.
</event>
<event>
 5   0  0.4843887E-07  0.2698430E+04  0.7818609E-02  0.8335514E-01
       -2   -1    0    0    0  501  0.00000000000E+00  0.00000000000E+00  0.82651951163E+03  0.82651951164E+03  0.25500000920E-02 0. -1.
        2   -1    0    0  501    0  0.00000000000E+00  0.00000000000E+00 -0.22024667785E+04  0.22024667785E+04  0.25500000920E-02 0.  1.
    10030    2    1    2    0    0  0.00000000000E+00  0.00000000000E+00 -0.13759472669E+04  0.30289862901E+04  0.26984304817E+04 0.  0.
        5    1    3    3  502    0 -0.47115215692E+03 -0.12363377419E+03  0.72436512625E+03  0.87292416121E+03  0.46999998093E+01 0. -1.
       -5    1    3    3    0  502  0.47115215692E+03  0.12363377419E+03 -0.21003123931E+04  0.21560621289E+04  0.46999998093E+01 0.  1.
</event>
<event>
 5   0  0.4983208E-07  0.2699355E+04  0.7818609E-02  0.8335214E-01
        2   -1    0    0  501    0  0.00000000000E+00  0.00000000000E+00  0.10219208522E+04  0.10219208522E+04  0.25500000920E-02 0. -1.
       -2   -1    0    0    0  501  0.00000000000E+00  0.00000000000E+00 -0.17825543053E+04  0.17825543053E+04  0.25500000920E-02 0.  1.
    10030    2    1    2    0    0  0.00000000000E+00  0.00000000000E+00 -0.76063345311E+03  0.28044751574E+04  0.26993550449E+04 0.  0.
        4    1    3    3  502    0  0.68446826096E+03 -0.34287416323E+03  0.77453164648E+03  0.10890180790E+04  0.12699999809E+01 0. -1.
       -4    1    3    3    0  502 -0.68446826096E+03  0.34287416323E+03 -0.15351650996E+04  0.17154570784E+04  0.12699999809E+01 0.  1.
</event>
<event>
 5   0  0.1965415E-07  0.2704252E+04  0.7818609E-02  0.8333627E-01
        1   -1    0    0  501    0  0.00000000000E+00  0.00000000000E+00  0.15046338295E+04  0.15046338295E+04  0.50400001928E-02 0. -1.
       -1   -1    0    0    0  501  0.00000000000E+00  0.00000000000E+00 -0.12150759641E+04  0.12150759642E+04  0.50400001928E-02 0.  1.
    10030    2    1    2    0    0  0.00000000000E+00  0.00000000000E+00  0.28955786537E+03  0.27197097937E+04  0.27042517642E+04 0.  0.
        4    1    3    3  502    0 -0.41710969117E+02  0.56366686156E+02 -0.12132454879E+04  0.12152708485E+04  0.12699999809E+01 0.  1.
       -4    1    3    3    0  502  0.41710969117E+02 -0.56366686156E+02  0.15028033533E+04  0.15044389452E+04  0.12699999809E+01 0. -1.
</event>
<event>
 5   0  0.1964242E-07  0.2695918E+04  0.7818609E-02  0.8336331E-01
       -1   -1    0    0    0  501  0.00000000000E+00  0.00000000000E+00  0.13841545108E+04  0.13841545109E+04  0.50400001928E-02 0.  1.
        1   -1    0    0  501    0  0.00000000000E+00  0.00000000000E+00 -0.13127096277E+04  0.13127096277E+04  0.50400001928E-02 0. -1.
    10030    2    1    2    0    0  0.00000000000E+00  0.00000000000E+00  0.71444883142E+02  0.26968641386E+04  0.26959176194E+04 0.  0.
        2    1    3    3  502    0  0.37644338605E+03  0.11782978478E+04 -0.50009376081E+03  0.13342373142E+04  0.25500000920E-02 0.  1.
       -2    1    3    3    0  502 -0.37644338605E+03 -0.11782978478E+04  0.57153864395E+03  0.13626268244E+04  0.25500000920E-02 0. -1.
</event>
<event>
 5   0  0.4735120E-07  0.2700736E+04  0.7818609E-02  0.8334766E-01
        2   -1    0    0  501    0  0.00000000000E+00  0.00000000000E+00  0.17984602598E+04  0.17984602598E+04  0.25500000920E-02 0. -1.
       -2   -1    0    0    0  501  0.00000000000E+00  0.00000000000E+00 -0.10139194368E+04  0.10139194368E+04  0.25500000920E-02 0.  1.
    10030    2    1    2    0    0  0.00000000000E+00  0.00000000000E+00  0.78454082309E+03  0.28123796966E+04  0.27007360580E+04 0.  0.
        2    1    3    3  502    0  0.55883714340E+03  0.72691326395E+03  0.14246100670E+04  0.16941710921E+04  0.25500000920E-02 0. -1.
       -2    1    3    3    0  502 -0.55883714340E+03 -0.72691326395E+03 -0.64006924395E+03  0.11182086045E+04  0.25500000920E-02 0.  1.
</event>
<event>
 5   0  0.1964242E-07  0.2698835E+04  0.7818609E-02  0.8335383E-01
       -1   -1    0    0    0  501  0.00000000000E+00  0.00000000000E+00  0.69153624651E+03  0.69153624653E+03  0.50400001928E-02 0.  1.
        1   -1    0    0  501    0  0.00000000000E+00  0.00000000000E+00 -0.26331625497E+04  0.26331625497E+04  0.50400001928E-02 0. -1.
    10030    2    1    2    0    0  0.00000000000E+00  0.00000000000E+00 -0.19416263032E+04  0.33246987963E+04  0.26988348198E+04 0.  0.
        2    1    3    3  502    0  0.13003935708E+04  0.33841072296E+03 -0.11235991909E+04  0.17515765464E+04  0.25500000920E-02 0.  1.
       -2    1    3    3    0  502 -0.13003935708E+04 -0.33841072296E+03 -0.81802711234E+03  0.15731222498E+04  0.25500000920E-02 0. -1.
</event>
<event>
 5   0  0.5043890E-07  0.2700085E+04  0.7818609E-02  0.8334978E-01
       -2   -1    0    0    0  501  0.00000000000E+00  0.00000000000E+00  0.15934058607E+04  0.15934058607E+04  0.25500000920E-02 0.  1.
        2   -1    0    0  501    0  0.00000000000E+00  0.00000000000E+00 -0.11438480074E+04  0.11438480074E+04  0.25500000920E-02 0. -1.
    10030    2    1    2    0    0  0.00000000000E+00  0.00000000000E+00  0.44955785326E+03  0.27372538681E+04  0.27000845311E+04 0.  0.
        3    1    3    3  502    0 -0.27853579645E+03 -0.10904651704E+04 -0.53108382007E+03  0.12444864450E+04  0.10100000352E+00 0. -1.
       -3    1    3    3    0  502  0.27853579645E+03  0.10904651704E+04  0.98064167333E+03  0.14927674231E+04  0.10100000352E+00 0.  1.
</event>
<event>
 5   0  0.4843887E-07  0.2699221E+04  0.7818609E-02  0.8335258E-01
       -2   -1    0    0    0  501  0.00000000000E+00  0.00000000000E+00  0.18772116658E+04  0.18772116658E+04  0.25500000920E-02 0.  1.
        2   -1    0    0  501    0  0.00000000000E+00  0.00000000000E+00 -0.97029454414E+03  0.97029454414E+03  0.25500000920E-02 0. -1.
    10030    2    1    2    0    0  0.00000000000E+00  0.00000000000E+00  0.90691712164E+03  0.28475062099E+04  0.26992208042E+04 0.  0.
        5    1    3    3  502    0 -0.41574449503E+03  0.18864197747E+03 -0.88635086611E+03  0.99703020449E+03  0.46999998093E+01 0. -1.
       -5    1    3    3    0  502  0.41574449503E+03 -0.18864197747E+03  0.17932679877E+04  0.18504760054E+04  0.46999998093E+01 0.  1.
</event>
<event>
 5   0  0.1971600E-07  0.2703077E+04  0.7818609E-02  0.8334007E-01
        1   -1    0    0  501    0  0.00000000000E+00  0.00000000000E+00  0.10853786387E+04  0.10853786387E+04  0.50400001928E-02 0.  1.
       -1   -1    0    0    0  501  0.00000000000E+00  0.00000000000E+00 -0.16829667121E+04  0.16829667121E+04  0.50400001928E-02 0. -1.
    10030    2    1    2    0    0  0.00000000000E+00  0.00000000000E+00 -0.59758807344E+03  0.27683453508E+04  0.27030768535E+04 0.  0.
        5    1    3    3  502    0  0.76701412377E+03  0.11624797216E+01 -0.14384628656E+04  0.16301869596E+04  0.46999998093E+01 0. -1.
       -5    1    3    3    0  502 -0.76701412377E+03 -0.11624797216E+01  0.84087479218E+03  0.11381583912E+04  0.46999998093E+01 0.  1.
</event>
<event>
 5   0  0.1937896E-07  0.2699828E+04  0.7818609E-02  0.8335061E-01
       -1   -1    0    0    0  501  0.00000000000E+00  0.00000000000E+00  0.99385149668E+03  0.99385149670E+03  0.50400001928E-02 0. -1.
        1   -1    0    0  501    0  0.00000000000E+00  0.00000000000E+00 -0.18335415621E+04  0.18335415621E+04  0.50400001928E-02 0.  1.
    10030    2    1    2    0    0  0.00000000000E+00  0.00000000000E+00 -0.83969006542E+03  0.28273930588E+04  0.26998281618E+04 0.  0.
        3    1    3    3  502    0 -0.90055782219E+03 -0.80395314085E+03 -0.10524763190E+04  0.16015778020E+04  0.10100000352E+00 0.  1.
       -3    1    3    3    0  502  0.90055782219E+03  0.80395314085E+03  0.21278625357E+03  0.12258152568E+04  0.10100000352E+00 0. -1.
</event>
<event>
 5   0  0.5043890E-07  0.2700792E+04  0.7818609E-02  0.8334748E-01
       -2   -1    0    0    0  501  0.00000000000E+00  0.00000000000E+00  0.87194051882E+03  0.87194051882E+03  0.25500000920E-02 0.  1.
        2   -1    0    0  501    0  0.00000000000E+00  0.00000000000E+00 -0.20913914091E+04  0.20913914091E+04  0.25500000920E-02 0. -1.
    10030    2    1    2    0    0  0.00000000000E+00  0.00000000000E+00 -0.12194508903E+04  0.29633319279E+04  0.27007916694E+04 0.  0.
        3    1    3    3  502    0  0.83949851096E+02 -0.13039822317E+04 -0.98366544992E+03  0.16355472985E+04  0.10100000352E+00 0. -1.
       -3    1    3    3    0  502 -0.83949851096E+02  0.13039822317E+04 -0.23578544038E+03  0.13277846294E+04  0.10100000352E+00 0.  1.
</event>
<event>
 5   0  0.4992668E-07  0.2699550E+04  0.7818609E-02  0.8335151E-01
       -2   -1    0    0    0  501  0.00000000000E+00  0.00000000000E+00  0.95300958359E+03  0.95300958360E+03  0.25500000920E-02 0. -1.
        2   -1    0    0  501    0  0.00000000000E+00  0.00000000000E+00 -0.19117258211E+04  0.19117258211E+04  0.25500000920E-02 0.  1.
    10030    2    1    2    0    0  0.00000000000E+00  0.00000000000E+00 -0.95871623747E+03  0.28647354047E+04  0.26995503542E+04 0.  0.
        1    1    3    3  502    0 -0.10087513327E+04 -0.28823999606E+03  0.42186105019E+03  0.11307644725E+04  0.50400001928E-02 0. -1.
       -1    1    3    3    0  502  0.10087513327E+04  0.28823999606E+03 -0.13805772877E+04  0.17339709322E+04  0.50400001928E-02 0.  1.
</event>
<event>
 5   0  0.4992668E-07  0.2700519E+04  0.7818609E-02  0.8334836E-01
       -2   -1    0    0    0  501  0.00000000000E+00  0.00000000000E+00  0.11822183649E+04  0.11822183649E+04  0.25500000920E-02 0.  1.
        2   -1    0    0  501    0  0.00000000000E+00  0.00000000000E+00 -0.15421864139E+04  0.15421864139E+04  0.25500000920E-02 0. -1.
    10030    2    1    2    0    0  0.00000000000E+00  0.00000000000E+00 -0.35996804908E+03  0.27244047788E+04  0.27005192838E+04 0.  0.
        1    1    3    3  502    0 -0.36059835526E+03  0.41203359143E+03 -0.14251609847E+04  0.15267241685E+04  0.50400001928E-02 0. -1.
       -1    1    3    3    0  502  0.36059835526E+03 -0.41203359143E+03  0.10651929356E+04  0.11976806103E+04  0.50400001928E-02 0.  1.
</event>
<event>
 5   0  0.4735120E-07  0.2699552E+04  0.7818609E-02  0.8335150E-01
        2   -1    0    0  501    0  0.00000000000E+00  0.00000000000E+00  0.12033743494E+04  0.12033743494E+04  0.25500000920E-02 0. -1.
       -2   -1    0    0    0  501  0.00000000000E+00  0.00000000000E+00 -0.15139891374E+04  0.15139891374E+04  0.25500000920E-02 0.  1.
    10030    2    1    2    0    0  0.00000000000E+00  0.00000000000E+00 -0.31061478803E+03  0.27173634868E+04  0.26995523283E+04 0.  0.
        2    1    3    3  502    0  0.43812795720E+03  0.12690508456E+04 -0.14925652715E+02  0.13426350699E+04  0.25500000920E-02 0. -1.
       -2    1    3    3    0  502 -0.43812795720E+03 -0.12690508456E+04 -0.29568913532E+03  0.13747284170E+04  0.25500000920E-02 0.  1.
</event>
<event>
 5   0  0.1888149E-07  0.2699174E+04  0.7818609E-02  0.8335273E-01
       -1   -1    0    0    0  501  0.00000000000E+00  0.00000000000E+00  0.18344577428E+04  0.18344577428E+04  0.50400001928E-02 0.  1.
        1   -1    0    0  501    0  0.00000000000E+00  0.00000000000E+00 -0.99287398496E+03  0.99287398497E+03  0.50400001928E-02 0. -1.
    10030    2    1    2    0    0  0.00000000000E+00  0.00000000000E+00  0.84158375779E+03  0.28273317277E+04  0.26991742214E+04 0.  0.
        1    1    3    3  502    0  0.26473088221E+03  0.80812709456E+02 -0.96282298880E+03  0.10018189666E+04  0.50400001928E-02 0. -1.
       -1    1    3    3    0  502 -0.26473088221E+03 -0.80812709456E+02  0.18044067466E+04  0.18255127612E+04  0.50400001928E-02 0.  1.
</event>
<event>
 5   0  0.4992668E-07  0.2703141E+04  0.7818609E-02  0.8333987E-01
        2   -1    0    0  501    0  0.00000000000E+00  0.00000000000E+00  0.20705191264E+04  0.20705191264E+04  0.25500000920E-02 0. -1.
       -2   -1    0    0    0  501  0.00000000000E+00  0.00000000000E+00 -0.88226316560E+03  0.88226316560E+03  0.25500000920E-02 0.  1.
    10030    2    1    2    0    0  0.00000000000E+00  0.00000000000E+00  0.11882559608E+04  0.29527822920E+04  0.27031409574E+04 0.  0.
        1    1    3    3  502    0 -0.53850665027E+02 -0.10931876758E+04  0.14603183032E+04  0.18249626668E+04  0.50400001928E-02 0. -1.
       -1    1    3    3    0  502  0.53850665027E+02  0.10931876758E+04 -0.27206234246E+03  0.11278196251E+04  0.50400001928E-02 0.  1.
</event>
<event>
 5   0  0.4983208E-07  0.2703849E+04  0.7818609E-02  0.8333757E-01
        2   -1    0    0  501    0  0.00000000000E+00  0.00000000000E+00  0.22191168344E+04  0.22191168344E+04  0.25500000920E-02 0. -1.
       -2   -1    0    0    0  501  0.00000000000E+00  0.00000000000E+00 -0.82361591532E+03  0.82361591532E+03  0.25500000920E-02 0.  1.
    10030    2    1    2    0    0  0.00000000000E+00  0.00000000000E+00  0.13955009191E+04  0.30427327497E+04  0.27038490659E+04 0.  0.
        4    1    3    3  502    0 -0.10533447426E+04 -0.71727972559E+03  0.12056152108E+04  0.17542904551E+04  0.12699999809E+01 0. -1.
       -4    1    3    3    0  502  0.10533447426E+04  0.71727972559E+03  0.18988570829E+03  0.12884422946E+04  0.12699999809E+01 0.  1.
</event>
<event>
 5   0  0.5043890E-07  0.2700285E+04  0.7818609E-02  0.8334912E-01
        2   -1    0    0  501    0  0.00000000000E+00  0.00000000000E+00  0.11305490880E+04  0.11305490880E+04  0.25500000920E-02 0. -1.
       -2   -1    0    0    0  501  0.00000000000E+00  0.00000000000E+00 -0.16123893798E+04  0.16123893798E+04  0.25500000920E-02 0.  1.
    10030    2    1    2    0    0  0.00000000000E+00  0.00000000000E+00 -0.48184029176E+03  0.27429384678E+04  0.27002854241E+04 0.  0.
        3    1    3    3  502    0  0.80925733454E+03  0.10539118208E+04  0.21455214530E+01  0.13287709257E+04  0.10100000352E+00 0. -1.
       -3    1    3    3    0  502 -0.80925733454E+03 -0.10539118208E+04 -0.48398581322E+03  0.14141675421E+04  0.10100000352E+00 0.  1.
</event>
<event>
 5   0  0.1971600E-07  0.2703920E+04  0.7818609E-02  0.8333734E-01
       -1   -1    0    0    0  501  0.00000000000E+00  0.00000000000E+00  0.11136970324E+04  0.11136970324E+04  0.50400001928E-02 0. -1.
        1   -1    0    0  501    0  0.00000000000E+00  0.00000000000E+00 -0.16411963618E+04  0.16411963618E+04  0.50400001928E-02 0.  1.
    10030    2    1    2    0    0  0.00000000000E+00  0.00000000000E+00 -0.52749932938E+03  0.27548933942E+04  0.27039197604E+04 0.  0.
        5    1    3    3  502    0 -0.38946685532E+02 -0.78543786244E+03  0.85668339767E+03  0.11629092888E+04  0.46999998093E+01 0. -1.
       -5    1    3    3    0  502  0.38946685532E+02  0.78543786244E+03 -0.13841827271E+04  0.15919841054E+04  0.46999998093E+01 0.  1.
</event>
<event>
 5   0  0.1964242E-07  0.2696974E+04  0.7818609E-02  0.8335987E-01
       -1   -1    0    0    0  501  0.00000000000E+00  0.00000000000E+00  0.97171772613E+03  0.97171772614E+03  0.50400001928E-02 0.  1.
        1   -1    0    0  501    0  0.00000000000E+00  0.00000000000E+00 -0.18713433699E+04  0.18713433699E+04  0.50400001928E-02 0. -1.
    10030    2    1    2    0    0  0.00000000000E+00  0.00000000000E+00 -0.89962564376E+03  0.28430610960E+04  0.26969742485E+04 0.  0.
        2    1    3    3  502    0 -0.25219110693E+03 -0.47437034995E+03 -0.17536558027E+04  0.18341036660E+04  0.25500000920E-02 0. -1.
       -2    1    3    3    0  502  0.25219110693E+03  0.47437034995E+03  0.85403015891E+03  0.10089574301E+04  0.25500000920E-02 0.  1.
</event>
<event>
 5   0  0.4992668E-07  0.2702139E+04  0.7818609E-02  0.8334311E-01
       -2   -1    0    0    0  501  0.00000000000E+00  0.00000000000E+00  0.11661774337E+04  0.11661774337E+04  0.25500000920E-02 0.  1.
        2   -1    0    0  501    0  0.00000000000E+00  0.00000000000E+00 -0.15652750559E+04  0.15652750559E+04  0.25500000920E-02 0. -1.
    10030    2    1    2    0    0  0.00000000000E+00  0.00000000000E+00 -0.39909762218E+03  0.27314524895E+04  0.27021387438E+04 0.  0.
        1    1    3    3  502    0  0.13285248539E+04  0.18747733118E+03 -0.38883025952E+02  0.13422510670E+04  0.50400001928E-02 0.  1.
       -1    1    3    3    0  502 -0.13285248539E+04 -0.18747733118E+03 -0.36021459623E+03  0.13892014226E+04  0.50400001928E-02 0. -1.
</event>
<event>
 5   0  0.4983208E-07  0.2699303E+04  0.7818609E-02  0.8335231E-01
       -2   -1    0    0    0  501  0.00000000000E+00  0.00000000000E+00  0.10219883504E+04  0.10219883504E+04  0.25500000920E-02 0.  1.
        2   -1    0    0  501    0  0.00000000000E+00  0.00000000000E+00 -0.17823683866E+04  0.17823683866E+04  0.25500000920E-02 0. -1.
    10030    2    1    2    0    0  0.00000000000E+00  0.00000000000E+00 -0.76038003626E+03  0.28043567370E+04  0.26993034118E+04 0.  0.
        4    1    3    3  502    0  0.11352189979E+04 -0.34805364436E+02 -0.11376924998E+04  0.16075694148E+04  0.12699999809E+01 0. -1.
       -4    1    3    3    0  502 -0.11352189979E+04  0.34805364436E+02  0.37731246352E+03  0.11967873222E+04  0.12699999809E+01 0.  1.
</event>
<event>
 5   0  0.5043890E-07  0.2698735E+04  0.7818609E-02  0.8335416E-01
       -2   -1    0    0    0  501  0.00000000000E+00  0.00000000000E+00  0.14580768142E+04  0.14580768142E+04  0.25500000920E-02 0.  1.
        2   -1    0    0  501    0  0.00000000000E+00  0.00000000000E+00 -0.12487631465E+04  0.12487631465E+04  0.25500000920E-02 0. -1.
    10030    2    1    2    0    0  0.00000000000E+00  0.00000000000E+00  0.20931366763E+03  0.27068399607E+04  0.26987349558E+04 0.  0.
        3    1    3    3  502    0 -0.40179953614E+02 -0.13347667961E+04 -0.89769990460E+02  0.13383854041E+04  0.10100000352E+00 0. -1.
       -3    1    3    3    0  502  0.40179953614E+02  0.13347667961E+04  0.29908365809E+03  0.13684545566E+04  0.10100000352E+00 0.  1.
</event>
<event>
 5   0  0.1937896E-07  0.2695932E+04  0.7818609E-02  0.8336326E-01
        1   -1    0    0  501    0  0.00000000000E+00  0.00000000000E+00  0.13619296858E+04  0.13619296858E+04  0.50400001928E-02 0.  1.
       -1   -1    0    0    0  501  0.00000000000E+00  0.00000000000E+00 -0.13341459373E+04  0.13341459373E+04  0.50400001928E-02 0. -1.
    10030    2    1    2    0    0  0.00000000000E+00  0.00000000000E+00  0.27783748554E+02  0.26960756231E+04  0.26959324600E+04 0.  0.
        3    1    3    3  502    0 -0.11829472432E+04  0.48307628346E+03  0.44320020659E+03  0.13524619437E+04  0.10100000352E+00 0.  1.
       -3    1    3    3    0  502  0.11829472432E+04 -0.48307628346E+03 -0.41541645804E+03  0.13436136794E+04  0.10100000352E+00 0. -1.
</event>
<event>
 5   0  0.4735120E-07  0.2693745E+04  0.7818609E-02  0.8337037E-01
       -2   -1    0    0    0  501  0.00000000000E+00  0.00000000000E+00  0.17020925252E+04  0.17020925252E+04  0.25500000920E-02 0.  1.
        2   -1    0    0  501    0  0.00000000000E+00  0.00000000000E+00 -0.10657854673E+04  0.10657854673E+04  0.25500000920E-02 0. -1.
    10030    2    1    2    0    0  0.00000000000E+00  0.00000000000E+00  0.63630705784E+03  0.27678779925E+04  0.26937449600E+04 0.  0.
        2    1    3    3  502    0  0.79658056236E+03  0.16808372940E+01 -0.79779329749E+03  0.11273941472E+04  0.25500000920E-02 0. -1.
       -2    1    3    3    0  502 -0.79658056236E+03 -0.16808372940E+01  0.14341003553E+04  0.16404838453E+04  0.25500000920E-02 0.  1.
</event>
<event>
 5   0  0.1888149E-07  0.2702450E+04  0.7818609E-02  0.8334210E-01
       -1   -1    0    0    0  501  0.00000000000E+00  0.00000000000E+00  0.74651906989E+03  0.74651906991E+03  0.50400001928E-02 0. -1.
        1   -1    0    0  501    0  0.00000000000E+00  0.00000000000E+00 -0.24457633423E+04  0.24457633423E+04  0.50400001928E-02 0.  1.
    10030    2    1    2    0    0  0.00000000000E+00  0.00000000000E+00 -0.16992442724E+04  0.31922824122E+04  0.27024499814E+04 0.  0.
        1    1    3    3  502    0 -0.11858209121E+04  0.45626625090E+03 -0.30642612540E+03  0.13069992722E+04  0.50400001928E-02 0.  1.
       -1    1    3    3    0  502  0.11858209121E+04 -0.45626625090E+03 -0.13928181470E+04  0.18852831400E+04  0.50400001928E-02 0. -1.
</event>
<event>
 5   0  0.1964242E-07  0.2700278E+04  0.7818609E-02  0.8334915E-01
        1   -1    0    0  501    0  0.00000000000E+00  0.00000000000E+00  0.18812049898E+04  0.18812049898E+04  0.50400001928E-02 0. -1.
       -1   -1    0    0    0  501  0.00000000000E+00  0.00000000000E+00 -0.96899323471E+03  0.96899323472E+03  0.50400001928E-02 0.  1.
    10030    2    1    2    0    0  0.00000000000E+00  0.00000000000E+00  0.91221175513E+03  0.28501982246E+04  0.27002776956E+04 0.  0.
        2    1    3    3  502    0  0.63744329346E+03 -0.64135115584E+03 -0.60216040877E+03  0.10863988289E+04  0.25500000920E-02 0.  1.
       -2    1    3    3    0  502 -0.63744329346E+03  0.64135115584E+03  0.15143721639E+04  0.17637993957E+04  0.25500000920E-02 0. -1.
</event>
<event>
 5   0  0.4843887E-07  0.2700211E+04  0.7818609E-02  0.8334937E-01
       -2   -1    0    0    0  501  0.00000000000E+00  0.00000000000E+00  0.18786513795E+04  0.18786513795E+04  0.25500000920E-02 0. -1.
        2   -1    0    0  501    0  0.00000000000E+00  0.00000000000E+00 -0.97026236297E+03  0.97026236297E+03  0.25500000920E-02 0.  1.
    10030    2    1    2    0    0  0.00000000000E+00  0.00000000000E+00  0.90838901652E+03  0.28489137425E+04  0.27002109004E+04 0.  0.
        5    1    3    3  502    0 -0.11173728624E+04 -0.74311082885E+03  0.61078215827E+03  0.14743855508E+04  0.46999998093E+01 0. -1.
       -5    1    3    3    0  502  0.11173728624E+04  0.74311082885E+03  0.29760685825E+03  0.13745281917E+04  0.46999998093E+01 0.  1.
</event>
<event>
 5   0  0.1888149E-07  0.2697665E+04  0.7818609E-02  0.8335763E-01
        1   -1    0    0  501    0  0.00000000000E+00  0.00000000000E+00  0.61507622256E+03  0.61507622258E+03  0.50400001928E-02 0. -1.
       -1   -1    0    0    0  501  0.00000000000E+00  0.00000000000E+00 -0.29579235725E+04  0.29579235725E+04  0.50400001928E-02 0.  1.
    10030    2    1    2    0    0  0.00000000000E+00  0.00000000000E+00 -0.23428473499E+04  0.35729997950E+04  0.26976645141E+04 0.  0.
        1    1    3    3  502    0 -0.61754386547E+03  0.14029502460E+03 -0.27487803968E+04  0.28207865551E+04  0.50400001928E-02 0.  1.
       -1    1    3    3    0  502  0.61754386547E+03 -0.14029502460E+03  0.40593304691E+03  0.75221323991E+03  0.50400001928E-02 0. -1.
</event>
<event>
 5   0  0.4983208E-07  0.2700733E+04  0.7818609E-02  0.8334767E-01
        2   -1    0    0  501    0  0.00000000000E+00  0.00000000000E+00  0.24611317787E+04  0.24611317787E+04  0.25500000920E-02 0.  1.
       -2   -1    0    0    0  501  0.00000000000E+00  0.00000000000E+00 -0.74091522428E+03  0.74091522429E+03  0.25500000920E-02 0. -1.
    10030    2    1    2    0    0  0.00000000000E+00  0.00000000000E+00  0.17202165544E+04  0.32020470029E+04  0.27007332366E+04 0.  0.
        4    1    3    3  502    0 -0.10322807243E+03  0.12422687795E+04  0.24449713857E+03  0.12703024125E+04  0.12699999809E+01 0. -1.
       -4    1    3    3    0  502  0.10322807243E+03 -0.12422687795E+04  0.14757194158E+04  0.19317445904E+04  0.12699999809E+01 0.  1.
</event>
<event>
 5   0  0.1641625E-07  0.2698327E+04  0.7818609E-02  0.8335548E-01
       -3   -1    0    0    0  501  0.00000000000E+00  0.00000000000E+00  0.18789298940E+04  0.18789298967E+04  0.10100000352E+00 0. -1.
        3   -1    0    0  501    0  0.00000000000E+00  0.00000000000E+00 -0.96876505936E+03  0.96876506463E+03  0.10100000352E+00 0.  1.
    10030    2    1    2    0    0  0.00000000000E+00  0.00000000000E+00  0.91016483464E+03  0.28476949613E+04  0.26983266234E+04 0.  0.
        5    1    3    3  502    0 -0.70639310993E+03  0.11455755753E+04  0.35560468364E+03  0.13920529464E+04  0.46999998093E+01 0.  1.
       -5    1    3    3    0  502  0.70639310993E+03 -0.11455755753E+04  0.55456015100E+03  0.14556420149E+04  0.46999998093E+01 0. -1.
</event>
<event>
 5   0  0.5043890E-07  0.2699924E+04  0.7818609E-02  0.8335030E-01
       -2   -1    0    0    0  501  0.00000000000E+00  0.00000000000E+00  0.64203832337E+03  0.64203832337E+03  0.25500000920E-02 0. -1.
        2   -1    0    0  501    0  0.00000000000E+00  0.00000000000E+00 -0.28384549355E+04  0.28384549355E+04  0.25500000920E-02 0.  1.
    10030    2    1    2    0    0  0.00000000000E+00  0.00000000000E+00 -0.21964166121E+04  0.34804932588E+04  0.26999235898E+04 0.  0.
        3    1    3    3  502    0  0.33680761604E+03 -0.10062092343E+04 -0.22362521942E+02  0.10613182774E+04  0.10100000352E+00 0. -1.
       -3    1    3    3    0  502 -0.33680761604E+03  0.10062092343E+04 -0.21740540902E+04  0.24191749814E+04  0.10100000352E+00 0.  1.
</event>
<event>
 5   0  0.5043890E-07  0.2701324E+04  0.7818609E-02  0.8334576E-01
       -2   -1    0    0    0  501  0.00000000000E+00  0.00000000000E+00  0.10935586713E+04  0.10935586713E+04  0.25500000920E-02 0. -1.
        2   -1    0    0  501    0  0.00000000000E+00  0.00000000000E+00 -0.16682116500E+04  0.16682116500E+04  0.25500000920E-02 0.  1.
    10030    2    1    2    0    0  0.00000000000E+00  0.00000000000E+00 -0.57465297864E+03  0.27617703213E+04  0.27013236129E+04 0.  0.
        3    1    3    3  502    0 -0.84014013857E+03 -0.10343986415E+04 -0.62237997030E+02  0.13340500667E+04  0.10100000352E+00 0. -1.
       -3    1    3    3    0  502  0.84014013857E+03  0.10343986415E+04 -0.51241498161E+03  0.14277202546E+04  0.10100000352E+00 0.  1.
</event>
<event>
 5   0  0.1937896E-07  0.2699850E+04  0.7818609E-02  0.8335054E-01
       -1   -1    0    0    0  501  0.00000000000E+00  0.00000000000E+00  0.70288475812E+03  0.70288475814E+03  0.50400001928E-02 0.  1.
        1   -1    0    0  501    0  0.00000000000E+00  0.00000000000E+00 -0.25925983257E+04  0.25925983257E+04  0.50400001928E-02 0. -1.
    10030    2    1    2    0    0  0.00000000000E+00  0.00000000000E+00 -0.18897135676E+04  0.32954830839E+04  0.26998502530E+04 0.  0.
        3    1    3    3  502    0  0.10453480308E+04 -0.46328323612E+03 -0.68972468691E+02  0.11454872649E+04  0.10100000352E+00 0.  1.
       -3    1    3    3    0  502 -0.10453480308E+04  0.46328323612E+03 -0.18207410989E+04  0.21499958190E+04  0.10100000352E+00 0. -1.
</event>
<event>
 5   0  0.4735120E-07  0.2698464E+04  0.7818609E-02  0.8335504E-01
        2   -1    0    0  501    0  0.00000000000E+00  0.00000000000E+00  0.22100680780E+04  0.22100680780E+04  0.25500000920E-02 0.  1.
       -2   -1    0    0    0  501  0.00000000000E+00  0.00000000000E+00 -0.82369712700E+03  0.82369712700E+03  0.25500000920E-02 0. -1.
    10030    2    1    2    0    0  0.00000000000E+00  0.00000000000E+00  0.13863709510E+04  0.30337652050E+04  0.26984638047E+04 0.  0.
        2    1    3    3  502    0 -0.46101624886E+03  0.18603517323E+03  0.21033461809E+04  0.21612982729E+04  0.25500000920E-02 0.  1.
       -2    1    3    3    0  502  0.46101624886E+03 -0.18603517323E+03 -0.71697522991E+03  0.87246693216E+03  0.25500000920E-02 0. -1.
</event>
<event>
 5   0  0.4983208E-07  0.2699889E+04  0.7818609E-02  0.8335041E-01
        2   -1    0    0  501    0  0.00000000000E+00  0.00000000000E+00  0.21536682803E+04  0.21536682803E+04  0.25500000920E-02 0. -1.
       -2   -1    0    0    0  501  0.00000000000E+00  0.00000000000E+00 -0.84616092491E+03  0.84616092492E+03  0.25500000920E-02 0.  1.
    10030    2    1    2    0    0  0.00000000000E+00  0.00000000000E+00  0.13075073554E+04  0.29998292052E+04  0.26998888451E+04 0.  0.
        4    1    3    3  502    0 -0.64591644937E+03 -0.26587626344E+03 -0.62976387161E+03  0.94047987427E+03  0.12699999809E+01 0.  1.
       -4    1    3    3    0  502  0.64591644937E+03  0.26587626344E+03  0.19372712270E+04  0.20593493310E+04  0.12699999809E+01 0. -1.
</event>
<event>
 5   0  0.4983208E-07  0.2691574E+04  0.7818609E-02  0.8337744E-01
       -2   -1    0    0    0  501  0.00000000000E+00  0.00000000000E+00  0.82266681259E+03  0.82266681259E+03  0.25500000920E-02 0.  1.
        2   -1    0    0  501    0  0.00000000000E+00  0.00000000000E+00 -0.22015502269E+04  0.22015502269E+04  0.25500000920E-02 0. -1.
    10030    2    1    2    0    0  0.00000000000E+00  0.00000000000E+00 -0.13788834143E+04  0.30242170395E+04  0.26915737463E+04 0.  0.
        4    1    3    3  502    0 -0.28971752266E+02 -0.13224242156E+04 -0.41081134789E+03  0.13850677763E+04  0.12699999809E+01 0. -1.
       -4    1    3    3    0  502  0.28971752266E+02  0.13224242156E+04 -0.96807206641E+03  0.16391492632E+04  0.12699999809E+01 0.  1.
</event>
<event>
 5   0  0.1965415E-07  0.2699995E+04  0.7818609E-02  0.8335007E-01
       -1   -1    0    0    0  501  0.00000000000E+00  0.00000000000E+00  0.12002481373E+04  0.12002481373E+04  0.50400001928E-02 0.  1.
        1   -1    0    0  501    0  0.00000000000E+00  0.00000000000E+00 -0.15184302457E+04  0.15184302457E+04  0.50400001928E-02 0. -1.
    10030    2    1    2    0    0  0.00000000000E+00  0.00000000000E+00 -0.31818210844E+03  0.27186783830E+04  0.26999948696E+04 0.  0.
        4    1    3    3  502    0 -0.10866058715E+04 -0.30996335009E+03 -0.90291920951E+03  0.14463935530E+04  0.12699999809E+01 0. -1.
       -4    1    3    3    0  502  0.10866058715E+04  0.30996335009E+03  0.58473710107E+03  0.12722848300E+04  0.12699999809E+01 0.  1.
</event>
<event>
 5   0  0.1971600E-07  0.2699294E+04  0.7818609E-02  0.8335234E-01
        1   -1    0    0  501    0  0.00000000000E+00  0.00000000000E+00  0.15479530838E+04  0.15479530838E+04  0.50400001928E-02 0.  1.
       -1   -1    0    0    0  501  0.00000000000E+00  0.00000000000E+00 -0.11767455945E+04  0.11767455945E+04  0.50400001928E-02 0. -1.
    10030    2    1    2    0    0  0.00000000000E+00  0.00000000000E+00  0.37120748932E+03  0.27246986783E+04  0.26992939610E+04 0.  0.
        5    1    3    3  502    0 -0.11100409773E+04  0.55612047615E+03  0.71979513572E+03  0.14351265041E+04  0.46999998093E+01 0.  1.
       -5    1    3    3    0  502  0.11100409773E+04 -0.55612047615E+03 -0.34858764639E+03  0.12895721742E+04  0.46999998093E+01 0. -1.
</event>
<event>
 5   0  0.1888149E-07  0.2699239E+04  0.7818609E-02  0.8335252E-01
       -1   -1    0    0    0  501  0.00000000000E+00  0.00000000000E+00  0.92976039020E+03  0.92976039022E+03  0.50400001928E-02 0.  1.
        1   -1    0    0  501    0  0.00000000000E+00  0.00000000000E+00 -0.19590773134E+04  0.19590773134E+04  0.50400001928E-02 0. -1.
    10030    2    1    2    0    0  0.00000000000E+00  0.00000000000E+00 -0.10293169232E+04  0.28888377036E+04  0.26992387722E+04 0.  0.
        1    1    3    3  502    0  0.10483034894E+04 -0.58226346636E+03  0.14811543393E+03  0.12082669953E+04  0.50400001928E-02 0.  1.
       -1    1    3    3    0  502 -0.10483034894E+04  0.58226346636E+03 -0.11774323571E+04  0.16805707083E+04  0.50400001928E-02 0. -1.
</event>
<event>
 5   0  0.1965415E-07  0.2699977E+04  0.7818609E-02  0.8335013E-01
        1   -1    0    0  501    0  0.00000000000E+00  0.00000000000E+00  0.15125421018E+04  0.15125421018E+04  0.50400001928E-02 0. -1.
       -1   -1    0    0    0  501  0.00000000000E+00  0.00000000000E+00 -0.12049043013E+04  0.12049043013E+04  0.50400001928E-02 0.  1.
    10030    2    1    2    0    0  0.00000000000E+00  0.00000000000E+00  0.30763780054E+03  0.27174464031E+04  0.26999766549E+04 0.  0.
        4    1    3    3  502    0  0.10086069674E+04 -0.58550854934E+03 -0.53055028401E+03  0.12812468508E+04  0.12699999809E+01 0.  1.
       -4    1    3    3    0  502 -0.10086069674E+04  0.58550854934E+03  0.83818808455E+03  0.14361995523E+04  0.12699999809E+01 0. -1.
</event>
<event>
 5   0  0.1888149E-07  0.2700717E+04  0.7818609E-02  0.8334772E-01
        1   -1    0    0  501    0  0.00000000000E+00  0.00000000000E+00  0.22026870173E+04  0.22026870173E+04  0.50400001928E-02 0.  1.
       -1   -1    0    0    0  501  0.00000000000E+00  0.00000000000E+00 -0.82783810132E+03  0.82783810134E+03  0.50400001928E-02 0. -1.
    10030    2    1    2    0    0  0.00000000000E+00  0.00000000000E+00  0.13748489160E+04  0.30305251187E+04  0.27007171183E+04 0.  0.
        1    1    3    3  502    0 -0.96657491783E+03  0.93923934879E+03  0.59333621446E+03  0.14725778382E+04  0.50400001928E-02 0.  1.
       -1    1    3    3    0  502  0.96657491783E+03 -0.93923934879E+03  0.78151270155E+03  0.15579472805E+04  0.50400001928E-02 0. -1.
</event>
<event>
 5   0  0.4735120E-07  0.2699265E+04  0.7818609E-02  0.8335243E-01
        2   -1    0    0  501    0  0.00000000000E+00  0.00000000000E+00  0.12430530549E+04  0.12430530549E+04  0.25500000920E-02 0. -1.
       -2   -1    0    0    0  501  0.00000000000E+00  0.00000000000E+00 -0.14653502183E+04  0.14653502183E+04  0.25500000920E-02 0.  1.
    10030    2    1    2    0    0  0.00000000000E+00  0.00000000000E+00 -0.22229716338E+03  0.27084032732E+04  0.26992651336E+04 0.  0.
        2    1    3    3  502    0  0.81879772808E+03  0.36555423110E+03  0.90095274066E+03  0.12711315653E+04  0.25500000920E-02 0. -1.
       -2    1    3    3    0  502 -0.81879772808E+03 -0.36555423110E+03 -0.11232499040E+04  0.14372717079E+04  0.25500000920E-02 0.  1.
</event>
<event>
 5   0  0.1965415E-07  0.2701441E+04  0.7818609E-02  0.8334538E-01
        1   -1    0    0  501    0  0.00000000000E+00  0.00000000000E+00  0.13833017443E+04  0.13833017443E+04  0.50400001928E-02 0.  1.
       -1   -1    0    0    0  501  0.00000000000E+00  0.00000000000E+00 -0.13189064214E+04  0.13189064214E+04  0.50400001928E-02 0. -1.
    10030    2    1    2    0    0  0.00000000000E+00  0.00000000000E+00  0.64395322924E+02  0.27022081657E+04  0.27014407662E+04 0.  0.
        4    1    3    3  502    0  0.62005495561E+03  0.11552106857E+04 -0.29264690287E+03  0.13433628322E+04  0.12699999809E+01 0.  1.
       -4    1    3    3    0  502 -0.62005495561E+03 -0.11552106857E+04  0.35704222579E+03  0.13588453335E+04  0.12699999809E+01 0. -1.
</event>
<event>
 5   0  0.4735120E-07  0.2700474E+04  0.7818609E-02  0.8334851E-01
        2   -1    0    0  501    0  0.00000000000E+00  0.00000000000E+00  0.16837352720E+04  0.16837352720E+04  0.25500000920E-02 0. -1.
       -2   -1    0    0    0  501  0.00000000000E+00  0.00000000000E+00 -0.10827947039E+04  0.10827947039E+04  0.25500000920E-02 0.  1.
    10030    2    1    2    0    0  0.00000000000E+00  0.00000000000E+00  0.60094056809E+03  0.27665299760E+04  0.27004737624E+04 0.  0.
        2    1    3    3  502    0  0.46538218002E+03 -0.64482176581E+03 -0.81744336233E+03  0.11404338358E+04  0.25500000920E-02 0.  1.
       -2    1    3    3    0  502 -0.46538218002E+03  0.64482176581E+03  0.14183839304E+04  0.16260961402E+04  0.25500000920E-02 0. -1.
</event>
<event>
 5   0  0.1888149E-07  0.2700437E+04  0.7818609E-02  0.8334863E-01
        1   -1    0    0  501    0  0.00000000000E+00  0.00000000000E+00  0.11162849404E+04  0.11162849404E+04  0.50400001928E-02 0.  1.
       -1   -1    0    0    0  501  0.00000000000E+00  0.00000000000E+00 -0.16331762876E+04  0.16331762877E+04  0.50400001928E-02 0. -1.
    10030    2    1    2    0    0  0.00000000000E+00  0.00000000000E+00 -0.51689134726E+03  0.27494612280E+04  0.27004370720E+04 0.  0.
        1    1    3    3  502    0 -0.86190225536E+03 -0.62396202714E+03 -0.11047308427E+04  0.15338299593E+04  0.50400001928E-02 0. -1.
       -1    1    3    3    0  502  0.86190225536E+03  0.62396202714E+03  0.58783949548E+03  0.12156312688E+04  0.50400001928E-02 0.  1.
</event>
<event>
 5   0  0.1937896E-07  0.2700033E+04  0.7818609E-02  0.8334994E-01
        1   -1    0    0  501    0  0.00000000000E+00  0.00000000000E+00  0.14560805124E+04  0.14560805124E+04  0.50400001928E-02 0.  1.
       -1   -1    0    0    0  501  0.00000000000E+00  0.00000000000E+00 -0.12516782413E+04  0.12516782413E+04  0.50400001928E-02 0. -1.
    10030    2    1    2    0    0  0.00000000000E+00  0.00000000000E+00  0.20440227111E+03  0.27077587536E+04  0.27000328108E+04 0.  0.
        3    1    3    3  502    0  0.34602375684E+03  0.13011021124E+04  0.21904685163E+01  0.13463298093E+04  0.10100000352E+00 0. -1.
       -3    1    3    3    0  502 -0.34602375684E+03 -0.13011021124E+04  0.20221180259E+03  0.13614289443E+04  0.10100000352E+00 0.  1.
</event>
<event>
 5   0  0.4735120E-07  0.2698179E+04  0.7818609E-02  0.8335596E-01
       -2   -1    0    0    0  501  0.00000000000E+00  0.00000000000E+00  0.80700578374E+03  0.80700578374E+03  0.25500000920E-02 0. -1.
        2   -1    0    0  501    0  0.00000000000E+00  0.00000000000E+00 -0.22553033823E+04  0.22553033823E+04  0.25500000920E-02 0.  1.
    10030    2    1    2    0    0  0.00000000000E+00  0.00000000000E+00 -0.14482975986E+04  0.30623091661E+04  0.26981792925E+04 0.  0.
        2    1    3    3  502    0  0.30273988042E+03 -0.11644716673E+04 -0.31550504448E+02  0.12035950870E+04  0.25500000920E-02 0. -1.
       -2    1    3    3    0  502 -0.30273988042E+03  0.11644716673E+04 -0.14167470941E+04  0.18587140791E+04  0.25500000920E-02 0.  1.
</event>
<event>
 5   0  0.5043890E-07  0.2699746E+04  0.7818609E-02  0.8335087E-01
       -2   -1    0    0    0  501  0.00000000000E+00  0.00000000000E+00  0.88863281930E+03  0.88863281930E+03  0.25500000920E-02 0. -1.
        2   -1    0    0  501    0  0.00000000000E+00  0.00000000000E+00 -0.20505178358E+04  0.20505178358E+04  0.25500000920E-02 0.  1.
    10030    2    1    2    0    0  0.00000000000E+00  0.00000000000E+00 -0.11618850165E+04  0.29391506551E+04  0.26997462439E+04 0.  0.
        3    1    3    3  502    0 -0.55057378348E+03 -0.11715619407E+04 -0.16429277058E+03  0.13048681913E+04  0.10100000352E+00 0.  1.
       -3    1    3    3    0  502  0.55057378348E+03  0.11715619407E+04 -0.99759224589E+03  0.16342824637E+04  0.10100000352E+00 0. -1.
</event>
<event>
 5   0  0.4843887E-07  0.2704827E+04  0.7818609E-02  0.8333441E-01
        2   -1    0    0  501    0  0.00000000000E+00  0.00000000000E+00  0.13898126297E+04  0.13898126297E+04  0.25500000920E-02 0. -1.
       -2   -1    0    0    0  501  0.00000000000E+00  0.00000000000E+00 -0.13160204012E+04  0.13160204012E+04  0.25500000920E-02 0.  1.
    10030    2    1    2    0    0  0.00000000000E+00  0.00000000000E+00  0.73792228513E+02  0.27058330308E+04  0.27048266299E+04 0.  0.
        5    1    3    3  502    0 -0.76380123318E+03 -0.10998181397E+04  0.22672293070E+03  0.13580933847E+04  0.46999998093E+01 0.  1.
       -5    1    3    3    0  502  0.76380123318E+03  0.10998181397E+04 -0.15293070218E+03  0.13477396462E+04  0.46999998093E+01 0. -1.
</event>
<event>
 5   0  0.1965415E-07  0.2700844E+04  0.7818609E-02  0.8334731E-01
        1   -1    0    0  501    0  0.00000000000E+00  0.00000000000E+00  0.15721343533E+04  0.15721343533E+04  0.50400001928E-02 0. -1.
       -1   -1    0    0    0  501  0.00000000000E+00  0.00000000000E+00 -0.11599770939E+04  0.11599770939E+04  0.50400001928E-02 0.  1.
    10030    2    1    2    0    0  0.00000000000E+00  0.00000000000E+00  0.41215725933E+03  0.27321114472E+04  0.27008441928E+04 0.  0.
        4    1    3    3  502    0  0.17780164838E+03 -0.81670481464E+03  0.12790265048E+04  0.15279170767E+04  0.12699999809E+01 0. -1.
       -4    1    3    3    0  502 -0.17780164838E+03  0.81670481464E+03 -0.86686924544E+03  0.12041943705E+04  0.12699999809E+01 0.  1.
</event>
<event>
 5   0  0.1888149E-07  0.2699979E+04  0.7818609E-02  0.8335012E-01
       -1   -1    0    0    0  501  0.00000000000E+00  0.00000000000E+00  0.76324188082E+03  0.76324188084E+03  0.50400001928E-02 0.  1.
        1   -1    0    0  501    0  0.00000000000E+00  0.00000000000E+00 -0.23878036479E+04  0.23878036479E+04  0.50400001928E-02 0. -1.
    10030    2    1    2    0    0  0.00000000000E+00  0.00000000000E+00 -0.16245617671E+04  0.31510455287E+04  0.26999790720E+04 0.  0.
        1    1    3    3  502    0 -0.12578365203E+04  0.39043009916E+03 -0.11582582108E+04  0.17538957942E+04  0.50400001928E-02 0.  1.
       -1    1    3    3    0  502  0.12578365203E+04 -0.39043009916E+03 -0.46630355622E+03  0.13971497345E+04  0.50400001928E-02 0. -1.
</event>
<event>
 5   0  0.1971600E-07  0.2700324E+04  0.7818609E-02  0.8334900E-01
       -1   -1    0    0    0  501  0.00000000000E+00  0.00000000000E+00  0.19422903469E+04  0.19422903469E+04  0.50400001928E-02 0. -1.
        1   -1    0    0  501    0  0.00000000000E+00  0.00000000000E+00 -0.93855041556E+03  0.93855041557E+03  0.50400001928E-02 0.  1.
    10030    2    1    2    0    0  0.00000000000E+00  0.00000000000E+00  0.10037399313E+04  0.28808407624E+04  0.27003239896E+04 0.  0.
        5    1    3    3  502    0  0.96140864035E+03  0.12018807193E+03 -0.50128883741E+03  0.10909006989E+04  0.46999998093E+01 0.  1.
       -5    1    3    3    0  502 -0.96140864035E+03 -0.12018807193E+03  0.15050287687E+04  0.17899400635E+04  0.46999998093E+01 0. -1.
</event>
<event>
 5   0  0.5043890E-07  0.2698004E+04  0.7818609E-02  0.8335653E-01
       -2   -1    0    0    0  501  0.00000000000E+00  0.00000000000E+00  0.17205813293E+04  0.17205813293E+04  0.25500000920E-02 0. -1.
        2   -1    0    0  501    0  0.00000000000E+00  0.00000000000E+00 -0.10576695152E+04  0.10576695152E+04  0.25500000920E-02 0.  1.
    10030    2    1    2    0    0  0.00000000000E+00  0.00000000000E+00  0.66291181412E+03  0.27782508445E+04  0.26980040181E+04 0.  0.
        3    1    3    3  502    0  0.66648672800E+03  0.50988328328E+03  0.14191009420E+04  0.16486458124E+04  0.10100000352E+00 0. -1.
       -3    1    3    3    0  502 -0.66648672800E+03 -0.50988328328E+03 -0.75618912783E+03  0.11296050320E+04  0.10100000352E+00 0.  1.
</event>
<event>
 5   0  0.4735120E-07  0.2701754E+04  0.7818609E-02  0.8334436E-01
       -2   -1    0    0    0  501  0.00000000000E+00  0.00000000000E+00  0.18205486726E+04  0.18205486726E+04  0.25500000920E-02 0.  1.
        2   -1    0    0  501    0  0.00000000000E+00  0.00000000000E+00 -0.10023726241E+04  0.10023726241E+04  0.25500000920E-02 0. -1.
    10030    2    1    2    0    0  0.00000000000E+00  0.00000000000E+00  0.81817604841E+03  0.28229212967E+04  0.27017536159E+04 0.  0.
        2    1    3    3  502    0 -0.34262581600E+03  0.36860179313E+03  0.17189489954E+04  0.17911017225E+04  0.25500000920E-02 0.  1.
       -2    1    3    3    0  502  0.34262581600E+03 -0.36860179313E+03 -0.90077294696E+03  0.10318195742E+04  0.25500000920E-02 0. -1.
</event>
<event>
 5   0  0.1964242E-07  0.2700796E+04  0.7818609E-02  0.8334747E-01
       -1   -1    0    0    0  501  0.00000000000E+00  0.00000000000E+00  0.67446052088E+03  0.67446052090E+03  0.50400001928E-02 0. -1.
        1   -1    0    0  501    0  0.00000000000E+00  0.00000000000E+00 -0.27037539757E+04  0.27037539757E+04  0.50400001928E-02 0.  1.
    10030    2    1    2    0    0  0.00000000000E+00  0.00000000000E+00 -0.20292934548E+04  0.33782144966E+04  0.27007964120E+04 0.  0.
        2    1    3    3  502    0 -0.10049987190E+04  0.87047246986E+03 -0.71909643051E+03  0.15115701844E+04  0.25500000920E-02 0. -1.
       -2    1    3    3    0  502  0.10049987190E+04 -0.87047246986E+03 -0.13101970243E+04  0.18666443122E+04  0.25500000920E-02 0.  1.
</event>
<event>
 5   0  0.1964242E-07  0.2700529E+04  0.7818609E-02  0.8334833E-01
        1   -1    0    0  501    0  0.00000000000E+00  0.00000000000E+00  0.18306504270E+04  0.18306504270E+04  0.50400001928E-02 0.  1.
       -1   -1    0    0    0  501  0.00000000000E+00  0.00000000000E+00 -0.99593789719E+03  0.99593789721E+03  0.50400001928E-02 0. -1.
    10030    2    1    2    0    0  0.00000000000E+00  0.00000000000E+00  0.83471252977E+03  0.28265883242E+04  0.27005289384E+04 0.  0.
        2    1    3    3  502    0  0.75052564928E+03  0.27156722634E+03 -0.72260056920E+03  0.10766564407E+04  0.25500000920E-02 0. -1.
       -2    1    3    3    0  502 -0.75052564928E+03 -0.27156722634E+03  0.15573130990E+04  0.17499318835E+04  0.25500000920E-02 0.  1.
</event>
<event>
 5   0  0.4983208E-07  0.2700666E+04  0.7818609E-02  0.8334789E-01
       -2   -1    0    0    0  501  0.00000000000E+00  0.00000000000E+00  0.14561226671E+04  0.14561226671E+04  0.25500000920E-02 0. -1.
        2   -1    0    0  501    0  0.00000000000E+00  0.00000000000E+00 -0.12522289693E+04  0.12522289693E+04  0.25500000920E-02 0.  1.
    10030    2    1    2    0    0  0.00000000000E+00  0.00000000000E+00  0.20389369783E+03  0.27083516364E+04  0.27006658339E+04 0.  0.
        4    1    3    3  502    0  0.69910339561E+03 -0.16730094655E+02  0.12603844532E+04  0.14413868449E+04  0.12699999809E+01 0. -1.
       -4    1    3    3    0  502 -0.69910339561E+03  0.16730094655E+02 -0.10564907554E+04  0.12669647915E+04  0.12699999809E+01 0.  1.
</event>
<event>
 5   0  0.1937896E-07  0.2700406E+04  0.7818609E-02  0.8334873E-01
       -1   -1    0    0    0  501  0.00000000000E+00  0.00000000000E+00  0.82322627517E+03  0.82322627518E+03  0.50400001928E-02 0.  1.
        1   -1    0    0  501    0  0.00000000000E+00  0.00000000000E+00 -0.22145166582E+04  0.22145166582E+04  0.50400001928E-02 0. -1.
    10030    2    1    2    0    0  0.00000000000E+00  0.00000000000E+00 -0.13912903830E+04  0.30377429334E+04  0.27004061175E+04 0.  0.
        3    1    3    3  502    0  0.76312244873E+03 -0.11042280752E+04 -0.53118817715E+03  0.14435499311E+04  0.10100000352E+00 0.  1.
       -3    1    3    3    0  502 -0.76312244873E+03  0.11042280752E+04 -0.86010220590E+03  0.15941930023E+04  0.10100000352E+00 0. -1.
</event>
<event>
 5   0  0.4992668E-07  0.2690149E+04  0.7818609E-02  0.8338208E-01
        2   -1    0    0  501    0  0.00000000000E+00  0.00000000000E+00  0.62833342372E+03  0.62833342372E+03  0.25500000920E-02 0. -1.
       -2   -1    0    0    0  501  0.00000000000E+00  0.00000000000E+00 -0.28794031883E+04  0.28794031883E+04  0.25500000920E-02 0.  1.
    10030    2    1    2    0    0  0.00000000000E+00  0.00000000000E+00 -0.22510697646E+04  0.35077366120E+04  0.26901488907E+04 0.  0.
        1    1    3    3  502    0 -0.10703718334E+04 -0.11550642822E+03 -0.21769398435E+04  0.24286013833E+04  0.50400001928E-02 0.  1.
       -1    1    3    3    0  502  0.10703718334E+04  0.11550642822E+03 -0.74129921085E+02  0.10791352287E+04  0.50400001928E-02 0. -1.
</event>
<event>
 5   0  0.1964242E-07  0.2698443E+04  0.7818609E-02  0.8335510E-01
       -1   -1    0    0    0  501  0.00000000000E+00  0.00000000000E+00  0.12466312435E+04  0.12466312435E+04  0.50400001928E-02 0.  1.
        1   -1    0    0  501    0  0.00000000000E+00  0.00000000000E+00 -0.14602542433E+04  0.14602542433E+04  0.50400001928E-02 0. -1.
    10030    2    1    2    0    0  0.00000000000E+00  0.00000000000E+00 -0.21362299982E+03  0.27068854868E+04  0.26984429312E+04 0.  0.
        2    1    3    3  502    0  0.78855131241E+03  0.57004283092E+03 -0.10444211022E+04  0.14274373682E+04  0.25500000920E-02 0. -1.
       -2    1    3    3    0  502 -0.78855131241E+03 -0.57004283092E+03  0.83079810237E+03  0.12794481186E+04  0.25500000920E-02 0.  1.
</event>
<event>
 5   0  0.1965415E-07  0.2701345E+04  0.7818609E-02  0.8334569E-01
        1   -1    0    0  501    0  0.00000000000E+00  0.00000000000E+00  0.12889871632E+04  0.12889871632E+04  0.50400001928E-02 0.  1.
       -1   -1    0    0    0  501  0.00000000000E+00  0.00000000000E+00 -0.14153101772E+04  0.14153101773E+04  0.50400001928E-02 0. -1.
    10030    2    1    2    0    0  0.00000000000E+00  0.00000000000E+00 -0.12632301407E+03  0.27042973404E+04  0.27013453318E+04 0.  0.
        4    1    3    3  502    0 -0.55823789359E+03  0.93803886379E+03 -0.85949831157E+03  0.13893471187E+04  0.12699999809E+01 0. -1.
       -4    1    3    3    0  502  0.55823789359E+03 -0.93803886379E+03  0.73317529750E+03  0.13149502217E+04  0.12699999809E+01 0.  1.
</event>
<event>
 5   0  0.4983208E-07  0.2699881E+04  0.7818609E-02  0.8335043E-01
       -2   -1    0    0    0  501  0.00000000000E+00  0.00000000000E+00  0.11344044956E+04  0.11344044956E+04  0.25500000920E-02 0.  1.
        2   -1    0    0  501    0  0.00000000000E+00  0.00000000000E+00 -0.16064287105E+04  0.16064287105E+04  0.25500000920E-02 0. -1.
    10030    2    1    2    0    0  0.00000000000E+00  0.00000000000E+00 -0.47202421492E+03  0.27408332061E+04  0.26998814426E+04 0.  0.
        4    1    3    3  502    0  0.33678884570E+03  0.12121475686E+04 -0.73293645655E+03  0.14559965374E+04  0.12699999809E+01 0. -1.
       -4    1    3    3    0  502 -0.33678884570E+03 -0.12121475686E+04  0.26091224162E+03  0.12848366687E+04  0.12699999809E+01 0.  1.
</event>
<event>
 5   0  0.4735120E-07  0.2699950E+04  0.7818609E-02  0.8335021E-01
       -2   -1    0    0    0  501  0.00000000000E+00  0.00000000000E+00  0.79858642374E+03  0.79858642375E+03  0.25500000920E-02 0.  1.
        2   -1    0    0  501    0  0.00000000000E+00  0.00000000000E+00 -0.22820732670E+04  0.22820732671E+04  0.25500000920E-02 0. -1.
    10030    2    1    2    0    0  0.00000000000E+00  0.00000000000E+00 -0.14834868433E+04  0.30806596908E+04  0.26999501692E+04 0.  0.
        2    1    3    3  502    0 -0.10161419687E+04  0.88808593237E+03 -0.78113053883E+03  0.15592966499E+04  0.25500000920E-02 0. -1.
       -2    1    3    3    0  502  0.10161419687E+04 -0.88808593237E+03 -0.70235630447E+03  0.15213630409E+04  0.25500000920E-02 0.  1.
</event>
<event>
 5   0  0.1971600E-07  0.2699798E+04  0.7818609E-02  0.8335071E-01
       -1   -1    0    0    0  501  0.00000000000E+00  0.00000000000E+00  0.92728720936E+03  0.92728720938E+03  0.50400001928E-02 0. -1.
        1   -1    0    0  501    0  0.00000000000E+00  0.00000000000E+00 -0.19651159038E+04  0.19651159038E+04  0.50400001928E-02 0.  1.
    10030    2    1    2    0    0  0.00000000000E+00  0.00000000000E+00 -0.10378286945E+04  0.28924031132E+04  0.26997976536E+04 0.  0.
        5    1    3    3  502    0  0.52522670279E+03 -0.41952432285E+03 -0.17730425420E+04  0.18961976934E+04  0.46999998093E+01 0.  1.
       -5    1    3    3    0  502 -0.52522670279E+03  0.41952432285E+03  0.73521384754E+03  0.99620541979E+03  0.46999998093E+01 0. -1.
</event>
<event>
 5   0  0.4843887E-07  0.2700156E+04  0.7818609E-02  0.8334954E-01
        2   -1    0    0  501    0  0.00000000000E+00  0.00000000000E+00  0.24235351753E+04  0.24235351753E+04  0.25500000920E-02 0. -1.
       -2   -1    0    0    0  501  0.00000000000E+00  0.00000000000E+00 -0.75208730344E+03  0.75208730344E+03  0.25500000920E-02 0.  1.
    10030    2    1    2    0    0  0.00000000000E+00  0.00000000000E+00  0.16714478719E+04  0.31756224787E+04  0.27001555768E+04 0.  0.
        5    1    3    3  502    0  0.45161166938E+03  0.67668284548E+03 -0.43141827561E+03  0.92086730412E+03  0.46999998093E+01 0.  1.
       -5    1    3    3    0  502 -0.45161166938E+03 -0.67668284548E+03  0.21028661475E+04  0.22547551746E+04  0.46999998093E+01 0. -1.
</event>
<event>
 5   0  0.4735120E-07  0.2697285E+04  0.7818609E-02  0.8335886E-01
        2   -1    0    0  501    0  0.00000000000E+00  0.00000000000E+00  0.87356926642E+03  0.87356926643E+03  0.25500000920E-02 0.  1.
       -2   -1    0    0    0  501  0.00000000000E+00  0.00000000000E+00 -0.20820752840E+04  0.20820752840E+04  0.25500000920E-02 0. -1.
    10030    2    1    2    0    0  0.00000000000E+00  0.00000000000E+00 -0.12085060176E+04  0.29556445504E+04  0.26972852860E+04 0.  0.
        2    1    3    3  502    0  0.90655341853E+03 -0.83527309684E+03 -0.47507581111E+01  0.12326973743E+04  0.25500000920E-02 0.  1.
       -2    1    3    3    0  502 -0.90655341853E+03  0.83527309684E+03 -0.12037552594E+04  0.17229471761E+04  0.25500000920E-02 0. -1.
</event>
<event>
 5   0  0.1641625E-07  0.2704347E+04  0.7818609E-02  0.8333596E-01
       -4   -1    0    0    0  501  0.00000000000E+00  0.00000000000E+00  0.16003747816E+04  0.16003752855E+04  0.12699999809E+01 0.  1.
        4   -1    0    0  501    0  0.00000000000E+00  0.00000000000E+00 -0.11424644513E+04  0.11424651572E+04  0.12699999809E+01 0. -1.
    10030    2    1    2    0    0  0.00000000000E+00  0.00000000000E+00  0.45791033028E+03  0.27428404427E+04  0.27043468386E+04 0.  0.
        5    1    3    3  502    0  0.95835171623E+03  0.83735875436E+03 -0.23443231093E+03  0.12940588448E+04  0.46999998093E+01 0. -1.
       -5    1    3    3    0  502 -0.95835171623E+03 -0.83735875436E+03  0.69234264121E+03  0.14487815979E+04  0.46999998093E+01 0.  1.
</event>
<event>
 5   0  0.1937896E-07  0.2701230E+04  0.7818609E-02  0.8334606E-01
       -1   -1    0    0    0  501  0.00000000000E+00  0.00000000000E+00  0.13443923197E+04  0.13443923197E+04  0.50400001928E-02 0.  1.
        1   -1    0    0  501    0  0.00000000000E+00  0.00000000000E+00 -0.13568667874E+04  0.13568667874E+04  0.50400001928E-02 0. -1.
    10030    2    1    2    0    0  0.00000000000E+00  0.00000000000E+00 -0.12474467638E+02  0.27012591071E+04  0.27012303033E+04 0.  0.
        3    1    3    3  502    0 -0.22883493517E+03 -0.12521325093E+04  0.44538692303E+03  0.13485439443E+04  0.10100000352E+00 0.  1.
       -3    1    3    3    0  502  0.22883493517E+03  0.12521325093E+04 -0.45786139067E+03  0.13527151628E+04  0.10100000352E+00 0. -1.
</event>
<event>
 5   0  0.4992668E-07  0.2693200E+04  0.7818609E-02  0.8337215E-01
        2   -1    0    0  501    0  0.00000000000E+00  0.00000000000E+00  0.16450556729E+04  0.16450556729E+04  0.25500000920E-02 0.  1.
       -2   -1    0    0    0  501  0.00000000000E+00  0.00000000000E+00 -0.11022920927E+04  0.11022920927E+04  0.25500000920E-02 0. -1.
    10030    2    1    2    0    0  0.00000000000E+00  0.00000000000E+00  0.54276358016E+03  0.27473477656E+04  0.26932002230E+04 0.  0.
        1    1    3    3  502    0 -0.53451112125E+02 -0.11103297740E+04  0.10466904130E+04  0.15268431645E+04  0.50400001928E-02 0.  1.
       -1    1    3    3    0  502  0.53451112125E+02  0.11103297740E+04 -0.50392683286E+03  0.12205046011E+04  0.50400001928E-02 0. -1.
</event>
<event>
 5   0  0.1937896E-07  0.2700067E+04  0.7818609E-02  0.8334983E-01
        1   -1    0    0  501    0  0.00000000000E+00  0.00000000000E+00  0.24766024701E+04  0.24766024701E+04  0.50400001928E-02 0.  1.
       -1   -1    0    0    0  501  0.00000000000E+00  0.00000000000E+00 -0.73592374520E+03  0.73592374522E+03  0.50400001928E-02 0. -1.
    10030    2    1    2    0    0  0.00000000000E+00  0.00000000000E+00  0.17406787249E+04  0.32125262153E+04  0.27000670845E+04 0.  0.
        3    1    3    3  502    0  0.76366911572E+03 -0.44945745855E+03  0.20821722709E+04  0.22628839787E+04  0.10100000352E+00 0.  1.
       -3    1    3    3    0  502 -0.76366911572E+03  0.44945745855E+03 -0.34149354600E+03  0.94964223659E+03  0.10100000352E+00 0. -1.
</event>
<event>
 5   0  0.4735120E-07  0.2700179E+04  0.7818609E-02  0.8334947E-01
        2   -1    0    0  501    0  0.00000000000E+00  0.00000000000E+00  0.14558385163E+04  0.14558385163E+04  0.25500000920E-02 0. -1.
       -2   -1    0    0    0  501  0.00000000000E+00  0.00000000000E+00 -0.12520216446E+04  0.12520216446E+04  0.25500000920E-02 0.  1.
    10030    2    1    2    0    0  0.00000000000E+00  0.00000000000E+00  0.20381687170E+03  0.27078601609E+04  0.27001787596E+04 0.  0.
        2    1    3    3  502    0  0.69826740435E+03 -0.33502023143E+03  0.12109139373E+04  0.14374033836E+04  0.25500000920E-02 0. -1.
       -2    1    3    3    0  502 -0.69826740435E+03  0.33502023143E+03 -0.10070970656E+04  0.12704567773E+04  0.25500000920E-02 0.  1.
</event>
<event>
 5   0  0.5043890E-07  0.2696785E+04  0.7818609E-02  0.8336049E-01
       -2   -1    0    0    0  501  0.00000000000E+00  0.00000000000E+00  0.10947851910E+04  0.10947851910E+04  0.25500000920E-02 0.  1.
        2   -1    0    0  501    0  0.00000000000E+00  0.00000000000E+00 -0.16607481314E+04  0.16607481314E+04  0.25500000920E-02 0. -1.
    10030    2    1    2    0    0  0.00000000000E+00  0.00000000000E+00 -0.56596294040E+03  0.27555333224E+04  0.26967850935E+04 0.  0.
        3    1    3    3  502    0  0.11447201045E+04  0.14410289556E+03 -0.99604703837E+03  0.15242242207E+04  0.10100000352E+00 0.  1.
       -3    1    3    3    0  502 -0.11447201045E+04 -0.14410289556E+03  0.43008409797E+03  0.12313091016E+04  0.10100000352E+00 0. -1.
</event>
<event>
 5   0  0.4992668E-07  0.2700223E+04  0.7818609E-02  0.8334933E-01
       -2   -1    0    0    0  501  0.00000000000E+00  0.00000000000E+00  0.18359736454E+04  0.18359736454E+04  0.25500000920E-02 0.  1.
        2   -1    0    0  501    0  0.00000000000E+00  0.00000000000E+00 -0.99282523905E+03  0.99282523906E+03  0.25500000920E-02 0. -1.
    10030    2    1    2    0    0  0.00000000000E+00  0.00000000000E+00  0.84314840638E+03  0.28287988845E+04  0.27002229341E+04 0.  0.
        1    1    3    3  502    0  0.28572677088E+03 -0.11720787654E+04 -0.21341687779E+03  0.12251347614E+04  0.50400001928E-02 0. -1.
       -1    1    3    3    0  502 -0.28572677088E+03  0.11720787654E+04  0.10565652842E+04  0.16036641231E+04  0.50400001928E-02 0.  1.
</event>
<event>
 5   0  0.4843887E-07  0.2700756E+04  0.7818609E-02  0.8334760E-01
        2   -1    0    0  501    0  0.00000000000E+00  0.00000000000E+00  0.15597945831E+04  0.15597945831E+04  0.25500000920E-02 0. -1.
       -2   -1    0    0    0  501  0.00000000000E+00  0.00000000000E+00 -0.11690772891E+04  0.11690772891E+04  0.25500000920E-02 0.  1.
    10030    2    1    2    0    0  0.00000000000E+00  0.00000000000E+00  0.39071729401E+03  0.27288718722E+04  0.27007557629E+04 0.  0.
        5    1    3    3  502    0 -0.52494505860E+03  0.11925876015E+04  0.55354285729E+03  0.14157204126E+04  0.46999998093E+01 0. -1.
       -5    1    3    3    0  502  0.52494505860E+03 -0.11925876015E+04 -0.16282556328E+03  0.13131514596E+04  0.46999998093E+01 0.  1.
</event>
<event>
 5   0  0.1965415E-07  0.2699397E+04  0.7818609E-02  0.8335201E-01
       -1   -1    0    0    0  501  0.00000000000E+00  0.00000000000E+00  0.96777968060E+03  0.96777968061E+03  0.50400001928E-02 0. -1.
        1   -1    0    0  501    0  0.00000000000E+00  0.00000000000E+00 -0.18823347987E+04  0.18823347987E+04  0.50400001928E-02 0.  1.
    10030    2    1    2    0    0  0.00000000000E+00  0.00000000000E+00 -0.91455511807E+03  0.28501144793E+04  0.26993965031E+04 0.  0.
        4    1    3    3  502    0  0.69632970226E+03  0.97323737964E+03  0.20176728390E+03  0.12135805293E+04  0.12699999809E+01 0.  1.
       -4    1    3    3    0  502 -0.69632970226E+03 -0.97323737964E+03 -0.11163224020E+04  0.16365339500E+04  0.12699999809E+01 0. -1.
</event>
<event>
 5   0  0.1971600E-07  0.2700635E+04  0.7818609E-02  0.8334799E-01
        1   -1    0    0  501    0  0.00000000000E+00  0.00000000000E+00  0.13680020477E+04  0.13680020477E+04  0.50400001928E-02 0.  1.
       -1   -1    0    0    0  501  0.00000000000E+00  0.00000000000E+00 -0.13328614669E+04  0.13328614669E+04  0.50400001928E-02 0. -1.
    10030    2    1    2    0    0  0.00000000000E+00  0.00000000000E+00  0.35140580718E+02  0.27008635146E+04  0.27006349002E+04 0.  0.
        5    1    3    3  502    0 -0.11446253586E+04  0.28561268942E+03  0.67458351690E+03  0.13589800702E+04  0.46999998093E+01 0.  1.
       -5    1    3    3    0  502  0.11446253586E+04 -0.28561268942E+03 -0.63944293619E+03  0.13418834444E+04  0.46999998093E+01 0. -1.
</event>
<event>
 5   0  0.4983208E-07  0.2698622E+04  0.7818609E-02  0.8335452E-01
        2   -1    0    0  501    0  0.00000000000E+00  0.00000000000E+00  0.14816475258E+04  0.14816475258E+04  0.25500000920E-02 0. -1.
       -2   -1    0    0    0  501  0.00000000000E+00  0.00000000000E+00 -0.12287941536E+04  0.12287941536E+04  0.25500000920E-02 0.  1.
    10030    2    1    2    0    0  0.00000000000E+00  0.00000000000E+00  0.25285337211E+03  0.27104416794E+04  0.26986217352E+04 0.  0.
        4    1    3    3  502    0  0.87983457952E+02 -0.13334178335E+04 -0.61190843186E+02  0.13377182587E+04  0.12699999809E+01 0.  1.
       -4    1    3    3    0  502 -0.87983457952E+02  0.13334178335E+04  0.31404421530E+03  0.13727234207E+04  0.12699999809E+01 0. -1.
</event>
<event>
 5   0  0.1965415E-07  0.2699834E+04  0.7818609E-02  0.8335059E-01
        1   -1    0    0  501    0  0.00000000000E+00  0.00000000000E+00  0.18885399538E+04  0.18885399538E+04  0.50400001928E-02 0. -1.
       -1   -1    0    0    0  501  0.00000000000E+00  0.00000000000E+00 -0.96491254750E+03  0.96491254751E+03  0.50400001928E-02 0.  1.
    10030    2    1    2    0    0  0.00000000000E+00  0.00000000000E+00  0.92362740630E+03  0.28534525013E+04  0.26998339933E+04 0.  0.
        4    1    3    3  502    0 -0.13126601176E+04 -0.31166756984E+03  0.50979537577E+03  0.14422573267E+04  0.12699999809E+01 0.  1.
       -4    1    3    3    0  502  0.13126601176E+04  0.31166756984E+03  0.41383203053E+03  0.14111951746E+04  0.12699999809E+01 0. -1.
</event>
<event>
 5   0  0.1937896E-07  0.2694739E+04  0.7818609E-02  0.8336714E-01
        1   -1    0    0  501    0  0.00000000000E+00  0.00000000000E+00  0.12788368050E+04  0.12788368050E+04  0.50400001928E-02 0.  1.
       -1   -1    0    0    0  501  0.00000000000E+00  0.00000000000E+00 -0.14195748164E+04  0.14195748164E+04  0.50400001928E-02 0. -1.
    10030    2    1    2    0    0  0.00000000000E+00  0.00000000000E+00 -0.14073801136E+03  0.26984116214E+04  0.26947389652E+04 0.  0.
        3    1    3    3  502    0 -0.16082295097E+03 -0.13038209015E+04  0.22935740738E+03  0.13335733183E+04  0.10100000352E+00 0. -1.
       -3    1    3    3    0  502  0.16082295097E+03  0.13038209015E+04 -0.37009541874E+03  0.13648383032E+04  0.10100000352E+00 0.  1.
</event>
<event>
 5   0  0.4992668E-07  0.2699848E+04  0.7818609E-02  0.8335054E-01
        2   -1    0    0  501    0  0.00000000000E+00  0.00000000000E+00  0.11779498817E+04  0.11779498817E+04  0.25500000920E-02 0.  1.
       -2   -1    0    0    0  501  0.00000000000E+00  0.00000000000E+00 -0.15470052452E+04  0.15470052452E+04  0.25500000920E-02 0. -1.
    10030    2    1    2    0    0  0.00000000000E+00  0.00000000000E+00 -0.36905536346E+03  0.27249551269E+04  0.26998478813E+04 0.  0.
        1    1    3    3  502    0 -0.11102550335E+04  0.38315204020E+03 -0.85616544330E+03  0.14534410864E+04  0.50400001928E-02 0. -1.
       -1    1    3    3    0  502  0.11102550335E+04 -0.38315204020E+03  0.48711007984E+03  0.12715140405E+04  0.50400001928E-02 0.  1.
</event>
<event>
 5   0  0.1971600E-07  0.2699534E+04  0.7818609E-02  0.8335156E-01
        1   -1    0    0  501    0  0.00000000000E+00  0.00000000000E+00  0.24037201199E+04  0.24037201199E+04  0.50400001928E-02 0.  1.
       -1   -1    0    0    0  501  0.00000000000E+00  0.00000000000E+00 -0.75793817252E+03  0.75793817254E+03  0.50400001928E-02 0. -1.
    10030    2    1    2    0    0  0.00000000000E+00  0.00000000000E+00  0.16457819473E+04  0.31616582924E+04  0.26995342079E+04 0.  0.
        5    1    3    3  502    0 -0.44146406327E+02  0.35300124014E+03 -0.70203282347E+03  0.78703936113E+03  0.46999998093E+01 0. -1.
       -5    1    3    3    0  502  0.44146406327E+02 -0.35300124014E+03  0.23478147708E+04  0.23746189313E+04  0.46999998093E+01 0.  1.
</event>
<event>
 5   0  0.4983208E-07  0.2699364E+04  0.7818609E-02  0.8335211E-01
        2   -1    0    0  501    0  0.00000000000E+00  0.00000000000E+00  0.11989580370E+04  0.11989580370E+04  0.25500000920E-02 0.  1.
       -2   -1    0    0    0  501  0.00000000000E+00  0.00000000000E+00 -0.15193536164E+04  0.15193536164E+04  0.25500000920E-02 0. -1.
    10030    2    1    2    0    0  0.00000000000E+00  0.00000000000E+00 -0.32039557941E+03  0.27183116533E+04  0.26993637986E+04 0.  0.
        4    1    3    3  502    0  0.10416231815E+04  0.30752938048E+03  0.64672982523E+03  0.12640467760E+04  0.12699999809E+01 0.  1.
       -4    1    3    3    0  502 -0.10416231815E+04 -0.30752938048E+03 -0.96712540464E+03  0.14542648773E+04  0.12699999809E+01 0. -1.
</event>
<event>
 5   0  0.4992668E-07  0.2699958E+04  0.7818609E-02  0.8335018E-01
        2   -1    0    0  501    0  0.00000000000E+00  0.00000000000E+00  0.19010813702E+04  0.19010813702E+04  0.25500000920E-02 0.  1.
       -2   -1    0    0    0  501  0.00000000000E+00  0.00000000000E+00 -0.95863535055E+03  0.95863535055E+03  0.25500000920E-02 0. -1.
    10030    2    1    2    0    0  0.00000000000E+00  0.00000000000E+00  0.94244601968E+03  0.28597167208E+04  0.26999583743E+04 0.  0.
        1    1    3    3  502    0  0.47315368650E+03  0.72005958405E+03  0.15719880548E+04  0.17926256330E+04  0.50400001928E-02 0.  1.
       -1    1    3    3    0  502 -0.47315368650E+03 -0.72005958405E+03 -0.62954203512E+03  0.10670910878E+04  0.50400001928E-02 0. -1.
</event>
<event>
 5   0  0.5043890E-07  0.2706315E+04  0.7818609E-02  0.8332959E-01
       -2   -1    0    0    0  501  0.00000000000E+00  0.00000000000E+00  0.10340937219E+04  0.10340937219E+04  0.25500000920E-02 0. -1.
        2   -1    0    0  501    0  0.00000000000E+00  0.00000000000E+00 -0.17706663567E+04  0.17706663567E+04  0.25500000920E-02 0.  1.
    10030    2    1    2    0    0  0.00000000000E+00  0.00000000000E+00 -0.73657263485E+03  0.28047600786E+04  0.27063148102E+04 0.  0.
        3    1    3    3  502    0 -0.10212609945E+04  0.68911480780E+03 -0.94826976936E+03  0.15546925107E+04  0.10100000352E+00 0.  1.
       -3    1    3    3    0  502  0.10212609945E+04 -0.68911480780E+03  0.21169713451E+03  0.12500675679E+04  0.10100000352E+00 0. -1.
</event>
<event>
 5   0  0.4735120E-07  0.2700717E+04  0.7818609E-02  0.8334772E-01
       -2   -1    0    0    0  501  0.00000000000E+00  0.00000000000E+00  0.10179120364E+04  0.10179120364E+04  0.25500000920E-02 0.  1.
        2   -1    0    0  501    0  0.00000000000E+00  0.00000000000E+00 -0.17913806452E+04  0.17913806452E+04  0.25500000920E-02 0. -1.
    10030    2    1    2    0    0  0.00000000000E+00  0.00000000000E+00 -0.77346860882E+03  0.28092926816E+04  0.27007168830E+04 0.  0.
        2    1    3    3  502    0  0.10560930608E+04  0.81824328674E+03 -0.59113686780E+03  0.14609234839E+04  0.25500000920E-02 0.  1.
       -2    1    3    3    0  502 -0.10560930608E+04 -0.81824328674E+03 -0.18233174102E+03  0.13483691977E+04  0.25500000920E-02 0. -1.
</event>
<event>
 5   0  0.4992668E-07  0.2699974E+04  0.7818609E-02  0.8335013E-01
       -2   -1    0    0    0  501  0.00000000000E+00  0.00000000000E+00  0.88039437398E+03  0.88039437398E+03  0.25500000920E-02 0. -1.
        2   -1    0    0  501    0  0.00000000000E+00  0.00000000000E+00 -0.20700556836E+04  0.20700556836E+04  0.25500000920E-02 0.  1.
    10030    2    1    2    0    0  0.00000000000E+00  0.00000000000E+00 -0.11896613097E+04  0.29504500576E+04  0.26999743537E+04 0.  0.
        1    1    3    3  502    0 -0.80490753740E+03 -0.69786990577E+03  0.31129011822E+03  0.11098648958E+04  0.50400001928E-02 0. -1.
       -1    1    3    3    0  502  0.80490753740E+03  0.69786990577E+03 -0.15009514279E+04  0.18405851618E+04  0.50400001928E-02 0.  1.
</event>
<event>
 5   0  0.4843887E-07  0.2701764E+04  0.7818609E-02  0.8334433E-01
       -2   -1    0    0    0  501  0.00000000000E+00  0.00000000000E+00  0.77465851146E+03  0.77465851146E+03  0.25500000920E-02 0. -1.
        2   -1    0    0  501    0  0.00000000000E+00  0.00000000000E+00 -0.23557246209E+04  0.23557246209E+04  0.25500000920E-02 0.  1.
    10030    2    1    2    0    0  0.00000000000E+00  0.00000000000E+00 -0.15810661094E+04  0.31303831323E+04  0.27017639632E+04 0.  0.
        5    1    3    3  502    0  0.41108132244E+03  0.28483712398E+03 -0.22444999531E+04  0.22995482535E+04  0.46999998093E+01 0.  1.
       -5    1    3    3    0  502 -0.41108132244E+03 -0.28483712398E+03  0.66343384370E+03  0.83083487879E+03  0.46999998093E+01 0. -1.
</event>
<event>
 5   0  0.4735120E-07  0.2701761E+04  0.7818609E-02  0.8334434E-01
       -2   -1    0    0    0  501  0.00000000000E+00  0.00000000000E+00  0.86707648013E+03  0.86707648013E+03  0.25500000920E-02 0. -1.
        2   -1    0    0  501    0  0.00000000000E+00  0.00000000000E+00 -0.21046330613E+04  0.21046330613E+04  0.25500000920E-02 0.  1.
    10030    2    1    2    0    0  0.00000000000E+00  0.00000000000E+00 -0.12375565812E+04  0.29717095414E+04  0.27017607790E+04 0.  0.
        2    1    3    3  502    0  0.53026313689E+03  0.12163630400E+03  0.74125486217E+03  0.91947439089E+03  0.25500000920E-02 0. -1.
       -2    1    3    3    0  502 -0.53026313689E+03 -0.12163630400E+03 -0.19788114433E+04  0.20522351505E+04  0.25500000920E-02 0.  1.
</event>
<event>
 5   0  0.1937896E-07  0.2700497E+04  0.7818609E-02  0.8334844E-01
        1   -1    0    0  501    0  0.00000000000E+00  0.00000000000E+00  0.21252522664E+04  0.21252522664E+04  0.50400001928E-02 0.  1.
       -1   -1    0    0    0  501  0.00000000000E+00  0.00000000000E+00 -0.85786097741E+03  0.85786097742E+03  0.50400001928E-02 0. -1.
    10030    2    1    2    0    0  0.00000000000E+00  0.00000000000E+00  0.12673912890E+04  0.29831132439E+04  0.27004969813E+04 0.  0.
        3    1    3    3  502    0 -0.86725183668E+03 -0.68674039380E+03  0.14889520140E+04  0.18549167708E+04  0.10100000352E+00 0.  1.
       -3    1    3    3    0  502  0.86725183668E+03  0.68674039380E+03 -0.22156072493E+03  0.11281964730E+04  0.10100000352E+00 0. -1.
</event>
<event>
 5   0  0.1888149E-07  0.2703186E+04  0.7818609E-02  0.8333972E-01
        1   -1    0    0  501    0  0.00000000000E+00  0.00000000000E+00  0.23961150157E+04  0.23961150157E+04  0.50400001928E-02 0.  1.
       -1   -1    0    0    0  501  0.00000000000E+00  0.00000000000E+00 -0.76240220444E+03  0.76240220446E+03  0.50400001928E-02 0. -1.
    10030    2    1    2    0    0  0.00000000000E+00  0.00000000000E+00  0.16337128113E+04  0.31585172202E+04  0.27031858021E+04 0.  0.
        1    1    3    3  502    0  0.29756427892E+03  0.83529148015E+03  0.20087519733E+04  0.21957551883E+04  0.50400001928E-02 0.  1.
       -1    1    3    3    0  502 -0.29756427892E+03 -0.83529148015E+03 -0.37503916201E+03  0.96276203185E+03  0.50400001928E-02 0. -1.
</event>
<event>
 5   0  0.4735120E-07  0.2699704E+04  0.7818609E-02  0.8335101E-01
        2   -1    0    0  501    0  0.00000000000E+00  0.00000000000E+00  0.13635933872E+04  0.13635933872E+04  0.25500000920E-02 0. -1.
       -2   -1    0    0    0  501  0.00000000000E+00  0.00000000000E+00 -0.13362488629E+04  0.13362488629E+04  0.25500000920E-02 0.  1.
    10030    2    1    2    0    0  0.00000000000E+00  0.00000000000E+00  0.27344524304E+02  0.26998422501E+04  0.26997037713E+04 0.  0.
        2    1    3    3  502    0  0.95774567372E+03 -0.87715285801E+03  0.38169412944E+03  0.13536485217E+04  0.25500000920E-02 0. -1.
       -2    1    3    3    0  502 -0.95774567372E+03  0.87715285801E+03 -0.35434960513E+03  0.13461937284E+04  0.25500000920E-02 0.  1.
</event>
<event>
 5   0  0.4843887E-07  0.2700140E+04  0.7818609E-02  0.8334960E-01
       -2   -1    0    0    0  501  0.00000000000E+00  0.00000000000E+00  0.20726823080E+04  0.20726823080E+04  0.25500000920E-02 0. -1.
        2   -1    0    0  501    0  0.00000000000E+00  0.00000000000E+00 -0.87938631091E+03  0.87938631092E+03  0.25500000920E-02 0.  1.
    10030    2    1    2    0    0  0.00000000000E+00  0.00000000000E+00  0.11932959971E+04  0.29520686189E+04  0.27001395879E+04 0.  0.
        5    1    3    3  502    0 -0.86377072073E+02 -0.35347781621E+03  0.20180497095E+04  0.20505985188E+04  0.46999998093E+01 0. -1.
       -5    1    3    3    0  502  0.86377072073E+02  0.35347781621E+03 -0.82475371248E+03  0.90147010010E+03  0.46999998093E+01 0.  1.
</event>
<event>
 5   0  0.4843887E-07  0.2699435E+04  0.7818609E-02  0.8335188E-01
       -2   -1    0    0    0  501  0.00000000000E+00  0.00000000000E+00  0.11868273808E+04  0.11868273808E+04  0.25500000920E-02 0.  1.
        2   -1    0    0  501    0  0.00000000000E+00  0.00000000000E+00 -0.15349639190E+04  0.15349639190E+04  0.25500000920E-02 0. -1.
    10030    2    1    2    0    0  0.00000000000E+00  0.00000000000E+00 -0.34813653826E+03  0.27217912998E+04  0.26994349095E+04 0.  0.
        5    1    3    3  502    0 -0.16643431806E+03  0.51501397368E+03 -0.14207448357E+04  0.15203544829E+04  0.46999998093E+01 0. -1.
       -5    1    3    3    0  502  0.16643431806E+03 -0.51501397368E+03  0.10726082975E+04  0.12014368169E+04  0.46999998093E+01 0.  1.
</event>
<event>
 5   0  0.1965415E-07  0.2701092E+04  0.7818609E-02  0.8334651E-01
       -1   -1    0    0    0  501  0.00000000000E+00  0.00000000000E+00  0.13680865784E+04  0.13680865785E+04  0.50400001928E-02 0. -1.
        1   -1    0    0  501    0  0.00000000000E+00  0.00000000000E+00 -0.13332306732E+04  0.13332306733E+04  0.50400001928E-02 0.  1.
    10030    2    1    2    0    0  0.00000000000E+00  0.00000000000E+00  0.34855905198E+02  0.27013172517E+04  0.27010923643E+04 0.  0.
        4    1    3    3  502    0 -0.12037031703E+03 -0.57701067042E+02  0.13614724894E+04  0.13680012349E+04  0.12699999809E+01 0. -1.
       -4    1    3    3    0  502  0.12037031703E+03  0.57701067042E+02 -0.13266165842E+04  0.13333160168E+04  0.12699999809E+01 0.  1.
</event>
<event>
 5   0  0.1641625E-07  0.2699670E+04  0.7818609E-02  0.8335112E-01
        3   -1    0    0  501    0  0.00000000000E+00  0.00000000000E+00  0.11627456077E+04  0.11627456121E+04  0.10100000352E+00 0.  1.
       -3   -1    0    0    0  501  0.00000000000E+00  0.00000000000E+00 -0.15670279168E+04  0.15670279200E+04  0.10100000352E+00 0. -1.
    10030    2    1    2    0    0  0.00000000000E+00  0.00000000000E+00 -0.40428230902E+03  0.27297735321E+04  0.26996702301E+04 0.  0.
        2    1    3    3  502    0  0.62610334042E+03  0.33799716492E+03  0.95773616688E+03  0.11931077243E+04  0.25500000920E-02 0.  1.
       -2    1    3    3    0  502 -0.62610334042E+03 -0.33799716492E+03 -0.13620184759E+04  0.15366658079E+04  0.25500000920E-02 0. -1.
</event>
<event>
 5   0  0.4992668E-07  0.2699995E+04  0.7818609E-02  0.8335007E-01
       -2   -1    0    0    0  501  0.00000000000E+00  0.00000000000E+00  0.10436632305E+04  0.10436632305E+04  0.25500000920E-02 0.  1.
        2   -1    0    0  501    0  0.00000000000E+00  0.00000000000E+00 -0.17462459539E+04  0.17462459539E+04  0.25500000920E-02 0. -1.
    10030    2    1    2    0    0  0.00000000000E+00  0.00000000000E+00 -0.70258272339E+03  0.27899091845E+04  0.26999945879E+04 0.  0.
        1    1    3    3  502    0  0.25332564624E+03 -0.64058244120E+03 -0.15509778320E+04  0.16970715902E+04  0.50400001928E-02 0. -1.
       -1    1    3    3    0  502 -0.25332564624E+03  0.64058244120E+03  0.84839510862E+03  0.10928375942E+04  0.50400001928E-02 0.  1.
</event>
<event>
 5   0  0.4983208E-07  0.2696070E+04  0.7818609E-02  0.8336281E-01
        2   -1    0    0  501    0  0.00000000000E+00  0.00000000000E+00  0.19345303344E+04  0.19345303344E+04  0.25500000920E-02 0.  1.
       -2   -1    0    0    0  501  0.00000000000E+00  0.00000000000E+00 -0.93934865445E+03  0.93934865445E+03  0.25500000920E-02 0. -1.
    10030    2    1    2    0    0  0.00000000000E+00  0.00000000000E+00  0.99518167993E+03  0.28738789888E+04  0.26960700782E+04 0.  0.
        4    1    3    3  502    0  0.61117355039E+03 -0.52149182733E+03  0.16514355743E+04  0.18364988167E+04  0.12699999809E+01 0.  1.
       -4    1    3    3    0  502 -0.61117355039E+03  0.52149182733E+03 -0.65625389442E+03  0.10373801721E+04  0.12699999809E+01 0. -1.
</event>
<event>
 5   0  0.4735120E-07  0.2698996E+04  0.7818609E-02  0.8335331E-01
       -2   -1    0    0    0  501  0.00000000000E+00  0.00000000000E+00  0.84261957078E+03  0.84261957079E+03  0.25500000920E-02 0. -1.
        2   -1    0    0  501    0  0.00000000000E+00  0.00000000000E+00 -0.21612903218E+04  0.21612903218E+04  0.25500000920E-02 0.  1.
    10030    2    1    2    0    0  0.00000000000E+00  0.00000000000E+00 -0.13186707510E+04  0.30039098926E+04  0.26989964974E+04 0.  0.
        2    1    3    3  502    0 -0.10433141828E+04 -0.95853106830E+02 -0.16059861783E+04  0.19175202494E+04  0.25500000920E-02 0.  1.
       -2    1    3    3    0  502  0.10433141828E+04  0.95853106830E+02  0.28731542727E+03  0.10863896432E+04  0.25500000920E-02 0. -1.
</event>
<event>
 5   0  0.4735120E-07  0.2702682E+04  0.7818609E-02  0.8334135E-01
        2   -1    0    0  501    0  0.00000000000E+00  0.00000000000E+00  0.20683650732E+04  0.20683650732E+04  0.25500000920E-02 0. -1.
       -2   -1    0    0    0  501  0.00000000000E+00  0.00000000000E+00 -0.88288182201E+03  0.88288182201E+03  0.25500000920E-02 0.  1.
    10030    2    1    2    0    0  0.00000000000E+00  0.00000000000E+00  0.11854832512E+04  0.29512468952E+04  0.27026815753E+04 0.  0.
        2    1    3    3  502    0 -0.99974858558E+01 -0.13104782775E+04  0.23277451993E+03  0.13310286408E+04  0.25500000920E-02 0.  1.
       -2    1    3    3    0  502  0.99974858558E+01  0.13104782775E+04  0.95270873125E+03  0.16202182544E+04  0.25500000920E-02 0. -1.
</event>
<event>
 5   0  0.1964242E-07  0.2699242E+04  0.7818609E-02  0.8335251E-01
       -1   -1    0    0    0  501  0.00000000000E+00  0.00000000000E+00  0.63545255682E+03  0.63545255684E+03  0.50400001928E-02 0. -1.
        1   -1    0    0  501    0  0.00000000000E+00  0.00000000000E+00 -0.28664248680E+04  0.28664248680E+04  0.50400001928E-02 0.  1.
    10030    2    1    2    0    0  0.00000000000E+00  0.00000000000E+00 -0.22309723112E+04  0.35018774249E+04  0.26992421243E+04 0.  0.
        2    1    3    3  502    0 -0.38826494745E+03  0.54628771116E+03  0.40430239025E+03  0.78271345686E+03  0.25500000920E-02 0. -1.
       -2    1    3    3    0  502  0.38826494745E+03 -0.54628771116E+03 -0.26352747015E+04  0.27191639680E+04  0.25500000920E-02 0.  1.
</event>
<event>
 5   0  0.1937896E-07  0.2699150E+04  0.7818609E-02  0.8335281E-01
       -1   -1    0    0    0  501  0.00000000000E+00  0.00000000000E+00  0.83276205085E+03  0.83276205087E+03  0.50400001928E-02 0. -1.
        1   -1    0    0  501    0  0.00000000000E+00  0.00000000000E+00 -0.21871225615E+04  0.21871225615E+04  0.50400001928E-02 0.  1.
    10030    2    1    2    0    0  0.00000000000E+00  0.00000000000E+00 -0.13543605107E+04  0.30198846124E+04  0.26991499920E+04 0.  0.
        3    1    3    3  502    0  0.23581192428E+02 -0.12985251813E+04 -0.26666193416E+03  0.13258326880E+04  0.10100000352E+00 0. -1.
       -3    1    3    3    0  502 -0.23581192428E+02  0.12985251813E+04 -0.10876985765E+04  0.16940519244E+04  0.10100000352E+00 0.  1.
</event>
<event>
 5   0  0.4843887E-07  0.2700028E+04  0.7818609E-02  0.8334996E-01
       -2   -1    0    0    0  501  0.00000000000E+00  0.00000000000E+00  0.11758154610E+04  0.11758154611E+04  0.25500000920E-02 0.  1.
        2   -1    0    0  501    0  0.00000000000E+00  0.00000000000E+00 -0.15500203746E+04  0.15500203746E+04  0.25500000920E-02 0. -1.
    10030    2    1    2    0    0  0.00000000000E+00  0.00000000000E+00 -0.37420491351E+03  0.27258358356E+04  0.27000280897E+04 0.  0.
        5    1    3    3  502    0  0.22813401592E+03 -0.84158270977E+02  0.11535165295E+04  0.11788766761E+04  0.46999998093E+01 0.  1.
       -5    1    3    3    0  502 -0.22813401592E+03  0.84158270977E+02 -0.15277214430E+04  0.15469591595E+04  0.46999998093E+01 0. -1.
</event>
<event>
 5   0  0.4992668E-07  0.2697564E+04  0.7818609E-02  0.8335796E-01
        2   -1    0    0  501    0  0.00000000000E+00  0.00000000000E+00  0.16073820249E+04  0.16073820249E+04  0.25500000920E-02 0. -1.
       -2   -1    0    0    0  501  0.00000000000E+00  0.00000000000E+00 -0.11317858968E+04  0.11317858968E+04  0.25500000920E-02 0.  1.
    10030    2    1    2    0    0  0.00000000000E+00  0.00000000000E+00  0.47559612810E+03  0.27391679217E+04  0.26975635722E+04 0.  0.
        1    1    3    3  502    0 -0.48645213466E+03  0.10407570380E+04 -0.47978445942E+03  0.12449915738E+04  0.50400001928E-02 0.  1.
       -1    1    3    3    0  502  0.48645213466E+03 -0.10407570380E+04  0.95538058752E+03  0.14941763478E+04  0.50400001928E-02 0. -1.
</event>
<event>
 5   0  0.1965415E-07  0.2700037E+04  0.7818609E-02  0.8334993E-01
       -1   -1    0    0    0  501  0.00000000000E+00  0.00000000000E+00  0.78218213818E+03  0.78218213819E+03  0.50400001928E-02 0. -1.
        1   -1    0    0  501    0  0.00000000000E+00  0.00000000000E+00 -0.23300837252E+04  0.23300837252E+04  0.50400001928E-02 0.  1.
    10030    2    1    2    0    0  0.00000000000E+00  0.00000000000E+00 -0.15479015870E+04  0.31122658634E+04  0.27000369407E+04 0.  0.
        4    1    3    3  502    0  0.24973293773E+03  0.13231019571E+04 -0.88678898188E+03  0.16122535906E+04  0.12699999809E+01 0. -1.
       -4    1    3    3    0  502 -0.24973293773E+03 -0.13231019571E+04 -0.66111260511E+03  0.15000122728E+04  0.12699999809E+01 0.  1.
</event>
<event>
 5   0  0.1937896E-07  0.2694998E+04  0.7818609E-02  0.8336630E-01
       -1   -1    0    0    0  501  0.00000000000E+00  0.00000000000E+00  0.14984274334E+04  0.14984274334E+04  0.50400001928E-02 0.  1.
        1   -1    0    0  501    0  0.00000000000E+00  0.00000000000E+00 -0.12117725365E+04  0.12117725365E+04  0.50400001928E-02 0. -1.
    10030    2    1    2    0    0  0.00000000000E+00  0.00000000000E+00  0.28665489690E+03  0.27101999699E+04  0.26949977453E+04 0.  0.
        3    1    3    3  502    0  0.42208800182E+03 -0.16148682918E+03 -0.11332887931E+04  0.12200736765E+04  0.10100000352E+00 0. -1.
       -3    1    3    3    0  502 -0.42208800182E+03  0.16148682918E+03  0.14199436900E+04  0.14901262934E+04  0.10100000352E+00 0.  1.
</event>
<event>
 5   0  0.4843887E-07  0.2698507E+04  0.7818609E-02  0.8335490E-01
        2   -1    0    0  501    0  0.00000000000E+00  0.00000000000E+00  0.14863312076E+04  0.14863312076E+04  0.25500000920E-02 0. -1.
       -2   -1    0    0    0  501  0.00000000000E+00  0.00000000000E+00 -0.12248177573E+04  0.12248177573E+04  0.25500000920E-02 0.  1.
    10030    2    1    2    0    0  0.00000000000E+00  0.00000000000E+00  0.26151345029E+03  0.27111489648E+04  0.26985068881E+04 0.  0.
        5    1    3    3  502    0 -0.78847338864E+03  0.85251922639E+03 -0.55947232701E+03  0.12889960010E+04  0.46999998093E+01 0.  1.
       -5    1    3    3    0  502  0.78847338864E+03 -0.85251922639E+03  0.82098577730E+03  0.14221529638E+04  0.46999998093E+01 0. -1.
</event>
<event>
 5   0  0.1641625E-07  0.2706505E+04  0.7818609E-02  0.8332898E-01
        4   -1    0    0  501    0  0.00000000000E+00  0.00000000000E+00  0.17068060752E+04  0.17068065477E+04  0.12699999809E+01 0. -1.
       -4   -1    0    0    0  501  0.00000000000E+00  0.00000000000E+00 -0.10729338966E+04  0.10729346482E+04  0.12699999809E+01 0.  1.
    10030    2    1    2    0    0  0.00000000000E+00  0.00000000000E+00  0.63387217858E+03  0.27797411959E+04  0.27065046051E+04 0.  0.
        2    1    3    3  502    0  0.55306025701E+03 -0.97654205084E+03  0.10935599779E+04  0.15669663207E+04  0.25500000920E-02 0.  1.
       -2    1    3    3    0  502 -0.55306025701E+03  0.97654205084E+03 -0.45968779935E+03  0.12127748752E+04  0.25500000920E-02 0. -1.
</event>
<event>
 5   0  0.4735120E-07  0.2699405E+04  0.7818609E-02  0.8335198E-01
       -2   -1    0    0    0  501  0.00000000000E+00  0.00000000000E+00  0.12154536013E+04  0.12154536013E+04  0.25500000920E-02 0.  1.
        2   -1    0    0  501    0  0.00000000000E+00  0.00000000000E+00 -0.14987798518E+04  0.14987798518E+04  0.25500000920E-02 0. -1.
    10030    2    1    2    0    0  0.00000000000E+00  0.00000000000E+00 -0.28332625049E+03  0.27142334532E+04  0.26994053927E+04 0.  0.
        2    1    3    3  502    0  0.44514199504E+03  0.12519632303E+04 -0.37989082013E+03  0.13819842115E+04  0.25500000920E-02 0. -1.
       -2    1    3    3    0  502 -0.44514199504E+03 -0.12519632303E+04  0.96564569640E+02  0.13322492416E+04  0.25500000920E-02 0.  1.
</event>
<event>
 5   0  0.4983208E-07  0.2699795E+04  0.7818609E-02  0.8335071E-01
        2   -1    0    0  501    0  0.00000000000E+00  0.00000000000E+00  0.12404233572E+04  0.12404233572E+04  0.25500000920E-02 0. -1.
       -2   -1    0    0    0  501  0.00000000000E+00  0.00000000000E+00 -0.14690336423E+04  0.14690336423E+04  0.25500000920E-02 0.  1.
    10030    2    1    2    0    0  0.00000000000E+00  0.00000000000E+00 -0.22861028512E+03  0.27094569995E+04  0.26997952830E+04 0.  0.
        4    1    3    3  502    0  0.80976088413E+03 -0.71745414674E+02 -0.11958268048E+04  0.14459818305E+04  0.12699999809E+01 0.  1.
       -4    1    3    3    0  502 -0.80976088413E+03  0.71745414674E+02  0.96721651970E+03  0.12634751691E+04  0.12699999809E+01 0. -1.
</event>
<event>
 5   0  0.1888149E-07  0.2700559E+04  0.7818609E-02  0.8334823E-01
       -1   -1    0    0    0  501  0.00000000000E+00  0.00000000000E+00  0.24928075263E+04  0.24928075263E+04  0.50400001928E-02 0.  1.
        1   -1    0    0  501    0  0.00000000000E+00  0.00000000000E+00 -0.73140635591E+03  0.73140635593E+03  0.50400001928E-02 0. -1.
    10030    2    1    2    0    0  0.00000000000E+00  0.00000000000E+00  0.17614011704E+04  0.32242138822E+04  0.27005594004E+04 0.  0.
        1    1    3    3  502    0 -0.21366715003E+02 -0.72120577047E+03  0.22433552574E+04  0.23565307362E+04  0.50400001928E-02 0.  1.
       -1    1    3    3    0  502  0.21366715003E+02  0.72120577047E+03 -0.48195408701E+03  0.86768314601E+03  0.50400001928E-02 0. -1.
</event>
<event>
 5   0  0.1888149E-07  0.2698299E+04  0.7818609E-02  0.8335557E-01
       -1   -1    0    0    0  501  0.00000000000E+00  0.00000000000E+00  0.12783889562E+04  0.12783889562E+04  0.50400001928E-02 0. -1.
        1   -1    0    0  501    0  0.00000000000E+00  0.00000000000E+00 -0.14238262390E+04  0.14238262390E+04  0.50400001928E-02 0.  1.
    10030    2    1    2    0    0  0.00000000000E+00  0.00000000000E+00 -0.14543728274E+03  0.27022151952E+04  0.26982985302E+04 0.  0.
        1    1    3    3  502    0  0.13167801517E+04 -0.10746785591E+03 -0.34650976030E+03  0.13658434471E+04  0.50400001928E-02 0. -1.
       -1    1    3    3    0  502 -0.13167801517E+04  0.10746785591E+03  0.20107247756E+03  0.13363717481E+04  0.50400001928E-02 0.  1.
</event>
<event>
 5   0  0.1971600E-07  0.2699536E+04  0.7818609E-02  0.8335156E-01
        1   -1    0    0  501    0  0.00000000000E+00  0.00000000000E+00  0.11138219932E+04  0.11138219932E+04  0.50400001928E-02 0.  1.
       -1   -1    0    0    0  501  0.00000000000E+00  0.00000000000E+00 -0.16356955379E+04  0.16356955379E+04  0.50400001928E-02 0. -1.
    10030    2    1    2    0    0  0.00000000000E+00  0.00000000000E+00 -0.52187354469E+03  0.27495175311E+04  0.26995360078E+04 0.  0.
        5    1    3    3  502    0 -0.86534725863E+03 -0.39987889914E+03  0.71233001953E+03  0.11900273773E+04  0.46999998093E+01 0.  1.
       -5    1    3    3    0  502  0.86534725863E+03  0.39987889914E+03 -0.12342035642E+04  0.15594901538E+04  0.46999998093E+01 0. -1.
</event>
<event>
 5   0  0.4992668E-07  0.2703656E+04  0.7818609E-02  0.8333820E-01
        2   -1    0    0  501    0  0.00000000000E+00  0.00000000000E+00  0.18612409023E+04  0.18612409023E+04  0.25500000920E-02 0.  1.
       -2   -1    0    0    0  501  0.00000000000E+00  0.00000000000E+00 -0.98183937325E+03  0.98183937326E+03  0.25500000920E-02 0. -1.
    10030    2    1    2    0    0  0.00000000000E+00  0.00000000000E+00  0.87940152906E+03  0.28430802756E+04  0.27036564878E+04 0.  0.
        1    1    3    3  502    0 -0.10049716821E+04  0.60588349248E+03  0.11454096312E+04  0.16398250247E+04  0.50400001928E-02 0. -1.
       -1    1    3    3    0  502  0.10049716821E+04 -0.60588349248E+03 -0.26600810218E+03  0.12032552509E+04  0.50400001928E-02 0.  1.
</event>
<event>
 5   0  0.4735120E-07  0.2700063E+04  0.7818609E-02  0.8334984E-01
       -2   -1    0    0    0  501  0.00000000000E+00  0.00000000000E+00  0.10221677065E+04  0.10221677065E+04  0.25500000920E-02 0. -1.
        2   -1    0    0  501    0  0.00000000000E+00  0.00000000000E+00 -0.17830588736E+04  0.17830588736E+04  0.25500000920E-02 0.  1.
    10030    2    1    2    0    0  0.00000000000E+00  0.00000000000E+00 -0.76089116718E+03  0.28052265801E+04  0.27000631099E+04 0.  0.
        2    1    3    3  502    0 -0.56965939952E+03 -0.10753668291E+04 -0.98772814868E+03  0.15673329398E+04  0.25500000920E-02 0.  1.
       -2    1    3    3    0  502  0.56965939952E+03  0.10753668291E+04  0.22683698150E+03  0.12378936403E+04  0.25500000920E-02 0. -1.
</event>
<event>
 5   0  0.1965415E-07  0.2699331E+04  0.7818609E-02  0.8335222E-01
       -1   -1    0    0    0  501  0.00000000000E+00  0.00000000000E+00  0.16718212207E+04  0.16718212207E+04  0.50400001928E-02 0. -1.
        1   -1    0    0  501    0  0.00000000000E+00  0.00000000000E+00 -0.10895881235E+04  0.10895881235E+04  0.50400001928E-02 0.  1.
    10030    2    1    2    0    0  0.00000000000E+00  0.00000000000E+00  0.58223309716E+03  0.27614093442E+04  0.26993306924E+04 0.  0.
        4    1    3    3  502    0 -0.73274961887E+03 -0.10295259468E+04 -0.19386344941E+03  0.12784484069E+04  0.12699999809E+01 0.  1.
       -4    1    3    3    0  502  0.73274961887E+03  0.10295259468E+04  0.77609654657E+03  0.14829609373E+04  0.12699999809E+01 0. -1.
</event>
<event>
 5   0  0.1971600E-07  0.2698483E+04  0.7818609E-02  0.8335497E-01
        1   -1    0    0  501    0  0.00000000000E+00  0.00000000000E+00  0.20100734620E+04  0.20100734620E+04  0.50400001928E-02 0.  1.
       -1   -1    0    0    0  501  0.00000000000E+00  0.00000000000E+00 -0.90566465252E+03  0.90566465253E+03  0.50400001928E-02 0. -1.
    10030    2    1    2    0    0  0.00000000000E+00  0.00000000000E+00  0.11044088095E+04  0.29157381146E+04  0.26984828949E+04 0.  0.
        5    1    3    3  502    0 -0.42192789076E+03  0.11025547170E+04 -0.15367587530E+03  0.11904992287E+04  0.46999998093E+01 0. -1.
       -5    1    3    3    0  502  0.42192789076E+03 -0.11025547170E+04  0.12580846848E+04  0.17252388858E+04  0.46999998093E+01 0.  1.
</event>
<event>
 5   0  0.4992668E-07  0.2699598E+04  0.7818609E-02  0.8335135E-01
        2   -1    0    0  501    0  0.00000000000E+00  0.00000000000E+00  0.11962946653E+04  0.11962946653E+04  0.25500000920E-02 0.  1.
       -2   -1    0    0    0  501  0.00000000000E+00  0.00000000000E+00 -0.15230008319E+04  0.15230008319E+04  0.25500000920E-02 0. -1.
    10030    2    1    2    0    0  0.00000000000E+00  0.00000000000E+00 -0.32670616657E+03  0.27192954973E+04  0.26995983187E+04 0.  0.
        1    1    3    3  502    0  0.39714494229E+03 -0.91884414431E+03 -0.10754759649E+04  0.14692335477E+04  0.50400001928E-02 0. -1.
       -1    1    3    3    0  502 -0.39714494229E+03  0.91884414431E+03  0.74876979834E+03  0.12500619495E+04  0.50400001928E-02 0.  1.
</event>
<event>
 5   0  0.1937896E-07  0.2699393E+04  0.7818609E-02  0.8335202E-01
       -1   -1    0    0    0  501  0.00000000000E+00  0.00000000000E+00  0.16205015732E+04  0.16205015732E+04  0.50400001928E-02 0. -1.
        1   -1    0    0  501    0  0.00000000000E+00  0.00000000000E+00 -0.11241461657E+04  0.11241461657E+04  0.50400001928E-02 0.  1.
    10030    2    1    2    0    0  0.00000000000E+00  0.00000000000E+00  0.49635540746E+03  0.27446477389E+04  0.26993929911E+04 0.  0.
        3    1    3    3  502    0  0.11090591543E+04  0.76899893371E+03  0.26605230622E+03  0.13755563993E+04  0.10100000352E+00 0. -1.
       -3    1    3    3    0  502 -0.11090591543E+04 -0.76899893371E+03  0.23030310124E+03  0.13690913397E+04  0.10100000352E+00 0.  1.
</event>
<event>
 5   0  0.4735120E-07  0.2699395E+04  0.7818609E-02  0.8335201E-01
        2   -1    0    0  501    0  0.00000000000E+00  0.00000000000E+00  0.19902040594E+04  0.19902040594E+04  0.25500000920E-02 0.  1.
       -2   -1    0    0    0  501  0.00000000000E+00  0.00000000000E+00 -0.91532508796E+03  0.91532508796E+03  0.25500000920E-02 0. -1.
    10030    2    1    2    0    0  0.00000000000E+00  0.00000000000E+00  0.10748789714E+04  0.29055291474E+04  0.26993952699E+04 0.  0.
        2    1    3    3  502    0 -0.95810510818E+03 -0.58617137722E+03  0.13430031080E+04  0.17507768647E+04  0.25500000920E-02 0.  1.
       -2    1    3    3    0  502  0.95810510818E+03  0.58617137722E+03 -0.26812413654E+03  0.11547522827E+04  0.25500000920E-02 0. -1.
</event>
<event>
 5   0  0.4735120E-07  0.2687615E+04  0.7818609E-02  0.8339035E-01
       -2   -1    0    0    0  501  0.00000000000E+00  0.00000000000E+00  0.58657183800E+03  0.58657183801E+03  0.25500000920E-02 0. -1.
        2   -1    0    0  501    0  0.00000000000E+00  0.00000000000E+00 -0.30785970007E+04  0.30785970007E+04  0.25500000920E-02 0.  1.
    10030    2    1    2    0    0  0.00000000000E+00  0.00000000000E+00 -0.24920251627E+04  0.36651688387E+04  0.26876147798E+04 0.  0.
        2    1    3    3  502    0 -0.18852972357E+03  0.97143873225E+03 -0.24858645630E+04  0.26755857850E+04  0.25500000920E-02 0.  1.
       -2    1    3    3    0  502  0.18852972357E+03 -0.97143873225E+03 -0.61605996713E+01  0.98958305371E+03  0.25500000920E-02 0. -1.
</event>
<event>
 5   0  0.4983208E-07  0.2700592E+04  0.7818609E-02  0.8334813E-01
        2   -1    0    0  501    0  0.00000000000E+00  0.00000000000E+00  0.13182699912E+04  0.13182699912E+04  0.25500000920E-02 0. -1.
       -2   -1    0    0    0  501  0.00000000000E+00  0.00000000000E+00 -0.13831005596E+04  0.13831005596E+04  0.25500000920E-02 0.  1.
    10030    2    1    2    0    0  0.00000000000E+00  0.00000000000E+00 -0.64830568382E+02  0.27013705508E+04  0.27005924998E+04 0.  0.
        4    1    3    3  502    0 -0.16154773399E+03 -0.11809451022E+04  0.60225103895E+03  0.13354538299E+04  0.12699999809E+01 0. -1.
       -4    1    3    3    0  502  0.16154773399E+03  0.11809451022E+04 -0.66708160733E+03  0.13659167210E+04  0.12699999809E+01 0.  1.
</event>
<event>
 5   0  0.4843887E-07  0.2700032E+04  0.7818609E-02  0.8334995E-01
        2   -1    0    0  501    0  0.00000000000E+00  0.00000000000E+00  0.23941587275E+04  0.23941587275E+04  0.25500000920E-02 0. -1.
       -2   -1    0    0    0  501  0.00000000000E+00  0.00000000000E+00 -0.76124555234E+03  0.76124555235E+03  0.25500000920E-02 0.  1.
    10030    2    1    2    0    0  0.00000000000E+00  0.00000000000E+00  0.16329131751E+04  0.31554042798E+04  0.27000316168E+04 0.  0.
        5    1    3    3  502    0 -0.56783328214E+03  0.20292911064E+02  0.22476048051E+04  0.23183174693E+04  0.46999998093E+01 0. -1.
       -5    1    3    3    0  502  0.56783328214E+03 -0.20292911064E+02 -0.61469162992E+03  0.83708681057E+03  0.46999998093E+01 0.  1.
</event>
<event>
 5   0  0.4992668E-07  0.2701694E+04  0.7818609E-02  0.8334456E-01
        2   -1    0    0  501    0  0.00000000000E+00  0.00000000000E+00  0.21065928929E+04  0.21065928929E+04  0.25500000920E-02 0. -1.
       -2   -1    0    0    0  501  0.00000000000E+00  0.00000000000E+00 -0.86622681944E+03  0.86622681944E+03  0.25500000920E-02 0.  1.
    10030    2    1    2    0    0  0.00000000000E+00  0.00000000000E+00  0.12403660735E+04  0.29728197124E+04  0.27016937365E+04 0.  0.
        1    1    3    3  502    0  0.49738590105E+03 -0.63169440672E+02 -0.76005058257E+03  0.91052732023E+03  0.50400001928E-02 0.  1.
       -1    1    3    3    0  502 -0.49738590105E+03  0.63169440672E+02  0.20004166561E+04  0.20622923921E+04  0.50400001928E-02 0. -1.
</event>
<event>
 5   0  0.4843887E-07  0.2698240E+04  0.7818609E-02  0.8335576E-01
        2   -1    0    0  501    0  0.00000000000E+00  0.00000000000E+00  0.19561548665E+04  0.19561548665E+04  0.25500000920E-02 0. -1.
       -2   -1    0    0    0  501  0.00000000000E+00  0.00000000000E+00 -0.93046059967E+03  0.93046059967E+03  0.25500000920E-02 0.  1.
    10030    2    1    2    0    0  0.00000000000E+00  0.00000000000E+00  0.10256942669E+04  0.28866154662E+04  0.26982401896E+04 0.  0.
        5    1    3    3  502    0 -0.37308622843E+03 -0.12670459519E+01 -0.87416512595E+03  0.95046393760E+03  0.46999998093E+01 0.  1.
       -5    1    3    3    0  502  0.37308622843E+03  0.12670459519E+01  0.18998593928E+04  0.19361515286E+04  0.46999998093E+01 0. -1.
</event>
<event>
 5   0  0.1965415E-07  0.2696755E+04  0.7818609E-02  0.8336059E-01
        1   -1    0    0  501    0  0.00000000000E+00  0.00000000000E+00  0.13274320273E+04  0.13274320274E+04  0.50400001928E-02 0.  1.
       -1   -1    0    0    0  501  0.00000000000E+00  0.00000000000E+00 -0.13696531948E+04  0.13696531948E+04  0.50400001928E-02 0. -1.
    10030    2    1    2    0    0  0.00000000000E+00  0.00000000000E+00 -0.42221167455E+02  0.26970852222E+04  0.26967547290E+04 0.  0.
        4    1    3    3  502    0  0.72860779462E+03  0.43495577255E+03  0.10269033563E+04  0.13321366141E+04  0.12699999809E+01 0.  1.
       -4    1    3    3    0  502 -0.72860779462E+03 -0.43495577255E+03 -0.10691245238E+04  0.13649486081E+04  0.12699999809E+01 0. -1.
</event>
<event>
 5   0  0.1971600E-07  0.2694876E+04  0.7818609E-02  0.8336669E-01
        1   -1    0    0  501    0  0.00000000000E+00  0.00000000000E+00  0.16742583093E+04  0.16742583094E+04  0.50400001928E-02 0. -1.
       -1   -1    0    0    0  501  0.00000000000E+00  0.00000000000E+00 -0.10844141301E+04  0.10844141301E+04  0.50400001928E-02 0.  1.
    10030    2    1    2    0    0  0.00000000000E+00  0.00000000000E+00  0.58984417927E+03  0.27586724394E+04  0.26948761516E+04 0.  0.
        5    1    3    3  502    0  0.49942756508E+03 -0.15831945352E+03 -0.97586595087E+03  0.11076233052E+04  0.46999998093E+01 0.  1.
       -5    1    3    3    0  502 -0.49942756508E+03  0.15831945352E+03  0.15657101301E+04  0.16510491343E+04  0.46999998093E+01 0. -1.
</event>
<event>
 5   0  0.4983208E-07  0.2701831E+04  0.7818609E-02  0.8334411E-01
       -2   -1    0    0    0  501  0.00000000000E+00  0.00000000000E+00  0.18963307791E+04  0.18963307791E+04  0.25500000920E-02 0. -1.
        2   -1    0    0  501    0  0.00000000000E+00  0.00000000000E+00 -0.96237053632E+03  0.96237053632E+03  0.25500000920E-02 0.  1.
    10030    2    1    2    0    0  0.00000000000E+00  0.00000000000E+00  0.93396024277E+03  0.28587013154E+04  0.27018311338E+04 0.  0.
        4    1    3    3  502    0  0.88274516479E+03  0.10225635825E+04  0.47734424536E+03  0.14327366987E+04  0.12699999809E+01 0.  1.
       -4    1    3    3    0  502 -0.88274516479E+03 -0.10225635825E+04  0.45661599741E+03  0.14259646167E+04  0.12699999809E+01 0. -1.
</event>
<event>
 5   0  0.4735120E-07  0.2699581E+04  0.7818609E-02  0.8335141E-01
        2   -1    0    0  501    0  0.00000000000E+00  0.00000000000E+00  0.11643657740E+04  0.11643657740E+04  0.25500000920E-02 0.  1.
       -2   -1    0    0    0  501  0.00000000000E+00  0.00000000000E+00 -0.15647439760E+04  0.15647439760E+04  0.25500000920E-02 0. -1.
    10030    2    1    2    0    0  0.00000000000E+00  0.00000000000E+00 -0.40037820202E+03  0.27291097500E+04  0.26995809532E+04 0.  0.
        2    1    3    3  502    0  0.11613576688E+04 -0.46838352235E+03  0.30910669147E+03  0.12898378602E+04  0.25500000920E-02 0.  1.
       -2    1    3    3    0  502 -0.11613576688E+04  0.46838352235E+03 -0.70948489349E+03  0.14392718899E+04  0.25500000920E-02 0. -1.
</event>
<event>
 5   0  0.1971600E-07  0.2703423E+04  0.7818609E-02  0.8333895E-01
        1   -1    0    0  501    0  0.00000000000E+00  0.00000000000E+00  0.18646772453E+04  0.18646772453E+04  0.50400001928E-02 0. -1.
       -1   -1    0    0    0  501  0.00000000000E+00  0.00000000000E+00 -0.97986052955E+03  0.97986052956E+03  0.50400001928E-02 0.  1.
    10030    2    1    2    0    0  0.00000000000E+00  0.00000000000E+00  0.88481671579E+03  0.28445377749E+04  0.27034227439E+04 0.  0.
        5    1    3    3  502    0  0.63143870460E+03  0.61793793469E+03  0.15188129377E+04  0.17570933266E+04  0.46999998093E+01 0. -1.
       -5    1    3    3    0  502 -0.63143870460E+03 -0.61793793469E+03 -0.63399622187E+03  0.10874444483E+04  0.46999998093E+01 0.  1.
</event>
<event>
 5   0  0.1965415E-07  0.2700336E+04  0.7818609E-02  0.8334896E-01
        1   -1    0    0  501    0  0.00000000000E+00  0.00000000000E+00  0.11281244445E+04  0.11281244445E+04  0.50400001928E-02 0.  1.
       -1   -1    0    0    0  501  0.00000000000E+00  0.00000000000E+00 -0.16159157712E+04  0.16159157712E+04  0.50400001928E-02 0. -1.
    10030    2    1    2    0    0  0.00000000000E+00  0.00000000000E+00 -0.48779132673E+03  0.27440402157E+04  0.27003363359E+04 0.  0.
        4    1    3    3  502    0  0.57449963490E+03  0.19806538591E+03 -0.14690926923E+04  0.15898159262E+04  0.12699999809E+01 0. -1.
       -4    1    3    3    0  502 -0.57449963490E+03 -0.19806538591E+03  0.98130136558E+03  0.11542242895E+04  0.12699999809E+01 0.  1.
</event>
<event>
 5   0  0.4843887E-07  0.2699523E+04  0.7818609E-02  0.8335160E-01
        2   -1    0    0  501    0  0.00000000000E+00  0.00000000000E+00  0.12827690517E+04  0.12827690517E+04  0.25500000920E-02 0. -1.
       -2   -1    0    0    0  501  0.00000000000E+00  0.00000000000E+00 -0.14202527194E+04  0.14202527194E+04  0.25500000920E-02 0.  1.
    10030    2    1    2    0    0  0.00000000000E+00  0.00000000000E+00 -0.13748366775E+03  0.27030217711E+04  0.26995230942E+04 0.  0.
        5    1    3    3  502    0  0.65062591581E+03  0.92910519401E+03 -0.80132083441E+03  0.13887720164E+04  0.46999998093E+01 0.  1.
       -5    1    3    3    0  502 -0.65062591581E+03 -0.92910519401E+03  0.66383716667E+03  0.13142497547E+04  0.46999998093E+01 0. -1.
</event>
<event>
 5   0  0.1964242E-07  0.2694560E+04  0.7818609E-02  0.8336772E-01
        1   -1    0    0  501    0  0.00000000000E+00  0.00000000000E+00  0.15319457370E+04  0.15319457370E+04  0.50400001928E-02 0. -1.
       -1   -1    0    0    0  501  0.00000000000E+00  0.00000000000E+00 -0.11848743206E+04  0.11848743206E+04  0.50400001928E-02 0.  1.
    10030    2    1    2    0    0  0.00000000000E+00  0.00000000000E+00  0.34707141640E+03  0.27168200577E+04  0.26945598263E+04 0.  0.
        2    1    3    3  502    0  0.77053981168E+03 -0.77567473303E+03  0.96728785150E+03  0.14598111797E+04  0.25500000920E-02 0. -1.
       -2    1    3    3    0  502 -0.77053981168E+03  0.77567473303E+03 -0.62021643510E+03  0.12570088779E+04  0.25500000920E-02 0.  1.
</event>
<event>
 5   0  0.1937896E-07  0.2699630E+04  0.7818609E-02  0.8335125E-01
       -1   -1    0    0    0  501  0.00000000000E+00  0.00000000000E+00  0.15151658284E+04  0.15151658284E+04  0.50400001928E-02 0. -1.
        1   -1    0    0  501    0  0.00000000000E+00  0.00000000000E+00 -0.12025088938E+04  0.12025088938E+04  0.50400001928E-02 0.  1.
    10030    2    1    2    0    0  0.00000000000E+00  0.00000000000E+00  0.31265693460E+03  0.27176747222E+04  0.26996298889E+04 0.  0.
        3    1    3    3  502    0 -0.10442960609E+03  0.12369707848E+04 -0.37730731843E+03  0.12974448304E+04  0.10100000352E+00 0.  1.
       -3    1    3    3    0  502  0.10442960609E+03 -0.12369707848E+04  0.68996425303E+03  0.14202298919E+04  0.10100000352E+00 0. -1.
</event>
<event>
 5   0  0.1888149E-07  0.2699371E+04  0.7818609E-02  0.8335209E-01
        1   -1    0    0  501    0  0.00000000000E+00  0.00000000000E+00  0.19366420648E+04  0.19366420648E+04  0.50400001928E-02 0.  1.
       -1   -1    0    0    0  501  0.00000000000E+00  0.00000000000E+00 -0.94062315650E+03  0.94062315652E+03  0.50400001928E-02 0. -1.
    10030    2    1    2    0    0  0.00000000000E+00  0.00000000000E+00  0.99601890825E+03  0.28772652213E+04  0.26993705726E+04 0.  0.
        1    1    3    3  502    0  0.98513021699E+03 -0.94131276654E+02 -0.48024736411E+03  0.10999908056E+04  0.50400001928E-02 0. -1.
       -1    1    3    3    0  502 -0.98513021699E+03  0.94131276654E+02  0.14762662724E+04  0.17772744157E+04  0.50400001928E-02 0.  1.
</event>
<event>
 5   0  0.4992668E-07  0.2701805E+04  0.7818609E-02  0.8334420E-01
        2   -1    0    0  501    0  0.00000000000E+00  0.00000000000E+00  0.20764547271E+04  0.20764547271E+04  0.25500000920E-02 0.  1.
       -2   -1    0    0    0  501  0.00000000000E+00  0.00000000000E+00 -0.87887179773E+03  0.87887179773E+03  0.25500000920E-02 0. -1.
    10030    2    1    2    0    0  0.00000000000E+00  0.00000000000E+00  0.11975829294E+04  0.29553265249E+04  0.27018049515E+04 0.  0.
        1    1    3    3  502    0 -0.10821306362E+04  0.19424231127E+03 -0.25985142014E+03  0.11297165795E+04  0.50400001928E-02 0. -1.
       -1    1    3    3    0  502  0.10821306362E+04 -0.19424231127E+03  0.14574343495E+04  0.18256099454E+04  0.50400001928E-02 0.  1.
</event>
<event>
 5   0  0.5043890E-07  0.2699352E+04  0.7818609E-02  0.8335215E-01
       -2   -1    0    0    0  501  0.00000000000E+00  0.00000000000E+00  0.13369800824E+04  0.13369800824E+04  0.25500000920E-02 0. -1.
        2   -1    0    0  501    0  0.00000000000E+00  0.00000000000E+00 -0.13624929250E+04  0.13624929250E+04  0.25500000920E-02 0.  1.
    10030    2    1    2    0    0  0.00000000000E+00  0.00000000000E+00 -0.25512842640E+02  0.26994730074E+04  0.26993524432E+04 0.  0.
        3    1    3    3  502    0 -0.11314177474E+04  0.52447775206E+03 -0.52896051157E+03  0.13546151721E+04  0.10100000352E+00 0.  1.
       -3    1    3    3    0  502  0.11314177474E+04 -0.52447775206E+03  0.50344766893E+03  0.13448578353E+04  0.10100000352E+00 0. -1.
</event>
<event>
 5   0  0.4843887E-07  0.2697155E+04  0.7818609E-02  0.8335929E-01
        2   -1    0    0  501    0  0.00000000000E+00  0.00000000000E+00  0.15773283063E+04  0.15773283063E+04  0.25500000920E-02 0. -1.
       -2   -1    0    0    0  501  0.00000000000E+00  0.00000000000E+00 -0.11530011172E+04  0.11530011172E+04  0.25500000920E-02 0.  1.
    10030    2    1    2    0    0  0.00000000000E+00  0.00000000000E+00  0.42432718911E+03  0.27303294236E+04  0.26971550192E+04 0.  0.
        5    1    3    3  502    0 -0.98622276777E+03 -0.26389265740E+03 -0.67978943093E+03  0.12265441055E+04  0.46999998093E+01 0.  1.
       -5    1    3    3    0  502  0.98622276777E+03  0.26389265740E+03  0.11041166200E+04  0.15037853181E+04  0.46999998093E+01 0. -1.
</event>
<event>
 5   0  0.4983208E-07  0.2700189E+04  0.7818609E-02  0.8334944E-01
        2   -1    0    0  501    0  0.00000000000E+00  0.00000000000E+00  0.20912407621E+04  0.20912407621E+04  0.25500000920E-02 0. -1.
       -2   -1    0    0    0  501  0.00000000000E+00  0.00000000000E+00 -0.87161391203E+03  0.87161391203E+03  0.25500000920E-02 0.  1.
    10030    2    1    2    0    0  0.00000000000E+00  0.00000000000E+00  0.12196268501E+04  0.29628546741E+04  0.27001885428E+04 0.  0.
        4    1    3    3  502    0 -0.12408550177E+03 -0.13384654230E+04  0.74802689673E+03  0.15383214070E+04  0.12699999809E+01 0. -1.
       -4    1    3    3    0  502  0.12408550177E+03  0.13384654230E+04  0.47159995334E+03  0.14245332671E+04  0.12699999809E+01 0.  1.
</event>
<event>
 5   0  0.4992668E-07  0.2700089E+04  0.7818609E-02  0.8334976E-01
        2   -1    0    0  501    0  0.00000000000E+00  0.00000000000E+00  0.12247612191E+04  0.12247612191E+04  0.25500000920E-02 0. -1.
       -2   -1    0    0    0  501  0.00000000000E+00  0.00000000000E+00 -0.14881428758E+04  0.14881428758E+04  0.25500000920E-02 0.  1.
    10030    2    1    2    0    0  0.00000000000E+00  0.00000000000E+00 -0.26338165664E+03  0.27129040949E+04  0.27000886525E+04 0.  0.
        1    1    3    3  502    0  0.38347985473E+03 -0.12309842516E+04  0.27050982785E+03  0.13174044913E+04  0.50400001928E-02 0. -1.
       -1    1    3    3    0  502 -0.38347985473E+03  0.12309842516E+04 -0.53389148449E+03  0.13954996037E+04  0.50400001928E-02 0.  1.
</event>
<event>
 5   0  0.1964242E-07  0.2712510E+04  0.7818609E-02  0.8330957E-01
       -1   -1    0    0    0  501  0.00000000000E+00  0.00000000000E+00  0.14495636958E+04  0.14495636958E+04  0.50400001928E-02 0. -1.
        1   -1    0    0  501    0  0.00000000000E+00  0.00000000000E+00 -0.12689525899E+04  0.12689525899E+04  0.50400001928E-02 0.  1.
    10030    2    1    2    0    0  0.00000000000E+00  0.00000000000E+00  0.18061110592E+03  0.27185162857E+04  0.27125099859E+04 0.  0.
        2    1    3    3  502    0 -0.13120398306E+04  0.20512958050E+02  0.43393253308E+03  0.13820878199E+04  0.25500000920E-02 0. -1.
       -2    1    3    3    0  502  0.13120398306E+04 -0.20512958050E+02 -0.25332142716E+03  0.13364284658E+04  0.25500000920E-02 0.  1.
</event>
<event>
 5   0  0.1937896E-07  0.2700786E+04  0.7818609E-02  0.8334750E-01
       -1   -1    0    0    0  501  0.00000000000E+00  0.00000000000E+00  0.91122332534E+03  0.91122332535E+03  0.50400001928E-02 0.  1.
        1   -1    0    0  501    0  0.00000000000E+00  0.00000000000E+00 -0.20012235386E+04  0.20012235386E+04  0.50400001928E-02 0. -1.
    10030    2    1    2    0    0  0.00000000000E+00  0.00000000000E+00 -0.10900002133E+04  0.29124468640E+04  0.27007862319E+04 0.  0.
        3    1    3    3  502    0 -0.73779829733E+03 -0.11153129781E+04 -0.34241518903E+03  0.13804048459E+04  0.10100000352E+00 0. -1.
       -3    1    3    3    0  502  0.73779829733E+03  0.11153129781E+04 -0.74758502427E+03  0.15320420181E+04  0.10100000352E+00 0.  1.
</event>
<event>
 5   0  0.5043890E-07  0.2700351E+04  0.7818609E-02  0.8334891E-01
       -2   -1    0    0    0  501  0.00000000000E+00  0.00000000000E+00  0.15309670145E+04  0.15309670145E+04  0.25500000920E-02 0.  1.
        2   -1    0    0  501    0  0.00000000000E+00  0.00000000000E+00 -0.11907334973E+04  0.11907334973E+04  0.25500000920E-02 0. -1.
    10030    2    1    2    0    0  0.00000000000E+00  0.00000000000E+00  0.34023351717E+03  0.27217005118E+04  0.27003508716E+04 0.  0.
        3    1    3    3  502    0 -0.62498852734E+03  0.85827411094E+03  0.10108148502E+04  0.14659439895E+04  0.10100000352E+00 0.  1.
       -3    1    3    3    0  502  0.62498852734E+03 -0.85827411094E+03 -0.67058133302E+03  0.12557565223E+04  0.10100000352E+00 0. -1.
</event>
<event>
 5   0  0.5043890E-07  0.2688122E+04  0.7818609E-02  0.8338869E-01
        2   -1    0    0  501    0  0.00000000000E+00  0.00000000000E+00  0.14877937601E+04  0.14877937601E+04  0.25500000920E-02 0. -1.
       -2   -1    0    0    0  501  0.00000000000E+00  0.00000000000E+00 -0.12142137881E+04  0.12142137881E+04  0.25500000920E-02 0.  1.
    10030    2    1    2    0    0  0.00000000000E+00  0.00000000000E+00  0.27357997198E+03  0.27020075481E+04  0.26881217958E+04 0.  0.
        3    1    3    3  502    0 -0.15497894856E+03  0.71131993566E+03  0.12724514867E+04  0.14659902188E+04  0.10100000352E+00 0. -1.
       -3    1    3    3    0  502  0.15497894856E+03 -0.71131993566E+03 -0.99887151471E+03  0.12360173294E+04  0.10100000352E+00 0.  1.
</event>
<event>
 5   0  0.1965415E-07  0.2694467E+04  0.7818609E-02  0.8336802E-01
        1   -1    0    0  501    0  0.00000000000E+00  0.00000000000E+00  0.16268833188E+04  0.16268833188E+04  0.50400001928E-02 0.  1.
       -1   -1    0    0    0  501  0.00000000000E+00  0.00000000000E+00 -0.11156536120E+04  0.11156536120E+04  0.50400001928E-02 0. -1.
    10030    2    1    2    0    0  0.00000000000E+00  0.00000000000E+00  0.51122970685E+03  0.27425369308E+04  0.26944671094E+04 0.  0.
        4    1    3    3  502    0  0.34462598200E+03 -0.66671807399E+03  0.13943940882E+04  0.15835455610E+04  0.12699999809E+01 0.  1.
       -4    1    3    3    0  502 -0.34462598200E+03  0.66671807399E+03 -0.88316438140E+03  0.11589913697E+04  0.12699999809E+01 0. -1.
</event>
<event>
 5   0  0.1888149E-07  0.2698992E+04  0.7818609E-02  0.8335332E-01
        1   -1    0    0  501    0  0.00000000000E+00  0.00000000000E+00  0.81457760087E+03  0.81457760088E+03  0.50400001928E-02 0. -1.
       -1   -1    0    0    0  501  0.00000000000E+00  0.00000000000E+00 -0.22356857905E+04  0.22356857905E+04  0.50400001928E-02 0.  1.
    10030    2    1    2    0    0  0.00000000000E+00  0.00000000000E+00 -0.14211081896E+04  0.30502633914E+04  0.26989920841E+04 0.  0.
        1    1    3    3  502    0  0.35879103713E+03  0.92175602992E+03  0.32695376186E+03  0.10417600249E+04  0.50400001928E-02 0. -1.
       -1    1    3    3    0  502 -0.35879103713E+03 -0.92175602992E+03 -0.17480619515E+04  0.20085033665E+04  0.50400001928E-02 0.  1.
</event>
<event>
 5   0  0.4843887E-07  0.2699882E+04  0.7818609E-02  0.8335043E-01
       -2   -1    0    0    0  501  0.00000000000E+00  0.00000000000E+00  0.84994795396E+03  0.84994795396E+03  0.25500000920E-02 0. -1.
        2   -1    0    0  501    0  0.00000000000E+00  0.00000000000E+00 -0.21440611059E+04  0.21440611059E+04  0.25500000920E-02 0.  1.
    10030    2    1    2    0    0  0.00000000000E+00  0.00000000000E+00 -0.12941131520E+04  0.29940090599E+04  0.26998817383E+04 0.  0.
        5    1    3    3  502    0 -0.69347618383E+03  0.36590669666E+03 -0.18656414265E+04  0.20237185947E+04  0.46999998093E+01 0.  1.
       -5    1    3    3    0  502  0.69347618383E+03 -0.36590669666E+03  0.57152827456E+03  0.97029046518E+03  0.46999998093E+01 0. -1.
</event>
<event>
 5   0  0.1888149E-07  0.2700621E+04  0.7818609E-02  0.8334803E-01
       -1   -1    0    0    0  501  0.00000000000E+00  0.00000000000E+00  0.79028833171E+03  0.79028833172E+03  0.50400001928E-02 0.  1.
        1   -1    0    0  501    0  0.00000000000E+00  0.00000000000E+00 -0.23071813952E+04  0.23071813952E+04  0.50400001928E-02 0. -1.
    10030    2    1    2    0    0  0.00000000000E+00  0.00000000000E+00 -0.15168930635E+04  0.30974697270E+04  0.27006210662E+04 0.  0.
        1    1    3    3  502    0 -0.12710071601E+04  0.64473527725E+02 -0.24076470799E+03  0.12952156892E+04  0.50400001928E-02 0. -1.
       -1    1    3    3    0  502  0.12710071601E+04 -0.64473527725E+02 -0.12761283555E+04  0.18022540378E+04  0.50400001928E-02 0.  1.
</event>
<event>
 5   0  0.1888149E-07  0.2700062E+04  0.7818609E-02  0.8334985E-01
        1   -1    0    0  501    0  0.00000000000E+00  0.00000000000E+00  0.78465710116E+03  0.78465710117E+03  0.50400001928E-02 0.  1.
       -1   -1    0    0    0  501  0.00000000000E+00  0.00000000000E+00 -0.23227765070E+04  0.23227765070E+04  0.50400001928E-02 0. -1.
    10030    2    1    2    0    0  0.00000000000E+00  0.00000000000E+00 -0.15381194058E+04  0.31074336082E+04  0.27000615405E+04 0.  0.
        1    1    3    3  502    0 -0.40676160397E+03  0.12410950723E+04 -0.11624016396E+04  0.17484134388E+04  0.50400001928E-02 0. -1.
       -1    1    3    3    0  502  0.40676160397E+03 -0.12410950723E+04 -0.37571776622E+03  0.13590201694E+04  0.50400001928E-02 0.  1.
</event>
<event>
 5   0  0.4983208E-07  0.2700943E+04  0.7818609E-02  0.8334699E-01
       -2   -1    0    0    0  501  0.00000000000E+00  0.00000000000E+00  0.15332922545E+04  0.15332922545E+04  0.25500000920E-02 0. -1.
        2   -1    0    0  501    0  0.00000000000E+00  0.00000000000E+00 -0.11894494274E+04  0.11894494275E+04  0.25500000920E-02 0.  1.
    10030    2    1    2    0    0  0.00000000000E+00  0.00000000000E+00  0.34384282706E+03  0.27227416820E+04  0.27009432384E+04 0.  0.
        4    1    3    3  502    0 -0.87234302601E+03 -0.98998085247E+03 -0.11802385932E+03  0.13247549538E+04  0.12699999809E+01 0.  1.
       -4    1    3    3    0  502  0.87234302601E+03  0.98998085247E+03  0.46186668637E+03  0.13979867282E+04  0.12699999809E+01 0. -1.
</event>
<event>
 5   0  0.1937896E-07  0.2699445E+04  0.7818609E-02  0.8335185E-01
        1   -1    0    0  501    0  0.00000000000E+00  0.00000000000E+00  0.63013476689E+03  0.63013476691E+03  0.50400001928E-02 0.  1.
       -1   -1    0    0    0  501  0.00000000000E+00  0.00000000000E+00 -0.28910502007E+04  0.28910502007E+04  0.50400001928E-02 0. -1.
    10030    2    1    2    0    0  0.00000000000E+00  0.00000000000E+00 -0.22609154338E+04  0.35211849676E+04  0.26994453092E+04 0.  0.
        3    1    3    3  502    0 -0.13214271338E+04 -0.87191496921E+02 -0.79036106736E+03  0.15422200407E+04  0.10100000352E+00 0.  1.
       -3    1    3    3    0  502  0.13214271338E+04  0.87191496921E+02 -0.14705543664E+04  0.19789649269E+04  0.10100000352E+00 0. -1.
</event>
<event>
 5   0  0.1937896E-07  0.2700473E+04  0.7818609E-02  0.8334852E-01
        1   -1    0    0  501    0  0.00000000000E+00  0.00000000000E+00  0.25039564364E+04  0.25039564364E+04  0.50400001928E-02 0. -1.
       -1   -1    0    0    0  501  0.00000000000E+00  0.00000000000E+00 -0.72810298957E+03  0.72810298958E+03  0.50400001928E-02 0.  1.
    10030    2    1    2    0    0  0.00000000000E+00  0.00000000000E+00  0.17758534468E+04  0.32320594260E+04  0.27004726750E+04 0.  0.
        3    1    3    3  502    0 -0.54452298880E+03 -0.94810049904E+03 -0.60336415429E+02  0.10950070022E+04  0.10100000352E+00 0. -1.
       -3    1    3    3    0  502  0.54452298880E+03  0.94810049904E+03  0.18361898623E+04  0.21370524238E+04  0.10100000352E+00 0.  1.
</event>
<event>
 5   0  0.1888149E-07  0.2701062E+04  0.7818609E-02  0.8334660E-01
        1   -1    0    0  501    0  0.00000000000E+00  0.00000000000E+00  0.12443413702E+04  0.12443413702E+04  0.50400001928E-02 0. -1.
       -1   -1    0    0    0  501  0.00000000000E+00  0.00000000000E+00 -0.14657828806E+04  0.14657828806E+04  0.50400001928E-02 0.  1.
    10030    2    1    2    0    0  0.00000000000E+00  0.00000000000E+00 -0.22144151040E+03  0.27101242509E+04  0.27010622193E+04 0.  0.
        1    1    3    3  502    0 -0.88359900694E+03  0.10093402086E+04 -0.26751216126E+03  0.13678733926E+04  0.50400001928E-02 0.  1.
       -1    1    3    3    0  502  0.88359900694E+03 -0.10093402086E+04  0.46070650856E+02  0.13422508583E+04  0.50400001928E-02 0. -1.
</event>
<event>
 5   0  0.1971600E-07  0.2700088E+04  0.7818609E-02  0.8334976E-01
        1   -1    0    0  501    0  0.00000000000E+00  0.00000000000E+00  0.12730151944E+04  0.12730151944E+04  0.50400001928E-02 0.  1.
       -1   -1    0    0    0  501  0.00000000000E+00  0.00000000000E+00 -0.14317335286E+04  0.14317335287E+04  0.50400001928E-02 0. -1.
    10030    2    1    2    0    0  0.00000000000E+00  0.00000000000E+00 -0.15871833422E+03  0.27047487231E+04  0.27000878033E+04 0.  0.
        5    1    3    3  502    0  0.11212586262E+04 -0.23949032087E+03  0.63462636372E+03  0.13104767194E+04  0.46999998093E+01 0.  1.
       -5    1    3    3    0  502 -0.11212586262E+04  0.23949032087E+03 -0.79334469794E+03  0.13942720037E+04  0.46999998093E+01 0. -1.
</event>
<event>
 5   0  0.1971600E-07  0.2700762E+04  0.7818609E-02  0.8334758E-01
       -1   -1    0    0    0  501  0.00000000000E+00  0.00000000000E+00  0.76365093470E+03  0.76365093471E+03  0.50400001928E-02 0. -1.
        1   -1    0    0  501    0  0.00000000000E+00  0.00000000000E+00 -0.23879091554E+04  0.23879091554E+04  0.50400001928E-02 0.  1.
    10030    2    1    2    0    0  0.00000000000E+00  0.00000000000E+00 -0.16242582207E+04  0.31515600901E+04  0.27007621580E+04 0.  0.
        5    1    3    3  502    0  0.10458819320E+04 -0.78862882653E+03 -0.42917018260E+03  0.13784098002E+04  0.46999998093E+01 0. -1.
       -5    1    3    3    0  502 -0.10458819320E+04  0.78862882653E+03 -0.11950880381E+04  0.17731502899E+04  0.46999998093E+01 0.  1.
</event>
<event>
 5   0  0.1964242E-07  0.2709781E+04  0.7818609E-02  0.8331838E-01
        1   -1    0    0  501    0  0.00000000000E+00  0.00000000000E+00  0.67646253206E+03  0.67646253208E+03  0.50400001928E-02 0.  1.
       -1   -1    0    0    0  501  0.00000000000E+00  0.00000000000E+00 -0.27137181081E+04  0.27137181081E+04  0.50400001928E-02 0. -1.
    10030    2    1    2    0    0  0.00000000000E+00  0.00000000000E+00 -0.20372555761E+04  0.33901806402E+04  0.27097812626E+04 0.  0.
        2    1    3    3  502    0  0.10797976249E+04  0.62912783759E+03 -0.16734678712E+04  0.20886022749E+04  0.25500000920E-02 0. -1.
       -2    1    3    3    0  502 -0.10797976249E+04 -0.62912783759E+03 -0.36378770490E+03  0.13015783653E+04  0.25500000920E-02 0.  1.
</event>
<event>
 5   0  0.1964242E-07  0.2700272E+04  0.7818609E-02  0.8334917E-01
       -1   -1    0    0    0  501  0.00000000000E+00  0.00000000000E+00  0.88269187032E+03  0.88269187034E+03  0.50400001928E-02 0.  1.
        1   -1    0    0  501    0  0.00000000000E+00  0.00000000000E+00 -0.20651235593E+04  0.20651235593E+04  0.50400001928E-02 0. -1.
    10030    2    1    2    0    0  0.00000000000E+00  0.00000000000E+00 -0.11824316890E+04  0.29478154297E+04  0.27002724137E+04 0.  0.
        2    1    3    3  502    0 -0.11175546602E+04 -0.30686946476E+03  0.16493679759E+03  0.11705987503E+04  0.25500000920E-02 0.  1.
       -2    1    3    3    0  502  0.11175546602E+04  0.30686946476E+03 -0.13473684866E+04  0.17772166794E+04  0.25500000920E-02 0. -1.
</event>
<event>
 5   0  0.1964242E-07  0.2699489E+04  0.7818609E-02  0.8335171E-01
        1   -1    0    0  501    0  0.00000000000E+00  0.00000000000E+00  0.88141127413E+03  0.88141127414E+03  0.50400001928E-02 0. -1.
       -1   -1    0    0    0  501  0.00000000000E+00  0.00000000000E+00 -0.20669243147E+04  0.20669243147E+04  0.50400001928E-02 0.  1.
    10030    2    1    2    0    0  0.00000000000E+00  0.00000000000E+00 -0.11855130406E+04  0.29483355889E+04  0.26994891322E+04 0.  0.
        2    1    3    3  502    0  0.27758943813E+03  0.72935865100E+03 -0.17955421110E+04  0.19578026996E+04  0.25500000920E-02 0.  1.
       -2    1    3    3    0  502 -0.27758943813E+03 -0.72935865100E+03  0.61002907046E+03  0.99053288929E+03  0.25500000920E-02 0. -1.
</event>
<event>
 5   0  0.4843887E-07  0.2699534E+04  0.7818609E-02  0.8335156E-01
       -2   -1    0    0    0  501  0.00000000000E+00  0.00000000000E+00  0.10551587699E+04  0.10551587699E+04  0.25500000920E-02 0. -1.
        2   -1    0    0  501    0  0.00000000000E+00  0.00000000000E+00 -0.17266325496E+04  0.17266325496E+04  0.25500000920E-02 0.  1.
    10030    2    1    2    0    0  0.00000000000E+00  0.00000000000E+00 -0.67147377970E+03  0.27817913196E+04  0.26995343874E+04 0.  0.
        5    1    3    3  502    0 -0.91186499065E+02  0.12917918920E+04  0.56394977307E+02  0.12962421661E+04  0.46999998093E+01 0. -1.
       -5    1    3    3    0  502  0.91186499065E+02 -0.12917918920E+04 -0.72786875701E+03  0.14855491534E+04  0.46999998093E+01 0.  1.
</event>
<event>
 5   0  0.1888149E-07  0.2695454E+04  0.7818609E-02  0.8336482E-01
        1   -1    0    0  501    0  0.00000000000E+00  0.00000000000E+00  0.27365512206E+04  0.27365512206E+04  0.50400001928E-02 0. -1.
       -1   -1    0    0    0  501  0.00000000000E+00  0.00000000000E+00 -0.66374341276E+03  0.66374341278E+03  0.50400001928E-02 0.  1.
    10030    2    1    2    0    0  0.00000000000E+00  0.00000000000E+00  0.20728078078E+04  0.34002946334E+04  0.26954538367E+04 0.  0.
        1    1    3    3  502    0  0.52656596497E+02 -0.90469102830E+03  0.22948203994E+04  0.24672736450E+04  0.50400001928E-02 0. -1.
       -1    1    3    3    0  502 -0.52656596497E+02  0.90469102830E+03 -0.22201259159E+03  0.93302098835E+03  0.50400001928E-02 0.  1.
</event>
<event>
 5   0  0.4843887E-07  0.2700002E+04  0.7818609E-02  0.8335004E-01
        2   -1    0    0  501    0  0.00000000000E+00  0.00000000000E+00  0.23564817930E+04  0.23564817930E+04  0.25500000920E-02 0. -1.
       -2   -1    0    0    0  501  0.00000000000E+00  0.00000000000E+00 -0.77339992991E+03  0.77339992992E+03  0.25500000920E-02 0.  1.
    10030    2    1    2    0    0  0.00000000000E+00  0.00000000000E+00  0.15830818631E+04  0.31298817229E+04  0.27000021138E+04 0.  0.
        5    1    3    3  502    0 -0.13256639573E+03 -0.18462664900E+03 -0.75105087610E+03  0.78470399342E+03  0.46999998093E+01 0.  1.
       -5    1    3    3    0  502  0.13256639573E+03  0.18462664900E+03  0.23341327392E+04  0.23451777295E+04  0.46999998093E+01 0. -1.
</event>
<event>
 5   0  0.1965415E-07  0.2699785E+04  0.7818609E-02  0.8335075E-01
       -1   -1    0    0    0  501  0.00000000000E+00  0.00000000000E+00  0.93624588055E+03  0.93624588056E+03  0.50400001928E-02 0.  1.
        1   -1    0    0  501    0  0.00000000000E+00  0.00000000000E+00 -0.19462944061E+04  0.19462944061E+04  0.50400001928E-02 0. -1.
    10030    2    1    2    0    0  0.00000000000E+00  0.00000000000E+00 -0.10100485255E+04  0.28825402866E+04  0.26997852656E+04 0.  0.
        4    1    3    3  502    0 -0.14201188970E+03  0.57837840253E+03 -0.17984399122E+04  0.18944858627E+04  0.12699999809E+01 0. -1.
       -4    1    3    3    0  502  0.14201188970E+03 -0.57837840253E+03  0.78839138662E+03  0.98805442397E+03  0.12699999809E+01 0.  1.
</event>
<event>
 5   0  0.4983208E-07  0.2700423E+04  0.7818609E-02  0.8334868E-01
       -2   -1    0    0    0  501  0.00000000000E+00  0.00000000000E+00  0.17122656509E+04  0.17122656509E+04  0.25500000920E-02 0.  1.
        2   -1    0    0  501    0  0.00000000000E+00  0.00000000000E+00 -0.10647129105E+04  0.10647129105E+04  0.25500000920E-02 0. -1.
    10030    2    1    2    0    0  0.00000000000E+00  0.00000000000E+00  0.64755274040E+03  0.27769785615E+04  0.27004231852E+04 0.  0.
        4    1    3    3  502    0 -0.10124005859E+04  0.42455888412E+03 -0.48455109292E+03  0.11999985696E+04  0.12699999809E+01 0. -1.
       -4    1    3    3    0  502  0.10124005859E+04 -0.42455888412E+03  0.11321038333E+04  0.15769799919E+04  0.12699999809E+01 0.  1.
</event>
<event>
 5   0  0.4992668E-07  0.2699475E+04  0.7818609E-02  0.8335175E-01
       -2   -1    0    0    0  501  0.00000000000E+00  0.00000000000E+00  0.84503460137E+03  0.84503460138E+03  0.25500000920E-02 0.  1.
        2   -1    0    0  501    0  0.00000000000E+00  0.00000000000E+00 -0.21558774661E+04  0.21558774661E+04  0.25500000920E-02 0. -1.
    10030    2    1    2    0    0  0.00000000000E+00  0.00000000000E+00 -0.13108428647E+04  0.30009120675E+04  0.26994748046E+04 0.  0.
        1    1    3    3  502    0  0.11385462120E+04  0.23067960429E+03  0.10855259792E+03  0.11667408552E+04  0.50400001928E-02 0.  1.
       -1    1    3    3    0  502 -0.11385462120E+04 -0.23067960429E+03 -0.14193954627E+04  0.18341712123E+04  0.50400001928E-02 0. -1.
</event>
<event>
 5   0  0.1937896E-07  0.2700169E+04  0.7818609E-02  0.8334950E-01
       -1   -1    0    0    0  501  0.00000000000E+00  0.00000000000E+00  0.10305899591E+04  0.10305899591E+04  0.50400001928E-02 0. -1.
        1   -1    0    0  501    0  0.00000000000E+00  0.00000000000E+00 -0.17686262408E+04  0.17686262408E+04  0.50400001928E-02 0.  1.
    10030    2    1    2    0    0  0.00000000000E+00  0.00000000000E+00 -0.73803628168E+03  0.27992162000E+04  0.27001692134E+04 0.  0.
        3    1    3    3  502    0 -0.86330647648E+03  0.47666945273E+03 -0.13249132742E+04  0.16516376824E+04  0.10100000352E+00 0.  1.
       -3    1    3    3    0  502  0.86330647648E+03 -0.47666945273E+03  0.58687699252E+03  0.11475785176E+04  0.10100000352E+00 0. -1.
</event>
<event>
 5   0  0.5043890E-07  0.2700247E+04  0.7818609E-02  0.8334925E-01
        2   -1    0    0  501    0  0.00000000000E+00  0.00000000000E+00  0.29586313755E+04  0.29586313755E+04  0.25500000920E-02 0.  1.
       -2   -1    0    0    0  501  0.00000000000E+00  0.00000000000E+00 -0.61610699052E+03  0.61610699052E+03  0.25500000920E-02 0. -1.
    10030    2    1    2    0    0  0.00000000000E+00  0.00000000000E+00  0.23425243850E+04  0.35747383660E+04  0.27002470056E+04 0.  0.
        3    1    3    3  502    0  0.23092734605E+03  0.25258925081E+03 -0.55772864005E+03  0.65436229637E+03  0.10100000352E+00 0. -1.
       -3    1    3    3    0  502 -0.23092734605E+03 -0.25258925081E+03  0.29002530250E+04  0.29203760697E+04  0.10100000352E+00 0.  1.
</event>
<event>
 5   0  0.1965415E-07  0.2698844E+04  0.7818609E-02  0.8335380E-01
       -1   -1    0    0    0  501  0.00000000000E+00  0.00000000000E+00  0.99272391359E+03  0.99272391361E+03  0.50400001928E-02 0.  1.
        1   -1    0    0  501    0  0.00000000000E+00  0.00000000000E+00 -0.18342866357E+04  0.18342866357E+04  0.50400001928E-02 0. -1.
    10030    2    1    2    0    0  0.00000000000E+00  0.00000000000E+00 -0.84156272211E+03  0.28270105493E+04  0.26988443510E+04 0.  0.
        4    1    3    3  502    0 -0.31426881470E+03 -0.51169742499E+03 -0.16866146126E+04  0.17903266760E+04  0.12699999809E+01 0. -1.
       -4    1    3    3    0  502  0.31426881470E+03  0.51169742499E+03  0.84505189048E+03  0.10366838733E+04  0.12699999809E+01 0.  1.
</event>
<event>
 5   0  0.4735120E-07  0.2700160E+04  0.7818609E-02  0.8334953E-01
        2   -1    0    0  501    0  0.00000000000E+00  0.00000000000E+00  0.18125631199E+04  0.18125631199E+04  0.25500000920E-02 0. -1.
       -2   -1    0    0    0  501  0.00000000000E+00  0.00000000000E+00 -0.10056014618E+04  0.10056014618E+04  0.25500000920E-02 0.  1.
    10030    2    1    2    0    0  0.00000000000E+00  0.00000000000E+00  0.80696165813E+03  0.28181645817E+04  0.27001600863E+04 0.  0.
        2    1    3    3  502    0  0.44438815488E+03 -0.16505134128E+03  0.17228438952E+04  0.17868726493E+04  0.25500000920E-02 0. -1.
       -2    1    3    3    0  502 -0.44438815488E+03  0.16505134128E+03 -0.91588223711E+03  0.10312919323E+04  0.25500000920E-02 0.  1.
</event>
<event>
 5   0  0.1965415E-07  0.2700194E+04  0.7818609E-02  0.8334942E-01
        1   -1    0    0  501    0  0.00000000000E+00  0.00000000000E+00  0.11579226679E+04  0.11579226679E+04  0.50400001928E-02 0.  1.
       -1   -1    0    0    0  501  0.00000000000E+00  0.00000000000E+00 -0.15741649389E+04  0.15741649389E+04  0.50400001928E-02 0. -1.
    10030    2    1    2    0    0  0.00000000000E+00  0.00000000000E+00 -0.41624227100E+03  0.27320876068E+04  0.27001935232E+04 0.  0.
        4    1    3    3  502    0  0.95772608611E+03  0.82641365993E+03  0.26921479359E+03  0.12933201504E+04  0.12699999809E+01 0.  1.
       -4    1    3    3    0  502 -0.95772608611E+03 -0.82641365993E+03 -0.68545706460E+03  0.14387674564E+04  0.12699999809E+01 0. -1.
</event>
<event>
 5   0  0.1965415E-07  0.2699441E+04  0.7818609E-02  0.8335186E-01
       -1   -1    0    0    0  501  0.00000000000E+00  0.00000000000E+00  0.10510221815E+04  0.10510221815E+04  0.50400001928E-02 0.  1.
        1   -1    0    0  501    0  0.00000000000E+00  0.00000000000E+00 -0.17333085907E+04  0.17333085907E+04  0.50400001928E-02 0. -1.
    10030    2    1    2    0    0  0.00000000000E+00  0.00000000000E+00 -0.68228640922E+03  0.27843307721E+04  0.26994412578E+04 0.  0.
        4    1    3    3  502    0  0.16570972989E+03  0.60623859650E+02  0.10390737285E+04  0.10539500904E+04  0.12699999809E+01 0.  1.
       -4    1    3    3    0  502 -0.16570972989E+03 -0.60623859650E+02 -0.17213601377E+04  0.17303806817E+04  0.12699999809E+01 0. -1.
</event>
<event>
 5   0  0.1964242E-07  0.2700197E+04  0.7818609E-02  0.8334941E-01
        1   -1    0    0  501    0  0.00000000000E+00  0.00000000000E+00  0.13854758405E+04  0.13854758405E+04  0.50400001928E-02 0.  1.
       -1   -1    0    0    0  501  0.00000000000E+00  0.00000000000E+00 -0.13156246001E+04  0.13156246001E+04  0.50400001928E-02 0. -1.
    10030    2    1    2    0    0  0.00000000000E+00  0.00000000000E+00  0.69851240422E+02  0.27011004406E+04  0.27001971029E+04 0.  0.
        2    1    3    3  502    0 -0.31241552618E+02 -0.33693516434E+03  0.13423689014E+04  0.13843610826E+04  0.25500000920E-02 0.  1.
       -2    1    3    3    0  502  0.31241552618E+02  0.33693516434E+03 -0.12725176609E+04  0.13167393580E+04  0.25500000920E-02 0. -1.
</event>
<event>
 5   0  0.4735120E-07  0.2699780E+04  0.7818609E-02  0.8335076E-01
       -2   -1    0    0    0  501  0.00000000000E+00  0.00000000000E+00  0.95145029564E+03  0.95145029564E+03  0.25500000920E-02 0. -1.
        2   -1    0    0  501    0  0.00000000000E+00  0.00000000000E+00 -0.19151845316E+04  0.19151845316E+04  0.25500000920E-02 0.  1.
    10030    2    1    2    0    0  0.00000000000E+00  0.00000000000E+00 -0.96373423596E+03  0.28666348272E+04  0.26997799087E+04 0.  0.
        2    1    3    3  502    0 -0.59618822638E+03  0.68353852588E+03  0.57969050533E+03  0.10764322550E+04  0.25500000920E-02 0. -1.
       -2    1    3    3    0  502  0.59618822638E+03 -0.68353852588E+03 -0.15434247413E+04  0.17902025722E+04  0.25500000920E-02 0.  1.
</event>
<event>
 5   0  0.4992668E-07  0.2680618E+04  0.7818609E-02  0.8341321E-01
       -2   -1    0    0    0  501  0.00000000000E+00  0.00000000000E+00  0.81652036335E+03  0.81652036336E+03  0.25500000920E-02 0.  1.
        2   -1    0    0  501    0  0.00000000000E+00  0.00000000000E+00 -0.22001028835E+04  0.22001028835E+04  0.25500000920E-02 0. -1.
    10030    2    1    2    0    0  0.00000000000E+00  0.00000000000E+00 -0.13835825202E+04  0.30166232469E+04  0.26806184405E+04 0.  0.
        1    1    3    3  502    0 -0.20353493988E+03  0.11869798170E+04 -0.29765167372E+02  0.12046715415E+04  0.50400001928E-02 0.  1.
       -1    1    3    3    0  502  0.20353493988E+03 -0.11869798170E+04 -0.13538173528E+04  0.18119517053E+04  0.50400001928E-02 0. -1.
</event>
<event>
 5   0  0.1641625E-07  0.2701132E+04  0.7818609E-02  0.8334638E-01
       -4   -1    0    0    0  501  0.00000000000E+00  0.00000000000E+00  0.88867163963E+03  0.88867254710E+03  0.12699999809E+01 0.  1.
        4   -1    0    0  501    0  0.00000000000E+00  0.00000000000E+00 -0.20525322431E+04  0.20525326360E+04  0.12699999809E+01 0. -1.
    10030    2    1    2    0    0  0.00000000000E+00  0.00000000000E+00 -0.11638606035E+04  0.29412051831E+04  0.27011324338E+04 0.  0.
        1    1    3    3  502    0  0.19616925516E+03  0.13178702931E+04 -0.82238422512E+03  0.15657523111E+04  0.50400001928E-02 0. -1.
       -1    1    3    3    0  502 -0.19616925516E+03 -0.13178702931E+04 -0.34147637834E+03  0.13754528720E+04  0.50400001928E-02 0.  1.
</event>
<event>
 5   0  0.4992668E-07  0.2698901E+04  0.7818609E-02  0.8335362E-01
       -2   -1    0    0    0  501  0.00000000000E+00  0.00000000000E+00  0.13210245295E+04  0.13210245295E+04  0.25500000920E-02 0. -1.
        2   -1    0    0  501    0  0.00000000000E+00  0.00000000000E+00 -0.13784878708E+04  0.13784878708E+04  0.25500000920E-02 0.  1.
    10030    2    1    2    0    0  0.00000000000E+00  0.00000000000E+00 -0.57463341339E+02  0.26995124003E+04  0.26989007325E+04 0.  0.
        1    1    3    3  502    0  0.38422627678E+03 -0.12581108075E+04 -0.32970459423E+03  0.13561628793E+04  0.50400001928E-02 0.  1.
       -1    1    3    3    0  502 -0.38422627678E+03  0.12581108075E+04  0.27224125289E+03  0.13433495210E+04  0.50400001928E-02 0. -1.
</event>
<event>
 5   0  0.1888149E-07  0.2698439E+04  0.7818609E-02  0.8335512E-01
        1   -1    0    0  501    0  0.00000000000E+00  0.00000000000E+00  0.17515673627E+04  0.17515673627E+04  0.50400001928E-02 0.  1.
       -1   -1    0    0    0  501  0.00000000000E+00  0.00000000000E+00 -0.10392938468E+04  0.10392938468E+04  0.50400001928E-02 0. -1.
    10030    2    1    2    0    0  0.00000000000E+00  0.00000000000E+00  0.71227351595E+03  0.27908612095E+04  0.26984389430E+04 0.  0.
        1    1    3    3  502    0 -0.36386519912E+03 -0.41342794238E+02  0.16991839405E+04  0.17381982550E+04  0.50400001928E-02 0.  1.
       -1    1    3    3    0  502  0.36386519912E+03  0.41342794238E+02 -0.98691042458E+03  0.10526629546E+04  0.50400001928E-02 0. -1.
</event>
<event>
 5   0  0.4843887E-07  0.2699083E+04  0.7818609E-02  0.8335303E-01
       -2   -1    0    0    0  501  0.00000000000E+00  0.00000000000E+00  0.14237570255E+04  0.14237570255E+04  0.25500000920E-02 0.  1.
        2   -1    0    0  501    0  0.00000000000E+00  0.00000000000E+00 -0.12791941959E+04  0.12791941959E+04  0.25500000920E-02 0. -1.
    10030    2    1    2    0    0  0.00000000000E+00  0.00000000000E+00  0.14456282959E+03  0.27029512214E+04  0.26990826022E+04 0.  0.
        5    1    3    3  502    0 -0.69487954445E+03 -0.10026497416E+04  0.65023559326E+03  0.13823865242E+04  0.46999998093E+01 0.  1.
       -5    1    3    3    0  502  0.69487954445E+03  0.10026497416E+04 -0.50567276367E+03  0.13205646972E+04  0.46999998093E+01 0. -1.
</event>
<event>
 5   0  0.4983208E-07  0.2699504E+04  0.7818609E-02  0.8335166E-01
        2   -1    0    0  501    0  0.00000000000E+00  0.00000000000E+00  0.21110147397E+04  0.21110147397E+04  0.25500000920E-02 0. -1.
       -2   -1    0    0    0  501  0.00000000000E+00  0.00000000000E+00 -0.86301163588E+03  0.86301163588E+03  0.25500000920E-02 0.  1.
    10030    2    1    2    0    0  0.00000000000E+00  0.00000000000E+00  0.12480031038E+04  0.29740263756E+04  0.26995038684E+04 0.  0.
        4    1    3    3  502    0  0.94575408205E+03  0.20456198246E+03  0.16607253330E+04  0.19220579161E+04  0.12699999809E+01 0. -1.
       -4    1    3    3    0  502 -0.94575408205E+03 -0.20456198246E+03 -0.41272222915E+03  0.10519684595E+04  0.12699999809E+01 0.  1.
</event>
<event>
 5   0  0.4983208E-07  0.2695285E+04  0.7818609E-02  0.8336536E-01
       -2   -1    0    0    0  501  0.00000000000E+00  0.00000000000E+00  0.81507994221E+03  0.81507994221E+03  0.25500000920E-02 0. -1.
        2   -1    0    0  501    0  0.00000000000E+00  0.00000000000E+00 -0.22281748016E+04  0.22281748016E+04  0.25500000920E-02 0.  1.
    10030    2    1    2    0    0  0.00000000000E+00  0.00000000000E+00 -0.14130948594E+04  0.30432547438E+04  0.26952852083E+04 0.  0.
        4    1    3    3  502    0 -0.40083434345E+03 -0.10198435728E+04 -0.15922925307E+04  0.19329113275E+04  0.12699999809E+01 0.  1.
       -4    1    3    3    0  502  0.40083434345E+03  0.10198435728E+04  0.17919767133E+03  0.11103434163E+04  0.12699999809E+01 0. -1.
</event>
<event>
 5   0  0.1964242E-07  0.2701120E+04  0.7818609E-02  0.8334642E-01
       -1   -1    0    0    0  501  0.00000000000E+00  0.00000000000E+00  0.13099583752E+04  0.13099583752E+04  0.50400001928E-02 0.  1.
        1   -1    0    0  501    0  0.00000000000E+00  0.00000000000E+00 -0.13924201600E+04  0.13924201600E+04  0.50400001928E-02 0. -1.
    10030    2    1    2    0    0  0.00000000000E+00  0.00000000000E+00 -0.82461784726E+02  0.27023785352E+04  0.27011201013E+04 0.  0.
        2    1    3    3  502    0 -0.82216187612E+03  0.23054421016E+03  0.10056368781E+04  0.13192445997E+04  0.25500000920E-02 0.  1.
       -2    1    3    3    0  502  0.82216187612E+03 -0.23054421016E+03 -0.10880986628E+04  0.13831339355E+04  0.25500000920E-02 0. -1.
</event>
<event>
 5   0  0.1937896E-07  0.2700341E+04  0.7818609E-02  0.8334894E-01
       -1   -1    0    0    0  501  0.00000000000E+00  0.00000000000E+00  0.11497447274E+04  0.11497447274E+04  0.50400001928E-02 0.  1.
        1   -1    0    0  501    0  0.00000000000E+00  0.00000000000E+00 -0.15855354715E+04  0.15855354715E+04  0.50400001928E-02 0. -1.
    10030    2    1    2    0    0  0.00000000000E+00  0.00000000000E+00 -0.43579074408E+03  0.27352801990E+04  0.27003414959E+04 0.  0.
        3    1    3    3  502    0  0.13190152326E+04  0.81455297166E+02  0.62315180185E+02  0.13229963496E+04  0.10100000352E+00 0. -1.
       -3    1    3    3    0  502 -0.13190152326E+04 -0.81455297166E+02 -0.49810592426E+03  0.14122838494E+04  0.10100000352E+00 0.  1.
</event>
<event>
 5   0  0.1971600E-07  0.2699984E+04  0.7818609E-02  0.8335010E-01
       -1   -1    0    0    0  501  0.00000000000E+00  0.00000000000E+00  0.14871815970E+04  0.14871815970E+04  0.50400001928E-02 0. -1.
        1   -1    0    0  501    0  0.00000000000E+00  0.00000000000E+00 -0.12254582397E+04  0.12254582397E+04  0.50400001928E-02 0.  1.
    10030    2    1    2    0    0  0.00000000000E+00  0.00000000000E+00  0.26172335724E+03  0.27126398367E+04  0.26999844014E+04 0.  0.
        5    1    3    3  502    0 -0.52048238664E+03 -0.11440456050E+04  0.62583161646E+03  0.14040760532E+04  0.46999998093E+01 0. -1.
       -5    1    3    3    0  502  0.52048238664E+03  0.11440456050E+04 -0.36410825922E+03  0.13085637835E+04  0.46999998093E+01 0.  1.
</event>
<event>
 5   0  0.4983208E-07  0.2708104E+04  0.7818609E-02  0.8332380E-01
        2   -1    0    0  501    0  0.00000000000E+00  0.00000000000E+00  0.14855142532E+04  0.14855142532E+04  0.25500000920E-02 0. -1.
       -2   -1    0    0    0  501  0.00000000000E+00  0.00000000000E+00 -0.12342232571E+04  0.12342232571E+04  0.25500000920E-02 0.  1.
    10030    2    1    2    0    0  0.00000000000E+00  0.00000000000E+00  0.25129099609E+03  0.27197375103E+04  0.27081035727E+04 0.  0.
        4    1    3    3  502    0  0.12765139544E+04 -0.26673474998E+03  0.49165499537E+03  0.13936863169E+04  0.12699999809E+01 0. -1.
       -4    1    3    3    0  502 -0.12765139544E+04  0.26673474998E+03 -0.24036399928E+03  0.13260511934E+04  0.12699999809E+01 0.  1.
</event>
<event>
 5   0  0.4843887E-07  0.2700472E+04  0.7818609E-02  0.8334852E-01
        2   -1    0    0  501    0  0.00000000000E+00  0.00000000000E+00  0.61886783425E+03  0.61886783426E+03  0.25500000920E-02 0. -1.
       -2   -1    0    0    0  501  0.00000000000E+00  0.00000000000E+00 -0.29459239459E+04  0.29459239459E+04  0.25500000920E-02 0.  1.
    10030    2    1    2    0    0  0.00000000000E+00  0.00000000000E+00 -0.23270561116E+04  0.35647917802E+04  0.27004722345E+04 0.  0.
        5    1    3    3  502    0 -0.50951399024E+03 -0.11428664724E+04 -0.18332137971E+04  0.22195592346E+04  0.46999998093E+01 0.  1.
       -5    1    3    3    0  502  0.50951399024E+03  0.11428664724E+04 -0.49384231451E+03  0.13452325455E+04  0.46999998093E+01 0. -1.
</event>
<event>
 5   0  0.4992668E-07  0.2693202E+04  0.7818609E-02  0.8337214E-01
       -2   -1    0    0    0  501  0.00000000000E+00  0.00000000000E+00  0.15818876083E+04  0.15818876083E+04  0.25500000920E-02 0.  1.
        2   -1    0    0  501    0  0.00000000000E+00  0.00000000000E+00 -0.11463100201E+04  0.11463100201E+04  0.25500000920E-02 0. -1.
    10030    2    1    2    0    0  0.00000000000E+00  0.00000000000E+00  0.43557758815E+03  0.27281976284E+04  0.26932015269E+04 0.  0.
        1    1    3    3  502    0 -0.54366533864E+03 -0.23939971064E+03 -0.10064051633E+04  0.11686468991E+04  0.50400001928E-02 0. -1.
       -1    1    3    3    0  502  0.54366533864E+03  0.23939971064E+03  0.14419827515E+04  0.15595507294E+04  0.50400001928E-02 0.  1.
</event>
<event>
 5   0  0.4992668E-07  0.2699312E+04  0.7818609E-02  0.8335228E-01
       -2   -1    0    0    0  501  0.00000000000E+00  0.00000000000E+00  0.11079530195E+04  0.11079530195E+04  0.25500000920E-02 0.  1.
        2   -1    0    0  501    0  0.00000000000E+00  0.00000000000E+00 -0.16440865514E+04  0.16440865514E+04  0.25500000920E-02 0. -1.
    10030    2    1    2    0    0  0.00000000000E+00  0.00000000000E+00 -0.53613353185E+03  0.27520395709E+04  0.26993115114E+04 0.  0.
        1    1    3    3  502    0 -0.13237096298E+04  0.15435753837E+03 -0.50503810556E+02  0.13336356581E+04  0.50400001928E-02 0.  1.
       -1    1    3    3    0  502  0.13237096298E+04 -0.15435753837E+03 -0.48562972130E+03  0.14184039128E+04  0.50400001928E-02 0. -1.
</event>
<event>
 5   0  0.1641625E-07  0.2699963E+04  0.7818609E-02  0.8335017E-01
       -3   -1    0    0    0  501  0.00000000000E+00  0.00000000000E+00  0.93312367878E+03  0.93312368424E+03  0.10100000352E+00 0. -1.
        3   -1    0    0  501    0  0.00000000000E+00  0.00000000000E+00 -0.19530637290E+04  0.19530637316E+04  0.10100000352E+00 0.  1.
    10030    2    1    2    0    0  0.00000000000E+00  0.00000000000E+00 -0.10199400502E+04  0.28861874158E+04  0.26999629800E+04 0.  0.
        1    1    3    3  502    0 -0.43697494112E+03  0.31706737224E+03  0.81269609901E+03  0.97568118106E+03  0.50400001928E-02 0. -1.
       -1    1    3    3    0  502  0.43697494112E+03 -0.31706737224E+03 -0.18326361492E+04  0.19105062347E+04  0.50400001928E-02 0.  1.
</event>
<event>
 5   0  0.1641625E-07  0.2700479E+04  0.7818609E-02  0.8334849E-01
       -3   -1    0    0    0  501  0.00000000000E+00  0.00000000000E+00  0.24582169146E+04  0.24582169167E+04  0.10100000352E+00 0.  1.
        3   -1    0    0  501    0  0.00000000000E+00  0.00000000000E+00 -0.74165424687E+03  0.74165425375E+03  0.10100000352E+00 0. -1.
    10030    2    1    2    0    0  0.00000000000E+00  0.00000000000E+00  0.17165626677E+04  0.31998711704E+04  0.27004792380E+04 0.  0.
        3    1    3    3  502    0 -0.68771866314E+03 -0.59789760751E+01  0.22351209534E+04  0.23385376615E+04  0.10100000352E+00 0.  1.
       -3    1    3    3    0  502  0.68771866314E+03  0.59789760751E+01 -0.51855828565E+03  0.86133350893E+03  0.10100000352E+00 0. -1.
</event>
<event>
 5   0  0.4983208E-07  0.2701051E+04  0.7818609E-02  0.8334664E-01
        2   -1    0    0  501    0  0.00000000000E+00  0.00000000000E+00  0.13141192330E+04  0.13141192330E+04  0.25500000920E-02 0.  1.
       -2   -1    0    0    0  501  0.00000000000E+00  0.00000000000E+00 -0.13879407891E+04  0.13879407891E+04  0.25500000920E-02 0. -1.
    10030    2    1    2    0    0  0.00000000000E+00  0.00000000000E+00 -0.73821556086E+02  0.27020600222E+04  0.27010514140E+04 0.  0.
        4    1    3    3  502    0 -0.82147261880E+03  0.10202841600E+04 -0.36585120509E+03  0.13600168189E+04  0.12699999809E+01 0. -1.
       -4    1    3    3    0  502  0.82147261880E+03 -0.10202841600E+04  0.29202964901E+03  0.13420432032E+04  0.12699999809E+01 0.  1.
</event>
<event>
 5   0  0.1965415E-07  0.2700445E+04  0.7818609E-02  0.8334860E-01
        1   -1    0    0  501    0  0.00000000000E+00  0.00000000000E+00  0.25181072280E+04  0.25181072280E+04  0.50400001928E-02 0. -1.
       -1   -1    0    0    0  501  0.00000000000E+00  0.00000000000E+00 -0.72399675453E+03  0.72399675455E+03  0.50400001928E-02 0.  1.
    10030    2    1    2    0    0  0.00000000000E+00  0.00000000000E+00  0.17941104734E+04  0.32421039825E+04  0.27004454897E+04 0.  0.
        4    1    3    3  502    0 -0.10191528197E+04  0.79747159676E+03  0.13596552678E+04  0.18770448790E+04  0.12699999809E+01 0. -1.
       -4    1    3    3    0  502  0.10191528197E+04 -0.79747159676E+03  0.43445520560E+03  0.13650591035E+04  0.12699999809E+01 0.  1.
</event>
<event>
 5   0  0.4983208E-07  0.2700229E+04  0.7818609E-02  0.8334931E-01
        2   -1    0    0  501    0  0.00000000000E+00  0.00000000000E+00  0.73332385833E+03  0.73332385834E+03  0.25500000920E-02 0. -1.
       -2   -1    0    0    0  501  0.00000000000E+00  0.00000000000E+00 -0.24856817255E+04  0.24856817255E+04  0.25500000920E-02 0.  1.
    10030    2    1    2    0    0  0.00000000000E+00  0.00000000000E+00 -0.17523578672E+04  0.32190055838E+04  0.27002294077E+04 0.  0.
        4    1    3    3  502    0 -0.96003575979E+03 -0.56150960425E+03  0.36279210608E+02  0.11127800725E+04  0.12699999809E+01 0. -1.
       -4    1    3    3    0  502  0.96003575979E+03  0.56150960425E+03 -0.17886370778E+04  0.21062255113E+04  0.12699999809E+01 0.  1.
</event>
<event>
 5   0  0.1937896E-07  0.2698482E+04  0.7818609E-02  0.8335498E-01
        1   -1    0    0  501    0  0.00000000000E+00  0.00000000000E+00  0.19358408347E+04  0.19358408347E+04  0.50400001928E-02 0. -1.
       -1   -1    0    0    0  501  0.00000000000E+00  0.00000000000E+00 -0.94039288768E+03  0.94039288770E+03  0.50400001928E-02 0.  1.
    10030    2    1    2    0    0  0.00000000000E+00  0.00000000000E+00  0.99544794698E+03  0.28762337224E+04  0.26984817603E+04 0.  0.
        3    1    3    3  502    0  0.65793685383E+03 -0.55249737831E+02  0.17518867666E+04  0.18721753898E+04  0.10100000352E+00 0. -1.
       -3    1    3    3    0  502 -0.65793685383E+03  0.55249737831E+02 -0.75643881959E+03  0.10040583325E+04  0.10100000352E+00 0.  1.
</event>
<event>
 5   0  0.1965415E-07  0.2699982E+04  0.7818609E-02  0.8335011E-01
       -1   -1    0    0    0  501  0.00000000000E+00  0.00000000000E+00  0.87098967906E+03  0.87098967907E+03  0.50400001928E-02 0. -1.
        1   -1    0    0  501    0  0.00000000000E+00  0.00000000000E+00 -0.20924190895E+04  0.20924190895E+04  0.50400001928E-02 0.  1.
    10030    2    1    2    0    0  0.00000000000E+00  0.00000000000E+00 -0.12214294105E+04  0.29634087686E+04  0.26999818009E+04 0.  0.
        4    1    3    3  502    0  0.12226201067E+04 -0.57240557160E+03 -0.61628474439E+03  0.14840001896E+04  0.12699999809E+01 0. -1.
       -4    1    3    3    0  502 -0.12226201067E+04  0.57240557160E+03 -0.60514466606E+03  0.14794085790E+04  0.12699999809E+01 0.  1.
</event>
<event>
 5   0  0.1964242E-07  0.2700510E+04  0.7818609E-02  0.8334840E-01
       -1   -1    0    0    0  501  0.00000000000E+00  0.00000000000E+00  0.16431301827E+04  0.16431301827E+04  0.50400001928E-02 0. -1.
        1   -1    0    0  501    0  0.00000000000E+00  0.00000000000E+00 -0.11095823082E+04  0.11095823082E+04  0.50400001928E-02 0.  1.
    10030    2    1    2    0    0  0.00000000000E+00  0.00000000000E+00  0.53354787441E+03  0.27527124909E+04  0.27005097155E+04 0.  0.
        2    1    3    3  502    0 -0.41863284369E+03 -0.32695434076E+03 -0.99860745219E+03  0.11310921458E+04  0.25500000920E-02 0.  1.
       -2    1    3    3    0  502  0.41863284369E+03  0.32695434076E+03  0.15321553266E+04  0.16216203451E+04  0.25500000920E-02 0. -1.
</event>
<event>
 5   0  0.4992668E-07  0.2702146E+04  0.7818609E-02  0.8334309E-01
       -2   -1    0    0    0  501  0.00000000000E+00  0.00000000000E+00  0.81945076914E+03  0.81945076914E+03  0.25500000920E-02 0.  1.
        2   -1    0    0  501    0  0.00000000000E+00  0.00000000000E+00 -0.22275881092E+04  0.22275881092E+04  0.25500000920E-02 0. -1.
    10030    2    1    2    0    0  0.00000000000E+00  0.00000000000E+00 -0.14081373400E+04  0.30470388783E+04  0.27021463982E+04 0.  0.
        1    1    3    3  502    0 -0.10179981891E+04  0.72121800663E+03 -0.12888360597E+04  0.17937597707E+04  0.50400001928E-02 0. -1.
       -1    1    3    3    0  502  0.10179981891E+04 -0.72121800663E+03 -0.11930128035E+03  0.12532791076E+04  0.50400001928E-02 0.  1.
</event>
<event>
 5   0  0.1937896E-07  0.2697621E+04  0.7818609E-02  0.8335777E-01
       -1   -1    0    0    0  501  0.00000000000E+00  0.00000000000E+00  0.17083059163E+04  0.17083059163E+04  0.50400001928E-02 0.  1.
        1   -1    0    0  501    0  0.00000000000E+00  0.00000000000E+00 -0.10649670627E+04  0.10649670627E+04  0.50400001928E-02 0. -1.
    10030    2    1    2    0    0  0.00000000000E+00  0.00000000000E+00  0.64333885354E+03  0.27732729790E+04  0.26976208288E+04 0.  0.
        3    1    3    3  502    0 -0.10715720866E+03  0.12939117221E+04 -0.54093408661E+02  0.12994677061E+04  0.10100000352E+00 0. -1.
       -3    1    3    3    0  502  0.10715720866E+03 -0.12939117221E+04  0.69743226221E+03  0.14738052730E+04  0.10100000352E+00 0.  1.
</event>
<event>
 5   0  0.4992668E-07  0.2699116E+04  0.7818609E-02  0.8335292E-01
        2   -1    0    0  501    0  0.00000000000E+00  0.00000000000E+00  0.97057007623E+03  0.97057007623E+03  0.25500000920E-02 0. -1.
       -2   -1    0    0    0  501  0.00000000000E+00  0.00000000000E+00 -0.18765334733E+04  0.18765334733E+04  0.25500000920E-02 0.  1.
    10030    2    1    2    0    0  0.00000000000E+00  0.00000000000E+00 -0.90596339704E+03  0.28471035495E+04  0.26991163267E+04 0.  0.
        1    1    3    3  502    0  0.42823283533E+03  0.32387338873E+03 -0.17590231884E+04  0.18391410796E+04  0.50400001928E-02 0.  1.
       -1    1    3    3    0  502 -0.42823283533E+03 -0.32387338873E+03  0.85305979135E+03  0.10079624700E+04  0.50400001928E-02 0. -1.
</event>
<event>
 5   0  0.4735120E-07  0.2702820E+04  0.7818609E-02  0.8334091E-01
       -2   -1    0    0    0  501  0.00000000000E+00  0.00000000000E+00  0.76018876578E+03  0.76018876579E+03  0.25500000920E-02 0. -1.
        2   -1    0    0  501    0  0.00000000000E+00  0.00000000000E+00 -0.24024405615E+04  0.24024405615E+04  0.25500000920E-02 0.  1.
    10030    2    1    2    0    0  0.00000000000E+00  0.00000000000E+00 -0.16422517958E+04  0.31626293273E+04  0.27028195096E+04 0.  0.
        2    1    3    3  502    0  0.47567092165E+03 -0.77890847475E+03 -0.19873493220E+04  0.21868970175E+04  0.25500000920E-02 0.  1.
       -2    1    3    3    0  502 -0.47567092165E+03  0.77890847475E+03  0.34509752623E+03  0.97573230979E+03  0.25500000920E-02 0. -1.
</event>
<event>
 5   0  0.4983208E-07  0.2700247E+04  0.7818609E-02  0.8334925E-01
        2   -1    0    0  501    0  0.00000000000E+00  0.00000000000E+00  0.14621768157E+04  0.14621768157E+04  0.25500000920E-02 0.  1.
       -2   -1    0    0    0  501  0.00000000000E+00  0.00000000000E+00 -0.12466577248E+04  0.12466577248E+04  0.25500000920E-02 0. -1.
    10030    2    1    2    0    0  0.00000000000E+00  0.00000000000E+00  0.21551909090E+03  0.27088345405E+04  0.27002474126E+04 0.  0.
        4    1    3    3  502    0  0.53736501605E+03  0.10685596537E+04 -0.52053202787E+03  0.13044294151E+04  0.12699999809E+01 0. -1.
       -4    1    3    3    0  502 -0.53736501605E+03 -0.10685596537E+04  0.73605111877E+03  0.14044051254E+04  0.12699999809E+01 0.  1.
</event>
<event>
 5   0  0.1965415E-07  0.2695733E+04  0.7818609E-02  0.8336391E-01
       -1   -1    0    0    0  501  0.00000000000E+00  0.00000000000E+00  0.82955225961E+03  0.82955225962E+03  0.50400001928E-02 0.  1.
        1   -1    0    0  501    0  0.00000000000E+00  0.00000000000E+00 -0.21900303215E+04  0.21900303215E+04  0.50400001928E-02 0. -1.
    10030    2    1    2    0    0  0.00000000000E+00  0.00000000000E+00 -0.13604780618E+04  0.30195825811E+04  0.26957333709E+04 0.  0.
        4    1    3    3  502    0  0.11434606467E+04  0.70621396962E+03 -0.79503264141E+03  0.15615117468E+04  0.12699999809E+01 0. -1.
       -4    1    3    3    0  502 -0.11434606467E+04 -0.70621396962E+03 -0.56544542043E+03  0.14580708343E+04  0.12699999809E+01 0.  1.
</event>
<event>
 5   0  0.1888149E-07  0.2681452E+04  0.7818609E-02  0.8341048E-01
       -1   -1    0    0    0  501  0.00000000000E+00  0.00000000000E+00  0.10125944268E+04  0.10125944268E+04  0.50400001928E-02 0.  1.
        1   -1    0    0  501    0  0.00000000000E+00  0.00000000000E+00 -0.17751887935E+04  0.17751887935E+04  0.50400001928E-02 0. -1.
    10030    2    1    2    0    0  0.00000000000E+00  0.00000000000E+00 -0.76259436669E+03  0.27877832204E+04  0.26814520536E+04 0.  0.
        1    1    3    3  502    0 -0.99529819129E+03 -0.38049363568E+03  0.46469809063E+03  0.11624707359E+04  0.50400001928E-02 0. -1.
       -1    1    3    3    0  502  0.99529819129E+03  0.38049363568E+03 -0.12272924573E+04  0.16253124845E+04  0.50400001928E-02 0.  1.
</event>
<event>
 5   0  0.4983208E-07  0.2698826E+04  0.7818609E-02  0.8335386E-01
       -2   -1    0    0    0  501  0.00000000000E+00  0.00000000000E+00  0.11404890912E+04  0.11404890912E+04  0.25500000920E-02 0.  1.
        2   -1    0    0  501    0  0.00000000000E+00  0.00000000000E+00 -0.15966091321E+04  0.15966091321E+04  0.25500000920E-02 0. -1.
    10030    2    1    2    0    0  0.00000000000E+00  0.00000000000E+00 -0.45612004090E+03  0.27370982233E+04  0.26988258914E+04 0.  0.
        4    1    3    3  502    0 -0.87799530754E+03  0.24803206427E+03  0.78028187071E+03  0.12005153375E+04  0.12699999809E+01 0.  1.
       -4    1    3    3    0  502  0.87799530754E+03 -0.24803206427E+03 -0.12364019116E+04  0.15365828858E+04  0.12699999809E+01 0. -1.
</event>
<event>
 5   0  0.4843887E-07  0.2701238E+04  0.7818609E-02  0.8334603E-01
        2   -1    0    0  501    0  0.00000000000E+00  0.00000000000E+00  0.21793356669E+04  0.21793356669E+04  0.25500000920E-02 0. -1.
       -2   -1    0    0    0  501  0.00000000000E+00  0.00000000000E+00 -0.83703110946E+03  0.83703110947E+03  0.25500000920E-02 0.  1.
    10030    2    1    2    0    0  0.00000000000E+00  0.00000000000E+00  0.13423045575E+04  0.30163667764E+04  0.27012380504E+04 0.  0.
        5    1    3    3  502    0 -0.12375119479E+04  0.34991938462E+03  0.11319291748E+04  0.17132323671E+04  0.46999998093E+01 0. -1.
       -5    1    3    3    0  502  0.12375119479E+04 -0.34991938462E+03  0.21037538265E+03  0.13031344093E+04  0.46999998093E+01 0.  1.
</event>
<event>
 5   0  0.1964242E-07  0.2700735E+04  0.7818609E-02  0.8334766E-01
       -1   -1    0    0    0  501  0.00000000000E+00  0.00000000000E+00  0.10232753342E+04  0.10232753342E+04  0.50400001928E-02 0. -1.
        1   -1    0    0  501    0  0.00000000000E+00  0.00000000000E+00 -0.17820157908E+04  0.17820157908E+04  0.50400001928E-02 0.  1.
    10030    2    1    2    0    0  0.00000000000E+00  0.00000000000E+00 -0.75874045659E+03  0.28052911250E+04  0.27007353102E+04 0.  0.
        2    1    3    3  502    0 -0.10295787736E+04 -0.47190789189E+03  0.38446470714E+03  0.11960529339E+04  0.25500000920E-02 0. -1.
       -2    1    3    3    0  502  0.10295787736E+04  0.47190789189E+03 -0.11432051637E+04  0.16092381912E+04  0.25500000920E-02 0.  1.
</event>
<event>
 5   0  0.1937896E-07  0.2700070E+04  0.7818609E-02  0.8334982E-01
       -1   -1    0    0    0  501  0.00000000000E+00  0.00000000000E+00  0.12948012832E+04  0.12948012832E+04  0.50400001928E-02 0. -1.
        1   -1    0    0  501    0  0.00000000000E+00  0.00000000000E+00 -0.14076244752E+04  0.14076244753E+04  0.50400001928E-02 0.  1.
    10030    2    1    2    0    0  0.00000000000E+00  0.00000000000E+00 -0.11282319207E+03  0.27024257584E+04  0.27000696115E+04 0.  0.
        3    1    3    3  502    0 -0.67502519184E+03  0.62376627343E+03  0.93331459362E+03  0.13098929400E+04  0.10100000352E+00 0. -1.
       -3    1    3    3    0  502  0.67502519184E+03 -0.62376627343E+03 -0.10461377857E+04  0.13925328184E+04  0.10100000352E+00 0.  1.
</event>
<event>
 5   0  0.4735120E-07  0.2700226E+04  0.7818609E-02  0.8334932E-01
       -2   -1    0    0    0  501  0.00000000000E+00  0.00000000000E+00  0.12479819339E+04  0.12479819339E+04  0.25500000920E-02 0. -1.
        2   -1    0    0  501    0  0.00000000000E+00  0.00000000000E+00 -0.14606019533E+04  0.14606019533E+04  0.25500000920E-02 0.  1.
    10030    2    1    2    0    0  0.00000000000E+00  0.00000000000E+00 -0.21262001933E+03  0.27085838872E+04  0.27002258057E+04 0.  0.
        2    1    3    3  502    0  0.11765227105E+04  0.40071786006E+03 -0.63522226619E+03  0.13958108106E+04  0.25500000920E-02 0. -1.
       -2    1    3    3    0  502 -0.11765227105E+04 -0.40071786006E+03  0.42260224686E+03  0.13127730766E+04  0.25500000920E-02 0.  1.
</event>
<event>
 5   0  0.4983208E-07  0.2699494E+04  0.7818609E-02  0.8335169E-01
        2   -1    0    0  501    0  0.00000000000E+00  0.00000000000E+00  0.15937726528E+04  0.15937726528E+04  0.25500000920E-02 0.  1.
       -2   -1    0    0    0  501  0.00000000000E+00  0.00000000000E+00 -0.11430849927E+04  0.11430849927E+04  0.25500000920E-02 0. -1.
    10030    2    1    2    0    0  0.00000000000E+00  0.00000000000E+00  0.45068766004E+03  0.27368576455E+04  0.26994944721E+04 0.  0.
        4    1    3    3  502    0 -0.89227531881E+03  0.48936014910E+03 -0.67360051044E+03  0.12203965997E+04  0.12699999809E+01 0. -1.
       -4    1    3    3    0  502  0.89227531881E+03 -0.48936014910E+03  0.11242881705E+04  0.15164610458E+04  0.12699999809E+01 0.  1.
</event>
<event>
 5   0  0.1888149E-07  0.2700385E+04  0.7818609E-02  0.8334880E-01
        1   -1    0    0  501    0  0.00000000000E+00  0.00000000000E+00  0.16272129189E+04  0.16272129189E+04  0.50400001928E-02 0. -1.
       -1   -1    0    0    0  501  0.00000000000E+00  0.00000000000E+00 -0.11203325985E+04  0.11203325985E+04  0.50400001928E-02 0.  1.
    10030    2    1    2    0    0  0.00000000000E+00  0.00000000000E+00  0.50688032035E+03  0.27475455174E+04  0.27003849190E+04 0.  0.
        1    1    3    3  502    0 -0.49826137161E+03  0.65681733471E+03 -0.83450777448E+03  0.11730629273E+04  0.50400001928E-02 0.  1.
       -1    1    3    3    0  502  0.49826137161E+03 -0.65681733471E+03  0.13413880948E+04  0.15744825901E+04  0.50400001928E-02 0. -1.
</event>
<event>
 5   0  0.1888149E-07  0.2700092E+04  0.7818609E-02  0.8334975E-01
        1   -1    0    0  501    0  0.00000000000E+00  0.00000000000E+00  0.12728451650E+04  0.12728451650E+04  0.50400001928E-02 0.  1.
       -1   -1    0    0    0  501  0.00000000000E+00  0.00000000000E+00 -0.14319292128E+04  0.14319292128E+04  0.50400001928E-02 0. -1.
    10030    2    1    2    0    0  0.00000000000E+00  0.00000000000E+00 -0.15908404774E+03  0.27047743778E+04  0.27000919801E+04 0.  0.
        1    1    3    3  502    0 -0.11190549412E+04 -0.75520559625E+03 -0.81718591743E+02  0.13525152060E+04  0.50400001928E-02 0. -1.
       -1    1    3    3    0  502  0.11190549412E+04  0.75520559625E+03 -0.77365455999E+02  0.13522591719E+04  0.50400001928E-02 0.  1.
</event>
<event>
 5   0  0.5043890E-07  0.2700727E+04  0.7818609E-02  0.8334769E-01
       -2   -1    0    0    0  501  0.00000000000E+00  0.00000000000E+00  0.14516400452E+04  0.14516400452E+04  0.25500000920E-02 0.  1.
        2   -1    0    0  501    0  0.00000000000E+00  0.00000000000E+00 -0.12561526575E+04  0.12561526575E+04  0.25500000920E-02 0. -1.
    10030    2    1    2    0    0  0.00000000000E+00  0.00000000000E+00  0.19548738771E+03  0.27077927027E+04  0.27007269396E+04 0.  0.
        3    1    3    3  502    0  0.10013208293E+04 -0.50122162324E+03 -0.65895926964E+03  0.12992666578E+04  0.10100000352E+00 0. -1.
       -3    1    3    3    0  502 -0.10013208293E+04  0.50122162324E+03  0.85444665734E+03  0.14085260449E+04  0.10100000352E+00 0.  1.
</event>
<event>
 5   0  0.1965415E-07  0.2700449E+04  0.7818609E-02  0.8334859E-01
        1   -1    0    0  501    0  0.00000000000E+00  0.00000000000E+00  0.22771781857E+04  0.22771781857E+04  0.50400001928E-02 0.  1.
       -1   -1    0    0    0  501  0.00000000000E+00  0.00000000000E+00 -0.80059882946E+03  0.80059882948E+03  0.50400001928E-02 0. -1.
    10030    2    1    2    0    0  0.00000000000E+00  0.00000000000E+00  0.14765793562E+04  0.30777770152E+04  0.27004489923E+04 0.  0.
        4    1    3    3  502    0  0.11795811552E+04  0.39468220103E+03  0.13961367885E+03  0.12516706171E+04  0.12699999809E+01 0. -1.
       -4    1    3    3    0  502 -0.11795811552E+04 -0.39468220103E+03  0.13369656774E+04  0.18261063980E+04  0.12699999809E+01 0.  1.
</event>
<event>
 5   0  0.1937896E-07  0.2699535E+04  0.7818609E-02  0.8335156E-01
       -1   -1    0    0    0  501  0.00000000000E+00  0.00000000000E+00  0.10203946141E+04  0.10203946141E+04  0.50400001928E-02 0.  1.
        1   -1    0    0  501    0  0.00000000000E+00  0.00000000000E+00 -0.17854582715E+04  0.17854582715E+04  0.50400001928E-02 0. -1.
    10030    2    1    2    0    0  0.00000000000E+00  0.00000000000E+00 -0.76506365737E+03  0.28058528857E+04  0.26995347777E+04 0.  0.
        3    1    3    3  502    0  0.12111888451E+03 -0.10719432095E+04 -0.12257405734E+04  0.16328416923E+04  0.10100000352E+00 0. -1.
       -3    1    3    3    0  502 -0.12111888451E+03  0.10719432095E+04  0.46067691601E+03  0.11730111934E+04  0.10100000352E+00 0.  1.
</event>
<event>
 5   0  0.1888149E-07  0.2700267E+04  0.7818609E-02  0.8334918E-01
       -1   -1    0    0    0  501  0.00000000000E+00  0.00000000000E+00  0.10176075132E+04  0.10176075132E+04  0.50400001928E-02 0. -1.
        1   -1    0    0  501    0  0.00000000000E+00  0.00000000000E+00 -0.17913202382E+04  0.17913202382E+04  0.50400001928E-02 0.  1.
    10030    2    1    2    0    0  0.00000000000E+00  0.00000000000E+00 -0.77371272505E+03  0.28089277514E+04  0.27002673445E+04 0.  0.
        1    1    3    3  502    0 -0.13329349597E+04  0.10727172668E+03 -0.19325391087E+03  0.13511365232E+04  0.50400001928E-02 0. -1.
       -1    1    3    3    0  502  0.13329349597E+04 -0.10727172668E+03 -0.58045881418E+03  0.14577912283E+04  0.50400001928E-02 0.  1.
</event>
<event>
 5   0  0.1937896E-07  0.2699857E+04  0.7818609E-02  0.8335051E-01
        1   -1    0    0  501    0  0.00000000000E+00  0.00000000000E+00  0.22066164609E+04  0.22066164609E+04  0.50400001928E-02 0.  1.
       -1   -1    0    0    0  501  0.00000000000E+00  0.00000000000E+00 -0.82583770879E+03  0.82583770880E+03  0.50400001928E-02 0. -1.
    10030    2    1    2    0    0  0.00000000000E+00  0.00000000000E+00  0.13807787521E+04  0.30324541697E+04  0.26998570942E+04 0.  0.
        3    1    3    3  502    0 -0.53104712914E+03 -0.59266154044E+03  0.19151556537E+04  0.20739045163E+04  0.10100000352E+00 0.  1.
       -3    1    3    3    0  502  0.53104712914E+03  0.59266154044E+03 -0.53437690155E+03  0.95854965338E+03  0.10100000352E+00 0. -1.
</event>
<event>
 5   0  0.4843887E-07  0.2700823E+04  0.7818609E-02  0.8334738E-01
       -2   -1    0    0    0  501  0.00000000000E+00  0.00000000000E+00  0.11703916380E+04  0.11703916380E+04  0.25500000920E-02 0. -1.
        2   -1    0    0  501    0  0.00000000000E+00  0.00000000000E+00 -0.15581203876E+04  0.15581203876E+04  0.25500000920E-02 0.  1.
    10030    2    1    2    0    0  0.00000000000E+00  0.00000000000E+00 -0.38772874964E+03  0.27285120256E+04  0.27008228914E+04 0.  0.
        5    1    3    3  502    0  0.10211399773E+03  0.14833217724E+03 -0.15459271935E+04  0.15563877026E+04  0.46999998093E+01 0.  1.
       -5    1    3    3    0  502 -0.10211399773E+03 -0.14833217724E+03  0.11581984438E+04  0.11721243230E+04  0.46999998093E+01 0. -1.
</event>
<event>
 5   0  0.1965415E-07  0.2699337E+04  0.7818609E-02  0.8335220E-01
       -1   -1    0    0    0  501  0.00000000000E+00  0.00000000000E+00  0.10367641191E+04  0.10367641191E+04  0.50400001928E-02 0.  1.
        1   -1    0    0  501    0  0.00000000000E+00  0.00000000000E+00 -0.17570095593E+04  0.17570095593E+04  0.50400001928E-02 0. -1.
    10030    2    1    2    0    0  0.00000000000E+00  0.00000000000E+00 -0.72024544024E+03  0.27937736784E+04  0.26993365614E+04 0.  0.
        4    1    3    3  502    0 -0.21257105339E+03  0.30727697390E+03 -0.17024141789E+04  0.17429346634E+04  0.12699999809E+01 0. -1.
       -4    1    3    3    0  502  0.21257105339E+03 -0.30727697390E+03  0.98216873864E+03  0.10508390150E+04  0.12699999809E+01 0.  1.
</event>
<event>
 5   0  0.1888149E-07  0.2699309E+04  0.7818609E-02  0.8335229E-01
        1   -1    0    0  501    0  0.00000000000E+00  0.00000000000E+00  0.14213001004E+04  0.14213001004E+04  0.50400001928E-02 0.  1.
       -1   -1    0    0    0  501  0.00000000000E+00  0.00000000000E+00 -0.12816206261E+04  0.12816206261E+04  0.50400001928E-02 0. -1.
    10030    2    1    2    0    0  0.00000000000E+00  0.00000000000E+00  0.13967947435E+03  0.27029207265E+04  0.26993091890E+04 0.  0.
        1    1    3    3  502    0 -0.50029550125E+03  0.84471436483E+03  0.99721577184E+03  0.13993845942E+04  0.50400001928E-02 0.  1.
       -1    1    3    3    0  502  0.50029550125E+03 -0.84471436483E+03 -0.85753629750E+03  0.13035361323E+04  0.50400001928E-02 0. -1.
</event>
<event>
 5   0  0.1937896E-07  0.2700104E+04  0.7818609E-02  0.8334971E-01
       -1   -1    0    0    0  501  0.00000000000E+00  0.00000000000E+00  0.13242912111E+04  0.13242912111E+04  0.50400001928E-02 0. -1.
        1   -1    0    0  501    0  0.00000000000E+00  0.00000000000E+00 -0.13763141934E+04  0.13763141934E+04  0.50400001928E-02 0.  1.
    10030    2    1    2    0    0  0.00000000000E+00  0.00000000000E+00 -0.52022982258E+02  0.27006054045E+04  0.27001042869E+04 0.  0.
        3    1    3    3  502    0 -0.44938943331E+03 -0.22573028694E+02 -0.12991107866E+04  0.13748269893E+04  0.10100000352E+00 0.  1.
       -3    1    3    3    0  502  0.44938943331E+03  0.22573028694E+02  0.12470878043E+04  0.13257784152E+04  0.10100000352E+00 0. -1.
</event>
<event>
 5   0  0.4843887E-07  0.2701512E+04  0.7818609E-02  0.8334514E-01
        2   -1    0    0  501    0  0.00000000000E+00  0.00000000000E+00  0.15640508333E+04  0.15640508333E+04  0.25500000920E-02 0. -1.
       -2   -1    0    0    0  501  0.00000000000E+00  0.00000000000E+00 -0.11665492315E+04  0.11665492315E+04  0.25500000920E-02 0.  1.
    10030    2    1    2    0    0  0.00000000000E+00  0.00000000000E+00  0.39750160182E+03  0.27306000648E+04  0.27015123895E+04 0.  0.
        5    1    3    3  502    0  0.68794551410E+03  0.32719453002E+03 -0.92869414454E+03  0.12011745065E+04  0.46999998093E+01 0.  1.
       -5    1    3    3    0  502 -0.68794551410E+03 -0.32719453002E+03  0.13261957464E+04  0.15294255583E+04  0.46999998093E+01 0. -1.
</event>
<event>
 5   0  0.4983208E-07  0.2697627E+04  0.7818609E-02  0.8335775E-01
        2   -1    0    0  501    0  0.00000000000E+00  0.00000000000E+00  0.27270538430E+04  0.27270538430E+04  0.25500000920E-02 0. -1.
       -2   -1    0    0    0  501  0.00000000000E+00  0.00000000000E+00 -0.66712963862E+03  0.66712963862E+03  0.25500000920E-02 0.  1.
    10030    2    1    2    0    0  0.00000000000E+00  0.00000000000E+00  0.20599242044E+04  0.33941834816E+04  0.26976274352E+04 0.  0.
        4    1    3    3  502    0  0.83674944137E+03 -0.57607147094E+02 -0.29912087056E+03  0.89047353646E+03  0.12699999809E+01 0.  1.
       -4    1    3    3    0  502 -0.83674944137E+03  0.57607147094E+02  0.23590450749E+04  0.25037099452E+04  0.12699999809E+01 0. -1.
</event>
<event>
 5   0  0.1971600E-07  0.2699536E+04  0.7818609E-02  0.8335156E-01
       -1   -1    0    0    0  501  0.00000000000E+00  0.00000000000E+00  0.10675064461E+04  0.10675064461E+04  0.50400001928E-02 0. -1.
        1   -1    0    0  501    0  0.00000000000E+00  0.00000000000E+00 -0.17066627573E+04  0.17066627573E+04  0.50400001928E-02 0.  1.
    10030    2    1    2    0    0  0.00000000000E+00  0.00000000000E+00 -0.63915631117E+03  0.27741692034E+04  0.26995358821E+04 0.  0.
        5    1    3    3  502    0  0.87688613807E+03 -0.83820349084E+03  0.28867847728E+03  0.12469449645E+04  0.46999998093E+01 0. -1.
       -5    1    3    3    0  502 -0.87688613807E+03  0.83820349084E+03 -0.92783478844E+03  0.15272242389E+04  0.46999998093E+01 0.  1.
</event>
<event>
 5   0  0.4983208E-07  0.2700103E+04  0.7818609E-02  0.8334972E-01
        2   -1    0    0  501    0  0.00000000000E+00  0.00000000000E+00  0.20074878230E+04  0.20074878230E+04  0.25500000920E-02 0. -1.
       -2   -1    0    0    0  501  0.00000000000E+00  0.00000000000E+00 -0.90792022295E+03  0.90792022295E+03  0.25500000920E-02 0.  1.
    10030    2    1    2    0    0  0.00000000000E+00  0.00000000000E+00  0.10995676001E+04  0.29154080460E+04  0.27001028068E+04 0.  0.
        4    1    3    3  502    0  0.12074141740E+04 -0.54221654095E+03  0.83706235418E+03  0.15660532439E+04  0.12699999809E+01 0.  1.
       -4    1    3    3    0  502 -0.12074141740E+04  0.54221654095E+03  0.26250524589E+03  0.13493548021E+04  0.12699999809E+01 0. -1.
</event>
<event>
 5   0  0.1937896E-07  0.2700160E+04  0.7818609E-02  0.8334953E-01
       -1   -1    0    0    0  501  0.00000000000E+00  0.00000000000E+00  0.10074535908E+04  0.10074535908E+04  0.50400001928E-02 0.  1.
        1   -1    0    0  501    0  0.00000000000E+00  0.00000000000E+00 -0.18092305170E+04  0.18092305170E+04  0.50400001928E-02 0. -1.
    10030    2    1    2    0    0  0.00000000000E+00  0.00000000000E+00 -0.80177692620E+03  0.28166841078E+04  0.27001598330E+04 0.  0.
        3    1    3    3  502    0 -0.98535638563E+03 -0.55349760824E+03 -0.11712911137E+04  0.16276393004E+04  0.10100000352E+00 0. -1.
       -3    1    3    3    0  502  0.98535638563E+03  0.55349760824E+03  0.36951418750E+03  0.11890448074E+04  0.10100000352E+00 0.  1.
</event>
<event>
 5   0  0.4735120E-07  0.2699911E+04  0.7818609E-02  0.8335034E-01
        2   -1    0    0  501    0  0.00000000000E+00  0.00000000000E+00  0.13415236668E+04  0.13415236668E+04  0.25500000920E-02 0. -1.
       -2   -1    0    0    0  501  0.00000000000E+00  0.00000000000E+00 -0.13584407222E+04  0.13584407222E+04  0.25500000920E-02 0.  1.
    10030    2    1    2    0    0  0.00000000000E+00  0.00000000000E+00 -0.16917055429E+02  0.26999643890E+04  0.26999113903E+04 0.  0.
        2    1    3    3  502    0 -0.89527156593E+03  0.10090203581E+04  0.43955467689E+02  0.13496537863E+04  0.25500000920E-02 0.  1.
       -2    1    3    3    0  502  0.89527156593E+03 -0.10090203581E+04 -0.60872523118E+02  0.13503106027E+04  0.25500000920E-02 0. -1.
</event>
<event>
 5   0  0.4992668E-07  0.2696387E+04  0.7818609E-02  0.8336178E-01
       -2   -1    0    0    0  501  0.00000000000E+00  0.00000000000E+00  0.10139195217E+04  0.10139195217E+04  0.25500000920E-02 0. -1.
        2   -1    0    0  501    0  0.00000000000E+00  0.00000000000E+00 -0.17926719445E+04  0.17926719445E+04  0.25500000920E-02 0.  1.
    10030    2    1    2    0    0  0.00000000000E+00  0.00000000000E+00 -0.77875242275E+03  0.28065914662E+04  0.26963865306E+04 0.  0.
        1    1    3    3  502    0  0.10640221973E+04  0.63729487640E+03  0.16074874794E+03  0.12506510928E+04  0.50400001928E-02 0. -1.
       -1    1    3    3    0  502 -0.10640221973E+04 -0.63729487640E+03 -0.93950117070E+03  0.15559403734E+04  0.50400001928E-02 0.  1.
</event>
<event>
 5   0  0.1965415E-07  0.2704138E+04  0.7818609E-02  0.8333664E-01
        1   -1    0    0  501    0  0.00000000000E+00  0.00000000000E+00  0.25361110007E+04  0.25361110007E+04  0.50400001928E-02 0.  1.
       -1   -1    0    0    0  501  0.00000000000E+00  0.00000000000E+00 -0.72082429425E+03  0.72082429427E+03  0.50400001928E-02 0. -1.
    10030    2    1    2    0    0  0.00000000000E+00  0.00000000000E+00  0.18152867064E+04  0.32569352950E+04  0.27041378828E+04 0.  0.
        4    1    3    3  502    0  0.51453368300E+03 -0.69937268203E+03 -0.34068049942E+03  0.93270138570E+03  0.12699999809E+01 0. -1.
       -4    1    3    3    0  502 -0.51453368300E+03  0.69937268203E+03  0.21559672059E+04  0.23242339093E+04  0.12699999809E+01 0.  1.
</event>
<event>
 5   0  0.4992668E-07  0.2699895E+04  0.7818609E-02  0.8335039E-01
       -2   -1    0    0    0  501  0.00000000000E+00  0.00000000000E+00  0.12258354189E+04  0.12258354189E+04  0.25500000920E-02 0. -1.
        2   -1    0    0  501    0  0.00000000000E+00  0.00000000000E+00 -0.14866256981E+04  0.14866256981E+04  0.25500000920E-02 0.  1.
    10030    2    1    2    0    0  0.00000000000E+00  0.00000000000E+00 -0.26079027917E+03  0.27124611170E+04  0.26998951352E+04 0.  0.
        1    1    3    3  502    0  0.17076320408E+03 -0.12368852283E+04 -0.64592404296E+03  0.14057962189E+04  0.50400001928E-02 0.  1.
       -1    1    3    3    0  502 -0.17076320408E+03  0.12368852283E+04  0.38513376380E+03  0.13066648981E+04  0.50400001928E-02 0. -1.
</event>
<event>
 5   0  0.1964242E-07  0.2699210E+04  0.7818609E-02  0.8335261E-01
        1   -1    0    0  501    0  0.00000000000E+00  0.00000000000E+00  0.11432358248E+04  0.11432358248E+04  0.50400001928E-02 0.  1.
       -1   -1    0    0    0  501  0.00000000000E+00  0.00000000000E+00 -0.15932262971E+04  0.15932262971E+04  0.50400001928E-02 0. -1.
    10030    2    1    2    0    0  0.00000000000E+00  0.00000000000E+00 -0.44999047228E+03  0.27364621219E+04  0.26992097954E+04 0.  0.
        2    1    3    3  502    0  0.11208178574E+04 -0.76355380410E+02 -0.98322810156E+03  0.14929167135E+04  0.25500000920E-02 0. -1.
       -2    1    3    3    0  502 -0.11208178574E+04  0.76355380410E+02  0.53323762928E+03  0.12435454085E+04  0.25500000920E-02 0.  1.
</event>
<event>
 5   0  0.4983208E-07  0.2700709E+04  0.7818609E-02  0.8334775E-01
       -2   -1    0    0    0  501  0.00000000000E+00  0.00000000000E+00  0.26424280450E+04  0.26424280450E+04  0.25500000920E-02 0.  1.
        2   -1    0    0  501    0  0.00000000000E+00  0.00000000000E+00 -0.69006895406E+03  0.69006895407E+03  0.25500000920E-02 0. -1.
    10030    2    1    2    0    0  0.00000000000E+00  0.00000000000E+00  0.19523590910E+04  0.33324969991E+04  0.27007092085E+04 0.  0.
        4    1    3    3  502    0 -0.19998069027E+03 -0.55441241418E+03  0.24753411149E+04  0.25445393786E+04  0.12699999809E+01 0.  1.
       -4    1    3    3    0  502  0.19998069027E+03  0.55441241418E+03 -0.52298202389E+03  0.78795762049E+03  0.12699999809E+01 0. -1.
</event>
<event>
 5   0  0.5043890E-07  0.2700079E+04  0.7818609E-02  0.8334979E-01
       -2   -1    0    0    0  501  0.00000000000E+00  0.00000000000E+00  0.14490482097E+04  0.14490482097E+04  0.25500000920E-02 0. -1.
        2   -1    0    0  501    0  0.00000000000E+00  0.00000000000E+00 -0.12577958170E+04  0.12577958170E+04  0.25500000920E-02 0.  1.
    10030    2    1    2    0    0  0.00000000000E+00  0.00000000000E+00  0.19125239263E+03  0.27068440267E+04  0.27000790928E+04 0.  0.
        3    1    3    3  502    0  0.48660603583E+02  0.15007773541E+03 -0.12485222594E+04  0.12584510414E+04  0.10100000352E+00 0.  1.
       -3    1    3    3    0  502 -0.48660603583E+02 -0.15007773541E+03  0.14397746521E+04  0.14483929853E+04  0.10100000352E+00 0. -1.
</event>
<event>
 5   0  0.1964242E-07  0.2701167E+04  0.7818609E-02  0.8334627E-01
        1   -1    0    0  501    0  0.00000000000E+00  0.00000000000E+00  0.13122592914E+04  0.13122592915E+04  0.50400001928E-02 0. -1.
       -1   -1    0    0    0  501  0.00000000000E+00  0.00000000000E+00 -0.13900264938E+04  0.13900264938E+04  0.50400001928E-02 0.  1.
    10030    2    1    2    0    0  0.00000000000E+00  0.00000000000E+00 -0.77767202306E+02  0.27022857852E+04  0.27011665493E+04 0.  0.
        2    1    3    3  502    0  0.80391636515E+03  0.10168098586E+04 -0.41837093869E+03  0.13620638946E+04  0.25500000920E-02 0. -1.
       -2    1    3    3    0  502 -0.80391636515E+03 -0.10168098586E+04  0.34060373638E+03  0.13402218906E+04  0.25500000920E-02 0.  1.
</event>
<event>
 5   0  0.1965415E-07  0.2699392E+04  0.7818609E-02  0.8335202E-01
        1   -1    0    0  501    0  0.00000000000E+00  0.00000000000E+00  0.12992507039E+04  0.12992507039E+04  0.50400001928E-02 0. -1.
       -1   -1    0    0    0  501  0.00000000000E+00  0.00000000000E+00 -0.14020997910E+04  0.14020997910E+04  0.50400001928E-02 0.  1.
    10030    2    1    2    0    0  0.00000000000E+00  0.00000000000E+00 -0.10284908713E+03  0.27013504949E+04  0.26993918873E+04 0.  0.
        4    1    3    3  502    0  0.20390674585E+03 -0.98079405166E+03 -0.95659318574E+03  0.13851379241E+04  0.12699999809E+01 0.  1.
       -4    1    3    3    0  502 -0.20390674585E+03  0.98079405166E+03  0.85374409861E+03  0.13162125708E+04  0.12699999809E+01 0. -1.
</event>
<event>
 5   0  0.1937896E-07  0.2699710E+04  0.7818609E-02  0.8335099E-01
        1   -1    0    0  501    0  0.00000000000E+00  0.00000000000E+00  0.14678363095E+04  0.14678363095E+04  0.50400001928E-02 0.  1.
       -1   -1    0    0    0  501  0.00000000000E+00  0.00000000000E+00 -0.12413564515E+04  0.12413564515E+04  0.50400001928E-02 0. -1.
    10030    2    1    2    0    0  0.00000000000E+00  0.00000000000E+00  0.22647985798E+03  0.27091927610E+04  0.26997096678E+04 0.  0.
        3    1    3    3  502    0 -0.12645352170E+03  0.98444552241E+03 -0.80484228498E+03  0.12778476410E+04  0.10100000352E+00 0. -1.
       -3    1    3    3    0  502  0.12645352170E+03 -0.98444552241E+03  0.10313221430E+04  0.14313451200E+04  0.10100000352E+00 0.  1.
</event>
<event>
 5   0  0.1937896E-07  0.2702731E+04  0.7818609E-02  0.8334119E-01
       -1   -1    0    0    0  501  0.00000000000E+00  0.00000000000E+00  0.85795746708E+03  0.85795746710E+03  0.50400001928E-02 0. -1.
        1   -1    0    0  501    0  0.00000000000E+00  0.00000000000E+00 -0.21285308151E+04  0.21285308151E+04  0.50400001928E-02 0.  1.
    10030    2    1    2    0    0  0.00000000000E+00  0.00000000000E+00 -0.12705733480E+04  0.29864882822E+04  0.27027311422E+04 0.  0.
        3    1    3    3  502    0 -0.11281013370E+04  0.73706565131E+03 -0.52308541175E+03  0.14455091695E+04  0.10100000352E+00 0.  1.
       -3    1    3    3    0  502  0.11281013370E+04 -0.73706565131E+03 -0.74748793626E+03  0.15409791127E+04  0.10100000352E+00 0. -1.
</event>
<event>
 5   0  0.5043890E-07  0.2700055E+04  0.7818609E-02  0.8334987E-01
        2   -1    0    0  501    0  0.00000000000E+00  0.00000000000E+00  0.13413122670E+04  0.13413122670E+04  0.25500000920E-02 0.  1.
       -2   -1    0    0    0  501  0.00000000000E+00  0.00000000000E+00 -0.13587994112E+04  0.13587994112E+04  0.25500000920E-02 0. -1.
    10030    2    1    2    0    0  0.00000000000E+00  0.00000000000E+00 -0.17487144226E+02  0.27001116782E+04  0.27000550502E+04 0.  0.
        3    1    3    3  502    0  0.40363944529E+03  0.11500642277E+04  0.57178714608E+03  0.13462960596E+04  0.10100000352E+00 0.  1.
       -3    1    3    3    0  502 -0.40363944529E+03 -0.11500642277E+04 -0.58927429031E+03  0.13538156185E+04  0.10100000352E+00 0. -1.
</event>
<event>
 5   0  0.4843887E-07  0.2700268E+04  0.7818609E-02  0.8334918E-01
        2   -1    0    0  501    0  0.00000000000E+00  0.00000000000E+00  0.26390868291E+04  0.26390868291E+04  0.25500000920E-02 0. -1.
       -2   -1    0    0    0  501  0.00000000000E+00  0.00000000000E+00 -0.69071663433E+03  0.69071663434E+03  0.25500000920E-02 0.  1.
    10030    2    1    2    0    0  0.00000000000E+00  0.00000000000E+00  0.19483701948E+04  0.33298034635E+04  0.27002675218E+04 0.  0.
        5    1    3    3  502    0 -0.13156236806E+04 -0.15012736547E+03  0.12991239290E+04  0.18550334142E+04  0.46999998093E+01 0.  1.
       -5    1    3    3    0  502  0.13156236806E+04  0.15012736547E+03  0.64924626575E+03  0.14747700493E+04  0.46999998093E+01 0. -1.
</event>
<event>
 5   0  0.4735120E-07  0.2699970E+04  0.7818609E-02  0.8335015E-01
       -2   -1    0    0    0  501  0.00000000000E+00  0.00000000000E+00  0.10437325700E+04  0.10437325700E+04  0.25500000920E-02 0. -1.
        2   -1    0    0  501    0  0.00000000000E+00  0.00000000000E+00 -0.17460985763E+04  0.17460985763E+04  0.25500000920E-02 0.  1.
    10030    2    1    2    0    0  0.00000000000E+00  0.00000000000E+00 -0.70236600637E+03  0.27898311463E+04  0.26999703365E+04 0.  0.
        2    1    3    3  502    0 -0.58016082958E+03 -0.78721015200E+03  0.61047662211E+03  0.11528087950E+04  0.25500000920E-02 0. -1.
       -2    1    3    3    0  502  0.58016082958E+03  0.78721015200E+03 -0.13128426285E+04  0.16370223513E+04  0.25500000920E-02 0.  1.
</event>
<event>
 5   0  0.1937896E-07  0.2699661E+04  0.7818609E-02  0.8335115E-01
        1   -1    0    0  501    0  0.00000000000E+00  0.00000000000E+00  0.16513299091E+04  0.16513299092E+04  0.50400001928E-02 0. -1.
       -1   -1    0    0    0  501  0.00000000000E+00  0.00000000000E+00 -0.11033784423E+04  0.11033784423E+04  0.50400001928E-02 0.  1.
    10030    2    1    2    0    0  0.00000000000E+00  0.00000000000E+00  0.54795146686E+03  0.27547083515E+04  0.26996605882E+04 0.  0.
        3    1    3    3  502    0 -0.45417734250E+03  0.60750376409E+03 -0.86535056920E+03  0.11507256405E+04  0.10100000352E+00 0.  1.
       -3    1    3    3    0  502  0.45417734250E+03 -0.60750376409E+03  0.14133020361E+04  0.16039827110E+04  0.10100000352E+00 0. -1.
</event>
<event>
 5   0  0.4735120E-07  0.2704189E+04  0.7818609E-02  0.8333647E-01
        2   -1    0    0  501    0  0.00000000000E+00  0.00000000000E+00  0.60005565665E+03  0.60005565666E+03  0.25500000920E-02 0. -1.
       -2   -1    0    0    0  501  0.00000000000E+00  0.00000000000E+00 -0.30466501770E+04  0.30466501770E+04  0.25500000920E-02 0.  1.
    10030    2    1    2    0    0  0.00000000000E+00  0.00000000000E+00 -0.24465945203E+04  0.36467058337E+04  0.27041891003E+04 0.  0.
        2    1    3    3  502    0  0.50897375417E+03 -0.12521672700E+04 -0.12696705151E+04  0.18544649825E+04  0.25500000920E-02 0.  1.
       -2    1    3    3    0  502 -0.50897375417E+03  0.12521672700E+04 -0.11769240052E+04  0.17922408511E+04  0.25500000920E-02 0. -1.
</event>
<event>
 5   0  0.1888149E-07  0.2701720E+04  0.7818609E-02  0.8334447E-01
       -1   -1    0    0    0  501  0.00000000000E+00  0.00000000000E+00  0.11769320201E+04  0.11769320201E+04  0.50400001928E-02 0. -1.
        1   -1    0    0  501    0  0.00000000000E+00  0.00000000000E+00 -0.15504907761E+04  0.15504907761E+04  0.50400001928E-02 0.  1.
    10030    2    1    2    0    0  0.00000000000E+00  0.00000000000E+00 -0.37355875607E+03  0.27274227962E+04  0.27017196311E+04 0.  0.
        1    1    3    3  502    0 -0.89089051471E+03 -0.10094514531E+04 -0.29802803639E+03  0.13789484602E+04  0.50400001928E-02 0. -1.
       -1    1    3    3    0  502  0.89089051471E+03  0.10094514531E+04 -0.75530719681E+02  0.13484743360E+04  0.50400001928E-02 0.  1.
</event>
<event>
 5   0  0.1971600E-07  0.2699783E+04  0.7818609E-02  0.8335075E-01
        1   -1    0    0  501    0  0.00000000000E+00  0.00000000000E+00  0.87207495775E+03  0.87207495776E+03  0.50400001928E-02 0.  1.
       -1   -1    0    0    0  501  0.00000000000E+00  0.00000000000E+00 -0.20895073884E+04  0.20895073884E+04  0.50400001928E-02 0. -1.
    10030    2    1    2    0    0  0.00000000000E+00  0.00000000000E+00 -0.12174324307E+04  0.29615823462E+04  0.26997830042E+04 0.  0.
        5    1    3    3  502    0 -0.39548048027E+03  0.76911012595E+03  0.52825008022E+03  0.10134127655E+04  0.46999998093E+01 0.  1.
       -5    1    3    3    0  502  0.39548048027E+03 -0.76911012595E+03 -0.17456825109E+04  0.19481695806E+04  0.46999998093E+01 0. -1.
</event>
<event>
 5   0  0.4983208E-07  0.2699775E+04  0.7818609E-02  0.8335078E-01
        2   -1    0    0  501    0  0.00000000000E+00  0.00000000000E+00  0.11149359047E+04  0.11149359047E+04  0.25500000920E-02 0. -1.
       -2   -1    0    0    0  501  0.00000000000E+00  0.00000000000E+00 -0.16343510805E+04  0.16343510805E+04  0.25500000920E-02 0.  1.
    10030    2    1    2    0    0  0.00000000000E+00  0.00000000000E+00 -0.51941517575E+03  0.27492869852E+04  0.26997753244E+04 0.  0.
        4    1    3    3  502    0 -0.65049350247E+03 -0.93877126392E+03  0.47304516270E+03  0.12362065449E+04  0.12699999809E+01 0. -1.
       -4    1    3    3    0  502  0.65049350247E+03  0.93877126392E+03 -0.99246033845E+03  0.15130804404E+04  0.12699999809E+01 0.  1.
</event>
<event>
 5   0  0.1937896E-07  0.2699612E+04  0.7818609E-02  0.8335131E-01
        1   -1    0    0  501    0  0.00000000000E+00  0.00000000000E+00  0.21033715660E+04  0.21033715660E+04  0.50400001928E-02 0. -1.
       -1   -1    0    0    0  501  0.00000000000E+00  0.00000000000E+00 -0.86621706373E+03  0.86621706374E+03  0.50400001928E-02 0.  1.
    10030    2    1    2    0    0  0.00000000000E+00  0.00000000000E+00  0.12371545022E+04  0.29695886297E+04  0.26996120772E+04 0.  0.
        3    1    3    3  502    0  0.11447275268E+04  0.15912529991E+03 -0.14847806372E+03  0.11652329026E+04  0.10100000352E+00 0.  1.
       -3    1    3    3    0  502 -0.11447275268E+04 -0.15912529991E+03  0.13856325659E+04  0.18043557271E+04  0.10100000352E+00 0. -1.
</event>
<event>
 5   0  0.1888149E-07  0.2700575E+04  0.7818609E-02  0.8334818E-01
        1   -1    0    0  501    0  0.00000000000E+00  0.00000000000E+00  0.14181644812E+04  0.14181644812E+04  0.50400001928E-02 0. -1.
       -1   -1    0    0    0  501  0.00000000000E+00  0.00000000000E+00 -0.12856590850E+04  0.12856590850E+04  0.50400001928E-02 0.  1.
    10030    2    1    2    0    0  0.00000000000E+00  0.00000000000E+00  0.13250539617E+03  0.27038235662E+04  0.27005747901E+04 0.  0.
        1    1    3    3  502    0 -0.75988454928E+02  0.32913387366E+03  0.13751787543E+04  0.14160578937E+04  0.50400001928E-02 0. -1.
       -1    1    3    3    0  502  0.75988454928E+02 -0.32913387366E+03 -0.12426733581E+04  0.12877656724E+04  0.50400001928E-02 0.  1.
</event>
<event>
 5   0  0.1964242E-07  0.2700334E+04  0.7818609E-02  0.8334897E-01
       -1   -1    0    0    0  501  0.00000000000E+00  0.00000000000E+00  0.13693142944E+04  0.13693142944E+04  0.50400001928E-02 0.  1.
        1   -1    0    0  501    0  0.00000000000E+00  0.00000000000E+00 -0.13312874504E+04  0.13312874504E+04  0.50400001928E-02 0. -1.
    10030    2    1    2    0    0  0.00000000000E+00  0.00000000000E+00  0.38026844018E+02  0.27006017448E+04  0.27003340059E+04 0.  0.
        2    1    3    3  502    0  0.84013102735E+03  0.42473678149E+03 -0.94893038959E+03  0.13366713736E+04  0.25500000920E-02 0. -1.
       -2    1    3    3    0  502 -0.84013102735E+03 -0.42473678149E+03  0.98695723361E+03  0.13639303713E+04  0.25500000920E-02 0.  1.
</event>
<event>
 5   0  0.1965415E-07  0.2700171E+04  0.7818609E-02  0.8334950E-01
        1   -1    0    0  501    0  0.00000000000E+00  0.00000000000E+00  0.10618263496E+04  0.10618263496E+04  0.50400001928E-02 0.  1.
       -1   -1    0    0    0  501  0.00000000000E+00  0.00000000000E+00 -0.17165993935E+04  0.17165993935E+04  0.50400001928E-02 0. -1.
    10030    2    1    2    0    0  0.00000000000E+00  0.00000000000E+00 -0.65477304389E+03  0.27784257432E+04  0.27001707115E+04 0.  0.
        4    1    3    3  502    0  0.58763360745E+03 -0.10368041665E+04 -0.98016376353E+03  0.15430485256E+04  0.12699999809E+01 0.  1.
       -4    1    3    3    0  502 -0.58763360745E+03  0.10368041665E+04  0.32539071964E+03  0.12353772175E+04  0.12699999809E+01 0. -1.
</event>
<event>
 5   0  0.1641625E-07  0.2697633E+04  0.7818609E-02  0.8335773E-01
        3   -1    0    0  501    0  0.00000000000E+00  0.00000000000E+00  0.81465084073E+03  0.81465084699E+03  0.10100000352E+00 0.  1.
       -3   -1    0    0    0  501  0.00000000000E+00  0.00000000000E+00 -0.22332342249E+04  0.22332342272E+04  0.10100000352E+00 0. -1.
    10030    2    1    2    0    0  0.00000000000E+00  0.00000000000E+00 -0.14185833842E+04  0.30478850742E+04  0.26976331492E+04 0.  0.
        1    1    3    3  502    0  0.40106706484E+03  0.78046028001E+03 -0.18666621329E+04  0.20626198286E+04  0.50400001928E-02 0. -1.
       -1    1    3    3    0  502 -0.40106706484E+03 -0.78046028001E+03  0.44807874864E+03  0.98526524560E+03  0.50400001928E-02 0.  1.
</event>
<event>
 5   0  0.4992668E-07  0.2699795E+04  0.7818609E-02  0.8335071E-01
        2   -1    0    0  501    0  0.00000000000E+00  0.00000000000E+00  0.13352726368E+04  0.13352726368E+04  0.25500000920E-02 0.  1.
       -2   -1    0    0    0  501  0.00000000000E+00  0.00000000000E+00 -0.13646827710E+04  0.13646827710E+04  0.25500000920E-02 0. -1.
    10030    2    1    2    0    0  0.00000000000E+00  0.00000000000E+00 -0.29410134224E+02  0.26999554078E+04  0.26997952233E+04 0.  0.
        1    1    3    3  502    0 -0.11753133611E+03 -0.95050945662E+03 -0.96604575644E+03  0.13603404889E+04  0.50400001928E-02 0. -1.
       -1    1    3    3    0  502  0.11753133611E+03  0.95050945662E+03  0.93663562222E+03  0.13396149189E+04  0.50400001928E-02 0.  1.
</event>
<event>
 5   0  0.1964242E-07  0.2699238E+04  0.7818609E-02  0.8335252E-01
       -1   -1    0    0    0  501  0.00000000000E+00  0.00000000000E+00  0.16452796517E+04  0.16452796517E+04  0.50400001928E-02 0. -1.
        1   -1    0    0  501    0  0.00000000000E+00  0.00000000000E+00 -0.11070889251E+04  0.11070889252E+04  0.50400001928E-02 0.  1.
    10030    2    1    2    0    0  0.00000000000E+00  0.00000000000E+00  0.53819072658E+03  0.27523685769E+04  0.26992375821E+04 0.  0.
        2    1    3    3  502    0 -0.85406232347E+03  0.13966190642E+03  0.13251170362E+04  0.15826759176E+04  0.25500000920E-02 0. -1.
       -2    1    3    3    0  502  0.85406232347E+03 -0.13966190642E+03 -0.78692630961E+03  0.11696926593E+04  0.25500000920E-02 0.  1.
</event>
<event>
 5   0  0.5043890E-07  0.2699040E+04  0.7818609E-02  0.8335317E-01
        2   -1    0    0  501    0  0.00000000000E+00  0.00000000000E+00  0.11232538693E+04  0.11232538693E+04  0.25500000920E-02 0. -1.
       -2   -1    0    0    0  501  0.00000000000E+00  0.00000000000E+00 -0.16213642426E+04  0.16213642426E+04  0.25500000920E-02 0.  1.
    10030    2    1    2    0    0  0.00000000000E+00  0.00000000000E+00 -0.49811037337E+03  0.27446181119E+04  0.26990395766E+04 0.  0.
        3    1    3    3  502    0  0.11244548586E+02  0.21438846669E+03  0.11057782115E+04  0.11264254604E+04  0.10100000352E+00 0. -1.
       -3    1    3    3    0  502 -0.11244548586E+02 -0.21438846669E+03 -0.16038885849E+04  0.16181926515E+04  0.10100000352E+00 0.  1.
</event>
<event>
 5   0  0.1965415E-07  0.2698821E+04  0.7818609E-02  0.8335387E-01
       -1   -1    0    0    0  501  0.00000000000E+00  0.00000000000E+00  0.19748207502E+04  0.19748207503E+04  0.50400001928E-02 0. -1.
        1   -1    0    0  501    0  0.00000000000E+00  0.00000000000E+00 -0.92206304881E+03  0.92206304883E+03  0.50400001928E-02 0.  1.
    10030    2    1    2    0    0  0.00000000000E+00  0.00000000000E+00  0.10527577014E+04  0.28968837991E+04  0.26988214034E+04 0.  0.
        4    1    3    3  502    0  0.42446365850E+03  0.87082782955E+03 -0.48191930058E+03  0.10820158646E+04  0.12699999809E+01 0.  1.
       -4    1    3    3    0  502 -0.42446365850E+03 -0.87082782955E+03  0.15346770020E+04  0.18148679345E+04  0.12699999809E+01 0. -1.
</event>
<event>
 5   0  0.4992668E-07  0.2703084E+04  0.7818609E-02  0.8334005E-01
        2   -1    0    0  501    0  0.00000000000E+00  0.00000000000E+00  0.16727102657E+04  0.16727102657E+04  0.25500000920E-02 0. -1.
       -2   -1    0    0    0  501  0.00000000000E+00  0.00000000000E+00 -0.10920392128E+04  0.10920392128E+04  0.25500000920E-02 0.  1.
    10030    2    1    2    0    0  0.00000000000E+00  0.00000000000E+00  0.58067105295E+03  0.27647494785E+04  0.27030835738E+04 0.  0.
        1    1    3    3  502    0 -0.43252887517E+03  0.12042382753E+04 -0.15478701908E+03  0.12888871451E+04  0.50400001928E-02 0.  1.
       -1    1    3    3    0  502  0.43252887517E+03 -0.12042382753E+04  0.73545807203E+03  0.14758623334E+04  0.50400001928E-02 0. -1.
</event>
<event>
 5   0  0.1937896E-07  0.2699375E+04  0.7818609E-02  0.8335208E-01
       -1   -1    0    0    0  501  0.00000000000E+00  0.00000000000E+00  0.98794573534E+03  0.98794573535E+03  0.50400001928E-02 0. -1.
        1   -1    0    0  501    0  0.00000000000E+00  0.00000000000E+00 -0.18438832422E+04  0.18438832422E+04  0.50400001928E-02 0.  1.
    10030    2    1    2    0    0  0.00000000000E+00  0.00000000000E+00 -0.85593750689E+03  0.28318289776E+04  0.26993751763E+04 0.  0.
        3    1    3    3  502    0  0.64239392828E+03 -0.11421013086E+03 -0.16674431550E+04  0.17905531543E+04  0.10100000352E+00 0.  1.
       -3    1    3    3    0  502 -0.64239392828E+03  0.11421013086E+03  0.81150564809E+03  0.10412758233E+04  0.10100000352E+00 0. -1.
</event>
<event>
 5   0  0.4983208E-07  0.2700373E+04  0.7818609E-02  0.8334884E-01
       -2   -1    0    0    0  501  0.00000000000E+00  0.00000000000E+00  0.11479949162E+04  0.11479949162E+04  0.25500000920E-02 0.  1.
        2   -1    0    0  501    0  0.00000000000E+00  0.00000000000E+00 -0.15879897149E+04  0.15879897149E+04  0.25500000920E-02 0. -1.
    10030    2    1    2    0    0  0.00000000000E+00  0.00000000000E+00 -0.43999479866E+03  0.27359846312E+04  0.27003733962E+04 0.  0.
        4    1    3    3  502    0 -0.56576244218E+03  0.12259280966E+04 -0.22400785766E+03  0.13686372683E+04  0.12699999809E+01 0.  1.
       -4    1    3    3    0  502  0.56576244218E+03 -0.12259280966E+04 -0.21598694100E+03  0.13673473628E+04  0.12699999809E+01 0. -1.
</event>
<event>
 5   0  0.4735120E-07  0.2697228E+04  0.7818609E-02  0.8335905E-01
        2   -1    0    0  501    0  0.00000000000E+00  0.00000000000E+00  0.12723604565E+04  0.12723604565E+04  0.25500000920E-02 0.  1.
       -2   -1    0    0    0  501  0.00000000000E+00  0.00000000000E+00 -0.14294371297E+04  0.14294371297E+04  0.25500000920E-02 0. -1.
    10030    2    1    2    0    0  0.00000000000E+00  0.00000000000E+00 -0.15707667324E+03  0.27017975862E+04  0.26972276721E+04 0.  0.
        2    1    3    3  502    0 -0.10020382726E+04 -0.31407681407E+03 -0.92616015321E+03  0.14001776938E+04  0.25500000920E-02 0. -1.
       -2    1    3    3    0  502  0.10020382726E+04  0.31407681407E+03  0.76908347997E+03  0.13016198923E+04  0.25500000920E-02 0.  1.
</event>
<event>
 5   0  0.4843887E-07  0.2699421E+04  0.7818609E-02  0.8335193E-01
       -2   -1    0    0    0  501  0.00000000000E+00  0.00000000000E+00  0.14129862103E+04  0.14129862103E+04  0.25500000920E-02 0.  1.
        2   -1    0    0  501    0  0.00000000000E+00  0.00000000000E+00 -0.12892688230E+04  0.12892688230E+04  0.25500000920E-02 0. -1.
    10030    2    1    2    0    0  0.00000000000E+00  0.00000000000E+00  0.12371738729E+03  0.27022550333E+04  0.26994214700E+04 0.  0.
        5    1    3    3  502    0 -0.95518252861E+03 -0.87305527762E+03  0.44579459269E+03  0.13687052603E+04  0.46999998093E+01 0.  1.
       -5    1    3    3    0  502  0.95518252861E+03  0.87305527762E+03 -0.32207720540E+03  0.13335497730E+04  0.46999998093E+01 0. -1.
</event>
<event>
 5   0  0.4735120E-07  0.2698765E+04  0.7818609E-02  0.8335406E-01
       -2   -1    0    0    0  501  0.00000000000E+00  0.00000000000E+00  0.16935572122E+04  0.16935572122E+04  0.25500000920E-02 0. -1.
        2   -1    0    0  501    0  0.00000000000E+00  0.00000000000E+00 -0.10751533727E+04  0.10751533727E+04  0.25500000920E-02 0.  1.
    10030    2    1    2    0    0  0.00000000000E+00  0.00000000000E+00  0.61840383948E+03  0.27687105848E+04  0.26987654574E+04 0.  0.
        2    1    3    3  502    0  0.91446244976E+03  0.85904436967E+03 -0.20029284477E+03  0.12705573678E+04  0.25500000920E-02 0.  1.
       -2    1    3    3    0  502 -0.91446244976E+03 -0.85904436967E+03  0.81869668425E+03  0.14981532171E+04  0.25500000920E-02 0. -1.
</event>
<event>
 5   0  0.5043890E-07  0.2699970E+04  0.7818609E-02  0.8335015E-01
       -2   -1    0    0    0  501  0.00000000000E+00  0.00000000000E+00  0.16344590283E+04  0.16344590283E+04  0.25500000920E-02 0.  1.
        2   -1    0    0  501    0  0.00000000000E+00  0.00000000000E+00 -0.11150233648E+04  0.11150233648E+04  0.25500000920E-02 0. -1.
    10030    2    1    2    0    0  0.00000000000E+00  0.00000000000E+00  0.51943566353E+03  0.27494823931E+04  0.26999703742E+04 0.  0.
        3    1    3    3  502    0  0.58048997003E+03  0.11895568346E+04  0.53000155235E+03  0.14258035362E+04  0.10100000352E+00 0. -1.
       -3    1    3    3    0  502 -0.58048997003E+03 -0.11895568346E+04 -0.10565888828E+02  0.13236788569E+04  0.10100000352E+00 0.  1.
</event>
<event>
 5   0  0.5043890E-07  0.2694007E+04  0.7818609E-02  0.8336952E-01
       -2   -1    0    0    0  501  0.00000000000E+00  0.00000000000E+00  0.79360646840E+03  0.79360646840E+03  0.25500000920E-02 0. -1.
        2   -1    0    0  501    0  0.00000000000E+00  0.00000000000E+00 -0.22862947853E+04  0.22862947853E+04  0.25500000920E-02 0.  1.
    10030    2    1    2    0    0  0.00000000000E+00  0.00000000000E+00 -0.14926883169E+04  0.30799012537E+04  0.26940069267E+04 0.  0.
        3    1    3    3  502    0  0.88860597302E+03 -0.51111226786E+02 -0.19021979944E+04  0.21001405079E+04  0.10100000352E+00 0.  1.
       -3    1    3    3    0  502 -0.88860597302E+03  0.51111226786E+02  0.40950967753E+03  0.97976074578E+03  0.10100000352E+00 0. -1.
</event>
<event>
 5   0  0.4735120E-07  0.2700282E+04  0.7818609E-02  0.8334914E-01
        2   -1    0    0  501    0  0.00000000000E+00  0.00000000000E+00  0.10254604628E+04  0.10254604628E+04  0.25500000920E-02 0.  1.
       -2   -1    0    0    0  501  0.00000000000E+00  0.00000000000E+00 -0.17776211512E+04  0.17776211512E+04  0.25500000920E-02 0. -1.
    10030    2    1    2    0    0  0.00000000000E+00  0.00000000000E+00 -0.75216068837E+03  0.28030816141E+04  0.27002816212E+04 0.  0.
        2    1    3    3  502    0 -0.95608837228E+03 -0.93507594085E+03 -0.18352402699E+03  0.13498714973E+04  0.25500000920E-02 0. -1.
       -2    1    3    3    0  502  0.95608837228E+03  0.93507594085E+03 -0.56863666138E+03  0.14532101168E+04  0.25500000920E-02 0.  1.
</event>
<event>
 5   0  0.1641625E-07  0.2701594E+04  0.7818609E-02  0.8334488E-01
        4   -1    0    0  501    0  0.00000000000E+00  0.00000000000E+00  0.17929896706E+04  0.17929901204E+04  0.12699999809E+01 0. -1.
       -4   -1    0    0    0  501  0.00000000000E+00  0.00000000000E+00 -0.10176582355E+04  0.10176590279E+04  0.12699999809E+01 0.  1.
    10030    2    1    2    0    0  0.00000000000E+00  0.00000000000E+00  0.77533143515E+03  0.28106491483E+04  0.27015939370E+04 0.  0.
        3    1    3    3  502    0 -0.88083405740E+03  0.97745484592E+03  0.70555840547E+03  0.14930168406E+04  0.10100000352E+00 0. -1.
       -3    1    3    3    0  502  0.88083405740E+03 -0.97745484592E+03  0.69773029681E+02  0.13176323077E+04  0.10100000352E+00 0.  1.
</event>
<event>
 5   0  0.5043890E-07  0.2698531E+04  0.7818609E-02  0.8335482E-01
       -2   -1    0    0    0  501  0.00000000000E+00  0.00000000000E+00  0.13682256975E+04  0.13682256975E+04  0.25500000920E-02 0.  1.
        2   -1    0    0  501    0  0.00000000000E+00  0.00000000000E+00 -0.13305676765E+04  0.13305676765E+04  0.25500000920E-02 0. -1.
    10030    2    1    2    0    0  0.00000000000E+00  0.00000000000E+00  0.37658021058E+02  0.26987933740E+04  0.26985306278E+04 0.  0.
        3    1    3    3  502    0  0.85594780670E+02  0.86605504368E+03  0.10500157589E+04  0.13637855071E+04  0.10100000352E+00 0.  1.
       -3    1    3    3    0  502 -0.85594780670E+02 -0.86605504368E+03 -0.10123577378E+04  0.13350078669E+04  0.10100000352E+00 0. -1.
</event>
<event>
 5   0  0.1888149E-07  0.2700140E+04  0.7818609E-02  0.8334960E-01
        1   -1    0    0  501    0  0.00000000000E+00  0.00000000000E+00  0.21919469081E+04  0.21919469081E+04  0.50400001928E-02 0. -1.
       -1   -1    0    0    0  501  0.00000000000E+00  0.00000000000E+00 -0.83153867462E+03  0.83153867463E+03  0.50400001928E-02 0.  1.
    10030    2    1    2    0    0  0.00000000000E+00  0.00000000000E+00  0.13604082335E+04  0.30234855827E+04  0.27001397200E+04 0.  0.
        1    1    3    3  502    0 -0.66895517723E+03 -0.88601351038E+03  0.15404237830E+04  0.18987960399E+04  0.50400001928E-02 0. -1.
       -1    1    3    3    0  502  0.66895517723E+03  0.88601351038E+03 -0.18001554955E+03  0.11246895429E+04  0.50400001928E-02 0.  1.
</event>
<event>
 5   0  0.4992668E-07  0.2691303E+04  0.7818609E-02  0.8337832E-01
        2   -1    0    0  501    0  0.00000000000E+00  0.00000000000E+00  0.22019159152E+04  0.22019159152E+04  0.25500000920E-02 0.  1.
       -2   -1    0    0    0  501  0.00000000000E+00  0.00000000000E+00 -0.82236465501E+03  0.82236465501E+03  0.25500000920E-02 0. -1.
    10030    2    1    2    0    0  0.00000000000E+00  0.00000000000E+00  0.13795512602E+04  0.30242805702E+04  0.26913028978E+04 0.  0.
        1    1    3    3  502    0  0.12573791378E+04  0.15253456162E+03  0.17911930950E+03  0.12792000687E+04  0.50400001928E-02 0.  1.
       -1    1    3    3    0  502 -0.12573791378E+04 -0.15253456162E+03  0.12004319507E+04  0.17450805015E+04  0.50400001928E-02 0. -1.
</event>
<event>
 5   0  0.4735120E-07  0.2697328E+04  0.7818609E-02  0.8335872E-01
       -2   -1    0    0    0  501  0.00000000000E+00  0.00000000000E+00  0.18021132957E+04  0.18021132957E+04  0.25500000920E-02 0.  1.
        2   -1    0    0  501    0  0.00000000000E+00  0.00000000000E+00 -0.10093122803E+04  0.10093122803E+04  0.25500000920E-02 0. -1.
    10030    2    1    2    0    0  0.00000000000E+00  0.00000000000E+00  0.79280101543E+03  0.28114255760E+04  0.26973283670E+04 0.  0.
        2    1    3    3  502    0 -0.91535166721E+03  0.62795170731E+03  0.11947663502E+04  0.16308459930E+04  0.25500000920E-02 0.  1.
       -2    1    3    3    0  502  0.91535166721E+03 -0.62795170731E+03 -0.40196533478E+03  0.11805795830E+04  0.25500000920E-02 0. -1.
</event>
<event>
 5   0  0.1964242E-07  0.2699700E+04  0.7818609E-02  0.8335102E-01
       -1   -1    0    0    0  501  0.00000000000E+00  0.00000000000E+00  0.11926818288E+04  0.11926818288E+04  0.50400001928E-02 0. -1.
        1   -1    0    0  501    0  0.00000000000E+00  0.00000000000E+00 -0.15277296472E+04  0.15277296472E+04  0.50400001928E-02 0.  1.
    10030    2    1    2    0    0  0.00000000000E+00  0.00000000000E+00 -0.33504781837E+03  0.27204114760E+04  0.26997002719E+04 0.  0.
        2    1    3    3  502    0 -0.96992374524E+03 -0.32229433345E+03 -0.10560307559E+04  0.14696348752E+04  0.25500000920E-02 0.  1.
       -2    1    3    3    0  502  0.96992374524E+03  0.32229433345E+03  0.72098293750E+03  0.12507766008E+04  0.25500000920E-02 0. -1.
</event>
<event>
 5   0  0.4843887E-07  0.2700830E+04  0.7818609E-02  0.8334736E-01
       -2   -1    0    0    0  501  0.00000000000E+00  0.00000000000E+00  0.10857644410E+04  0.10857644410E+04  0.25500000920E-02 0. -1.
        2   -1    0    0  501    0  0.00000000000E+00  0.00000000000E+00 -0.16795729241E+04  0.16795729241E+04  0.25500000920E-02 0.  1.
    10030    2    1    2    0    0  0.00000000000E+00  0.00000000000E+00 -0.59380848318E+03  0.27653373651E+04  0.27008299147E+04 0.  0.
        5    1    3    3  502    0 -0.29043237255E+03 -0.71786620579E+03  0.83582633618E+03  0.11394343363E+04  0.46999998093E+01 0. -1.
       -5    1    3    3    0  502  0.29043237255E+03  0.71786620579E+03 -0.14296348194E+04  0.16259030288E+04  0.46999998093E+01 0.  1.
</event>
<event>
 5   0  0.1937896E-07  0.2698499E+04  0.7818609E-02  0.8335492E-01
       -1   -1    0    0    0  501  0.00000000000E+00  0.00000000000E+00  0.12448615617E+04  0.12448615617E+04  0.50400001928E-02 0. -1.
        1   -1    0    0  501    0  0.00000000000E+00  0.00000000000E+00 -0.14623910569E+04  0.14623910569E+04  0.50400001928E-02 0.  1.
    10030    2    1    2    0    0  0.00000000000E+00  0.00000000000E+00 -0.21752949522E+03  0.27072526186E+04  0.26984991494E+04 0.  0.
        3    1    3    3  502    0 -0.10986235873E+04 -0.42594437150E+03  0.55068933891E+03  0.13006387478E+04  0.10100000352E+00 0. -1.
       -3    1    3    3    0  502  0.10986235873E+04  0.42594437150E+03 -0.76821883413E+03  0.14066138708E+04  0.10100000352E+00 0.  1.
</event>
<event>
 5   0  0.1937896E-07  0.2700434E+04  0.7818609E-02  0.8334864E-01
        1   -1    0    0  501    0  0.00000000000E+00  0.00000000000E+00  0.14846822421E+04  0.14846822421E+04  0.50400001928E-02 0. -1.
       -1   -1    0    0    0  501  0.00000000000E+00  0.00000000000E+00 -0.12279300563E+04  0.12279300563E+04  0.50400001928E-02 0.  1.
    10030    2    1    2    0    0  0.00000000000E+00  0.00000000000E+00  0.25675218572E+03  0.27126122984E+04  0.27004340015E+04 0.  0.
        3    1    3    3  502    0  0.18173516467E+01  0.12009308775E+04 -0.49153556933E+03  0.12976307261E+04  0.10100000352E+00 0.  1.
       -3    1    3    3    0  502 -0.18173516467E+01 -0.12009308775E+04  0.74828775505E+03  0.14149815723E+04  0.10100000352E+00 0. -1.
</event>
<event>
 5   0  0.1965415E-07  0.2704495E+04  0.7818609E-02  0.8333548E-01
        1   -1    0    0  501    0  0.00000000000E+00  0.00000000000E+00  0.17049935832E+04  0.17049935832E+04  0.50400001928E-02 0. -1.
       -1   -1    0    0    0  501  0.00000000000E+00  0.00000000000E+00 -0.10724809783E+04  0.10724809783E+04  0.50400001928E-02 0.  1.
    10030    2    1    2    0    0  0.00000000000E+00  0.00000000000E+00  0.63251260489E+03  0.27774745615E+04  0.27044949148E+04 0.  0.
        4    1    3    3  502    0  0.54277640248E+02  0.36803527031E+03 -0.10188929851E+04  0.10846845396E+04  0.12699999809E+01 0.  1.
       -4    1    3    3    0  502 -0.54277640248E+02 -0.36803527031E+03  0.16514055900E+04  0.16927900218E+04  0.12699999809E+01 0. -1.
</event>
<event>
 5   0  0.4983208E-07  0.2700034E+04  0.7818609E-02  0.8334994E-01
       -2   -1    0    0    0  501  0.00000000000E+00  0.00000000000E+00  0.16465410022E+04  0.16465410023E+04  0.25500000920E-02 0. -1.
        2   -1    0    0  501    0  0.00000000000E+00  0.00000000000E+00 -0.11068936735E+04  0.11068936735E+04  0.25500000920E-02 0.  1.
    10030    2    1    2    0    0  0.00000000000E+00  0.00000000000E+00  0.53964732877E+03  0.27534346757E+04  0.27000339394E+04 0.  0.
        4    1    3    3  502    0 -0.11754124809E+03  0.72541383582E+03 -0.88505073342E+03  0.11503728056E+04  0.12699999809E+01 0.  1.
       -4    1    3    3    0  502  0.11754124809E+03 -0.72541383582E+03  0.14246980622E+04  0.16030618701E+04  0.12699999809E+01 0. -1.
</event>
<event>
 5   0  0.4735120E-07  0.2701944E+04  0.7818609E-02  0.8334374E-01
       -2   -1    0    0    0  501  0.00000000000E+00  0.00000000000E+00  0.11527487738E+04  0.11527487738E+04  0.25500000920E-02 0. -1.
        2   -1    0    0  501    0  0.00000000000E+00  0.00000000000E+00 -0.15832813674E+04  0.15832813674E+04  0.25500000920E-02 0.  1.
    10030    2    1    2    0    0  0.00000000000E+00  0.00000000000E+00 -0.43053259355E+03  0.27360301412E+04  0.27019442295E+04 0.  0.
        2    1    3    3  502    0  0.58627953451E+03 -0.11559703644E+04  0.17050489781E+03  0.13073113998E+04  0.25500000920E-02 0. -1.
       -2    1    3    3    0  502 -0.58627953451E+03  0.11559703644E+04 -0.60103749136E+03  0.14287187414E+04  0.25500000920E-02 0.  1.
</event>
<event>
 5   0  0.4983208E-07  0.2700321E+04  0.7818609E-02  0.8334901E-01
        2   -1    0    0  501    0  0.00000000000E+00  0.00000000000E+00  0.19673814929E+04  0.19673814929E+04  0.25500000920E-02 0. -1.
       -2   -1    0    0    0  501  0.00000000000E+00  0.00000000000E+00 -0.92657870624E+03  0.92657870624E+03  0.25500000920E-02 0.  1.
    10030    2    1    2    0    0  0.00000000000E+00  0.00000000000E+00  0.10408027867E+04  0.28939601992E+04  0.27003213130E+04 0.  0.
        4    1    3    3  502    0 -0.11740349329E+04  0.65776891919E+03  0.63738089063E+03  0.14890513716E+04  0.12699999809E+01 0. -1.
       -4    1    3    3    0  502  0.11740349329E+04 -0.65776891919E+03  0.40342189606E+03  0.14049088276E+04  0.12699999809E+01 0.  1.
</event>
<event>
 5   0  0.4992668E-07  0.2699718E+04  0.7818609E-02  0.8335096E-01
        2   -1    0    0  501    0  0.00000000000E+00  0.00000000000E+00  0.80106590351E+03  0.80106590351E+03  0.25500000920E-02 0. -1.
       -2   -1    0    0    0  501  0.00000000000E+00  0.00000000000E+00 -0.22746188178E+04  0.22746188178E+04  0.25500000920E-02 0.  1.
    10030    2    1    2    0    0  0.00000000000E+00  0.00000000000E+00 -0.14735529143E+04  0.30756847213E+04  0.26997181915E+04 0.  0.
        1    1    3    3  502    0  0.12536522295E+04 -0.20252151045E+03 -0.12581808207E+04  0.17876458968E+04  0.50400001928E-02 0.  1.
       -1    1    3    3    0  502 -0.12536522295E+04  0.20252151045E+03 -0.21537209356E+03  0.12880388245E+04  0.50400001928E-02 0. -1.
</event>
<event>
 5   0  0.5043890E-07  0.2700268E+04  0.7818609E-02  0.8334918E-01
        2   -1    0    0  501    0  0.00000000000E+00  0.00000000000E+00  0.19966460674E+04  0.19966460674E+04  0.25500000920E-02 0. -1.
       -2   -1    0    0    0  501  0.00000000000E+00  0.00000000000E+00 -0.91296202867E+03  0.91296202868E+03  0.25500000920E-02 0.  1.
    10030    2    1    2    0    0  0.00000000000E+00  0.00000000000E+00  0.10836840387E+04  0.29096080960E+04  0.27002681676E+04 0.  0.
        3    1    3    3  502    0 -0.43520165133E+03 -0.27029107651E+03 -0.80416141399E+03  0.95348483644E+03  0.10100000352E+00 0.  1.
       -3    1    3    3    0  502  0.43520165133E+03  0.27029107651E+03  0.18878454527E+04  0.19561232596E+04  0.10100000352E+00 0. -1.
</event>
<event>
 5   0  0.1888149E-07  0.2699615E+04  0.7818609E-02  0.8335130E-01
        1   -1    0    0  501    0  0.00000000000E+00  0.00000000000E+00  0.20950240069E+04  0.20950240069E+04  0.50400001928E-02 0.  1.
       -1   -1    0    0    0  501  0.00000000000E+00  0.00000000000E+00 -0.86967035888E+03  0.86967035889E+03  0.50400001928E-02 0. -1.
    10030    2    1    2    0    0  0.00000000000E+00  0.00000000000E+00  0.12253536480E+04  0.29646943658E+04  0.26996149947E+04 0.  0.
        1    1    3    3  502    0 -0.91730197929E+03 -0.70107029423E+03  0.13806557652E+04  0.17997646570E+04  0.50400001928E-02 0. -1.
       -1    1    3    3    0  502  0.91730197929E+03  0.70107029423E+03 -0.15530211722E+03  0.11649297087E+04  0.50400001928E-02 0.  1.
</event>
<event>
 5   0  0.4735120E-07  0.2698883E+04  0.7818609E-02  0.8335368E-01
        2   -1    0    0  501    0  0.00000000000E+00  0.00000000000E+00  0.26178061456E+04  0.26178061456E+04  0.25500000920E-02 0. -1.
       -2   -1    0    0    0  501  0.00000000000E+00  0.00000000000E+00 -0.69561752808E+03  0.69561752809E+03  0.25500000920E-02 0.  1.
    10030    2    1    2    0    0  0.00000000000E+00  0.00000000000E+00  0.19221886176E+04  0.33134236737E+04  0.26988826133E+04 0.  0.
        2    1    3    3  502    0  0.79148356839E+03 -0.81728448654E+03  0.70192240064E+02  0.11398803102E+04  0.25500000920E-02 0. -1.
       -2    1    3    3    0  502 -0.79148356839E+03  0.81728448654E+03  0.18519963775E+04  0.21735433635E+04  0.25500000920E-02 0.  1.
</event>
<event>
 5   0  0.1965415E-07  0.2701299E+04  0.7818609E-02  0.8334584E-01
        1   -1    0    0  501    0  0.00000000000E+00  0.00000000000E+00  0.20897122860E+04  0.20897122860E+04  0.50400001928E-02 0.  1.
       -1   -1    0    0    0  501  0.00000000000E+00  0.00000000000E+00 -0.87296881358E+03  0.87296881359E+03  0.50400001928E-02 0. -1.
    10030    2    1    2    0    0  0.00000000000E+00  0.00000000000E+00  0.12167434725E+04  0.29626810996E+04  0.27012986914E+04 0.  0.
        4    1    3    3  502    0  0.10414072021E+04  0.39524152071E+03  0.14461622075E+04  0.18254127104E+04  0.12699999809E+01 0. -1.
       -4    1    3    3    0  502 -0.10414072021E+04 -0.39524152071E+03 -0.22941873503E+03  0.11372683892E+04  0.12699999809E+01 0.  1.
</event>
<event>
 5   0  0.4735120E-07  0.2700160E+04  0.7818609E-02  0.8334953E-01
       -2   -1    0    0    0  501  0.00000000000E+00  0.00000000000E+00  0.11457567207E+04  0.11457567207E+04  0.25500000920E-02 0. -1.
        2   -1    0    0  501    0  0.00000000000E+00  0.00000000000E+00 -0.15908408897E+04  0.15908408897E+04  0.25500000920E-02 0.  1.
    10030    2    1    2    0    0  0.00000000000E+00  0.00000000000E+00 -0.44508416902E+03  0.27365976103E+04  0.27001604699E+04 0.  0.
        2    1    3    3  502    0  0.18893423366E+03 -0.13510787138E+03  0.11253545945E+04  0.11490749518E+04  0.25500000920E-02 0. -1.
       -2    1    3    3    0  502 -0.18893423366E+03  0.13510787138E+03 -0.15704387635E+04  0.15875226585E+04  0.25500000920E-02 0.  1.
</event>
<event>
 5   0  0.4983208E-07  0.2699453E+04  0.7818609E-02  0.8335182E-01
        2   -1    0    0  501    0  0.00000000000E+00  0.00000000000E+00  0.17818786178E+04  0.17818786178E+04  0.25500000920E-02 0.  1.
       -2   -1    0    0    0  501  0.00000000000E+00  0.00000000000E+00 -0.10223827335E+04  0.10223827335E+04  0.25500000920E-02 0. -1.
    10030    2    1    2    0    0  0.00000000000E+00  0.00000000000E+00  0.75949588426E+03  0.28042613513E+04  0.26994532276E+04 0.  0.
        4    1    3    3  502    0 -0.37812141142E+03 -0.29559766427E+03  0.16902365456E+04  0.17570586142E+04  0.12699999809E+01 0.  1.
       -4    1    3    3    0  502  0.37812141142E+03  0.29559766427E+03 -0.93074066133E+03  0.10472027370E+04  0.12699999809E+01 0. -1.
</event>
<event>
 5   0  0.1888149E-07  0.2701010E+04  0.7818609E-02  0.8334677E-01
        1   -1    0    0  501    0  0.00000000000E+00  0.00000000000E+00  0.16290622716E+04  0.16290622716E+04  0.50400001928E-02 0. -1.
       -1   -1    0    0    0  501  0.00000000000E+00  0.00000000000E+00 -0.11195785562E+04  0.11195785562E+04  0.50400001928E-02 0.  1.
    10030    2    1    2    0    0  0.00000000000E+00  0.00000000000E+00  0.50948371538E+03  0.27486408278E+04  0.27010095786E+04 0.  0.
        1    1    3    3  502    0  0.19418658876E+03  0.15233820180E+03  0.16059168502E+04  0.16247720729E+04  0.50400001928E-02 0. -1.
       -1    1    3    3    0  502 -0.19418658876E+03 -0.15233820180E+03 -0.10964331348E+04  0.11238687549E+04  0.50400001928E-02 0.  1.
</event>
<event>
 5   0  0.1937896E-07  0.2702159E+04  0.7818609E-02  0.8334305E-01
        1   -1    0    0  501    0  0.00000000000E+00  0.00000000000E+00  0.16478906095E+04  0.16478906095E+04  0.50400001928E-02 0. -1.
       -1   -1    0    0    0  501  0.00000000000E+00  0.00000000000E+00 -0.11077286671E+04  0.11077286672E+04  0.50400001928E-02 0.  1.
    10030    2    1    2    0    0  0.00000000000E+00  0.00000000000E+00  0.54016194234E+03  0.27556192767E+04  0.27021588913E+04 0.  0.
        3    1    3    3  502    0  0.86794469458E+03 -0.57680168618E+03 -0.60680753538E+03  0.12059202184E+04  0.10100000352E+00 0.  1.
       -3    1    3    3    0  502 -0.86794469458E+03  0.57680168618E+03  0.11469694777E+04  0.15496990582E+04  0.10100000352E+00 0. -1.
</event>
<event>
 5   0  0.5043890E-07  0.2699589E+04  0.7818609E-02  0.8335138E-01
       -2   -1    0    0    0  501  0.00000000000E+00  0.00000000000E+00  0.12176564731E+04  0.12176564731E+04  0.25500000920E-02 0.  1.
        2   -1    0    0  501    0  0.00000000000E+00  0.00000000000E+00 -0.14962717020E+04  0.14962717020E+04  0.25500000920E-02 0. -1.
    10030    2    1    2    0    0  0.00000000000E+00  0.00000000000E+00 -0.27861522897E+03  0.27139281751E+04  0.26995888009E+04 0.  0.
        3    1    3    3  502    0  0.51600767439E+02  0.10256078873E+04  0.74136535579E+03  0.12665531093E+04  0.10100000352E+00 0.  1.
       -3    1    3    3    0  502 -0.51600767439E+02 -0.10256078873E+04 -0.10199805848E+04  0.14473750658E+04  0.10100000352E+00 0. -1.
</event>
<event>
 5   0  0.1971600E-07  0.2701255E+04  0.7818609E-02  0.8334598E-01
        1   -1    0    0  501    0  0.00000000000E+00  0.00000000000E+00  0.14277074378E+04  0.14277074378E+04  0.50400001928E-02 0. -1.
       -1   -1    0    0    0  501  0.00000000000E+00  0.00000000000E+00 -0.12777085840E+04  0.12777085840E+04  0.50400001928E-02 0.  1.
    10030    2    1    2    0    0  0.00000000000E+00  0.00000000000E+00  0.14999885384E+03  0.27054160218E+04  0.27012545595E+04 0.  0.
        5    1    3    3  502    0 -0.17035490247E+03 -0.59438511310E+03 -0.11276241552E+04  0.12860298522E+04  0.46999998093E+01 0.  1.
       -5    1    3    3    0  502  0.17035490247E+03  0.59438511310E+03  0.12776230090E+04  0.14193861696E+04  0.46999998093E+01 0. -1.
</event>
<event>
 5   0  0.1965415E-07  0.2699302E+04  0.7818609E-02  0.8335231E-01
       -1   -1    0    0    0  501  0.00000000000E+00  0.00000000000E+00  0.10318272995E+04  0.10318272995E+04  0.50400001928E-02 0. -1.
        1   -1    0    0  501    0  0.00000000000E+00  0.00000000000E+00 -0.17653714000E+04  0.17653714000E+04  0.50400001928E-02 0.  1.
    10030    2    1    2    0    0  0.00000000000E+00  0.00000000000E+00 -0.73354410054E+03  0.27971986995E+04  0.26993024316E+04 0.  0.
        4    1    3    3  502    0 -0.49178807557E+03  0.28141116893E+02  0.93534603547E+03  0.10571287777E+04  0.12699999809E+01 0. -1.
       -4    1    3    3    0  502  0.49178807557E+03 -0.28141116893E+02 -0.16688901360E+04  0.17400699218E+04  0.12699999809E+01 0.  1.
</event>
<event>
 5   0  0.4983208E-07  0.2700208E+04  0.7818609E-02  0.8334938E-01
       -2   -1    0    0    0  501  0.00000000000E+00  0.00000000000E+00  0.22672163975E+04  0.22672163975E+04  0.25500000920E-02 0.  1.
        2   -1    0    0  501    0  0.00000000000E+00  0.00000000000E+00 -0.80397283579E+03  0.80397283579E+03  0.25500000920E-02 0. -1.
    10030    2    1    2    0    0  0.00000000000E+00  0.00000000000E+00  0.14632435617E+04  0.30711892333E+04  0.27002076931E+04 0.  0.
        4    1    3    3  502    0  0.16544265171E+03 -0.12073318054E+04  0.13926376082E+04  0.18505303240E+04  0.12699999809E+01 0.  1.
       -4    1    3    3    0  502 -0.16544265171E+03  0.12073318054E+04  0.70605953571E+02  0.12206589093E+04  0.12699999809E+01 0. -1.
</event>
<event>
 5   0  0.4992668E-07  0.2693633E+04  0.7818609E-02  0.8337074E-01
       -2   -1    0    0    0  501  0.00000000000E+00  0.00000000000E+00  0.14725596071E+04  0.14725596071E+04  0.25500000920E-02 0.  1.
        2   -1    0    0  501    0  0.00000000000E+00  0.00000000000E+00 -0.12318102525E+04  0.12318102525E+04  0.25500000920E-02 0. -1.
    10030    2    1    2    0    0  0.00000000000E+00  0.00000000000E+00  0.24074935464E+03  0.27043698597E+04  0.26936325076E+04 0.  0.
        1    1    3    3  502    0 -0.68273830631E+03  0.11506893904E+04  0.27492449671E+03  0.13659433176E+04  0.50400001928E-02 0. -1.
       -1    1    3    3    0  502  0.68273830631E+03 -0.11506893904E+04 -0.34175142067E+02  0.13384265420E+04  0.50400001928E-02 0.  1.
</event>
<event>
 5   0  0.1964242E-07  0.2700892E+04  0.7818609E-02  0.8334716E-01
        1   -1    0    0  501    0  0.00000000000E+00  0.00000000000E+00  0.16073379174E+04  0.16073379174E+04  0.50400001928E-02 0.  1.
       -1   -1    0    0    0  501  0.00000000000E+00  0.00000000000E+00 -0.11346113483E+04  0.11346113484E+04  0.50400001928E-02 0. -1.
    10030    2    1    2    0    0  0.00000000000E+00  0.00000000000E+00  0.47272656901E+03  0.27419492657E+04  0.27008915874E+04 0.  0.
        2    1    3    3  502    0  0.70085006585E+03 -0.10319869233E+04  0.76144531688E+03  0.14615015550E+04  0.25500000920E-02 0.  1.
       -2    1    3    3    0  502 -0.70085006585E+03  0.10319869233E+04 -0.28871874787E+03  0.12804477107E+04  0.25500000920E-02 0. -1.
</event>
<event>
 5   0  0.4735120E-07  0.2682175E+04  0.7818609E-02  0.8340812E-01
        2   -1    0    0  501    0  0.00000000000E+00  0.00000000000E+00  0.20416206873E+04  0.20416206873E+04  0.25500000920E-02 0.  1.
       -2   -1    0    0    0  501  0.00000000000E+00  0.00000000000E+00 -0.88092548359E+03  0.88092548359E+03  0.25500000920E-02 0. -1.
    10030    2    1    2    0    0  0.00000000000E+00  0.00000000000E+00  0.11606952037E+04  0.29225461709E+04  0.26821750064E+04 0.  0.
        2    1    3    3  502    0  0.11987897414E+04  0.54491704499E+03  0.85704248885E+03  0.15711630271E+04  0.25500000920E-02 0. -1.
       -2    1    3    3    0  502 -0.11987897414E+04 -0.54491704499E+03  0.30365271484E+03  0.13513831438E+04  0.25500000920E-02 0.  1.
</event>
<event>
 5   0  0.4992668E-07  0.2699301E+04  0.7818609E-02  0.8335232E-01
       -2   -1    0    0    0  501  0.00000000000E+00  0.00000000000E+00  0.14909319597E+04  0.14909319597E+04  0.25500000920E-02 0. -1.
        2   -1    0    0  501    0  0.00000000000E+00  0.00000000000E+00 -0.12217567358E+04  0.12217567358E+04  0.25500000920E-02 0.  1.
    10030    2    1    2    0    0  0.00000000000E+00  0.00000000000E+00  0.26917522392E+03  0.27126886955E+04  0.26993007719E+04 0.  0.
        1    1    3    3  502    0 -0.14767323337E+02  0.20738445553E+03  0.14747419888E+04  0.14893254580E+04  0.50400001928E-02 0. -1.
       -1    1    3    3    0  502  0.14767323337E+02 -0.20738445553E+03 -0.12055667649E+04  0.12233632375E+04  0.50400001928E-02 0.  1.
</event>
<event>
 5   0  0.5043890E-07  0.2699093E+04  0.7818609E-02  0.8335299E-01
        2   -1    0    0  501    0  0.00000000000E+00  0.00000000000E+00  0.14502682626E+04  0.14502682627E+04  0.25500000920E-02 0.  1.
       -2   -1    0    0    0  501  0.00000000000E+00  0.00000000000E+00 -0.12558196521E+04  0.12558196521E+04  0.25500000920E-02 0. -1.
    10030    2    1    2    0    0  0.00000000000E+00  0.00000000000E+00  0.19444861059E+03  0.27060879147E+04  0.26990927253E+04 0.  0.
        3    1    3    3  502    0 -0.66571693448E+03  0.10879561525E+04  0.53932943723E+03  0.13848118568E+04  0.10100000352E+00 0. -1.
       -3    1    3    3    0  502  0.66571693448E+03 -0.10879561525E+04 -0.34488082664E+03  0.13212760580E+04  0.10100000352E+00 0.  1.
</event>
<event>
 5   0  0.4735120E-07  0.2699964E+04  0.7818609E-02  0.8335017E-01
        2   -1    0    0  501    0  0.00000000000E+00  0.00000000000E+00  0.15737163703E+04  0.15737163703E+04  0.25500000920E-02 0.  1.
       -2   -1    0    0    0  501  0.00000000000E+00  0.00000000000E+00 -0.11580554366E+04  0.11580554366E+04  0.25500000920E-02 0. -1.
    10030    2    1    2    0    0  0.00000000000E+00  0.00000000000E+00  0.41566093377E+03  0.27317718069E+04  0.26999635540E+04 0.  0.
        2    1    3    3  502    0 -0.43759135874E+03 -0.43073609631E+03  0.14242550872E+04  0.15509746405E+04  0.25500000920E-02 0.  1.
       -2    1    3    3    0  502  0.43759135874E+03  0.43073609631E+03 -0.10085941534E+04  0.11807971664E+04  0.25500000920E-02 0. -1.
</event>
<event>
 5   0  0.1971600E-07  0.2700728E+04  0.7818609E-02  0.8334769E-01
       -1   -1    0    0    0  501  0.00000000000E+00  0.00000000000E+00  0.96908872801E+03  0.96908872802E+03  0.50400001928E-02 0.  1.
        1   -1    0    0  501    0  0.00000000000E+00  0.00000000000E+00 -0.18816475013E+04  0.18816475013E+04  0.50400001928E-02 0. -1.
    10030    2    1    2    0    0  0.00000000000E+00  0.00000000000E+00 -0.91255877329E+03  0.28507362293E+04  0.27007283341E+04 0.  0.
        5    1    3    3  502    0  0.53768575773E+03  0.30526053390E+03 -0.17234466386E+04  0.18310052905E+04  0.46999998093E+01 0. -1.
       -5    1    3    3    0  502 -0.53768575773E+03 -0.30526053390E+03  0.81088786529E+03  0.10197309389E+04  0.46999998093E+01 0.  1.
</event>
<event>
 5   0  0.4983208E-07  0.2697619E+04  0.7818609E-02  0.8335778E-01
        2   -1    0    0  501    0  0.00000000000E+00  0.00000000000E+00  0.16036611062E+04  0.16036611062E+04  0.25500000920E-02 0. -1.
       -2   -1    0    0    0  501  0.00000000000E+00  0.00000000000E+00 -0.11344583247E+04  0.11344583247E+04  0.25500000920E-02 0.  1.
    10030    2    1    2    0    0  0.00000000000E+00  0.00000000000E+00  0.46920278152E+03  0.27381194309E+04  0.26976187217E+04 0.  0.
        4    1    3    3  502    0  0.65725962058E+03 -0.10481394427E+04  0.77997503108E+03  0.14625146708E+04  0.12699999809E+01 0. -1.
       -4    1    3    3    0  502 -0.65725962058E+03  0.10481394427E+04 -0.31077224956E+03  0.12756047602E+04  0.12699999809E+01 0.  1.
</event>
<event>
 5   0  0.1937896E-07  0.2699913E+04  0.7818609E-02  0.8335033E-01
       -1   -1    0    0    0  501  0.00000000000E+00  0.00000000000E+00  0.18997733839E+04  0.18997733839E+04  0.50400001928E-02 0.  1.
        1   -1    0    0  501    0  0.00000000000E+00  0.00000000000E+00 -0.95926291105E+03  0.95926291106E+03  0.50400001928E-02 0. -1.
    10030    2    1    2    0    0  0.00000000000E+00  0.00000000000E+00  0.94051047283E+03  0.28590362949E+04  0.26999126998E+04 0.  0.
        3    1    3    3  502    0  0.82990547168E+03  0.70799732065E+03  0.13123454326E+04  0.17065326960E+04  0.10100000352E+00 0.  1.
       -3    1    3    3    0  502 -0.82990547168E+03 -0.70799732065E+03 -0.37183495978E+03  0.11525035989E+04  0.10100000352E+00 0. -1.
</event>
<event>
 5   0  0.1937896E-07  0.2700209E+04  0.7818609E-02  0.8334937E-01
       -1   -1    0    0    0  501  0.00000000000E+00  0.00000000000E+00  0.10063618442E+04  0.10063618442E+04  0.50400001928E-02 0.  1.
        1   -1    0    0  501    0  0.00000000000E+00  0.00000000000E+00 -0.18112596078E+04  0.18112596078E+04  0.50400001928E-02 0. -1.
    10030    2    1    2    0    0  0.00000000000E+00  0.00000000000E+00 -0.80489776353E+03  0.28176214520E+04  0.27002092951E+04 0.  0.
        3    1    3    3  502    0 -0.96892917935E+03 -0.91623142974E+03 -0.62251924531E+03  0.14716772773E+04  0.10100000352E+00 0. -1.
       -3    1    3    3    0  502  0.96892917935E+03  0.91623142974E+03 -0.18237851823E+03  0.13459441748E+04  0.10100000352E+00 0.  1.
</event>
<event>
 5   0  0.5043890E-07  0.2699660E+04  0.7818609E-02  0.8335115E-01
       -2   -1    0    0    0  501  0.00000000000E+00  0.00000000000E+00  0.10569807085E+04  0.10569807085E+04  0.25500000920E-02 0.  1.
        2   -1    0    0  501    0  0.00000000000E+00  0.00000000000E+00 -0.17238170559E+04  0.17238170559E+04  0.25500000920E-02 0. -1.
    10030    2    1    2    0    0  0.00000000000E+00  0.00000000000E+00 -0.66683634742E+03  0.27807977644E+04  0.26996602550E+04 0.  0.
        3    1    3    3  502    0 -0.10194101961E+04  0.75992537811E+02 -0.12414272346E+04  0.16081397957E+04  0.10100000352E+00 0. -1.
       -3    1    3    3    0  502  0.10194101961E+04 -0.75992537811E+02  0.57459088717E+03  0.11726579687E+04  0.10100000352E+00 0.  1.
</event>
<event>
 5   0  0.1937896E-07  0.2698627E+04  0.7818609E-02  0.8335451E-01
        1   -1    0    0  501    0  0.00000000000E+00  0.00000000000E+00  0.17249880664E+04  0.17249880664E+04  0.50400001928E-02 0. -1.
       -1   -1    0    0    0  501  0.00000000000E+00  0.00000000000E+00 -0.10554544269E+04  0.10554544270E+04  0.50400001928E-02 0.  1.
    10030    2    1    2    0    0  0.00000000000E+00  0.00000000000E+00  0.66953363945E+03  0.27804424933E+04  0.26986265330E+04 0.  0.
        3    1    3    3  502    0  0.93069697470E+02 -0.13290441396E+04  0.55484514330E+03  0.14432163513E+04  0.10100000352E+00 0. -1.
       -3    1    3    3    0  502 -0.93069697470E+02  0.13290441396E+04  0.11468849614E+03  0.13372261420E+04  0.10100000352E+00 0.  1.
</event>
<event>
 5   0  0.1965415E-07  0.2702101E+04  0.7818609E-02  0.8334324E-01
        1   -1    0    0  501    0  0.00000000000E+00  0.00000000000E+00  0.10046425498E+04  0.10046425498E+04  0.50400001928E-02 0.  1.
       -1   -1    0    0    0  501  0.00000000000E+00  0.00000000000E+00 -0.18169019602E+04  0.18169019602E+04  0.50400001928E-02 0. -1.
    10030    2    1    2    0    0  0.00000000000E+00  0.00000000000E+00 -0.81225941038E+03  0.28215445100E+04  0.27021006777E+04 0.  0.
        4    1    3    3  502    0  0.13425322680E+04  0.26784407072E+02 -0.56180057079E+03  0.14555864074E+04  0.12699999809E+01 0. -1.
       -4    1    3    3    0  502 -0.13425322680E+04 -0.26784407072E+02 -0.25045883959E+03  0.13659581027E+04  0.12699999809E+01 0.  1.
</event>
<event>
 5   0  0.1971600E-07  0.2700629E+04  0.7818609E-02  0.8334801E-01
       -1   -1    0    0    0  501  0.00000000000E+00  0.00000000000E+00  0.11099245404E+04  0.11099245404E+04  0.50400001928E-02 0. -1.
        1   -1    0    0  501    0  0.00000000000E+00  0.00000000000E+00 -0.16427685651E+04  0.16427685651E+04  0.50400001928E-02 0.  1.
    10030    2    1    2    0    0  0.00000000000E+00  0.00000000000E+00 -0.53284402468E+03  0.27526931055E+04  0.27006289228E+04 0.  0.
        5    1    3    3  502    0  0.12316561979E+04  0.36551497735E+03  0.15722142522E+03  0.12943410891E+04  0.46999998093E+01 0. -1.
       -5    1    3    3    0  502 -0.12316561979E+04 -0.36551497735E+03 -0.69006544989E+03  0.14583520164E+04  0.46999998093E+01 0.  1.
</event>
<event>
 5   0  0.1965415E-07  0.2699831E+04  0.7818609E-02  0.8335060E-01
       -1   -1    0    0    0  501  0.00000000000E+00  0.00000000000E+00  0.13190717531E+04  0.13190717531E+04  0.50400001928E-02 0. -1.
        1   -1    0    0  501    0  0.00000000000E+00  0.00000000000E+00 -0.13814807370E+04  0.13814807370E+04  0.50400001928E-02 0.  1.
    10030    2    1    2    0    0  0.00000000000E+00  0.00000000000E+00 -0.62408983905E+02  0.27005524901E+04  0.26998312670E+04 0.  0.
        4    1    3    3  502    0 -0.11802794908E+04  0.62687752273E+03 -0.22161158747E+03  0.13546764977E+04  0.12699999809E+01 0.  1.
       -4    1    3    3    0  502  0.11802794908E+04 -0.62687752273E+03  0.15920260356E+03  0.13458759923E+04  0.12699999809E+01 0. -1.
</event>
<event>
 5   0  0.5043890E-07  0.2697538E+04  0.7818609E-02  0.8335804E-01
        2   -1    0    0  501    0  0.00000000000E+00  0.00000000000E+00  0.20858266177E+04  0.20858266177E+04  0.25500000920E-02 0. -1.
       -2   -1    0    0    0  501  0.00000000000E+00  0.00000000000E+00 -0.87216151656E+03  0.87216151656E+03  0.25500000920E-02 0.  1.
    10030    2    1    2    0    0  0.00000000000E+00  0.00000000000E+00  0.12136651011E+04  0.29579881342E+04  0.26975379190E+04 0.  0.
        3    1    3    3  502    0  0.58531339529E+03  0.38868989884E+03 -0.65563357112E+03  0.96100312068E+03  0.10100000352E+00 0.  1.
       -3    1    3    3    0  502 -0.58531339529E+03 -0.38868989884E+03  0.18692986722E+04  0.19969850135E+04  0.10100000352E+00 0. -1.
</event>
<event>
 5   0  0.1888149E-07  0.2700681E+04  0.7818609E-02  0.8334784E-01
       -1   -1    0    0    0  501  0.00000000000E+00  0.00000000000E+00  0.13454163013E+04  0.13454163013E+04  0.50400001928E-02 0.  1.
        1   -1    0    0  501    0  0.00000000000E+00  0.00000000000E+00 -0.13552832002E+04  0.13552832002E+04  0.50400001928E-02 0. -1.
    10030    2    1    2    0    0  0.00000000000E+00  0.00000000000E+00 -0.98668989052E+01  0.27006995016E+04  0.27006814773E+04 0.  0.
        1    1    3    3  502    0 -0.11994849208E+04  0.69089953298E+02  0.61141684401E+03  0.13480979393E+04  0.50400001928E-02 0.  1.
       -1    1    3    3    0  502  0.11994849208E+04 -0.69089953298E+02 -0.62128374292E+03  0.13526015622E+04  0.50400001928E-02 0. -1.
</event>
<event>
 5   0  0.5043890E-07  0.2699818E+04  0.7818609E-02  0.8335064E-01
       -2   -1    0    0    0  501  0.00000000000E+00  0.00000000000E+00  0.14147943139E+04  0.14147943139E+04  0.25500000920E-02 0.  1.
        2   -1    0    0  501    0  0.00000000000E+00  0.00000000000E+00 -0.12879991347E+04  0.12879991347E+04  0.25500000920E-02 0. -1.
    10030    2    1    2    0    0  0.00000000000E+00  0.00000000000E+00  0.12679517915E+03  0.27027934486E+04  0.26998176621E+04 0.  0.
        3    1    3    3  502    0  0.24857625084E+00  0.13497005312E+04  0.39659513007E+02  0.13502831084E+04  0.10100000352E+00 0.  1.
       -3    1    3    3    0  502 -0.24857625084E+00 -0.13497005312E+04  0.87135666138E+02  0.13525103402E+04  0.10100000352E+00 0. -1.
</event>
<event>
 5   0  0.4983208E-07  0.2699321E+04  0.7818609E-02  0.8335225E-01
       -2   -1    0    0    0  501  0.00000000000E+00  0.00000000000E+00  0.13496926304E+04  0.13496926304E+04  0.25500000920E-02 0. -1.
        2   -1    0    0  501    0  0.00000000000E+00  0.00000000000E+00 -0.13496278838E+04  0.13496278838E+04  0.25500000920E-02 0.  1.
    10030    2    1    2    0    0  0.00000000000E+00  0.00000000000E+00  0.64746551339E-01  0.26993205142E+04  0.26993205134E+04 0.  0.
        4    1    3    3  502    0 -0.70780913918E+03  0.10312498477E+04 -0.50702893446E+03  0.13496480946E+04  0.12699999809E+01 0. -1.
       -4    1    3    3    0  502  0.70780913918E+03 -0.10312498477E+04  0.50709368101E+03  0.13496724196E+04  0.12699999809E+01 0.  1.
</event>
<event>
 5   0  0.1888149E-07  0.2699919E+04  0.7818609E-02  0.8335031E-01
       -1   -1    0    0    0  501  0.00000000000E+00  0.00000000000E+00  0.18121588529E+04  0.18121588529E+04  0.50400001928E-02 0.  1.
        1   -1    0    0  501    0  0.00000000000E+00  0.00000000000E+00 -0.10056458789E+04  0.10056458789E+04  0.50400001928E-02 0. -1.
    10030    2    1    2    0    0  0.00000000000E+00  0.00000000000E+00  0.80651297402E+03  0.28178047319E+04  0.26999185784E+04 0.  0.
        1    1    3    3  502    0  0.12184406018E+03 -0.32238509729E+03 -0.95895822537E+03  0.10190088341E+04  0.50400001928E-02 0. -1.
       -1    1    3    3    0  502 -0.12184406018E+03  0.32238509729E+03  0.17654711994E+04  0.17987958978E+04  0.50400001928E-02 0.  1.
</event>
<event>
 5   0  0.1888149E-07  0.2700179E+04  0.7818609E-02  0.8334947E-01
       -1   -1    0    0    0  501  0.00000000000E+00  0.00000000000E+00  0.10627065051E+04  0.10627065051E+04  0.50400001928E-02 0.  1.
        1   -1    0    0  501    0  0.00000000000E+00  0.00000000000E+00 -0.17151879577E+04  0.17151879577E+04  0.50400001928E-02 0. -1.
    10030    2    1    2    0    0  0.00000000000E+00  0.00000000000E+00 -0.65248145261E+03  0.27778944628E+04  0.27001788089E+04 0.  0.
        1    1    3    3  502    0  0.57383569167E+03  0.93452976064E+03  0.48389340306E+03  0.11986601270E+04  0.50400001928E-02 0.  1.
       -1    1    3    3    0  502 -0.57383569167E+03 -0.93452976064E+03 -0.11363748557E+04  0.15792343357E+04  0.50400001928E-02 0. -1.
</event>
<event>
 5   0  0.4735120E-07  0.2699185E+04  0.7818609E-02  0.8335270E-01
        2   -1    0    0  501    0  0.00000000000E+00  0.00000000000E+00  0.20612540365E+04  0.20612540365E+04  0.25500000920E-02 0.  1.
       -2   -1    0    0    0  501  0.00000000000E+00  0.00000000000E+00 -0.88363660439E+03  0.88363660439E+03  0.25500000920E-02 0. -1.
    10030    2    1    2    0    0  0.00000000000E+00  0.00000000000E+00  0.11776174321E+04  0.29448906409E+04  0.26991847048E+04 0.  0.
        2    1    3    3  502    0  0.78283271050E+03 -0.94802826979E+03 -0.18469486583E+02  0.12296039098E+04  0.25500000920E-02 0. -1.
       -2    1    3    3    0  502 -0.78283271050E+03  0.94802826979E+03  0.11960869187E+04  0.17152867312E+04  0.25500000920E-02 0.  1.
</event>
<event>
 5   0  0.5043890E-07  0.2697214E+04  0.7818609E-02  0.8335909E-01
       -2   -1    0    0    0  501  0.00000000000E+00  0.00000000000E+00  0.14178968856E+04  0.14178968856E+04  0.25500000920E-02 0. -1.
        2   -1    0    0  501    0  0.00000000000E+00  0.00000000000E+00 -0.12827036515E+04  0.12827036515E+04  0.25500000920E-02 0.  1.
    10030    2    1    2    0    0  0.00000000000E+00  0.00000000000E+00  0.13519323408E+03  0.27006005370E+04  0.26972144984E+04 0.  0.
        3    1    3    3  502    0  0.12696765016E+04  0.43891871454E+03  0.18612362711E+03  0.13562337820E+04  0.10100000352E+00 0. -1.
       -3    1    3    3    0  502 -0.12696765016E+04 -0.43891871454E+03 -0.50930393036E+02  0.13443667550E+04  0.10100000352E+00 0.  1.
</event>
<event>
 5   0  0.1965415E-07  0.2700169E+04  0.7818609E-02  0.8334950E-01
       -1   -1    0    0    0  501  0.00000000000E+00  0.00000000000E+00  0.12763760746E+04  0.12763760746E+04  0.50400001928E-02 0. -1.
        1   -1    0    0  501    0  0.00000000000E+00  0.00000000000E+00 -0.14280496782E+04  0.14280496782E+04  0.50400001928E-02 0.  1.
    10030    2    1    2    0    0  0.00000000000E+00  0.00000000000E+00 -0.15167360362E+03  0.27044257528E+04  0.27001692115E+04 0.  0.
        4    1    3    3  502    0  0.24892683415E+03  0.12761477158E+04  0.28834231045E+03  0.13317884450E+04  0.12699999809E+01 0. -1.
       -4    1    3    3    0  502 -0.24892683415E+03 -0.12761477158E+04 -0.44001591408E+03  0.13726373078E+04  0.12699999809E+01 0.  1.
</event>
<event>
 5   0  0.1964242E-07  0.2699833E+04  0.7818609E-02  0.8335059E-01
       -1   -1    0    0    0  501  0.00000000000E+00  0.00000000000E+00  0.11280669686E+04  0.11280669686E+04  0.50400001928E-02 0. -1.
        1   -1    0    0  501    0  0.00000000000E+00  0.00000000000E+00 -0.16153952402E+04  0.16153952403E+04  0.50400001928E-02 0.  1.
    10030    2    1    2    0    0  0.00000000000E+00  0.00000000000E+00 -0.48732827161E+03  0.27434622089E+04  0.26998325962E+04 0.  0.
        2    1    3    3  502    0  0.10492243791E+04  0.23852093749E+03 -0.10720122703E+04  0.15188727211E+04  0.25500000920E-02 0.  1.
       -2    1    3    3    0  502 -0.10492243791E+04 -0.23852093749E+03  0.58468399872E+03  0.12245894878E+04  0.25500000920E-02 0. -1.
</event>
<event>
 5   0  0.1888149E-07  0.2700052E+04  0.7818609E-02  0.8334988E-01
        1   -1    0    0  501    0  0.00000000000E+00  0.00000000000E+00  0.15816874112E+04  0.15816874112E+04  0.50400001928E-02 0.  1.
       -1   -1    0    0    0  501  0.00000000000E+00  0.00000000000E+00 -0.11522950928E+04  0.11522950928E+04  0.50400001928E-02 0. -1.
    10030    2    1    2    0    0  0.00000000000E+00  0.00000000000E+00  0.42939231843E+03  0.27339825040E+04  0.27000523271E+04 0.  0.
        1    1    3    3  502    0  0.59780381169E+03 -0.99359655422E+03  0.91473569270E+03  0.14769376755E+04  0.50400001928E-02 0.  1.
       -1    1    3    3    0  502 -0.59780381169E+03  0.99359655422E+03 -0.48534337427E+03  0.12570448285E+04  0.50400001928E-02 0. -1.
</event>
<event>
 5   0  0.4735120E-07  0.2698464E+04  0.7818609E-02  0.8335504E-01
        2   -1    0    0  501    0  0.00000000000E+00  0.00000000000E+00  0.16291290743E+04  0.16291290743E+04  0.25500000920E-02 0.  1.
       -2   -1    0    0    0  501  0.00000000000E+00  0.00000000000E+00 -0.11174231926E+04  0.11174231926E+04  0.25500000920E-02 0. -1.
    10030    2    1    2    0    0  0.00000000000E+00  0.00000000000E+00  0.51170588176E+03  0.27465522669E+04  0.26984637195E+04 0.  0.
        2    1    3    3  502    0  0.12301989405E+04 -0.49565950366E+03  0.37314679549E+01  0.13263037739E+04  0.25500000920E-02 0.  1.
       -2    1    3    3    0  502 -0.12301989405E+04  0.49565950366E+03  0.50797441381E+03  0.14202484930E+04  0.25500000920E-02 0. -1.
</event>
<event>
 5   0  0.1971600E-07  0.2702025E+04  0.7818609E-02  0.8334348E-01
       -1   -1    0    0    0  501  0.00000000000E+00  0.00000000000E+00  0.15663159024E+04  0.15663159024E+04  0.50400001928E-02 0.  1.
        1   -1    0    0  501    0  0.00000000000E+00  0.00000000000E+00 -0.11653045787E+04  0.11653045787E+04  0.50400001928E-02 0. -1.
    10030    2    1    2    0    0  0.00000000000E+00  0.00000000000E+00  0.40101132371E+03  0.27316204812E+04  0.27020252352E+04 0.  0.
        5    1    3    3  502    0 -0.32268694213E+03  0.12628067486E+04 -0.15892367852E+03  0.13130447717E+04  0.46999998093E+01 0. -1.
       -5    1    3    3    0  502  0.32268694213E+03 -0.12628067486E+04  0.55993500222E+03  0.14185757095E+04  0.46999998093E+01 0.  1.
</event>
<event>
 5   0  0.1937896E-07  0.2700355E+04  0.7818609E-02  0.8334890E-01
       -1   -1    0    0    0  501  0.00000000000E+00  0.00000000000E+00  0.81930303663E+03  0.81930303664E+03  0.50400001928E-02 0.  1.
        1   -1    0    0  501    0  0.00000000000E+00  0.00000000000E+00 -0.22250365562E+04  0.22250365562E+04  0.50400001928E-02 0. -1.
    10030    2    1    2    0    0  0.00000000000E+00  0.00000000000E+00 -0.14057335195E+04  0.30443395928E+04  0.27003549449E+04 0.  0.
        3    1    3    3  502    0 -0.96142673010E+02  0.44430884524E+03  0.73043173912E+03  0.86033964180E+03  0.10100000352E+00 0.  1.
       -3    1    3    3    0  502  0.96142673010E+02 -0.44430884524E+03 -0.21361652587E+04  0.21839999510E+04  0.10100000352E+00 0. -1.
</event>
<event>
 5   0  0.5043890E-07  0.2699413E+04  0.7818609E-02  0.8335196E-01
       -2   -1    0    0    0  501  0.00000000000E+00  0.00000000000E+00  0.11606260740E+04  0.11606260740E+04  0.25500000920E-02 0. -1.
        2   -1    0    0  501    0  0.00000000000E+00  0.00000000000E+00 -0.15695900466E+04  0.15695900466E+04  0.25500000920E-02 0.  1.
    10030    2    1    2    0    0  0.00000000000E+00  0.00000000000E+00 -0.40896397264E+03  0.27302161206E+04  0.26994126276E+04 0.  0.
        3    1    3    3  502    0 -0.51426132021E+03 -0.72077449719E+03  0.82583109515E+03  0.12107756147E+04  0.10100000352E+00 0. -1.
       -3    1    3    3    0  502  0.51426132021E+03  0.72077449719E+03 -0.12347950678E+04  0.15194405059E+04  0.10100000352E+00 0.  1.
</event>
<event>
 5   0  0.5043890E-07  0.2699903E+04  0.7818609E-02  0.8335037E-01
        2   -1    0    0  501    0  0.00000000000E+00  0.00000000000E+00  0.22867044451E+04  0.22867044451E+04  0.25500000920E-02 0. -1.
       -2   -1    0    0    0  501  0.00000000000E+00  0.00000000000E+00 -0.79694111872E+03  0.79694111873E+03  0.25500000920E-02 0.  1.
    10030    2    1    2    0    0  0.00000000000E+00  0.00000000000E+00  0.14897633264E+04  0.30836455638E+04  0.26999028121E+04 0.  0.
        3    1    3    3  502    0 -0.10623496376E+04  0.42488687934E+03 -0.73361048409E+02  0.11465153581E+04  0.10100000352E+00 0.  1.
       -3    1    3    3    0  502  0.10623496376E+04 -0.42488687934E+03  0.15631243748E+04  0.19371302057E+04  0.10100000352E+00 0. -1.
</event>
<event>
 5   0  0.1888149E-07  0.2699186E+04  0.7818609E-02  0.8335269E-01
       -1   -1    0    0    0  501  0.00000000000E+00  0.00000000000E+00  0.18590596224E+04  0.18590596224E+04  0.50400001928E-02 0. -1.
        1   -1    0    0  501    0  0.00000000000E+00  0.00000000000E+00 -0.97974351156E+03  0.97974351157E+03  0.50400001928E-02 0.  1.
    10030    2    1    2    0    0  0.00000000000E+00  0.00000000000E+00  0.87931611079E+03  0.28388031339E+04  0.26991862497E+04 0.  0.
        1    1    3    3  502    0 -0.18082969042E+03 -0.78762060514E+03 -0.69715753584E+03  0.10672742030E+04  0.50400001928E-02 0.  1.
       -1    1    3    3    0  502  0.18082969042E+03  0.78762060514E+03  0.15764736466E+04  0.17715289309E+04  0.50400001928E-02 0. -1.
</event>
<event>
 5   0  0.4992668E-07  0.2701272E+04  0.7818609E-02  0.8334592E-01
       -2   -1    0    0    0  501  0.00000000000E+00  0.00000000000E+00  0.10898192470E+04  0.10898192470E+04  0.25500000920E-02 0. -1.
        2   -1    0    0  501    0  0.00000000000E+00  0.00000000000E+00 -0.16738719142E+04  0.16738719142E+04  0.25500000920E-02 0.  1.
    10030    2    1    2    0    0  0.00000000000E+00  0.00000000000E+00 -0.58405266721E+03  0.27636911613E+04  0.27012721664E+04 0.  0.
        1    1    3    3  502    0 -0.93032560755E+03  0.16952518897E+02 -0.12936398254E+04  0.15935172173E+04  0.50400001928E-02 0.  1.
       -1    1    3    3    0  502  0.93032560755E+03 -0.16952518897E+02  0.70958715821E+03  0.11701739439E+04  0.50400001928E-02 0. -1.
</event>
<event>
 5   0  0.1965415E-07  0.2699251E+04  0.7818609E-02  0.8335248E-01
        1   -1    0    0  501    0  0.00000000000E+00  0.00000000000E+00  0.17099555303E+04  0.17099555303E+04  0.50400001928E-02 0. -1.
       -1   -1    0    0    0  501  0.00000000000E+00  0.00000000000E+00 -0.10652260170E+04  0.10652260170E+04  0.50400001928E-02 0.  1.
    10030    2    1    2    0    0  0.00000000000E+00  0.00000000000E+00  0.64472951325E+03  0.27751815473E+04  0.26992510952E+04 0.  0.
        4    1    3    3  502    0 -0.88476235335E+03  0.98107322891E+03  0.38596346953E+02  0.13216657646E+04  0.12699999809E+01 0.  1.
       -4    1    3    3    0  502  0.88476235335E+03 -0.98107322891E+03  0.60613316629E+03  0.14535157827E+04  0.12699999809E+01 0. -1.
</event>
<event>
 5   0  0.1888149E-07  0.2699796E+04  0.7818609E-02  0.8335071E-01
       -1   -1    0    0    0  501  0.00000000000E+00  0.00000000000E+00  0.10146978273E+04  0.10146978273E+04  0.50400001928E-02 0. -1.
        1   -1    0    0  501    0  0.00000000000E+00  0.00000000000E+00 -0.17958304367E+04  0.17958304367E+04  0.50400001928E-02 0.  1.
    10030    2    1    2    0    0  0.00000000000E+00  0.00000000000E+00 -0.78113260941E+03  0.28105282639E+04  0.26997964680E+04 0.  0.
        1    1    3    3  502    0 -0.93519974289E+02  0.98735769988E+03 -0.13438790615E+04  0.16702191907E+04  0.50400001928E-02 0.  1.
       -1    1    3    3    0  502  0.93519974289E+02 -0.98735769988E+03  0.56274645208E+03  0.11403090732E+04  0.50400001928E-02 0. -1.
</event>
<event>
 5   0  0.1964242E-07  0.2699196E+04  0.7818609E-02  0.8335266E-01
        1   -1    0    0  501    0  0.00000000000E+00  0.00000000000E+00  0.28924940643E+04  0.28924940643E+04  0.50400001928E-02 0.  1.
       -1   -1    0    0    0  501  0.00000000000E+00  0.00000000000E+00 -0.62970409908E+03  0.62970409910E+03  0.50400001928E-02 0. -1.
    10030    2    1    2    0    0  0.00000000000E+00  0.00000000000E+00  0.22627899653E+04  0.35221981634E+04  0.26991964500E+04 0.  0.
        2    1    3    3  502    0  0.11469282852E+04  0.68660520865E+02  0.20552617573E+04  0.23546251611E+04  0.25500000920E-02 0.  1.
       -2    1    3    3    0  502 -0.11469282852E+04 -0.68660520865E+02  0.20752820800E+03  0.11675730023E+04  0.25500000920E-02 0. -1.
</event>
<event>
 5   0  0.4992668E-07  0.2700736E+04  0.7818609E-02  0.8334766E-01
        2   -1    0    0  501    0  0.00000000000E+00  0.00000000000E+00  0.19531119745E+04  0.19531119745E+04  0.25500000920E-02 0. -1.
       -2   -1    0    0    0  501  0.00000000000E+00  0.00000000000E+00 -0.93363514735E+03  0.93363514736E+03  0.25500000920E-02 0.  1.
    10030    2    1    2    0    0  0.00000000000E+00  0.00000000000E+00  0.10194768272E+04  0.28867471219E+04  0.27007361857E+04 0.  0.
        1    1    3    3  502    0  0.10787702667E+04  0.71889571294E+03  0.10562813244E+03  0.13006589241E+04  0.50400001928E-02 0.  1.
       -1    1    3    3    0  502 -0.10787702667E+04 -0.71889571294E+03  0.91384869472E+03  0.15860881978E+04  0.50400001928E-02 0. -1.
</event>
<event>
 5   0  0.1965415E-07  0.2699488E+04  0.7818609E-02  0.8335171E-01
       -1   -1    0    0    0  501  0.00000000000E+00  0.00000000000E+00  0.13962677201E+04  0.13962677202E+04  0.50400001928E-02 0. -1.
        1   -1    0    0  501    0  0.00000000000E+00  0.00000000000E+00 -0.13047709257E+04  0.13047709257E+04  0.50400001928E-02 0.  1.
    10030    2    1    2    0    0  0.00000000000E+00  0.00000000000E+00  0.91496794488E+02  0.27010386458E+04  0.26994884891E+04 0.  0.
        4    1    3    3  502    0  0.12644035128E+04 -0.30363318009E+03 -0.31625842489E+03  0.13382564610E+04  0.12699999809E+01 0.  1.
       -4    1    3    3    0  502 -0.12644035128E+04  0.30363318009E+03  0.40775521937E+03  0.13627821848E+04  0.12699999809E+01 0. -1.
</event>
<event>
 5   0  0.1964242E-07  0.2697600E+04  0.7818609E-02  0.8335784E-01
        1   -1    0    0  501    0  0.00000000000E+00  0.00000000000E+00  0.13139296850E+04  0.13139296850E+04  0.50400001928E-02 0.  1.
       -1   -1    0    0    0  501  0.00000000000E+00  0.00000000000E+00 -0.13845958362E+04  0.13845958362E+04  0.50400001928E-02 0. -1.
    10030    2    1    2    0    0  0.00000000000E+00  0.00000000000E+00 -0.70666151222E+02  0.26985255212E+04  0.26976000970E+04 0.  0.
        2    1    3    3  502    0  0.13424762354E+04  0.32471674806E+02 -0.16172798825E+03  0.13525726578E+04  0.25500000920E-02 0. -1.
       -2    1    3    3    0  502 -0.13424762354E+04 -0.32471674806E+02  0.91061837028E+02  0.13459528634E+04  0.25500000920E-02 0.  1.
</event>
<event>
 5   0  0.4735120E-07  0.2700521E+04  0.7818609E-02  0.8334836E-01
       -2   -1    0    0    0  501  0.00000000000E+00  0.00000000000E+00  0.93848555839E+03  0.93848555839E+03  0.25500000920E-02 0. -1.
        2   -1    0    0  501    0  0.00000000000E+00  0.00000000000E+00 -0.19427082586E+04  0.19427082586E+04  0.25500000920E-02 0.  1.
    10030    2    1    2    0    0  0.00000000000E+00  0.00000000000E+00 -0.10042227002E+04  0.28811938170E+04  0.27005211681E+04 0.  0.
        2    1    3    3  502    0  0.11382050638E+04  0.61519548244E+03 -0.91425552728E+03  0.15842472718E+04  0.25500000920E-02 0.  1.
       -2    1    3    3    0  502 -0.11382050638E+04 -0.61519548244E+03 -0.89967172900E+02  0.12969465452E+04  0.25500000920E-02 0. -1.
</event>
<event>
 5   0  0.1937896E-07  0.2698779E+04  0.7818609E-02  0.8335401E-01
       -1   -1    0    0    0  501  0.00000000000E+00  0.00000000000E+00  0.74790224698E+03  0.74790224700E+03  0.50400001928E-02 0. -1.
        1   -1    0    0  501    0  0.00000000000E+00  0.00000000000E+00 -0.24346128462E+04  0.24346128462E+04  0.50400001928E-02 0.  1.
    10030    2    1    2    0    0  0.00000000000E+00  0.00000000000E+00 -0.16867105992E+04  0.31825150932E+04  0.26987792931E+04 0.  0.
        3    1    3    3  502    0  0.58092264704E+03 -0.12175571663E+04 -0.80728063652E+03  0.15721382291E+04  0.10100000352E+00 0. -1.
       -3    1    3    3    0  502 -0.58092264704E+03  0.12175571663E+04 -0.87942996268E+03  0.16103768641E+04  0.10100000352E+00 0.  1.
</event>
<event>
 5   0  0.4843887E-07  0.2699728E+04  0.7818609E-02  0.8335093E-01
        2   -1    0    0  501    0  0.00000000000E+00  0.00000000000E+00  0.10870400873E+04  0.10870400873E+04  0.25500000920E-02 0. -1.
       -2   -1    0    0    0  501  0.00000000000E+00  0.00000000000E+00 -0.16762334777E+04  0.16762334777E+04  0.25500000920E-02 0.  1.
    10030    2    1    2    0    0  0.00000000000E+00  0.00000000000E+00 -0.58919339037E+03  0.27632735650E+04  0.26997281240E+04 0.  0.
        5    1    3    3  502    0  0.13328303238E+04  0.13972110935E+03 -0.12907372880E+03  0.13463434844E+04  0.46999998093E+01 0.  1.
       -5    1    3    3    0  502 -0.13328303238E+04 -0.13972110935E+03 -0.46011966157E+03  0.14169300806E+04  0.46999998093E+01 0. -1.
</event>
<event>
 5   0  0.1937896E-07  0.2693305E+04  0.7818609E-02  0.8337181E-01
        1   -1    0    0  501    0  0.00000000000E+00  0.00000000000E+00  0.97346016510E+03  0.97346016512E+03  0.50400001928E-02 0. -1.
       -1   -1    0    0    0  501  0.00000000000E+00  0.00000000000E+00 -0.18629137091E+04  0.18629137091E+04  0.50400001928E-02 0.  1.
    10030    2    1    2    0    0  0.00000000000E+00  0.00000000000E+00 -0.88945354398E+03  0.28363738742E+04  0.26933045033E+04 0.  0.
        3    1    3    3  502    0 -0.72307939845E+03  0.11324477391E+04 -0.34941746664E+03  0.13882990580E+04  0.10100000352E+00 0. -1.
       -3    1    3    3    0  502  0.72307939845E+03 -0.11324477391E+04 -0.54003607734E+03  0.14480748162E+04  0.10100000352E+00 0.  1.
</event>
<event>
 5   0  0.4735120E-07  0.2700883E+04  0.7818609E-02  0.8334719E-01
        2   -1    0    0  501    0  0.00000000000E+00  0.00000000000E+00  0.92513519823E+03  0.92513519824E+03  0.25500000920E-02 0. -1.
       -2   -1    0    0    0  501  0.00000000000E+00  0.00000000000E+00 -0.19712704497E+04  0.19712704497E+04  0.25500000920E-02 0.  1.
    10030    2    1    2    0    0  0.00000000000E+00  0.00000000000E+00 -0.10461352514E+04  0.28964056479E+04  0.27008825804E+04 0.  0.
        2    1    3    3  502    0 -0.25198230521E+03 -0.10457787617E+04 -0.13985912936E+04  0.17644279263E+04  0.25500000920E-02 0.  1.
       -2    1    3    3    0  502  0.25198230521E+03  0.10457787617E+04  0.35245604219E+03  0.11319777216E+04  0.25500000920E-02 0. -1.
</event>
<event>
 5   0  0.4735120E-07  0.2699887E+04  0.7818609E-02  0.8335042E-01
        2   -1    0    0  501    0  0.00000000000E+00  0.00000000000E+00  0.28518384271E+04  0.28518384271E+04  0.25500000920E-02 0. -1.
       -2   -1    0    0    0  501  0.00000000000E+00  0.00000000000E+00 -0.63900809470E+03  0.63900809471E+03  0.25500000920E-02 0.  1.
    10030    2    1    2    0    0  0.00000000000E+00  0.00000000000E+00  0.22128303324E+04  0.34908465218E+04  0.26998872863E+04 0.  0.
        2    1    3    3  502    0 -0.13226775191E+04  0.26340163912E+03  0.10300144992E+04  0.16969932562E+04  0.25500000920E-02 0.  1.
       -2    1    3    3    0  502  0.13226775191E+04 -0.26340163912E+03  0.11828158333E+04  0.17938532656E+04  0.25500000920E-02 0. -1.
</event>
<event>
 5   0  0.1888149E-07  0.2699659E+04  0.7818609E-02  0.8335116E-01
        1   -1    0    0  501    0  0.00000000000E+00  0.00000000000E+00  0.13746329554E+04  0.13746329554E+04  0.50400001928E-02 0. -1.
       -1   -1    0    0    0  501  0.00000000000E+00  0.00000000000E+00 -0.13254737155E+04  0.13254737155E+04  0.50400001928E-02 0.  1.
    10030    2    1    2    0    0  0.00000000000E+00  0.00000000000E+00  0.49159239902E+02  0.27001066709E+04  0.26996591272E+04 0.  0.
        1    1    3    3  502    0  0.75135212125E+03  0.52489240651E+03 -0.96654268138E+03  0.13320085598E+04  0.50400001928E-02 0.  1.
       -1    1    3    3    0  502 -0.75135212125E+03 -0.52489240651E+03  0.10157019213E+04  0.13680981110E+04  0.50400001928E-02 0. -1.
</event>
<event>
 5   0  0.5043890E-07  0.2700063E+04  0.7818609E-02  0.8334985E-01
       -2   -1    0    0    0  501  0.00000000000E+00  0.00000000000E+00  0.12149325616E+04  0.12149325616E+04  0.25500000920E-02 0. -1.
        2   -1    0    0  501    0  0.00000000000E+00  0.00000000000E+00 -0.15001532478E+04  0.15001532478E+04  0.25500000920E-02 0.  1.
    10030    2    1    2    0    0  0.00000000000E+00  0.00000000000E+00 -0.28522068625E+03  0.27150858094E+04  0.27000629831E+04 0.  0.
        3    1    3    3  502    0  0.56896811988E+02  0.24804038444E+03 -0.14758165520E+04  0.14975966697E+04  0.10100000352E+00 0.  1.
       -3    1    3    3    0  502 -0.56896811988E+02 -0.24804038444E+03  0.11905958658E+04  0.12174891397E+04  0.10100000352E+00 0. -1.
</event>
<event>
 5   0  0.4735120E-07  0.2700034E+04  0.7818609E-02  0.8334994E-01
       -2   -1    0    0    0  501  0.00000000000E+00  0.00000000000E+00  0.13208184878E+04  0.13208184878E+04  0.25500000920E-02 0. -1.
        2   -1    0    0  501    0  0.00000000000E+00  0.00000000000E+00 -0.13798613782E+04  0.13798613782E+04  0.25500000920E-02 0.  1.
    10030    2    1    2    0    0  0.00000000000E+00  0.00000000000E+00 -0.59042890430E+02  0.27006798660E+04  0.27000343841E+04 0.  0.
        2    1    3    3  502    0 -0.14711808430E+03 -0.85200861793E+03 -0.10665836638E+04  0.13730124281E+04  0.25500000920E-02 0.  1.
       -2    1    3    3    0  502  0.14711808430E+03  0.85200861793E+03  0.10075407733E+04  0.13276674379E+04  0.25500000920E-02 0. -1.
</event>
<event>
 5   0  0.1937896E-07  0.2700140E+04  0.7818609E-02  0.8334960E-01
       -1   -1    0    0    0  501  0.00000000000E+00  0.00000000000E+00  0.77925020202E+03  0.77925020204E+03  0.50400001928E-02 0. -1.
        1   -1    0    0  501    0  0.00000000000E+00  0.00000000000E+00 -0.23390290763E+04  0.23390290763E+04  0.50400001928E-02 0.  1.
    10030    2    1    2    0    0  0.00000000000E+00  0.00000000000E+00 -0.15597788743E+04  0.31182792784E+04  0.27001399077E+04 0.  0.
        3    1    3    3  502    0  0.53430396793E+03  0.22119056370E+03 -0.21887612594E+04  0.22638643636E+04  0.10100000352E+00 0.  1.
       -3    1    3    3    0  502 -0.53430396793E+03 -0.22119056370E+03  0.62898238514E+03  0.85441491480E+03  0.10100000352E+00 0. -1.
</event>
<event>
 5   0  0.1937896E-07  0.2699058E+04  0.7818609E-02  0.8335311E-01
       -1   -1    0    0    0  501  0.00000000000E+00  0.00000000000E+00  0.10162285207E+04  0.10162285207E+04  0.50400001928E-02 0. -1.
        1   -1    0    0  501    0  0.00000000000E+00  0.00000000000E+00 -0.17921448175E+04  0.17921448176E+04  0.50400001928E-02 0.  1.
    10030    2    1    2    0    0  0.00000000000E+00  0.00000000000E+00 -0.77591629687E+03  0.28083733382E+04  0.26990581148E+04 0.  0.
        3    1    3    3  502    0  0.63942898260E+03  0.90394861238E+03  0.41480468058E+03  0.11823939491E+04  0.10100000352E+00 0. -1.
       -3    1    3    3    0  502 -0.63942898260E+03 -0.90394861238E+03 -0.11907209775E+04  0.16259793892E+04  0.10100000352E+00 0.  1.
</event>
<event>
 5   0  0.1965415E-07  0.2700321E+04  0.7818609E-02  0.8334901E-01
        1   -1    0    0  501    0  0.00000000000E+00  0.00000000000E+00  0.83156955994E+03  0.83156955995E+03  0.50400001928E-02 0.  1.
       -1   -1    0    0    0  501  0.00000000000E+00  0.00000000000E+00 -0.21921598724E+04  0.21921598724E+04  0.50400001928E-02 0. -1.
    10030    2    1    2    0    0  0.00000000000E+00  0.00000000000E+00 -0.13605903125E+04  0.30237294324E+04  0.27003210331E+04 0.  0.
        4    1    3    3  502    0 -0.11272661620E+04 -0.28783537424E+03 -0.14474404180E+04  0.18570577749E+04  0.12699999809E+01 0. -1.
       -4    1    3    3    0  502  0.11272661620E+04  0.28783537424E+03  0.86850105577E+02  0.11666716575E+04  0.12699999809E+01 0.  1.
</event>
<event>
 5   0  0.5043890E-07  0.2699638E+04  0.7818609E-02  0.8335123E-01
        2   -1    0    0  501    0  0.00000000000E+00  0.00000000000E+00  0.85305782959E+03  0.85305782959E+03  0.25500000920E-02 0. -1.
       -2   -1    0    0    0  501  0.00000000000E+00  0.00000000000E+00 -0.21358585999E+04  0.21358585999E+04  0.25500000920E-02 0.  1.
    10030    2    1    2    0    0  0.00000000000E+00  0.00000000000E+00 -0.12828007703E+04  0.29889164295E+04  0.26996376806E+04 0.  0.
        3    1    3    3  502    0 -0.15651560135E+03  0.74114459494E+03  0.59555372892E+03  0.96357495728E+03  0.10100000352E+00 0. -1.
       -3    1    3    3    0  502  0.15651560135E+03 -0.74114459494E+03 -0.18783544993E+04  0.20253414722E+04  0.10100000352E+00 0.  1.
</event>
<event>
 5   0  0.4735120E-07  0.2697446E+04  0.7818609E-02  0.8335834E-01
        2   -1    0    0  501    0  0.00000000000E+00  0.00000000000E+00  0.11947541400E+04  0.11947541400E+04  0.25500000920E-02 0. -1.
       -2   -1    0    0    0  501  0.00000000000E+00  0.00000000000E+00 -0.15225342289E+04  0.15225342289E+04  0.25500000920E-02 0.  1.
    10030    2    1    2    0    0  0.00000000000E+00  0.00000000000E+00 -0.32778008894E+03  0.27172883690E+04  0.26974462540E+04 0.  0.
        2    1    3    3  502    0  0.35323530200E+03 -0.18978322671E+03  0.11333173095E+04  0.12021651200E+04  0.25500000920E-02 0. -1.
       -2    1    3    3    0  502 -0.35323530200E+03  0.18978322671E+03 -0.14610973985E+04  0.15151232489E+04  0.25500000920E-02 0.  1.
</event>
<event>
 5   0  0.4983208E-07  0.2698839E+04  0.7818609E-02  0.8335382E-01
       -2   -1    0    0    0  501  0.00000000000E+00  0.00000000000E+00  0.75761354998E+03  0.75761354998E+03  0.25500000920E-02 0.  1.
        2   -1    0    0  501    0  0.00000000000E+00  0.00000000000E+00 -0.24035109278E+04  0.24035109278E+04  0.25500000920E-02 0. -1.
    10030    2    1    2    0    0  0.00000000000E+00  0.00000000000E+00 -0.16458973778E+04  0.31611244778E+04  0.26988385994E+04 0.  0.
        4    1    3    3  502    0 -0.10821566619E+04 -0.80231099884E+03 -0.73098294825E+03  0.15326785910E+04  0.12699999809E+01 0.  1.
       -4    1    3    3    0  502  0.10821566619E+04  0.80231099884E+03 -0.91491442957E+03  0.16284458868E+04  0.12699999809E+01 0. -1.
</event>
<event>
 5   0  0.1964242E-07  0.2708954E+04  0.7818609E-02  0.8332106E-01
       -1   -1    0    0    0  501  0.00000000000E+00  0.00000000000E+00  0.10708675814E+04  0.10708675814E+04  0.50400001928E-02 0. -1.
        1   -1    0    0  501    0  0.00000000000E+00  0.00000000000E+00 -0.17131975517E+04  0.17131975518E+04  0.50400001928E-02 0.  1.
    10030    2    1    2    0    0  0.00000000000E+00  0.00000000000E+00 -0.64232997034E+03  0.27840651332E+04  0.27089538340E+04 0.  0.
        2    1    3    3  502    0  0.11712633074E+04  0.67210493327E+03 -0.21325392799E+03  0.13671356971E+04  0.25500000920E-02 0. -1.
       -2    1    3    3    0  502 -0.11712633074E+04 -0.67210493327E+03 -0.42907604235E+03  0.14169294360E+04  0.25500000920E-02 0.  1.
</event>
<event>
 5   0  0.5043890E-07  0.2695840E+04  0.7818609E-02  0.8336356E-01
       -2   -1    0    0    0  501  0.00000000000E+00  0.00000000000E+00  0.96621933672E+03  0.96621933672E+03  0.25500000920E-02 0.  1.
        2   -1    0    0  501    0  0.00000000000E+00  0.00000000000E+00 -0.18804097231E+04  0.18804097231E+04  0.25500000920E-02 0. -1.
    10030    2    1    2    0    0  0.00000000000E+00  0.00000000000E+00 -0.91419038633E+03  0.28466290598E+04  0.26958399325E+04 0.  0.
        3    1    3    3  502    0  0.10572896722E+04 -0.14215202658E+03  0.41289419521E+03  0.11439188242E+04  0.10100000352E+00 0. -1.
       -3    1    3    3    0  502 -0.10572896722E+04  0.14215202658E+03 -0.13270845815E+04  0.17027102356E+04  0.10100000352E+00 0.  1.
</event>
<event>
 5   0  0.4735120E-07  0.2686130E+04  0.7818609E-02  0.8339519E-01
        2   -1    0    0  501    0  0.00000000000E+00  0.00000000000E+00  0.13199729786E+04  0.13199729786E+04  0.25500000920E-02 0.  1.
       -2   -1    0    0    0  501  0.00000000000E+00  0.00000000000E+00 -0.13665608567E+04  0.13665608567E+04  0.25500000920E-02 0. -1.
    10030    2    1    2    0    0  0.00000000000E+00  0.00000000000E+00 -0.46587878120E+02  0.26865338354E+04  0.26861298588E+04 0.  0.
        2    1    3    3  502    0  0.12481760093E+04 -0.15260219195E+03 -0.49516212330E+03  0.13514497059E+04  0.25500000920E-02 0. -1.
       -2    1    3    3    0  502 -0.12481760093E+04  0.15260219195E+03  0.44857424518E+03  0.13350841295E+04  0.25500000920E-02 0.  1.
</event>
<event>
 5   0  0.1888149E-07  0.2699898E+04  0.7818609E-02  0.8335038E-01
        1   -1    0    0  501    0  0.00000000000E+00  0.00000000000E+00  0.14515706813E+04  0.14515706814E+04  0.50400001928E-02 0.  1.
       -1   -1    0    0    0  501  0.00000000000E+00  0.00000000000E+00 -0.12554413520E+04  0.12554413520E+04  0.50400001928E-02 0. -1.
    10030    2    1    2    0    0  0.00000000000E+00  0.00000000000E+00  0.19612932937E+03  0.27070120333E+04  0.26998976712E+04 0.  0.
        1    1    3    3  502    0  0.33627897106E+03  0.31103192557E+03 -0.11751387283E+04  0.12612594642E+04  0.50400001928E-02 0. -1.
       -1    1    3    3    0  502 -0.33627897106E+03 -0.31103192557E+03  0.13712680577E+04  0.14457525692E+04  0.50400001928E-02 0.  1.
</event>
<event>
 5   0  0.1971600E-07  0.2699973E+04  0.7818609E-02  0.8335014E-01
       -1   -1    0    0    0  501  0.00000000000E+00  0.00000000000E+00  0.16858112348E+04  0.16858112348E+04  0.50400001928E-02 0. -1.
        1   -1    0    0  501    0  0.00000000000E+00  0.00000000000E+00 -0.10810604817E+04  0.10810604817E+04  0.50400001928E-02 0.  1.
    10030    2    1    2    0    0  0.00000000000E+00  0.00000000000E+00  0.60475075305E+03  0.27668717165E+04  0.26999732633E+04 0.  0.
        5    1    3    3  502    0  0.10107943762E+04 -0.60495102488E+01  0.12193650829E+04  0.15838608408E+04  0.46999998093E+01 0. -1.
       -5    1    3    3    0  502 -0.10107943762E+04  0.60495102488E+01 -0.61461432984E+03  0.11830108757E+04  0.46999998093E+01 0.  1.
</event>
<event>
 5   0  0.1965415E-07  0.2693872E+04  0.7818609E-02  0.8336996E-01
       -1   -1    0    0    0  501  0.00000000000E+00  0.00000000000E+00  0.12547781196E+04  0.12547781196E+04  0.50400001928E-02 0. -1.
        1   -1    0    0  501    0  0.00000000000E+00  0.00000000000E+00 -0.14458624436E+04  0.14458624436E+04  0.50400001928E-02 0.  1.
    10030    2    1    2    0    0  0.00000000000E+00  0.00000000000E+00 -0.19108432396E+03  0.27006405632E+04  0.26938719778E+04 0.  0.
        4    1    3    3  502    0 -0.12133731817E+04 -0.40630888001E+03 -0.51716224924E+03  0.13801520891E+04  0.12699999809E+01 0.  1.
       -4    1    3    3    0  502  0.12133731817E+04  0.40630888001E+03  0.32607792528E+03  0.13204884741E+04  0.12699999809E+01 0. -1.
</event>
<event>
 5   0  0.1937896E-07  0.2701347E+04  0.7818609E-02  0.8334568E-01
        1   -1    0    0  501    0  0.00000000000E+00  0.00000000000E+00  0.14950393540E+04  0.14950393541E+04  0.50400001928E-02 0.  1.
       -1   -1    0    0    0  501  0.00000000000E+00  0.00000000000E+00 -0.12202477293E+04  0.12202477293E+04  0.50400001928E-02 0. -1.
    10030    2    1    2    0    0  0.00000000000E+00  0.00000000000E+00  0.27479162477E+03  0.27152870833E+04  0.27013466101E+04 0.  0.
        3    1    3    3  502    0  0.38156009896E+03 -0.32025847305E+03  0.13993286725E+04  0.14853532719E+04  0.10100000352E+00 0.  1.
       -3    1    3    3    0  502 -0.38156009896E+03  0.32025847305E+03 -0.11245370477E+04  0.12299338114E+04  0.10100000352E+00 0. -1.
</event>
<event>
 5   0  0.5043890E-07  0.2699114E+04  0.7818609E-02  0.8335292E-01
       -2   -1    0    0    0  501  0.00000000000E+00  0.00000000000E+00  0.11766516094E+04  0.11766516095E+04  0.25500000920E-02 0.  1.
        2   -1    0    0  501    0  0.00000000000E+00  0.00000000000E+00 -0.15478708172E+04  0.15478708172E+04  0.25500000920E-02 0. -1.
    10030    2    1    2    0    0  0.00000000000E+00  0.00000000000E+00 -0.37121920774E+03  0.27245224266E+04  0.26991144387E+04 0.  0.
        3    1    3    3  502    0 -0.97533257333E+03  0.42967280909E+03 -0.10212992933E+04  0.14761248620E+04  0.10100000352E+00 0. -1.
       -3    1    3    3    0  502  0.97533257333E+03 -0.42967280909E+03  0.65008008560E+03  0.12483975646E+04  0.10100000352E+00 0.  1.
</event>
<event>
 5   0  0.1965415E-07  0.2700990E+04  0.7818609E-02  0.8334684E-01
       -1   -1    0    0    0  501  0.00000000000E+00  0.00000000000E+00  0.16616215677E+04  0.16616215677E+04  0.50400001928E-02 0. -1.
        1   -1    0    0  501    0  0.00000000000E+00  0.00000000000E+00 -0.10976247199E+04  0.10976247199E+04  0.50400001928E-02 0.  1.
    10030    2    1    2    0    0  0.00000000000E+00  0.00000000000E+00  0.56399684781E+03  0.27592462876E+04  0.27009901205E+04 0.  0.
        4    1    3    3  502    0 -0.38626444136E+03 -0.12617685386E+04  0.57555537641E+03  0.14396269197E+04  0.12699999809E+01 0. -1.
       -4    1    3    3    0  502  0.38626444136E+03  0.12617685386E+04 -0.11558528605E+02  0.13196193679E+04  0.12699999809E+01 0.  1.
</event>
<event>
 5   0  0.4992668E-07  0.2697388E+04  0.7818609E-02  0.8335853E-01
        2   -1    0    0  501    0  0.00000000000E+00  0.00000000000E+00  0.17751251144E+04  0.17751251144E+04  0.25500000920E-02 0. -1.
       -2   -1    0    0    0  501  0.00000000000E+00  0.00000000000E+00 -0.10247027149E+04  0.10247027149E+04  0.25500000920E-02 0.  1.
    10030    2    1    2    0    0  0.00000000000E+00  0.00000000000E+00  0.75042239958E+03  0.27998278293E+04  0.26973880136E+04 0.  0.
        1    1    3    3  502    0  0.55954133254E+03 -0.92219600204E+03 -0.46512979670E+03  0.11746819556E+04  0.50400001928E-02 0.  1.
       -1    1    3    3    0  502 -0.55954133254E+03  0.92219600204E+03  0.12155521963E+04  0.16251458737E+04  0.50400001928E-02 0. -1.
</event>
<event>
 5   0  0.1964242E-07  0.2681329E+04  0.7818609E-02  0.8341089E-01
       -1   -1    0    0    0  501  0.00000000000E+00  0.00000000000E+00  0.17691515221E+04  0.17691515221E+04  0.50400001928E-02 0.  1.
        1   -1    0    0  501    0  0.00000000000E+00  0.00000000000E+00 -0.10159564963E+04  0.10159564963E+04  0.50400001928E-02 0. -1.
    10030    2    1    2    0    0  0.00000000000E+00  0.00000000000E+00  0.75319502578E+03  0.27851080183E+04  0.26813287614E+04 0.  0.
        2    1    3    3  502    0 -0.26153509074E+03 -0.12862440040E+04  0.92978440336E+02  0.13158530434E+04  0.25500000920E-02 0. -1.
       -2    1    3    3    0  502  0.26153509074E+03  0.12862440040E+04  0.66021658544E+03  0.14692549749E+04  0.25500000920E-02 0.  1.
</event>
<event>
 5   0  0.1937896E-07  0.2699642E+04  0.7818609E-02  0.8335121E-01
        1   -1    0    0  501    0  0.00000000000E+00  0.00000000000E+00  0.14152368480E+04  0.14152368480E+04  0.50400001928E-02 0.  1.
       -1   -1    0    0    0  501  0.00000000000E+00  0.00000000000E+00 -0.12874284553E+04  0.12874284553E+04  0.50400001928E-02 0. -1.
    10030    2    1    2    0    0  0.00000000000E+00  0.00000000000E+00  0.12780839272E+03  0.27026653034E+04  0.26996415978E+04 0.  0.
        3    1    3    3  502    0  0.14741585411E+03  0.75803277048E+03  0.11722444878E+04  0.14037457977E+04  0.10100000352E+00 0.  1.
       -3    1    3    3    0  502 -0.14741585411E+03 -0.75803277048E+03 -0.10444360951E+04  0.12989195056E+04  0.10100000352E+00 0. -1.
</event>
<event>
 5   0  0.4983208E-07  0.2700877E+04  0.7818609E-02  0.8334720E-01
       -2   -1    0    0    0  501  0.00000000000E+00  0.00000000000E+00  0.20435685535E+04  0.20435685535E+04  0.25500000920E-02 0.  1.
        2   -1    0    0  501    0  0.00000000000E+00  0.00000000000E+00 -0.89240205896E+03  0.89240205897E+03  0.25500000920E-02 0. -1.
    10030    2    1    2    0    0  0.00000000000E+00  0.00000000000E+00  0.11511664945E+04  0.29359706124E+04  0.27008774758E+04 0.  0.
        4    1    3    3  502    0 -0.22501407021E+03  0.42741382734E+03 -0.79528528525E+03  0.93048063356E+03  0.12699999809E+01 0. -1.
       -4    1    3    3    0  502  0.22501407021E+03 -0.42741382734E+03  0.19464517798E+04  0.20054899789E+04  0.12699999809E+01 0.  1.
</event>
<event>
 5   0  0.1965415E-07  0.2699993E+04  0.7818609E-02  0.8335007E-01
       -1   -1    0    0    0  501  0.00000000000E+00  0.00000000000E+00  0.13355494663E+04  0.13355494663E+04  0.50400001928E-02 0.  1.
        1   -1    0    0  501    0  0.00000000000E+00  0.00000000000E+00 -0.13646000177E+04  0.13646000177E+04  0.50400001928E-02 0. -1.
    10030    2    1    2    0    0  0.00000000000E+00  0.00000000000E+00 -0.29050551392E+02  0.27001494841E+04  0.26999932040E+04 0.  0.
        4    1    3    3  502    0 -0.68630663496E+03 -0.74302294336E+03 -0.90866277273E+03  0.13596946492E+04  0.12699999809E+01 0. -1.
       -4    1    3    3    0  502  0.68630663496E+03  0.74302294336E+03  0.87961222134E+03  0.13404548349E+04  0.12699999809E+01 0.  1.
</event>
<event>
 5   0  0.4735120E-07  0.2700405E+04  0.7818609E-02  0.8334873E-01
        2   -1    0    0  501    0  0.00000000000E+00  0.00000000000E+00  0.23409225493E+04  0.23409225493E+04  0.25500000920E-02 0. -1.
       -2   -1    0    0    0  501  0.00000000000E+00  0.00000000000E+00 -0.77877307810E+03  0.77877307810E+03  0.25500000920E-02 0.  1.
    10030    2    1    2    0    0  0.00000000000E+00  0.00000000000E+00  0.15621494712E+04  0.31196956274E+04  0.27004054950E+04 0.  0.
        2    1    3    3  502    0  0.13087384110E+04  0.17171198206E+03  0.11093953382E+04  0.17242503443E+04  0.25500000920E-02 0.  1.
       -2    1    3    3    0  502 -0.13087384110E+04 -0.17171198206E+03  0.45275413298E+03  0.13954452831E+04  0.25500000920E-02 0. -1.
</event>
<event>
 5   0  0.1971600E-07  0.2699332E+04  0.7818609E-02  0.8335222E-01
        1   -1    0    0  501    0  0.00000000000E+00  0.00000000000E+00  0.14871555867E+04  0.14871555867E+04  0.50400001928E-02 0. -1.
       -1   -1    0    0    0  501  0.00000000000E+00  0.00000000000E+00 -0.12248875404E+04  0.12248875404E+04  0.50400001928E-02 0.  1.
    10030    2    1    2    0    0  0.00000000000E+00  0.00000000000E+00  0.26226804624E+03  0.27120431271E+04  0.26993320276E+04 0.  0.
        5    1    3    3  502    0  0.27405525439E+03 -0.57498927597E+03 -0.10643672070E+04  0.12404106543E+04  0.46999998093E+01 0.  1.
       -5    1    3    3    0  502 -0.27405525439E+03  0.57498927597E+03  0.13266352532E+04  0.14716324728E+04  0.46999998093E+01 0. -1.
</event>
<event>
 5   0  0.5043890E-07  0.2701392E+04  0.7818609E-02  0.8334553E-01
       -2   -1    0    0    0  501  0.00000000000E+00  0.00000000000E+00  0.13716399111E+04  0.13716399111E+04  0.25500000920E-02 0.  1.
        2   -1    0    0  501    0  0.00000000000E+00  0.00000000000E+00 -0.13300722173E+04  0.13300722173E+04  0.25500000920E-02 0. -1.
    10030    2    1    2    0    0  0.00000000000E+00  0.00000000000E+00  0.41567693865E+02  0.27017121284E+04  0.27013923357E+04 0.  0.
        3    1    3    3  502    0 -0.34831902644E+03 -0.91046769182E+02 -0.12812014632E+04  0.13308241273E+04  0.10100000352E+00 0. -1.
       -3    1    3    3    0  502  0.34831902644E+03  0.91046769182E+02  0.13227691571E+04  0.13708880011E+04  0.10100000352E+00 0.  1.
</event>
<event>
 5   0  0.1964242E-07  0.2700218E+04  0.7818609E-02  0.8334934E-01
        1   -1    0    0  501    0  0.00000000000E+00  0.00000000000E+00  0.16120458360E+04  0.16120458360E+04  0.50400001928E-02 0.  1.
       -1   -1    0    0    0  501  0.00000000000E+00  0.00000000000E+00 -0.11307338458E+04  0.11307338458E+04  0.50400001928E-02 0. -1.
    10030    2    1    2    0    0  0.00000000000E+00  0.00000000000E+00  0.48131199020E+03  0.27427796818E+04  0.27002183525E+04 0.  0.
        2    1    3    3  502    0 -0.91129811994E+03 -0.66957874219E+03  0.98984160325E+03  0.15028593929E+04  0.25500000920E-02 0. -1.
       -2    1    3    3    0  502  0.91129811994E+03  0.66957874219E+03 -0.50852961305E+03  0.12399202889E+04  0.25500000920E-02 0.  1.
</event>
<event>
 5   0  0.4735120E-07  0.2699755E+04  0.7818609E-02  0.8335085E-01
        2   -1    0    0  501    0  0.00000000000E+00  0.00000000000E+00  0.28339772734E+04  0.28339772734E+04  0.25500000920E-02 0. -1.
       -2   -1    0    0    0  501  0.00000000000E+00  0.00000000000E+00 -0.64297234117E+03  0.64297234118E+03  0.25500000920E-02 0.  1.
    10030    2    1    2    0    0  0.00000000000E+00  0.00000000000E+00  0.21910049322E+04  0.34769496145E+04  0.26997548054E+04 0.  0.
        2    1    3    3  502    0 -0.96842702914E+03  0.35981530018E+03 -0.23432134389E+02  0.10333765170E+04  0.25500000920E-02 0.  1.
       -2    1    3    3    0  502  0.96842702914E+03 -0.35981530018E+03  0.22144370666E+04  0.24435730975E+04  0.25500000920E-02 0. -1.
</event>
<event>
 5   0  0.4992668E-07  0.2699974E+04  0.7818609E-02  0.8335013E-01
        2   -1    0    0  501    0  0.00000000000E+00  0.00000000000E+00  0.10463231314E+04  0.10463231314E+04  0.25500000920E-02 0. -1.
       -2   -1    0    0    0  501  0.00000000000E+00  0.00000000000E+00 -0.17417799034E+04  0.17417799034E+04  0.25500000920E-02 0.  1.
    10030    2    1    2    0    0  0.00000000000E+00  0.00000000000E+00 -0.69545677200E+03  0.27881030348E+04  0.26999737796E+04 0.  0.
        1    1    3    3  502    0 -0.66158181946E+03  0.59353415606E+03 -0.13970109927E+04  0.16557816922E+04  0.50400001928E-02 0.  1.
       -1    1    3    3    0  502  0.66158181946E+03 -0.59353415606E+03  0.70155422074E+03  0.11323213426E+04  0.50400001928E-02 0. -1.
</event>
<event>
 5   0  0.1937896E-07  0.2701009E+04  0.7818609E-02  0.8334678E-01
        1   -1    0    0  501    0  0.00000000000E+00  0.00000000000E+00  0.24568750200E+04  0.24568750200E+04  0.50400001928E-02 0.  1.
       -1   -1    0    0    0  501  0.00000000000E+00  0.00000000000E+00 -0.74235060202E+03  0.74235060204E+03  0.50400001928E-02 0. -1.
    10030    2    1    2    0    0  0.00000000000E+00  0.00000000000E+00  0.17145244180E+04  0.31992256220E+04  0.27010091819E+04 0.  0.
        3    1    3    3  502    0 -0.78906477846E+03  0.38702159586E+03 -0.35728356030E+03  0.94871518009E+03  0.10100000352E+00 0. -1.
       -3    1    3    3    0  502  0.78906477846E+03 -0.38702159586E+03  0.20718079783E+04  0.22505104419E+04  0.10100000352E+00 0.  1.
</event>
<event>
 5   0  0.1965415E-07  0.2700491E+04  0.7818609E-02  0.8334846E-01
       -1   -1    0    0    0  501  0.00000000000E+00  0.00000000000E+00  0.13408188622E+04  0.13408188622E+04  0.50400001928E-02 0.  1.
        1   -1    0    0  501    0  0.00000000000E+00  0.00000000000E+00 -0.13597380082E+04  0.13597380082E+04  0.50400001928E-02 0. -1.
    10030    2    1    2    0    0  0.00000000000E+00  0.00000000000E+00 -0.18919146019E+02  0.27005568704E+04  0.27004905992E+04 0.  0.
        4    1    3    3  502    0  0.64081771419E+03 -0.71925183239E+03  0.93670856859E+03  0.13436499159E+04  0.12699999809E+01 0.  1.
       -4    1    3    3    0  502 -0.64081771419E+03  0.71925183239E+03 -0.95562771461E+03  0.13569069545E+04  0.12699999809E+01 0. -1.
</event>
<event>
 5   0  0.4735120E-07  0.2705931E+04  0.7818609E-02  0.8333083E-01
        2   -1    0    0  501    0  0.00000000000E+00  0.00000000000E+00  0.12187874501E+04  0.12187874501E+04  0.25500000920E-02 0. -1.
       -2   -1    0    0    0  501  0.00000000000E+00  0.00000000000E+00 -0.15019152247E+04  0.15019152247E+04  0.25500000920E-02 0.  1.
    10030    2    1    2    0    0  0.00000000000E+00  0.00000000000E+00 -0.28312777460E+03  0.27207026749E+04  0.27059308395E+04 0.  0.
        2    1    3    3  502    0 -0.12347553279E+04 -0.54393948556E+03 -0.24223310443E+03  0.13708274000E+04  0.25500000920E-02 0.  1.
       -2    1    3    3    0  502  0.12347553279E+04  0.54393948556E+03 -0.40894670178E+02  0.13498752749E+04  0.25500000920E-02 0. -1.
</event>
<event>
 5   0  0.4983208E-07  0.2701417E+04  0.7818609E-02  0.8334545E-01
       -2   -1    0    0    0  501  0.00000000000E+00  0.00000000000E+00  0.18537656988E+04  0.18537656988E+04  0.25500000920E-02 0. -1.
        2   -1    0    0  501    0  0.00000000000E+00  0.00000000000E+00 -0.98416646547E+03  0.98416646547E+03  0.25500000920E-02 0.  1.
    10030    2    1    2    0    0  0.00000000000E+00  0.00000000000E+00  0.86959923337E+03  0.28379321643E+04  0.27014174321E+04 0.  0.
        4    1    3    3  502    0  0.11695010571E+04  0.42275515443E+02  0.11433401360E+04  0.16360770830E+04  0.12699999809E+01 0. -1.
       -4    1    3    3    0  502 -0.11695010571E+04 -0.42275515443E+02 -0.27374090264E+03  0.12018550813E+04  0.12699999809E+01 0.  1.
</event>
<event>
 5   0  0.5043890E-07  0.2700453E+04  0.7818609E-02  0.8334858E-01
        2   -1    0    0  501    0  0.00000000000E+00  0.00000000000E+00  0.19680571986E+04  0.19680571986E+04  0.25500000920E-02 0. -1.
       -2   -1    0    0    0  501  0.00000000000E+00  0.00000000000E+00 -0.92635088992E+03  0.92635088992E+03  0.25500000920E-02 0.  1.
    10030    2    1    2    0    0  0.00000000000E+00  0.00000000000E+00  0.10417063086E+04  0.28944080885E+04  0.27004529526E+04 0.  0.
        3    1    3    3  502    0 -0.99434377582E+03 -0.44594719422E+03  0.13753074004E+04  0.17547247363E+04  0.10100000352E+00 0. -1.
       -3    1    3    3    0  502  0.99434377582E+03  0.44594719422E+03 -0.33360109175E+03  0.11396833521E+04  0.10100000352E+00 0.  1.
</event>
<event>
 5   0  0.4843887E-07  0.2698570E+04  0.7818609E-02  0.8335469E-01
       -2   -1    0    0    0  501  0.00000000000E+00  0.00000000000E+00  0.27392400976E+04  0.27392400976E+04  0.25500000920E-02 0.  1.
        2   -1    0    0  501    0  0.00000000000E+00  0.00000000000E+00 -0.66462614979E+03  0.66462614979E+03  0.25500000920E-02 0. -1.
    10030    2    1    2    0    0  0.00000000000E+00  0.00000000000E+00  0.20746139478E+04  0.34038662473E+04  0.26985704359E+04 0.  0.
        5    1    3    3  502    0 -0.84219397739E+02  0.28039311404E+03  0.26986826740E+04  0.27145208547E+04  0.46999998093E+01 0.  1.
       -5    1    3    3    0  502  0.84219397739E+02 -0.28039311404E+03 -0.62406872624E+03  0.68934539269E+03  0.46999998093E+01 0. -1.
</event>
<event>
 5   0  0.1965415E-07  0.2701170E+04  0.7818609E-02  0.8334625E-01
       -1   -1    0    0    0  501  0.00000000000E+00  0.00000000000E+00  0.67452063425E+03  0.67452063427E+03  0.50400001928E-02 0. -1.
        1   -1    0    0  501    0  0.00000000000E+00  0.00000000000E+00 -0.27042613351E+04  0.27042613352E+04  0.50400001928E-02 0.  1.
    10030    2    1    2    0    0  0.00000000000E+00  0.00000000000E+00 -0.20297407009E+04  0.33787819694E+04  0.27011701694E+04 0.  0.
        4    1    3    3  502    0  0.30157073388E+03  0.69810776562E+03 -0.24110096208E+04  0.25280957981E+04  0.12699999809E+01 0.  1.
       -4    1    3    3    0  502 -0.30157073388E+03 -0.69810776562E+03  0.38126891988E+03  0.85068617134E+03  0.12699999809E+01 0. -1.
</event>
<event>
 5   0  0.1971600E-07  0.2692571E+04  0.7818609E-02  0.8337419E-01
       -1   -1    0    0    0  501  0.00000000000E+00  0.00000000000E+00  0.13313009346E+04  0.13313009346E+04  0.50400001928E-02 0.  1.
        1   -1    0    0  501    0  0.00000000000E+00  0.00000000000E+00 -0.13614386449E+04  0.13614386449E+04  0.50400001928E-02 0. -1.
    10030    2    1    2    0    0  0.00000000000E+00  0.00000000000E+00 -0.30137710377E+02  0.26927395795E+04  0.26925709204E+04 0.  0.
        5    1    3    3  502    0 -0.81154854807E+03  0.78481098018E+03 -0.74854722679E+03  0.13545790347E+04  0.46999998093E+01 0. -1.
       -5    1    3    3    0  502  0.81154854807E+03 -0.78481098018E+03  0.71840951641E+03  0.13381605448E+04  0.46999998093E+01 0.  1.
</event>
<event>
 5   0  0.1888149E-07  0.2700205E+04  0.7818609E-02  0.8334939E-01
       -1   -1    0    0    0  501  0.00000000000E+00  0.00000000000E+00  0.96815090965E+03  0.96815090967E+03  0.50400001928E-02 0. -1.
        1   -1    0    0  501    0  0.00000000000E+00  0.00000000000E+00 -0.18827399180E+04  0.18827399180E+04  0.50400001928E-02 0.  1.
    10030    2    1    2    0    0  0.00000000000E+00  0.00000000000E+00 -0.91458900835E+03  0.28508908277E+04  0.27002047065E+04 0.  0.
        1    1    3    3  502    0 -0.41131312824E+03  0.11505571628E+03 -0.18095336047E+04  0.18592547362E+04  0.50400001928E-02 0.  1.
       -1    1    3    3    0  502  0.41131312824E+03 -0.11505571628E+03  0.89494459639E+03  0.99163609149E+03  0.50400001928E-02 0. -1.
</event>
<event>
 5   0  0.4983208E-07  0.2703568E+04  0.7818609E-02  0.8333848E-01
        2   -1    0    0  501    0  0.00000000000E+00  0.00000000000E+00  0.12432734668E+04  0.12432734668E+04  0.25500000920E-02 0.  1.
       -2   -1    0    0    0  501  0.00000000000E+00  0.00000000000E+00 -0.14697651891E+04  0.14697651891E+04  0.25500000920E-02 0. -1.
    10030    2    1    2    0    0  0.00000000000E+00  0.00000000000E+00 -0.22649172230E+03  0.27130386559E+04  0.27035680587E+04 0.  0.
        4    1    3    3  502    0  0.93001864995E+03  0.10231796894E+03 -0.10923248099E+04  0.14382554569E+04  0.12699999809E+01 0. -1.
       -4    1    3    3    0  502 -0.93001864995E+03 -0.10231796894E+03  0.86583308758E+03  0.12747831990E+04  0.12699999809E+01 0.  1.
</event>
<event>
 5   0  0.4983208E-07  0.2698244E+04  0.7818609E-02  0.8335575E-01
       -2   -1    0    0    0  501  0.00000000000E+00  0.00000000000E+00  0.14130840954E+04  0.14130840954E+04  0.25500000920E-02 0.  1.
        2   -1    0    0  501    0  0.00000000000E+00  0.00000000000E+00 -0.12880549940E+04  0.12880549940E+04  0.25500000920E-02 0. -1.
    10030    2    1    2    0    0  0.00000000000E+00  0.00000000000E+00  0.12502910139E+03  0.27011390895E+04  0.26982438927E+04 0.  0.
        4    1    3    3  502    0 -0.11301892904E+03  0.15141665222E+03  0.13997727698E+04  0.14124679468E+04  0.12699999809E+01 0.  1.
       -4    1    3    3    0  502  0.11301892904E+03 -0.15141665222E+03 -0.12747436684E+04  0.12886711427E+04  0.12699999809E+01 0. -1.
</event>
<event>
 5   0  0.1641625E-07  0.2698512E+04  0.7818609E-02  0.8335488E-01
       -3   -1    0    0    0  501  0.00000000000E+00  0.00000000000E+00  0.10596643207E+04  0.10596643255E+04  0.10100000352E+00 0. -1.
        3   -1    0    0  501    0  0.00000000000E+00  0.00000000000E+00 -0.17179890238E+04  0.17179890268E+04  0.10100000352E+00 0.  1.
    10030    2    1    2    0    0  0.00000000000E+00  0.00000000000E+00 -0.65832470317E+03  0.27776533523E+04  0.26985119475E+04 0.  0.
        3    1    3    3  502    0  0.11564474429E+04  0.35533657168E+03 -0.94405705556E+03  0.15345613385E+04  0.10100000352E+00 0.  1.
       -3    1    3    3    0  502 -0.11564474429E+04 -0.35533657168E+03  0.28573235239E+03  0.12430920138E+04  0.10100000352E+00 0. -1.
</event>
<event>
 5   0  0.4735120E-07  0.2706507E+04  0.7818609E-02  0.8332897E-01
       -2   -1    0    0    0  501  0.00000000000E+00  0.00000000000E+00  0.95775550705E+03  0.95775550706E+03  0.25500000920E-02 0.  1.
        2   -1    0    0  501    0  0.00000000000E+00  0.00000000000E+00 -0.19120690247E+04  0.19120690247E+04  0.25500000920E-02 0. -1.
    10030    2    1    2    0    0  0.00000000000E+00  0.00000000000E+00 -0.95431351767E+03  0.28698245318E+04  0.27065067067E+04 0.  0.
        2    1    3    3  502    0 -0.12026851286E+04 -0.50290590585E+03 -0.86229442291E+03  0.15629835382E+04  0.25500000920E-02 0. -1.
       -2    1    3    3    0  502  0.12026851286E+04  0.50290590585E+03 -0.92019094757E+02  0.13068409936E+04  0.25500000920E-02 0.  1.
</event>
<event>
 5   0  0.1964242E-07  0.2700251E+04  0.7818609E-02  0.8334923E-01
       -1   -1    0    0    0  501  0.00000000000E+00  0.00000000000E+00  0.23945355952E+04  0.23945355953E+04  0.50400001928E-02 0.  1.
        1   -1    0    0  501    0  0.00000000000E+00  0.00000000000E+00 -0.76124955172E+03  0.76124955173E+03  0.50400001928E-02 0. -1.
    10030    2    1    2    0    0  0.00000000000E+00  0.00000000000E+00  0.16332860435E+04  0.31557851470E+04  0.27002512094E+04 0.  0.
        2    1    3    3  502    0  0.62451801316E+03  0.13689505135E+03  0.22064025378E+04  0.22971667685E+04  0.25500000920E-02 0.  1.
       -2    1    3    3    0  502 -0.62451801316E+03 -0.13689505135E+03 -0.57311649423E+03  0.85861837845E+03  0.25500000920E-02 0. -1.
</event>
<event>
 5   0  0.1937896E-07  0.2699087E+04  0.7818609E-02  0.8335301E-01
       -1   -1    0    0    0  501  0.00000000000E+00  0.00000000000E+00  0.89573290945E+03  0.89573290947E+03  0.50400001928E-02 0. -1.
        1   -1    0    0  501    0  0.00000000000E+00  0.00000000000E+00 -0.20332706911E+04  0.20332706911E+04  0.50400001928E-02 0.  1.
    10030    2    1    2    0    0  0.00000000000E+00  0.00000000000E+00 -0.11375377816E+04  0.29290036005E+04  0.26990868618E+04 0.  0.
        3    1    3    3  502    0 -0.12865524684E+04 -0.30074922238E+03 -0.27039263061E+03  0.13486213455E+04  0.10100000352E+00 0.  1.
       -3    1    3    3    0  502  0.12865524684E+04  0.30074922238E+03 -0.86714515100E+03  0.15803822550E+04  0.10100000352E+00 0. -1.
</event>
<event>
 5   0  0.4843887E-07  0.2699789E+04  0.7818609E-02  0.8335073E-01
        2   -1    0    0  501    0  0.00000000000E+00  0.00000000000E+00  0.27535257842E+04  0.27535257842E+04  0.25500000920E-02 0.  1.
       -2   -1    0    0    0  501  0.00000000000E+00  0.00000000000E+00 -0.66177533402E+03  0.66177533403E+03  0.25500000920E-02 0. -1.
    10030    2    1    2    0    0  0.00000000000E+00  0.00000000000E+00  0.20917504501E+04  0.34153011182E+04  0.26997892107E+04 0.  0.
        5    1    3    3  502    0 -0.84621707182E+03 -0.78674101130E+03  0.16293790479E+03  0.11668828572E+04  0.46999998093E+01 0. -1.
       -5    1    3    3    0  502  0.84621707182E+03  0.78674101130E+03  0.19288125453E+04  0.22484182610E+04  0.46999998093E+01 0.  1.
</event>
<event>
 5   0  0.4992668E-07  0.2700463E+04  0.7818609E-02  0.8334855E-01
       -2   -1    0    0    0  501  0.00000000000E+00  0.00000000000E+00  0.14363932261E+04  0.14363932261E+04  0.25500000920E-02 0. -1.
        2   -1    0    0  501    0  0.00000000000E+00  0.00000000000E+00 -0.12692382092E+04  0.12692382092E+04  0.25500000920E-02 0.  1.
    10030    2    1    2    0    0  0.00000000000E+00  0.00000000000E+00  0.16715501690E+03  0.27056314353E+04  0.27004630462E+04 0.  0.
        1    1    3    3  502    0  0.52750431218E+03  0.76929272370E+03 -0.89453528680E+03  0.12923875090E+04  0.50400001928E-02 0.  1.
       -1    1    3    3    0  502 -0.52750431218E+03 -0.76929272370E+03  0.10616903037E+04  0.14132439263E+04  0.50400001928E-02 0. -1.
</event>
<event>
 5   0  0.1965415E-07  0.2700113E+04  0.7818609E-02  0.8334968E-01
        1   -1    0    0  501    0  0.00000000000E+00  0.00000000000E+00  0.17744437095E+04  0.17744437095E+04  0.50400001928E-02 0. -1.
       -1   -1    0    0    0  501  0.00000000000E+00  0.00000000000E+00 -0.10271681080E+04  0.10271681080E+04  0.50400001928E-02 0.  1.
    10030    2    1    2    0    0  0.00000000000E+00  0.00000000000E+00  0.74727560150E+03  0.28016118176E+04  0.27001125813E+04 0.  0.
        4    1    3    3  502    0  0.12400698126E+04 -0.42995195330E+03  0.70178323922E+03  0.14883323385E+04  0.12699999809E+01 0. -1.
       -4    1    3    3    0  502 -0.12400698126E+04  0.42995195330E+03  0.45492362280E+02  0.13132794791E+04  0.12699999809E+01 0.  1.
</event>
<event>
 5   0  0.1965415E-07  0.2699075E+04  0.7818609E-02  0.8335305E-01
        1   -1    0    0  501    0  0.00000000000E+00  0.00000000000E+00  0.78859938691E+03  0.78859938692E+03  0.50400001928E-02 0.  1.
       -1   -1    0    0    0  501  0.00000000000E+00  0.00000000000E+00 -0.23094760553E+04  0.23094760553E+04  0.50400001928E-02 0. -1.
    10030    2    1    2    0    0  0.00000000000E+00  0.00000000000E+00 -0.15208766684E+04  0.30980754423E+04  0.26990749536E+04 0.  0.
        4    1    3    3  502    0 -0.34729644758E+03 -0.42537381414E+03  0.65455646858E+03  0.85440241556E+03  0.12699999809E+01 0.  1.
       -4    1    3    3    0  502  0.34729644758E+03  0.42537381414E+03 -0.21754331370E+04  0.22436730267E+04  0.12699999809E+01 0. -1.
</event>
<event>
 5   0  0.1971600E-07  0.2697484E+04  0.7818609E-02  0.8335822E-01
        1   -1    0    0  501    0  0.00000000000E+00  0.00000000000E+00  0.26882552141E+04  0.26882552141E+04  0.50400001928E-02 0. -1.
       -1   -1    0    0    0  501  0.00000000000E+00  0.00000000000E+00 -0.67668612622E+03  0.67668612624E+03  0.50400001928E-02 0.  1.
    10030    2    1    2    0    0  0.00000000000E+00  0.00000000000E+00  0.20115690879E+04  0.33649413403E+04  0.26974840182E+04 0.  0.
        5    1    3    3  502    0  0.45003401973E+02 -0.13468699590E+04  0.93747185545E+03  0.16416331997E+04  0.46999998093E+01 0.  1.
       -5    1    3    3    0  502 -0.45003401973E+02  0.13468699590E+04  0.10740972324E+04  0.17233081406E+04  0.46999998093E+01 0. -1.
</event>
<event>
 5   0  0.4983208E-07  0.2697199E+04  0.7818609E-02  0.8335914E-01
        2   -1    0    0  501    0  0.00000000000E+00  0.00000000000E+00  0.14908192745E+04  0.14908192745E+04  0.25500000920E-02 0. -1.
       -2   -1    0    0    0  501  0.00000000000E+00  0.00000000000E+00 -0.12199471675E+04  0.12199471675E+04  0.25500000920E-02 0.  1.
    10030    2    1    2    0    0  0.00000000000E+00  0.00000000000E+00  0.27087210696E+03  0.27107664419E+04  0.26971991036E+04 0.  0.
        4    1    3    3  502    0  0.10898258643E+04 -0.78459301802E+03  0.26020770320E+03  0.13678509715E+04  0.12699999809E+01 0. -1.
       -4    1    3    3    0  502 -0.10898258643E+04  0.78459301802E+03  0.10664403759E+02  0.13429154705E+04  0.12699999809E+01 0.  1.
</event>
<event>
 5   0  0.1971600E-07  0.2699834E+04  0.7818609E-02  0.8335059E-01
        1   -1    0    0  501    0  0.00000000000E+00  0.00000000000E+00  0.15303013006E+04  0.15303013006E+04  0.50400001928E-02 0. -1.
       -1   -1    0    0    0  501  0.00000000000E+00  0.00000000000E+00 -0.11907958898E+04  0.11907958898E+04  0.50400001928E-02 0.  1.
    10030    2    1    2    0    0  0.00000000000E+00  0.00000000000E+00  0.33950541084E+03  0.27210971904E+04  0.26998344386E+04 0.  0.
        5    1    3    3  502    0 -0.22225003352E+03 -0.21268720224E+02 -0.11720499471E+04  0.11931347805E+04  0.46999998093E+01 0.  1.
       -5    1    3    3    0  502  0.22225003352E+03  0.21268720224E+02  0.15115553580E+04  0.15279624099E+04  0.46999998093E+01 0. -1.
</event>
<event>
 5   0  0.5043890E-07  0.2705582E+04  0.7818609E-02  0.8333196E-01
       -2   -1    0    0    0  501  0.00000000000E+00  0.00000000000E+00  0.15790041017E+04  0.15790041017E+04  0.25500000920E-02 0.  1.
        2   -1    0    0  501    0  0.00000000000E+00  0.00000000000E+00 -0.11589858966E+04  0.11589858966E+04  0.25500000920E-02 0. -1.
    10030    2    1    2    0    0  0.00000000000E+00  0.00000000000E+00  0.42001820511E+03  0.27379899983E+04  0.27055819963E+04 0.  0.
        3    1    3    3  502    0 -0.13040588590E+04 -0.27149205796E+03 -0.28967849314E+02  0.13323350149E+04  0.10100000352E+00 0. -1.
       -3    1    3    3    0  502  0.13040588590E+04  0.27149205796E+03  0.44898605442E+03  0.14056549835E+04  0.10100000352E+00 0.  1.
</event>
<event>
 5   0  0.5043890E-07  0.2699912E+04  0.7818609E-02  0.8335033E-01
        2   -1    0    0  501    0  0.00000000000E+00  0.00000000000E+00  0.14147775493E+04  0.14147775493E+04  0.25500000920E-02 0.  1.
       -2   -1    0    0    0  501  0.00000000000E+00  0.00000000000E+00 -0.12881047977E+04  0.12881047977E+04  0.25500000920E-02 0. -1.
    10030    2    1    2    0    0  0.00000000000E+00  0.00000000000E+00  0.12667275166E+03  0.27028823470E+04  0.26999124052E+04 0.  0.
        3    1    3    3  502    0  0.12493143042E+04 -0.35122657840E+03 -0.30887282322E+03  0.13339972905E+04  0.10100000352E+00 0. -1.
       -3    1    3    3    0  502 -0.12493143042E+04  0.35122657840E+03  0.43554557488E+03  0.13688850565E+04  0.10100000352E+00 0.  1.
</event>
<event>
 5   0  0.1971600E-07  0.2701031E+04  0.7818609E-02  0.8334671E-01
        1   -1    0    0  501    0  0.00000000000E+00  0.00000000000E+00  0.15266433868E+04  0.15266433868E+04  0.50400001928E-02 0.  1.
       -1   -1    0    0    0  501  0.00000000000E+00  0.00000000000E+00 -0.11947069728E+04  0.11947069728E+04  0.50400001928E-02 0. -1.
    10030    2    1    2    0    0  0.00000000000E+00  0.00000000000E+00  0.33193641406E+03  0.27213503596E+04  0.27010305435E+04 0.  0.
        5    1    3    3  502    0 -0.41437810774E+03  0.44028857628E+03  0.13826564707E+04  0.15090805984E+04  0.46999998093E+01 0.  1.
       -5    1    3    3    0  502  0.41437810774E+03 -0.44028857628E+03 -0.10507200566E+04  0.12122697612E+04  0.46999998093E+01 0. -1.
</event>
<event>
 5   0  0.5043890E-07  0.2700101E+04  0.7818609E-02  0.8334972E-01
        2   -1    0    0  501    0  0.00000000000E+00  0.00000000000E+00  0.15491935852E+04  0.15491935852E+04  0.25500000920E-02 0.  1.
       -2   -1    0    0    0  501  0.00000000000E+00  0.00000000000E+00 -0.11765061115E+04  0.11765061115E+04  0.25500000920E-02 0. -1.
    10030    2    1    2    0    0  0.00000000000E+00  0.00000000000E+00  0.37268747370E+03  0.27256996966E+04  0.27001005321E+04 0.  0.
        3    1    3    3  502    0 -0.40803632685E+03  0.41014715359E+02 -0.11121091277E+04  0.11853111714E+04  0.10100000352E+00 0. -1.
       -3    1    3    3    0  502  0.40803632685E+03 -0.41014715359E+02  0.14847966014E+04  0.15403885252E+04  0.10100000352E+00 0.  1.
</event>
<event>
 5   0  0.4735120E-07  0.2697069E+04  0.7818609E-02  0.8335957E-01
       -2   -1    0    0    0  501  0.00000000000E+00  0.00000000000E+00  0.79394831712E+03  0.79394831712E+03  0.25500000920E-02 0. -1.
        2   -1    0    0  501    0  0.00000000000E+00  0.00000000000E+00 -0.22905086645E+04  0.22905086645E+04  0.25500000920E-02 0.  1.
    10030    2    1    2    0    0  0.00000000000E+00  0.00000000000E+00 -0.14965603473E+04  0.30844569816E+04  0.26970691497E+04 0.  0.
        2    1    3    3  502    0  0.25332290299E+02 -0.37024388876E+03 -0.22309609542E+04  0.22616164664E+04  0.25500000920E-02 0.  1.
       -2    1    3    3    0  502 -0.25332290299E+02  0.37024388876E+03  0.73440060683E+03  0.82284051518E+03  0.25500000920E-02 0. -1.
</event>
<event>
 5   0  0.4992668E-07  0.2699166E+04  0.7818609E-02  0.8335276E-01
        2   -1    0    0  501    0  0.00000000000E+00  0.00000000000E+00  0.18663618851E+04  0.18663618851E+04  0.25500000920E-02 0. -1.
       -2   -1    0    0    0  501  0.00000000000E+00  0.00000000000E+00 -0.97589530430E+03  0.97589530431E+03  0.25500000920E-02 0.  1.
    10030    2    1    2    0    0  0.00000000000E+00  0.00000000000E+00  0.89046658077E+03  0.28422571894E+04  0.26991656487E+04 0.  0.
        1    1    3    3  502    0  0.69424061666E+02 -0.10506901314E+04  0.13341438579E+04  0.16996203359E+04  0.50400001928E-02 0. -1.
       -1    1    3    3    0  502 -0.69424061666E+02  0.10506901314E+04 -0.44367727714E+03  0.11426368535E+04  0.50400001928E-02 0.  1.
</event>
<event>
 5   0  0.1888149E-07  0.2698509E+04  0.7818609E-02  0.8335489E-01
        1   -1    0    0  501    0  0.00000000000E+00  0.00000000000E+00  0.10113283233E+04  0.10113283233E+04  0.50400001928E-02 0. -1.
       -1   -1    0    0    0  501  0.00000000000E+00  0.00000000000E+00 -0.18000950998E+04  0.18000950998E+04  0.50400001928E-02 0.  1.
    10030    2    1    2    0    0  0.00000000000E+00  0.00000000000E+00 -0.78876677650E+03  0.28114234231E+04  0.26985085949E+04 0.  0.
        1    1    3    3  502    0 -0.12077986042E+04 -0.57820191053E+02  0.22930285616E+03  0.12307316696E+04  0.50400001928E-02 0. -1.
       -1    1    3    3    0  502  0.12077986042E+04  0.57820191053E+02 -0.10180696327E+04  0.15806917535E+04  0.50400001928E-02 0.  1.
</event>
<event>
 5   0  0.4983208E-07  0.2701288E+04  0.7818609E-02  0.8334587E-01
        2   -1    0    0  501    0  0.00000000000E+00  0.00000000000E+00  0.22495676638E+04  0.22495676638E+04  0.25500000920E-02 0. -1.
       -2   -1    0    0    0  501  0.00000000000E+00  0.00000000000E+00 -0.81092890084E+03  0.81092890084E+03  0.25500000920E-02 0.  1.
    10030    2    1    2    0    0  0.00000000000E+00  0.00000000000E+00  0.14386387630E+04  0.30604965646E+04  0.27012881616E+04 0.  0.
        4    1    3    3  502    0 -0.47462436689E+03  0.76355346681E+03  0.18612989990E+04  0.20670553362E+04  0.12699999809E+01 0. -1.
       -4    1    3    3    0  502  0.47462436689E+03 -0.76355346681E+03 -0.42266023605E+03  0.99344122844E+03  0.12699999809E+01 0.  1.
</event>
<event>
 5   0  0.4983208E-07  0.2699367E+04  0.7818609E-02  0.8335210E-01
        2   -1    0    0  501    0  0.00000000000E+00  0.00000000000E+00  0.24498713169E+04  0.24498713169E+04  0.25500000920E-02 0.  1.
       -2   -1    0    0    0  501  0.00000000000E+00  0.00000000000E+00 -0.74356790839E+03  0.74356790840E+03  0.25500000920E-02 0. -1.
    10030    2    1    2    0    0  0.00000000000E+00  0.00000000000E+00  0.17063034085E+04  0.31934392253E+04  0.26993671043E+04 0.  0.
        4    1    3    3  502    0 -0.49380147264E+03 -0.12527127490E+04  0.96231780771E+03  0.16550487310E+04  0.12699999809E+01 0.  1.
       -4    1    3    3    0  502  0.49380147264E+03  0.12527127490E+04  0.74398560080E+03  0.15383904943E+04  0.12699999809E+01 0. -1.
</event>
<event>
 5   0  0.4843887E-07  0.2697263E+04  0.7818609E-02  0.8335893E-01
        2   -1    0    0  501    0  0.00000000000E+00  0.00000000000E+00  0.18525966839E+04  0.18525966839E+04  0.25500000920E-02 0. -1.
       -2   -1    0    0    0  501  0.00000000000E+00  0.00000000000E+00 -0.98176110351E+03  0.98176110352E+03  0.25500000920E-02 0.  1.
    10030    2    1    2    0    0  0.00000000000E+00  0.00000000000E+00  0.87083558039E+03  0.28343577874E+04  0.26972633277E+04 0.  0.
        5    1    3    3  502    0 -0.12000393423E+04 -0.54142908446E+03  0.74276526552E+03  0.15116091446E+04  0.46999998093E+01 0. -1.
       -5    1    3    3    0  502  0.12000393423E+04  0.54142908446E+03  0.12807031487E+03  0.13227486428E+04  0.46999998093E+01 0.  1.
</event>
<event>
 5   0  0.1965415E-07  0.2699442E+04  0.7818609E-02  0.8335186E-01
       -1   -1    0    0    0  501  0.00000000000E+00  0.00000000000E+00  0.16088527209E+04  0.16088527209E+04  0.50400001928E-02 0. -1.
        1   -1    0    0  501    0  0.00000000000E+00  0.00000000000E+00 -0.11323267644E+04  0.11323267645E+04  0.50400001928E-02 0.  1.
    10030    2    1    2    0    0  0.00000000000E+00  0.00000000000E+00  0.47652595645E+03  0.27411794854E+04  0.26994421616E+04 0.  0.
        4    1    3    3  502    0 -0.13250989753E+04  0.46396628396E+02 -0.18038854461E+02  0.13260342962E+04  0.12699999809E+01 0.  1.
       -4    1    3    3    0  502  0.13250989753E+04 -0.46396628396E+02  0.49456481091E+03  0.14151451892E+04  0.12699999809E+01 0. -1.
</event>
<event>
 5   0  0.1964242E-07  0.2698075E+04  0.7818609E-02  0.8335630E-01
        1   -1    0    0  501    0  0.00000000000E+00  0.00000000000E+00  0.14269162487E+04  0.14269162487E+04  0.50400001928E-02 0.  1.
       -1   -1    0    0    0  501  0.00000000000E+00  0.00000000000E+00 -0.12754092546E+04  0.12754092546E+04  0.50400001928E-02 0. -1.
    10030    2    1    2    0    0  0.00000000000E+00  0.00000000000E+00  0.15150699416E+03  0.27023255033E+04  0.26980750095E+04 0.  0.
        2    1    3    3  502    0 -0.22426285618E+03 -0.26340396853E+03 -0.12302281017E+04  0.12779423546E+04  0.25500000920E-02 0. -1.
       -2    1    3    3    0  502  0.22426285618E+03  0.26340396853E+03  0.13817350959E+04  0.14243831488E+04  0.25500000920E-02 0.  1.
</event>
<event>
 5   0  0.5043890E-07  0.2700718E+04  0.7818609E-02  0.8334772E-01
        2   -1    0    0  501    0  0.00000000000E+00  0.00000000000E+00  0.76236126661E+03  0.76236126661E+03  0.25500000920E-02 0. -1.
       -2   -1    0    0    0  501  0.00000000000E+00  0.00000000000E+00 -0.23918701057E+04  0.23918701057E+04  0.25500000920E-02 0.  1.
    10030    2    1    2    0    0  0.00000000000E+00  0.00000000000E+00 -0.16295088391E+04  0.31542313723E+04  0.27007177737E+04 0.  0.
        3    1    3    3  502    0  0.85239096693E+03 -0.94275425763E+03 -0.13475542999E+04  0.18523656637E+04  0.10100000352E+00 0. -1.
       -3    1    3    3    0  502 -0.85239096693E+03  0.94275425763E+03 -0.28195453916E+03  0.13018657086E+04  0.10100000352E+00 0.  1.
</event>
<event>
 5   0  0.4983208E-07  0.2697553E+04  0.7818609E-02  0.8335799E-01
       -2   -1    0    0    0  501  0.00000000000E+00  0.00000000000E+00  0.96576674383E+03  0.96576674383E+03  0.25500000920E-02 0.  1.
        2   -1    0    0  501    0  0.00000000000E+00  0.00000000000E+00 -0.18836827075E+04  0.18836827075E+04  0.25500000920E-02 0. -1.
    10030    2    1    2    0    0  0.00000000000E+00  0.00000000000E+00 -0.91791596369E+03  0.28494494514E+04  0.26975530504E+04 0.  0.
        4    1    3    3  502    0 -0.17406208521E+03 -0.11228401788E+04  0.30868785463E+03  0.11774368268E+04  0.12699999809E+01 0.  1.
       -4    1    3    3    0  502  0.17406208521E+03  0.11228401788E+04 -0.12266038183E+04  0.16720126245E+04  0.12699999809E+01 0. -1.
</event>
<event>
 5   0  0.4983208E-07  0.2699652E+04  0.7818609E-02  0.8335118E-01
        2   -1    0    0  501    0  0.00000000000E+00  0.00000000000E+00  0.17387714012E+04  0.17387714012E+04  0.25500000920E-02 0. -1.
       -2   -1    0    0    0  501  0.00000000000E+00  0.00000000000E+00 -0.10478839893E+04  0.10478839893E+04  0.25500000920E-02 0.  1.
    10030    2    1    2    0    0  0.00000000000E+00  0.00000000000E+00  0.69088741190E+03  0.27866553904E+04  0.26996523571E+04 0.  0.
        4    1    3    3  502    0  0.11194105077E+04  0.70874062819E+03  0.61190226585E+03  0.14593899954E+04  0.12699999809E+01 0. -1.
       -4    1    3    3    0  502 -0.11194105077E+04 -0.70874062819E+03  0.78985146047E+02  0.13272653951E+04  0.12699999809E+01 0.  1.
</event>
<event>
 5   0  0.1937896E-07  0.2699717E+04  0.7818609E-02  0.8335097E-01
       -1   -1    0    0    0  501  0.00000000000E+00  0.00000000000E+00  0.10971836142E+04  0.10971836142E+04  0.50400001928E-02 0.  1.
        1   -1    0    0  501    0  0.00000000000E+00  0.00000000000E+00 -0.16607225526E+04  0.16607225526E+04  0.50400001928E-02 0. -1.
    10030    2    1    2    0    0  0.00000000000E+00  0.00000000000E+00 -0.56353893837E+03  0.27579061668E+04  0.26997167054E+04 0.  0.
        3    1    3    3  502    0  0.85573890306E+03 -0.56737411285E+03 -0.11769649850E+04  0.15618735673E+04  0.10100000352E+00 0. -1.
       -3    1    3    3    0  502 -0.85573890306E+03  0.56737411285E+03  0.61342604661E+03  0.11960325995E+04  0.10100000352E+00 0.  1.
</event>
<event>
 5   0  0.1888149E-07  0.2699538E+04  0.7818609E-02  0.8335155E-01
        1   -1    0    0  501    0  0.00000000000E+00  0.00000000000E+00  0.18342249763E+04  0.18342249763E+04  0.50400001928E-02 0. -1.
       -1   -1    0    0    0  501  0.00000000000E+00  0.00000000000E+00 -0.99326742221E+03  0.99326742222E+03  0.50400001928E-02 0.  1.
    10030    2    1    2    0    0  0.00000000000E+00  0.00000000000E+00  0.84095755408E+03  0.28274923985E+04  0.26995376745E+04 0.  0.
        1    1    3    3  502    0 -0.52285655735E+03 -0.32938380916E+02 -0.88243307015E+03  0.10262319620E+04  0.50400001928E-02 0.  1.
       -1    1    3    3    0  502  0.52285655735E+03  0.32938380916E+02  0.17233906242E+04  0.18012604365E+04  0.50400001928E-02 0. -1.
</event>
<event>
 5   0  0.1965415E-07  0.2701327E+04  0.7818609E-02  0.8334575E-01
       -1   -1    0    0    0  501  0.00000000000E+00  0.00000000000E+00  0.75981971871E+03  0.75981971873E+03  0.50400001928E-02 0.  1.
        1   -1    0    0  501    0  0.00000000000E+00  0.00000000000E+00 -0.24009529753E+04  0.24009529753E+04  0.50400001928E-02 0. -1.
    10030    2    1    2    0    0  0.00000000000E+00  0.00000000000E+00 -0.16411332566E+04  0.31607726940E+04  0.27013266477E+04 0.  0.
        4    1    3    3  502    0  0.88137897788E+03 -0.84224579750E+03 -0.15009093991E+04  0.19336332443E+04  0.12699999809E+01 0. -1.
       -4    1    3    3    0  502 -0.88137897788E+03  0.84224579750E+03 -0.14022385747E+03  0.12271394498E+04  0.12699999809E+01 0.  1.
</event>
<event>
 5   0  0.4992668E-07  0.2700482E+04  0.7818609E-02  0.8334849E-01
       -2   -1    0    0    0  501  0.00000000000E+00  0.00000000000E+00  0.10184308002E+04  0.10184308002E+04  0.25500000920E-02 0. -1.
        2   -1    0    0  501    0  0.00000000000E+00  0.00000000000E+00 -0.17901568674E+04  0.17901568674E+04  0.25500000920E-02 0.  1.
    10030    2    1    2    0    0  0.00000000000E+00  0.00000000000E+00 -0.77172606718E+03  0.28085876676E+04  0.27004820984E+04 0.  0.
        1    1    3    3  502    0 -0.12293109962E+03 -0.13247962461E+04 -0.62519185890E+03  0.14700551042E+04  0.50400001928E-02 0.  1.
       -1    1    3    3    0  502  0.12293109962E+03  0.13247962461E+04 -0.14653420827E+03  0.13385325634E+04  0.50400001928E-02 0. -1.
</event>
<event>
 5   0  0.4983208E-07  0.2699048E+04  0.7818609E-02  0.8335314E-01
       -2   -1    0    0    0  501  0.00000000000E+00  0.00000000000E+00  0.13788217014E+04  0.13788217014E+04  0.25500000920E-02 0. -1.
        2   -1    0    0  501    0  0.00000000000E+00  0.00000000000E+00 -0.13208487435E+04  0.13208487435E+04  0.25500000920E-02 0.  1.
    10030    2    1    2    0    0  0.00000000000E+00  0.00000000000E+00  0.57972957910E+02  0.26996704450E+04  0.26990479150E+04 0.  0.
        4    1    3    3  502    0  0.28009440805E+03  0.10324975872E+04  0.85179955203E+03  0.13675043820E+04  0.12699999809E+01 0. -1.
       -4    1    3    3    0  502 -0.28009440805E+03 -0.10324975872E+04 -0.79382659412E+03  0.13321660630E+04  0.12699999809E+01 0.  1.
</event>
<event>
 5   0  0.1971600E-07  0.2700248E+04  0.7818609E-02  0.8334924E-01
       -1   -1    0    0    0  501  0.00000000000E+00  0.00000000000E+00  0.12511429661E+04  0.12511429661E+04  0.50400001928E-02 0.  1.
        1   -1    0    0  501    0  0.00000000000E+00  0.00000000000E+00 -0.14569361419E+04  0.14569361420E+04  0.50400001928E-02 0. -1.
    10030    2    1    2    0    0  0.00000000000E+00  0.00000000000E+00 -0.20579317585E+03  0.27080791081E+04  0.27002484375E+04 0.  0.
        5    1    3    3  502    0 -0.11142392764E+04 -0.68223489141E+03 -0.44423592660E+03  0.13799787175E+04  0.46999998093E+01 0. -1.
       -5    1    3    3    0  502  0.11142392764E+04  0.68223489141E+03  0.23844275076E+03  0.13281003906E+04  0.46999998093E+01 0.  1.
</event>
<event>
 5   0  0.4992668E-07  0.2699684E+04  0.7818609E-02  0.8335107E-01
       -2   -1    0    0    0  501  0.00000000000E+00  0.00000000000E+00  0.62356789641E+03  0.62356789641E+03  0.25500000920E-02 0.  1.
        2   -1    0    0  501    0  0.00000000000E+00  0.00000000000E+00 -0.29220138028E+04  0.29220138028E+04  0.25500000920E-02 0. -1.
    10030    2    1    2    0    0  0.00000000000E+00  0.00000000000E+00 -0.22984459063E+04  0.35455816992E+04  0.26996844262E+04 0.  0.
        1    1    3    3  502    0 -0.10894813185E+04 -0.74918544532E+03 -0.79237922914E+03  0.15414646339E+04  0.50400001928E-02 0.  1.
       -1    1    3    3    0  502  0.10894813185E+04  0.74918544532E+03 -0.15060666772E+04  0.20041170652E+04  0.50400001928E-02 0. -1.
</event>
<event>
 5   0  0.1937896E-07  0.2700608E+04  0.7818609E-02  0.8334808E-01
        1   -1    0    0  501    0  0.00000000000E+00  0.00000000000E+00  0.31825434910E+04  0.31825434910E+04  0.50400001928E-02 0. -1.
       -1   -1    0    0    0  501  0.00000000000E+00  0.00000000000E+00 -0.57291304741E+03  0.57291304744E+03  0.50400001928E-02 0.  1.
    10030    2    1    2    0    0  0.00000000000E+00  0.00000000000E+00  0.26096304436E+04  0.37554565385E+04  0.27006078501E+04 0.  0.
        3    1    3    3  502    0  0.10299732648E+04  0.87062780711E+03  0.12117077842E+04  0.18130288109E+04  0.10100000352E+00 0. -1.
       -3    1    3    3    0  502 -0.10299732648E+04 -0.87062780711E+03  0.13979226594E+04  0.19424277275E+04  0.10100000352E+00 0.  1.
</event>
<event>
 5   0  0.1641625E-07  0.2700054E+04  0.7818609E-02  0.8334988E-01
       -3   -1    0    0    0  501  0.00000000000E+00  0.00000000000E+00  0.25467173153E+04  0.25467173173E+04  0.10100000352E+00 0.  1.
        3   -1    0    0  501    0  0.00000000000E+00  0.00000000000E+00 -0.71565551305E+03  0.71565552018E+03  0.10100000352E+00 0. -1.
    10030    2    1    2    0    0  0.00000000000E+00  0.00000000000E+00  0.18310618023E+04  0.32623728375E+04  0.27000535564E+04 0.  0.
        1    1    3    3  502    0 -0.35466252024E+03 -0.10734556452E+04  0.23967790941E+02  0.11307815795E+04  0.50400001928E-02 0. -1.
       -1    1    3    3    0  502  0.35466252024E+03  0.10734556452E+04  0.18070940114E+04  0.21315912580E+04  0.50400001928E-02 0.  1.
</event>
<event>
 5   0  0.1971600E-07  0.2701394E+04  0.7818609E-02  0.8334553E-01
       -1   -1    0    0    0  501  0.00000000000E+00  0.00000000000E+00  0.14073044328E+04  0.14073044328E+04  0.50400001928E-02 0.  1.
        1   -1    0    0  501    0  0.00000000000E+00  0.00000000000E+00 -0.12963669039E+04  0.12963669039E+04  0.50400001928E-02 0. -1.
    10030    2    1    2    0    0  0.00000000000E+00  0.00000000000E+00  0.11093752895E+03  0.27036713367E+04  0.27013943735E+04 0.  0.
        5    1    3    3  502    0 -0.15840235038E+03 -0.15627236218E+03 -0.12778885356E+04  0.12971251116E+04  0.46999998093E+01 0. -1.
       -5    1    3    3    0  502  0.15840235038E+03  0.15627236218E+03  0.13888260645E+04  0.14065462251E+04  0.46999998093E+01 0.  1.
</event>
<event>
 5   0  0.1641625E-07  0.2698619E+04  0.7818609E-02  0.8335453E-01
       -4   -1    0    0    0  501  0.00000000000E+00  0.00000000000E+00  0.15733497502E+04  0.15733502628E+04  0.12699999809E+01 0. -1.
        4   -1    0    0  501    0  0.00000000000E+00  0.00000000000E+00 -0.11571710190E+04  0.11571717159E+04  0.12699999809E+01 0.  1.
    10030    2    1    2    0    0  0.00000000000E+00  0.00000000000E+00  0.41617873120E+03  0.27305219787E+04  0.26986191913E+04 0.  0.
        1    1    3    3  502    0 -0.27953249550E+02  0.76697531724E+03 -0.91480678597E+03  0.11941122129E+04  0.50400001928E-02 0.  1.
       -1    1    3    3    0  502  0.27953249550E+02 -0.76697531724E+03  0.13309855172E+04  0.15364097658E+04  0.50400001928E-02 0. -1.
</event>
<event>
 5   0  0.4843887E-07  0.2700728E+04  0.7818609E-02  0.8334769E-01
       -2   -1    0    0    0  501  0.00000000000E+00  0.00000000000E+00  0.10707030878E+04  0.10707030878E+04  0.25500000920E-02 0.  1.
        2   -1    0    0  501    0  0.00000000000E+00  0.00000000000E+00 -0.17030699593E+04  0.17030699593E+04  0.25500000920E-02 0. -1.
    10030    2    1    2    0    0  0.00000000000E+00  0.00000000000E+00 -0.63236687148E+03  0.27737730471E+04  0.27007275051E+04 0.  0.
        5    1    3    3  502    0 -0.10668627624E+04  0.25349594925E+03  0.49316828349E+03  0.12023699081E+04  0.46999998093E+01 0.  1.
       -5    1    3    3    0  502  0.10668627624E+04 -0.25349594925E+03 -0.11255351550E+04  0.15714031390E+04  0.46999998093E+01 0. -1.
</event>
<event>
 5   0  0.4735120E-07  0.2699429E+04  0.7818609E-02  0.8335190E-01
       -2   -1    0    0    0  501  0.00000000000E+00  0.00000000000E+00  0.11913784145E+04  0.11913784145E+04  0.25500000920E-02 0.  1.
        2   -1    0    0  501    0  0.00000000000E+00  0.00000000000E+00 -0.15290941738E+04  0.15290941738E+04  0.25500000920E-02 0. -1.
    10030    2    1    2    0    0  0.00000000000E+00  0.00000000000E+00 -0.33771575936E+03  0.27204725883E+04  0.26994294156E+04 0.  0.
        2    1    3    3  502    0  0.52866322144E+03 -0.47263155568E+03 -0.13262284943E+04  0.15039107049E+04  0.25500000920E-02 0. -1.
       -2    1    3    3    0  502 -0.52866322144E+03  0.47263155568E+03  0.98851273493E+03  0.12165618834E+04  0.25500000920E-02 0.  1.
</event>
<event>
 5   0  0.1888149E-07  0.2702422E+04  0.7818609E-02  0.8334220E-01
       -1   -1    0    0    0  501  0.00000000000E+00  0.00000000000E+00  0.11305563572E+04  0.11305563572E+04  0.50400001928E-02 0.  1.
        1   -1    0    0  501    0  0.00000000000E+00  0.00000000000E+00 -0.16149311788E+04  0.16149311788E+04  0.50400001928E-02 0. -1.
    10030    2    1    2    0    0  0.00000000000E+00  0.00000000000E+00 -0.48437482165E+03  0.27454875360E+04  0.27024216626E+04 0.  0.
        1    1    3    3  502    0 -0.17143162225E+03  0.39613127715E+03  0.10586320629E+04  0.11432456580E+04  0.50400001928E-02 0.  1.
       -1    1    3    3    0  502  0.17143162225E+03 -0.39613127715E+03 -0.15430068846E+04  0.16022418780E+04  0.50400001928E-02 0. -1.
</event>
<event>
 5   0  0.4843887E-07  0.2700044E+04  0.7818609E-02  0.8334991E-01
       -2   -1    0    0    0  501  0.00000000000E+00  0.00000000000E+00  0.15370748808E+04  0.15370748808E+04  0.25500000920E-02 0.  1.
        2   -1    0    0  501    0  0.00000000000E+00  0.00000000000E+00 -0.11857325403E+04  0.11857325403E+04  0.25500000920E-02 0. -1.
    10030    2    1    2    0    0  0.00000000000E+00  0.00000000000E+00  0.35134234050E+03  0.27228074210E+04  0.27000442240E+04 0.  0.
        5    1    3    3  502    0  0.61752294385E+03  0.97756267816E+03  0.87837750123E+03  0.14520786826E+04  0.46999998093E+01 0.  1.
       -5    1    3    3    0  502 -0.61752294385E+03 -0.97756267816E+03 -0.52703516073E+03  0.12707287384E+04  0.46999998093E+01 0. -1.
</event>
<event>
 5   0  0.1971600E-07  0.2699655E+04  0.7818609E-02  0.8335117E-01
       -1   -1    0    0    0  501  0.00000000000E+00  0.00000000000E+00  0.86195418778E+03  0.86195418780E+03  0.50400001928E-02 0.  1.
        1   -1    0    0  501    0  0.00000000000E+00  0.00000000000E+00 -0.21138414585E+04  0.21138414585E+04  0.50400001928E-02 0. -1.
    10030    2    1    2    0    0  0.00000000000E+00  0.00000000000E+00 -0.12518872707E+04  0.29757956463E+04  0.26996551613E+04 0.  0.
        5    1    3    3  502    0  0.22939883643E+03  0.11744562934E+04  0.62470753574E+02  0.11982888201E+04  0.46999998093E+01 0.  1.
       -5    1    3    3    0  502 -0.22939883643E+03 -0.11744562934E+04 -0.13143580243E+04  0.17775068262E+04  0.46999998093E+01 0. -1.
</event>
<event>
 5   0  0.5043890E-07  0.2713910E+04  0.7818609E-02  0.8330506E-01
        2   -1    0    0  501    0  0.00000000000E+00  0.00000000000E+00  0.24524485496E+04  0.24524485496E+04  0.25500000920E-02 0.  1.
       -2   -1    0    0    0  501  0.00000000000E+00  0.00000000000E+00 -0.75081141725E+03  0.75081141726E+03  0.25500000920E-02 0. -1.
    10030    2    1    2    0    0  0.00000000000E+00  0.00000000000E+00  0.17016371323E+04  0.32032599668E+04  0.27139096310E+04 0.  0.
        3    1    3    3  502    0 -0.84848787242E+03  0.10423924018E+04  0.10710433066E+04  0.17186178644E+04  0.10100000352E+00 0. -1.
       -3    1    3    3    0  502  0.84848787242E+03 -0.10423924018E+04  0.63059382572E+03  0.14846421024E+04  0.10100000352E+00 0.  1.
</event>
<event>
 5   0  0.4843887E-07  0.2700226E+04  0.7818609E-02  0.8334932E-01
       -2   -1    0    0    0  501  0.00000000000E+00  0.00000000000E+00  0.10521056644E+04  0.10521056644E+04  0.25500000920E-02 0.  1.
        2   -1    0    0  501    0  0.00000000000E+00  0.00000000000E+00 -0.17325300922E+04  0.17325300922E+04  0.25500000920E-02 0. -1.
    10030    2    1    2    0    0  0.00000000000E+00  0.00000000000E+00 -0.68042442782E+03  0.27846357565E+04  0.27002257118E+04 0.  0.
        5    1    3    3  502    0  0.71430243044E+03  0.46670159010E+03 -0.14192202344E+04  0.16559729769E+04  0.46999998093E+01 0. -1.
       -5    1    3    3    0  502 -0.71430243044E+03 -0.46670159010E+03  0.73879580661E+03  0.11286627797E+04  0.46999998093E+01 0.  1.
</event>
<event>
 5   0  0.1965415E-07  0.2700305E+04  0.7818609E-02  0.8334906E-01
       -1   -1    0    0    0  501  0.00000000000E+00  0.00000000000E+00  0.80435700838E+03  0.80435700840E+03  0.50400001928E-02 0. -1.
        1   -1    0    0  501    0  0.00000000000E+00  0.00000000000E+00 -0.22662971995E+04  0.22662971995E+04  0.50400001928E-02 0.  1.
    10030    2    1    2    0    0  0.00000000000E+00  0.00000000000E+00 -0.14619401911E+04  0.30706542079E+04  0.27003051943E+04 0.  0.
        4    1    3    3  502    0  0.24844104852E+03  0.84739187416E+03 -0.18923760482E+04  0.20882731296E+04  0.12699999809E+01 0.  1.
       -4    1    3    3    0  502 -0.24844104852E+03 -0.84739187416E+03  0.43043585713E+03  0.98238107829E+03  0.12699999809E+01 0. -1.
</event>
<event>
 5   0  0.5043890E-07  0.2700072E+04  0.7818609E-02  0.8334981E-01
       -2   -1    0    0    0  501  0.00000000000E+00  0.00000000000E+00  0.10366545907E+04  0.10366545907E+04  0.25500000920E-02 0.  1.
        2   -1    0    0  501    0  0.00000000000E+00  0.00000000000E+00 -0.17581534699E+04  0.17581534699E+04  0.25500000920E-02 0. -1.
    10030    2    1    2    0    0  0.00000000000E+00  0.00000000000E+00 -0.72149887918E+03  0.27948080607E+04  0.27000724922E+04 0.  0.
        3    1    3    3  502    0  0.50465430632E+01  0.11799563760E+04 -0.10397181963E+04  0.15726844740E+04  0.10100000352E+00 0. -1.
       -3    1    3    3    0  502 -0.50465430632E+01 -0.11799563760E+04  0.31821931715E+03  0.12221235866E+04  0.10100000352E+00 0.  1.
</event>
<event>
 5   0  0.4735120E-07  0.2700033E+04  0.7818609E-02  0.8334994E-01
        2   -1    0    0  501    0  0.00000000000E+00  0.00000000000E+00  0.17139780857E+04  0.17139780857E+04  0.25500000920E-02 0. -1.
       -2   -1    0    0    0  501  0.00000000000E+00  0.00000000000E+00 -0.10633418954E+04  0.10633418955E+04  0.25500000920E-02 0.  1.
    10030    2    1    2    0    0  0.00000000000E+00  0.00000000000E+00  0.65063619026E+03  0.27773199812E+04  0.27000331157E+04 0.  0.
        2    1    3    3  502    0 -0.35382409016E+03 -0.26971221008E+03  0.16364041383E+04  0.16958050203E+04  0.25500000920E-02 0. -1.
       -2    1    3    3    0  502  0.35382409016E+03  0.26971221008E+03 -0.98576794807E+03  0.10815149608E+04  0.25500000920E-02 0.  1.
</event>
<event>
 5   0  0.4983208E-07  0.2700531E+04  0.7818609E-02  0.8334833E-01
       -2   -1    0    0    0  501  0.00000000000E+00  0.00000000000E+00  0.87382914427E+03  0.87382914427E+03  0.25500000920E-02 0. -1.
        2   -1    0    0  501    0  0.00000000000E+00  0.00000000000E+00 -0.20864690517E+04  0.20864690517E+04  0.25500000920E-02 0.  1.
    10030    2    1    2    0    0  0.00000000000E+00  0.00000000000E+00 -0.12126399074E+04  0.29602981959E+04  0.27005314040E+04 0.  0.
        4    1    3    3  502    0 -0.54958764099E+03 -0.59017329465E+03 -0.17934825294E+04  0.19664517001E+04  0.12699999809E+01 0.  1.
       -4    1    3    3    0  502  0.54958764099E+03  0.59017329465E+03  0.58084262198E+03  0.99384649582E+03  0.12699999809E+01 0. -1.
</event>
<event>
 5   0  0.4843887E-07  0.2700115E+04  0.7818609E-02  0.8334968E-01
        2   -1    0    0  501    0  0.00000000000E+00  0.00000000000E+00  0.16229479652E+04  0.16229479652E+04  0.25500000920E-02 0.  1.
       -2   -1    0    0    0  501  0.00000000000E+00  0.00000000000E+00 -0.11230519684E+04  0.11230519684E+04  0.25500000920E-02 0. -1.
    10030    2    1    2    0    0  0.00000000000E+00  0.00000000000E+00  0.49989599685E+03  0.27459999336E+04  0.27001147434E+04 0.  0.
        5    1    3    3  502    0  0.51682111289E+03 -0.10655250409E+04  0.90918055572E+03  0.14930100631E+04  0.46999998093E+01 0.  1.
       -5    1    3    3    0  502 -0.51682111289E+03  0.10655250409E+04 -0.40928455887E+03  0.12529898705E+04  0.46999998093E+01 0. -1.
</event>
<event>
 5   0  0.4992668E-07  0.2699699E+04  0.7818609E-02  0.8335103E-01
       -2   -1    0    0    0  501  0.00000000000E+00  0.00000000000E+00  0.18153013709E+04  0.18153013709E+04  0.25500000920E-02 0.  1.
        2   -1    0    0  501    0  0.00000000000E+00  0.00000000000E+00 -0.10037415953E+04  0.10037415953E+04  0.25500000920E-02 0. -1.
    10030    2    1    2    0    0  0.00000000000E+00  0.00000000000E+00  0.81155977555E+03  0.28190429662E+04  0.26996988677E+04 0.  0.
        1    1    3    3  502    0  0.54757713588E+03 -0.76572924318E+03  0.14159715106E+04  0.17003403520E+04  0.50400001928E-02 0.  1.
       -1    1    3    3    0  502 -0.54757713588E+03  0.76572924318E+03 -0.60441173509E+03  0.11187026143E+04  0.50400001928E-02 0. -1.
</event>
<event>
 5   0  0.4992668E-07  0.2699036E+04  0.7818609E-02  0.8335318E-01
       -2   -1    0    0    0  501  0.00000000000E+00  0.00000000000E+00  0.12265841564E+04  0.12265841564E+04  0.25500000920E-02 0.  1.
        2   -1    0    0  501    0  0.00000000000E+00  0.00000000000E+00 -0.14847728968E+04  0.14847728968E+04  0.25500000920E-02 0. -1.
    10030    2    1    2    0    0  0.00000000000E+00  0.00000000000E+00 -0.25818874035E+03  0.27113570532E+04  0.26990360584E+04 0.  0.
        1    1    3    3  502    0  0.11810024618E+04  0.65128379514E+03 -0.17686684189E+03  0.13602276561E+04  0.50400001928E-02 0.  1.
       -1    1    3    3    0  502 -0.11810024618E+04 -0.65128379514E+03 -0.81321898463E+02  0.13511293971E+04  0.50400001928E-02 0. -1.
</event>
<event>
 5   0  0.1888149E-07  0.2702486E+04  0.7818609E-02  0.8334199E-01
        1   -1    0    0  501    0  0.00000000000E+00  0.00000000000E+00  0.15448246031E+04  0.15448246031E+04  0.50400001928E-02 0. -1.
       -1   -1    0    0    0  501  0.00000000000E+00  0.00000000000E+00 -0.11819186646E+04  0.11819186646E+04  0.50400001928E-02 0.  1.
    10030    2    1    2    0    0  0.00000000000E+00  0.00000000000E+00  0.36290593847E+03  0.27267432677E+04  0.27024855463E+04 0.  0.
        1    1    3    3  502    0 -0.11631606600E+03  0.91056998731E+03  0.11819126122E+04  0.14965241568E+04  0.50400001928E-02 0. -1.
       -1    1    3    3    0  502  0.11631606600E+03 -0.91056998731E+03 -0.81900667377E+03  0.12302191109E+04  0.50400001928E-02 0.  1.
</event>
<event>
 5   0  0.1964242E-07  0.2699185E+04  0.7818609E-02  0.8335270E-01
       -1   -1    0    0    0  501  0.00000000000E+00  0.00000000000E+00  0.11838088312E+04  0.11838088312E+04  0.50400001928E-02 0. -1.
        1   -1    0    0  501    0  0.00000000000E+00  0.00000000000E+00 -0.15385926733E+04  0.15385926733E+04  0.50400001928E-02 0.  1.
    10030    2    1    2    0    0  0.00000000000E+00  0.00000000000E+00 -0.35478384211E+03  0.27224015045E+04  0.26991847616E+04 0.  0.
        2    1    3    3  502    0  0.54183903571E+03 -0.11999382207E+04  0.12173673948E+03  0.13222182527E+04  0.25500000920E-02 0. -1.
       -2    1    3    3    0  502 -0.54183903571E+03  0.11999382207E+04 -0.47652058159E+03  0.14001832518E+04  0.25500000920E-02 0.  1.
</event>
<event>
 5   0  0.4992668E-07  0.2700377E+04  0.7818609E-02  0.8334883E-01
        2   -1    0    0  501    0  0.00000000000E+00  0.00000000000E+00  0.18368903365E+04  0.18368903365E+04  0.25500000920E-02 0.  1.
       -2   -1    0    0    0  501  0.00000000000E+00  0.00000000000E+00 -0.99244269910E+03  0.99244269911E+03  0.25500000920E-02 0. -1.
    10030    2    1    2    0    0  0.00000000000E+00  0.00000000000E+00  0.84444763738E+03  0.28293330356E+04  0.27003765689E+04 0.  0.
        1    1    3    3  502    0 -0.11990824218E+03  0.12100833721E+04 -0.19259382062E+03  0.12311669805E+04  0.50400001928E-02 0. -1.
       -1    1    3    3    0  502  0.11990824218E+03 -0.12100833721E+04  0.10370414580E+04  0.15981660551E+04  0.50400001928E-02 0.  1.
</event>
<event>
 5   0  0.1971600E-07  0.2701896E+04  0.7818609E-02  0.8334390E-01
        1   -1    0    0  501    0  0.00000000000E+00  0.00000000000E+00  0.14295934530E+04  0.14295934530E+04  0.50400001928E-02 0.  1.
       -1   -1    0    0    0  501  0.00000000000E+00  0.00000000000E+00 -0.12766290711E+04  0.12766290711E+04  0.50400001928E-02 0. -1.
    10030    2    1    2    0    0  0.00000000000E+00  0.00000000000E+00  0.15296438191E+03  0.27062225240E+04  0.27018960468E+04 0.  0.
        5    1    3    3  502    0 -0.97279889378E+03 -0.29587613506E+03  0.96737716121E+03  0.14034675048E+04  0.46999998093E+01 0.  1.
       -5    1    3    3    0  502  0.97279889378E+03  0.29587613506E+03 -0.81441277930E+03  0.13027550192E+04  0.46999998093E+01 0. -1.
</event>
<event>
 5   0  0.4843887E-07  0.2700174E+04  0.7818609E-02  0.8334948E-01
       -2   -1    0    0    0  501  0.00000000000E+00  0.00000000000E+00  0.83562062654E+03  0.83562062654E+03  0.25500000920E-02 0. -1.
        2   -1    0    0  501    0  0.00000000000E+00  0.00000000000E+00 -0.21812954039E+04  0.21812954039E+04  0.25500000920E-02 0.  1.
    10030    2    1    2    0    0  0.00000000000E+00  0.00000000000E+00 -0.13456747774E+04  0.30169160305E+04  0.27001743885E+04 0.  0.
        5    1    3    3  502    0 -0.57862974158E+03  0.39432080271E+03  0.61686851535E+03  0.93319351076E+03  0.46999998093E+01 0. -1.
       -5    1    3    3    0  502  0.57862974158E+03 -0.39432080271E+03 -0.19625432928E+04  0.20837225197E+04  0.46999998093E+01 0.  1.
</event>
<event>
 5   0  0.1937896E-07  0.2712447E+04  0.7818609E-02  0.8330978E-01
        1   -1    0    0  501    0  0.00000000000E+00  0.00000000000E+00  0.10848921405E+04  0.10848921405E+04  0.50400001928E-02 0.  1.
       -1   -1    0    0    0  501  0.00000000000E+00  0.00000000000E+00 -0.16954146975E+04  0.16954146975E+04  0.50400001928E-02 0. -1.
    10030    2    1    2    0    0  0.00000000000E+00  0.00000000000E+00 -0.61052255703E+03  0.27803068381E+04  0.27124469250E+04 0.  0.
        3    1    3    3  502    0  0.91467539594E+03  0.80057236604E+03  0.31128074753E+03  0.12547680691E+04  0.10100000352E+00 0.  1.
       -3    1    3    3    0  502 -0.91467539594E+03 -0.80057236604E+03 -0.92180330456E+03  0.15255387690E+04  0.10100000352E+00 0. -1.
</event>
<event>
 5   0  0.4735120E-07  0.2698838E+04  0.7818609E-02  0.8335382E-01
        2   -1    0    0  501    0  0.00000000000E+00  0.00000000000E+00  0.25709039195E+04  0.25709039195E+04  0.25500000920E-02 0. -1.
       -2   -1    0    0    0  501  0.00000000000E+00  0.00000000000E+00 -0.70828465899E+03  0.70828465900E+03  0.25500000920E-02 0.  1.
    10030    2    1    2    0    0  0.00000000000E+00  0.00000000000E+00  0.18626192605E+04  0.32791885785E+04  0.26988381248E+04 0.  0.
        2    1    3    3  502    0  0.20989351163E+03 -0.18968293927E+03 -0.67184746835E+03  0.72898142940E+03  0.25500000920E-02 0.  1.
       -2    1    3    3    0  502 -0.20989351163E+03  0.18968293927E+03  0.25344667289E+04  0.25502071491E+04  0.25500000920E-02 0. -1.
</event>
<event>
 5   0  0.1965415E-07  0.2700370E+04  0.7818609E-02  0.8334885E-01
       -1   -1    0    0    0  501  0.00000000000E+00  0.00000000000E+00  0.12777613381E+04  0.12777613381E+04  0.50400001928E-02 0.  1.
        1   -1    0    0  501    0  0.00000000000E+00  0.00000000000E+00 -0.14267136306E+04  0.14267136306E+04  0.50400001928E-02 0. -1.
    10030    2    1    2    0    0  0.00000000000E+00  0.00000000000E+00 -0.14895229255E+03  0.27044749687E+04  0.27003699878E+04 0.  0.
        4    1    3    3  502    0  0.55361578514E+03  0.10122055691E+04 -0.77693195440E+03  0.13909261039E+04  0.12699999809E+01 0.  1.
       -4    1    3    3    0  502 -0.55361578514E+03 -0.10122055691E+04  0.62797966185E+03  0.13135488648E+04  0.12699999809E+01 0. -1.
</event>
<event>
 5   0  0.1971600E-07  0.2700548E+04  0.7818609E-02  0.8334827E-01
       -1   -1    0    0    0  501  0.00000000000E+00  0.00000000000E+00  0.11759868315E+04  0.11759868315E+04  0.50400001928E-02 0. -1.
        1   -1    0    0  501    0  0.00000000000E+00  0.00000000000E+00 -0.15503916784E+04  0.15503916784E+04  0.50400001928E-02 0.  1.
    10030    2    1    2    0    0  0.00000000000E+00  0.00000000000E+00 -0.37440484688E+03  0.27263785098E+04  0.27005482387E+04 0.  0.
        5    1    3    3  502    0  0.10090637370E+04  0.26358994024E+03  0.67863042694E+03  0.12442871969E+04  0.46999998093E+01 0. -1.
       -5    1    3    3    0  502 -0.10090637370E+04 -0.26358994024E+03 -0.10530352738E+04  0.14820913129E+04  0.46999998093E+01 0.  1.
</event>
<event>
 5   0  0.1888149E-07  0.2700936E+04  0.7818609E-02  0.8334701E-01
        1   -1    0    0  501    0  0.00000000000E+00  0.00000000000E+00  0.18019355788E+04  0.18019355789E+04  0.50400001928E-02 0.  1.
       -1   -1    0    0    0  501  0.00000000000E+00  0.00000000000E+00 -0.10121136280E+04  0.10121136280E+04  0.50400001928E-02 0. -1.
    10030    2    1    2    0    0  0.00000000000E+00  0.00000000000E+00  0.78982195086E+03  0.28140492069E+04  0.27009358053E+04 0.  0.
        1    1    3    3  502    0 -0.65504784318E+03  0.82009133584E+02 -0.83254067836E+03  0.10625145439E+04  0.50400001928E-02 0. -1.
       -1    1    3    3    0  502  0.65504784318E+03 -0.82009133584E+02  0.16223626292E+04  0.17515346630E+04  0.50400001928E-02 0.  1.
</event>
<event>
 5   0  0.1964242E-07  0.2705048E+04  0.7818609E-02  0.8333369E-01
       -1   -1    0    0    0  501  0.00000000000E+00  0.00000000000E+00  0.12084352085E+04  0.12084352085E+04  0.50400001928E-02 0.  1.
        1   -1    0    0  501    0  0.00000000000E+00  0.00000000000E+00 -0.15137929029E+04  0.15137929029E+04  0.50400001928E-02 0. -1.
    10030    2    1    2    0    0  0.00000000000E+00  0.00000000000E+00 -0.30535769441E+03  0.27222281115E+04  0.27050476095E+04 0.  0.
        2    1    3    3  502    0  0.84108238806E+03 -0.35318511027E+02  0.91265397738E+03  0.12416135724E+04  0.25500000920E-02 0.  1.
       -2    1    3    3    0  502 -0.84108238806E+03  0.35318511027E+02 -0.12180116718E+04  0.14806145391E+04  0.25500000920E-02 0. -1.
</event>
<event>
 5   0  0.5043890E-07  0.2700143E+04  0.7818609E-02  0.8334959E-01
        2   -1    0    0  501    0  0.00000000000E+00  0.00000000000E+00  0.12279376488E+04  0.12279376488E+04  0.25500000920E-02 0.  1.
       -2   -1    0    0    0  501  0.00000000000E+00  0.00000000000E+00 -0.14843531113E+04  0.14843531113E+04  0.25500000920E-02 0. -1.
    10030    2    1    2    0    0  0.00000000000E+00  0.00000000000E+00 -0.25641546246E+03  0.27122907601E+04  0.27001430106E+04 0.  0.
        3    1    3    3  502    0 -0.53950891897E+03 -0.23191868511E+03 -0.13493400685E+04  0.14715892025E+04  0.10100000352E+00 0. -1.
       -3    1    3    3    0  502  0.53950891897E+03  0.23191868511E+03  0.10929246061E+04  0.12407015576E+04  0.10100000352E+00 0.  1.
</event>
<event>
 5   0  0.4992668E-07  0.2698973E+04  0.7818609E-02  0.8335338E-01
        2   -1    0    0  501    0  0.00000000000E+00  0.00000000000E+00  0.22038093321E+04  0.22038093321E+04  0.25500000920E-02 0. -1.
       -2   -1    0    0    0  501  0.00000000000E+00  0.00000000000E+00 -0.82634794592E+03  0.82634794593E+03  0.25500000920E-02 0.  1.
    10030    2    1    2    0    0  0.00000000000E+00  0.00000000000E+00  0.13774613862E+04  0.30301572781E+04  0.26989726303E+04 0.  0.
        1    1    3    3  502    0 -0.98777837730E+03 -0.25090411738E+03  0.16818380189E+04  0.19665294609E+04  0.50400001928E-02 0. -1.
       -1    1    3    3    0  502  0.98777837730E+03  0.25090411738E+03 -0.30437663272E+03  0.10636278171E+04  0.50400001928E-02 0.  1.
</event>
<event>
 5   0  0.1964242E-07  0.2699531E+04  0.7818609E-02  0.8335157E-01
       -1   -1    0    0    0  501  0.00000000000E+00  0.00000000000E+00  0.10440353735E+04  0.10440353735E+04  0.50400001928E-02 0.  1.
        1   -1    0    0  501    0  0.00000000000E+00  0.00000000000E+00 -0.17450246344E+04  0.17450246344E+04  0.50400001928E-02 0. -1.
    10030    2    1    2    0    0  0.00000000000E+00  0.00000000000E+00 -0.70098926085E+03  0.27890600079E+04  0.26995314008E+04 0.  0.
        2    1    3    3  502    0  0.84754330693E+03  0.90882835192E+02 -0.14317584638E+04  0.16662897844E+04  0.25500000920E-02 0. -1.
       -2    1    3    3    0  502 -0.84754330693E+03 -0.90882835192E+02  0.73076920294E+03  0.11227702235E+04  0.25500000920E-02 0.  1.
</event>
<event>
 5   0  0.1965415E-07  0.2700677E+04  0.7818609E-02  0.8334785E-01
       -1   -1    0    0    0  501  0.00000000000E+00  0.00000000000E+00  0.13625795266E+04  0.13625795266E+04  0.50400001928E-02 0.  1.
        1   -1    0    0  501    0  0.00000000000E+00  0.00000000000E+00 -0.13382071285E+04  0.13382071285E+04  0.50400001928E-02 0. -1.
    10030    2    1    2    0    0  0.00000000000E+00  0.00000000000E+00  0.24372398042E+02  0.27007866551E+04  0.27006766824E+04 0.  0.
        4    1    3    3  502    0  0.26648922486E+03  0.66798136156E+03 -0.11307498431E+04  0.13400792614E+04  0.12699999809E+01 0. -1.
       -4    1    3    3    0  502 -0.26648922486E+03 -0.66798136156E+03  0.11551222411E+04  0.13607073937E+04  0.12699999809E+01 0.  1.
</event>
<event>
 5   0  0.1937896E-07  0.2699978E+04  0.7818609E-02  0.8335012E-01
        1   -1    0    0  501    0  0.00000000000E+00  0.00000000000E+00  0.19082145569E+04  0.19082145569E+04  0.50400001928E-02 0. -1.
       -1   -1    0    0    0  501  0.00000000000E+00  0.00000000000E+00 -0.95506555938E+03  0.95506555939E+03  0.50400001928E-02 0.  1.
    10030    2    1    2    0    0  0.00000000000E+00  0.00000000000E+00  0.95314899753E+03  0.28632801163E+04  0.26999777801E+04 0.  0.
        3    1    3    3  502    0  0.10418663305E+04  0.12251924894E+03 -0.42450746889E+03  0.11316815004E+04  0.10100000352E+00 0.  1.
       -3    1    3    3    0  502 -0.10418663305E+04 -0.12251924894E+03  0.13776564664E+04  0.17315986159E+04  0.10100000352E+00 0. -1.
</event>
<event>
 5   0  0.1965415E-07  0.2700759E+04  0.7818609E-02  0.8334759E-01
        1   -1    0    0  501    0  0.00000000000E+00  0.00000000000E+00  0.19108677964E+04  0.19108677964E+04  0.50400001928E-02 0. -1.
       -1   -1    0    0    0  501  0.00000000000E+00  0.00000000000E+00 -0.95429141228E+03  0.95429141229E+03  0.50400001928E-02 0.  1.
    10030    2    1    2    0    0  0.00000000000E+00  0.00000000000E+00  0.95657638412E+03  0.28651592087E+04  0.27007589512E+04 0.  0.
        4    1    3    3  502    0  0.11221288062E+04 -0.68038041247E+03  0.81615973179E+03  0.15453830865E+04  0.12699999809E+01 0.  1.
       -4    1    3    3    0  502 -0.11221288062E+04  0.68038041247E+03  0.14041665233E+03  0.13197761222E+04  0.12699999809E+01 0. -1.
</event>
<event>
 5   0  0.4735120E-07  0.2699398E+04  0.7818609E-02  0.8335200E-01
       -2   -1    0    0    0  501  0.00000000000E+00  0.00000000000E+00  0.16710469621E+04  0.16710469621E+04  0.25500000920E-02 0.  1.
        2   -1    0    0  501    0  0.00000000000E+00  0.00000000000E+00 -0.10901470850E+04  0.10901470850E+04  0.25500000920E-02 0. -1.
    10030    2    1    2    0    0  0.00000000000E+00  0.00000000000E+00  0.58089987718E+03  0.27611940471E+04  0.26993976918E+04 0.  0.
        2    1    3    3  502    0 -0.11846832557E+04 -0.62637587058E+03  0.45496029440E+03  0.14152067047E+04  0.25500000920E-02 0. -1.
       -2    1    3    3    0  502  0.11846832557E+04  0.62637587058E+03  0.12593958278E+03  0.13459873424E+04  0.25500000920E-02 0.  1.
</event>
<event>
 5   0  0.4992668E-07  0.2698981E+04  0.7818609E-02  0.8335336E-01
       -2   -1    0    0    0  501  0.00000000000E+00  0.00000000000E+00  0.11108127734E+04  0.11108127734E+04  0.25500000920E-02 0.  1.
        2   -1    0    0  501    0  0.00000000000E+00  0.00000000000E+00 -0.16394529244E+04  0.16394529244E+04  0.25500000920E-02 0. -1.
    10030    2    1    2    0    0  0.00000000000E+00  0.00000000000E+00 -0.52864015102E+03  0.27502656978E+04  0.26989814744E+04 0.  0.
        1    1    3    3  502    0  0.57994933792E+03  0.93964085541E+03  0.52621684267E+03  0.12231804189E+04  0.50400001928E-02 0.  1.
       -1    1    3    3    0  502 -0.57994933792E+03 -0.93964085541E+03 -0.10548569937E+04  0.15270852788E+04  0.50400001928E-02 0. -1.
</event>
<event>
 5   0  0.1888149E-07  0.2699295E+04  0.7818609E-02  0.8335234E-01
       -1   -1    0    0    0  501  0.00000000000E+00  0.00000000000E+00  0.12140244475E+04  0.12140244475E+04  0.50400001928E-02 0.  1.
        1   -1    0    0  501    0  0.00000000000E+00  0.00000000000E+00 -0.15004220392E+04  0.15004220392E+04  0.50400001928E-02 0. -1.
    10030    2    1    2    0    0  0.00000000000E+00  0.00000000000E+00 -0.28639759175E+03  0.27144464867E+04  0.26992954912E+04 0.  0.
        1    1    3    3  502    0  0.11149015904E+04 -0.76570719096E+02 -0.90420293176E+03  0.14375157645E+04  0.50400001928E-02 0. -1.
       -1    1    3    3    0  502 -0.11149015904E+04  0.76570719096E+02  0.61780534001E+03  0.12769307222E+04  0.50400001928E-02 0.  1.
</event>
<event>
 5   0  0.4735120E-07  0.2699572E+04  0.7818609E-02  0.8335144E-01
        2   -1    0    0  501    0  0.00000000000E+00  0.00000000000E+00  0.17254670151E+04  0.17254670151E+04  0.25500000920E-02 0. -1.
       -2   -1    0    0    0  501  0.00000000000E+00  0.00000000000E+00 -0.10559005920E+04  0.10559005920E+04  0.25500000920E-02 0.  1.
    10030    2    1    2    0    0  0.00000000000E+00  0.00000000000E+00  0.66956642312E+03  0.27813676071E+04  0.26995715532E+04 0.  0.
        2    1    3    3  502    0  0.74902724694E+03  0.53716587696E+03  0.13507300499E+04  0.16352555347E+04  0.25500000920E-02 0. -1.
       -2    1    3    3    0  502 -0.74902724694E+03 -0.53716587696E+03 -0.68116362680E+03  0.11461120724E+04  0.25500000920E-02 0.  1.
</event>
<event>
 5   0  0.1937896E-07  0.2700364E+04  0.7818609E-02  0.8334887E-01
       -1   -1    0    0    0  501  0.00000000000E+00  0.00000000000E+00  0.11392665175E+04  0.11392665175E+04  0.50400001928E-02 0. -1.
        1   -1    0    0  501    0  0.00000000000E+00  0.00000000000E+00 -0.16001452184E+04  0.16001452184E+04  0.50400001928E-02 0.  1.
    10030    2    1    2    0    0  0.00000000000E+00  0.00000000000E+00 -0.46087870085E+03  0.27394117359E+04  0.27003643239E+04 0.  0.
        3    1    3    3  502    0 -0.10210336620E+04 -0.29409403310E+03 -0.10755465734E+04  0.15118867289E+04  0.10100000352E+00 0.  1.
       -3    1    3    3    0  502  0.10210336620E+04  0.29409403310E+03  0.61466787250E+03  0.12275250070E+04  0.10100000352E+00 0. -1.
</event>
<event>
 5   0  0.4992668E-07  0.2699785E+04  0.7818609E-02  0.8335075E-01
        2   -1    0    0  501    0  0.00000000000E+00  0.00000000000E+00  0.16128441074E+04  0.16128441074E+04  0.25500000920E-02 0.  1.
       -2   -1    0    0    0  501  0.00000000000E+00  0.00000000000E+00 -0.11298114651E+04  0.11298114651E+04  0.25500000920E-02 0. -1.
    10030    2    1    2    0    0  0.00000000000E+00  0.00000000000E+00  0.48303264230E+03  0.27426555725E+04  0.26997850018E+04 0.  0.
        1    1    3    3  502    0  0.64783231163E+03  0.10884335810E+04  0.71565602026E+03  0.14548326033E+04  0.50400001928E-02 0.  1.
       -1    1    3    3    0  502 -0.64783231163E+03 -0.10884335810E+04 -0.23262337796E+03  0.12878229693E+04  0.50400001928E-02 0. -1.
</event>
<event>
 5   0  0.1937896E-07  0.2699689E+04  0.7818609E-02  0.8335106E-01
       -1   -1    0    0    0  501  0.00000000000E+00  0.00000000000E+00  0.10406447279E+04  0.10406447279E+04  0.50400001928E-02 0. -1.
        1   -1    0    0  501    0  0.00000000000E+00  0.00000000000E+00 -0.17509143322E+04  0.17509143322E+04  0.50400001928E-02 0.  1.
    10030    2    1    2    0    0  0.00000000000E+00  0.00000000000E+00 -0.71026960435E+03  0.27915590601E+04  0.26996886997E+04 0.  0.
        3    1    3    3  502    0  0.51630324176E+03  0.35222051377E+03  0.88201257951E+03  0.10810062573E+04  0.10100000352E+00 0. -1.
       -3    1    3    3    0  502 -0.51630324176E+03 -0.35222051377E+03 -0.15922821839E+04  0.17105528028E+04  0.10100000352E+00 0.  1.
</event>
<event>
 5   0  0.4843887E-07  0.2704153E+04  0.7818609E-02  0.8333659E-01
       -2   -1    0    0    0  501  0.00000000000E+00  0.00000000000E+00  0.68950445121E+03  0.68950445122E+03  0.25500000920E-02 0.  1.
        2   -1    0    0  501    0  0.00000000000E+00  0.00000000000E+00 -0.26513406892E+04  0.26513406892E+04  0.25500000920E-02 0. -1.
    10030    2    1    2    0    0  0.00000000000E+00  0.00000000000E+00 -0.19618362380E+04  0.33408451404E+04  0.27041532552E+04 0.  0.
        5    1    3    3  502    0  0.12767668286E+03  0.69734043653E+03 -0.24032979358E+04  0.25056831559E+04  0.46999998093E+01 0. -1.
       -5    1    3    3    0  502 -0.12767668286E+03 -0.69734043653E+03  0.44146169778E+03  0.83516198451E+03  0.46999998093E+01 0.  1.
</event>
<event>
 5   0  0.4992668E-07  0.2699595E+04  0.7818609E-02  0.8335137E-01
        2   -1    0    0  501    0  0.00000000000E+00  0.00000000000E+00  0.17443228441E+04  0.17443228441E+04  0.25500000920E-02 0.  1.
       -2   -1    0    0    0  501  0.00000000000E+00  0.00000000000E+00 -0.10445042808E+04  0.10445042808E+04  0.25500000920E-02 0. -1.
    10030    2    1    2    0    0  0.00000000000E+00  0.00000000000E+00  0.69981856335E+03  0.27888271249E+04  0.26995945457E+04 0.  0.
        1    1    3    3  502    0  0.36191811471E+03  0.71919476928E+03  0.14691063651E+04  0.16752609796E+04  0.50400001928E-02 0.  1.
       -1    1    3    3    0  502 -0.36191811471E+03 -0.71919476928E+03 -0.76928780175E+03  0.11135661453E+04  0.50400001928E-02 0. -1.
</event>
<event>
 5   0  0.1964242E-07  0.2699454E+04  0.7818609E-02  0.8335182E-01
       -1   -1    0    0    0  501  0.00000000000E+00  0.00000000000E+00  0.11705795232E+04  0.11705795232E+04  0.50400001928E-02 0. -1.
        1   -1    0    0  501    0  0.00000000000E+00  0.00000000000E+00 -0.15562919093E+04  0.15562919093E+04  0.50400001928E-02 0.  1.
    10030    2    1    2    0    0  0.00000000000E+00  0.00000000000E+00 -0.38571238616E+03  0.27268714325E+04  0.26994543457E+04 0.  0.
        2    1    3    3  502    0  0.13180682898E+04 -0.23048615896E+03 -0.14039783264E+02  0.13381423697E+04  0.25500000920E-02 0. -1.
       -2    1    3    3    0  502 -0.13180682898E+04  0.23048615896E+03 -0.37167260289E+03  0.13887290628E+04  0.25500000920E-02 0.  1.
</event>
<event>
 5   0  0.4735120E-07  0.2695508E+04  0.7818609E-02  0.8336464E-01
        2   -1    0    0  501    0  0.00000000000E+00  0.00000000000E+00  0.13379514202E+04  0.13379514202E+04  0.25500000920E-02 0.  1.
       -2   -1    0    0    0  501  0.00000000000E+00  0.00000000000E+00 -0.13576282760E+04  0.13576282760E+04  0.25500000920E-02 0. -1.
    10030    2    1    2    0    0  0.00000000000E+00  0.00000000000E+00 -0.19676855862E+02  0.26955796962E+04  0.26955078779E+04 0.  0.
        2    1    3    3  502    0 -0.17415312567E+02  0.22894516866E+03  0.13182487236E+04  0.13380952435E+04  0.25500000920E-02 0.  1.
       -2    1    3    3    0  502  0.17415312567E+02 -0.22894516866E+03 -0.13379255794E+04  0.13574844528E+04  0.25500000920E-02 0. -1.
</event>
<event>
 5   0  0.4992668E-07  0.2699503E+04  0.7818609E-02  0.8335166E-01
        2   -1    0    0  501    0  0.00000000000E+00  0.00000000000E+00  0.22740866305E+04  0.22740866305E+04  0.25500000920E-02 0.  1.
       -2   -1    0    0    0  501  0.00000000000E+00  0.00000000000E+00 -0.80112568437E+03  0.80112568438E+03  0.25500000920E-02 0. -1.
    10030    2    1    2    0    0  0.00000000000E+00  0.00000000000E+00  0.14729609461E+04  0.30752123148E+04  0.26995030714E+04 0.  0.
        1    1    3    3  502    0  0.33441916883E+03  0.62313932750E+03 -0.57317224315E+03  0.91031050873E+03  0.50400001928E-02 0. -1.
       -1    1    3    3    0  502 -0.33441916883E+03 -0.62313932750E+03  0.20461331892E+04  0.21649018061E+04  0.50400001928E-02 0.  1.
</event>
<event>
 5   0  0.1964242E-07  0.2700191E+04  0.7818609E-02  0.8334943E-01
       -1   -1    0    0    0  501  0.00000000000E+00  0.00000000000E+00  0.10055500464E+04  0.10055500464E+04  0.50400001928E-02 0. -1.
        1   -1    0    0  501    0  0.00000000000E+00  0.00000000000E+00 -0.18126966584E+04  0.18126966584E+04  0.50400001928E-02 0.  1.
    10030    2    1    2    0    0  0.00000000000E+00  0.00000000000E+00 -0.80714661195E+03  0.28182467048E+04  0.27001905185E+04 0.  0.
        2    1    3    3  502    0  0.11834830406E+04  0.64163599470E+03 -0.29698920233E+03  0.13785976365E+04  0.25500000920E-02 0. -1.
       -2    1    3    3    0  502 -0.11834830406E+04 -0.64163599470E+03 -0.51015740962E+03  0.14396490683E+04  0.25500000920E-02 0.  1.
</event>
<event>
 5   0  0.1965415E-07  0.2698530E+04  0.7818609E-02  0.8335482E-01
        1   -1    0    0  501    0  0.00000000000E+00  0.00000000000E+00  0.13783286535E+04  0.13783286535E+04  0.50400001928E-02 0.  1.
       -1   -1    0    0    0  501  0.00000000000E+00  0.00000000000E+00 -0.13208142036E+04  0.13208142036E+04  0.50400001928E-02 0. -1.
    10030    2    1    2    0    0  0.00000000000E+00  0.00000000000E+00  0.57514449962E+02  0.26991428571E+04  0.26985300167E+04 0.  0.
        4    1    3    3  502    0 -0.54267298299E+03 -0.11529680846E+04  0.47234985843E+03  0.13590236835E+04  0.12699999809E+01 0.  1.
       -4    1    3    3    0  502  0.54267298299E+03  0.11529680846E+04 -0.41483540847E+03  0.13401191736E+04  0.12699999809E+01 0. -1.
</event>
<event>
 5   0  0.4843887E-07  0.2694916E+04  0.7818609E-02  0.8336656E-01
       -2   -1    0    0    0  501  0.00000000000E+00  0.00000000000E+00  0.16195894941E+04  0.16195894941E+04  0.25500000920E-02 0. -1.
        2   -1    0    0  501    0  0.00000000000E+00  0.00000000000E+00 -0.11210516053E+04  0.11210516053E+04  0.25500000920E-02 0.  1.
    10030    2    1    2    0    0  0.00000000000E+00  0.00000000000E+00  0.49853788874E+03  0.27406410994E+04  0.26949162527E+04 0.  0.
        5    1    3    3  502    0 -0.74613587788E+03  0.88270129747E+02 -0.88823995984E+03  0.11634013410E+04  0.46999998093E+01 0. -1.
       -5    1    3    3    0  502  0.74613587788E+03 -0.88270129747E+02  0.13867778486E+04  0.15772397584E+04  0.46999998093E+01 0.  1.
</event>
<event>
 5   0  0.1971600E-07  0.2699264E+04  0.7818609E-02  0.8335244E-01
        1   -1    0    0  501    0  0.00000000000E+00  0.00000000000E+00  0.14150773539E+04  0.14150773539E+04  0.50400001928E-02 0. -1.
       -1   -1    0    0    0  501  0.00000000000E+00  0.00000000000E+00 -0.12872137530E+04  0.12872137530E+04  0.50400001928E-02 0.  1.
    10030    2    1    2    0    0  0.00000000000E+00  0.00000000000E+00  0.12786360083E+03  0.27022911069E+04  0.26992643676E+04 0.  0.
        5    1    3    3  502    0  0.67118192343E+03 -0.72349596302E+03  0.98559072949E+03  0.13947554477E+04  0.46999998093E+01 0. -1.
       -5    1    3    3    0  502 -0.67118192343E+03  0.72349596302E+03 -0.85772712866E+03  0.13075356592E+04  0.46999998093E+01 0.  1.
</event>
<event>
 5   0  0.1937896E-07  0.2686526E+04  0.7818609E-02  0.8339390E-01
       -1   -1    0    0    0  501  0.00000000000E+00  0.00000000000E+00  0.12627323777E+04  0.12627323777E+04  0.50400001928E-02 0.  1.
        1   -1    0    0  501    0  0.00000000000E+00  0.00000000000E+00 -0.14289290107E+04  0.14289290107E+04  0.50400001928E-02 0. -1.
    10030    2    1    2    0    0  0.00000000000E+00  0.00000000000E+00 -0.16619663308E+03  0.26916613884E+04  0.26865255832E+04 0.  0.
        3    1    3    3  502    0 -0.13347952035E+04 -0.14843246966E+03 -0.10853353355E+03  0.13474011917E+04  0.10100000352E+00 0. -1.
       -3    1    3    3    0  502  0.13347952035E+04  0.14843246966E+03 -0.57663099531E+02  0.13442601967E+04  0.10100000352E+00 0.  1.
</event>
<event>
 5   0  0.5043890E-07  0.2699319E+04  0.7818609E-02  0.8335226E-01
        2   -1    0    0  501    0  0.00000000000E+00  0.00000000000E+00  0.85062519176E+03  0.85062519176E+03  0.25500000920E-02 0.  1.
       -2   -1    0    0    0  501  0.00000000000E+00  0.00000000000E+00 -0.21414604392E+04  0.21414604392E+04  0.25500000920E-02 0. -1.
    10030    2    1    2    0    0  0.00000000000E+00  0.00000000000E+00 -0.12908352475E+04  0.29920856310E+04  0.26993185783E+04 0.  0.
        3    1    3    3  502    0  0.61126505813E+03 -0.39543951338E+03 -0.19051481102E+04  0.20395113905E+04  0.10100000352E+00 0. -1.
       -3    1    3    3    0  502 -0.61126505813E+03  0.39543951338E+03  0.61431286276E+03  0.95257424045E+03  0.10100000352E+00 0.  1.
</event>
<event>
 5   0  0.4843887E-07  0.2699829E+04  0.7818609E-02  0.8335061E-01
        2   -1    0    0  501    0  0.00000000000E+00  0.00000000000E+00  0.15888023542E+04  0.15888023542E+04  0.25500000920E-02 0.  1.
       -2   -1    0    0    0  501  0.00000000000E+00  0.00000000000E+00 -0.11469449403E+04  0.11469449403E+04  0.25500000920E-02 0. -1.
    10030    2    1    2    0    0  0.00000000000E+00  0.00000000000E+00  0.44185741395E+03  0.27357472945E+04  0.26998287510E+04 0.  0.
        5    1    3    3  502    0  0.69115570423E+03 -0.20190666318E+03  0.13779533827E+04  0.15547476075E+04  0.46999998093E+01 0.  1.
       -5    1    3    3    0  502 -0.69115570423E+03  0.20190666318E+03 -0.93609596871E+03  0.11809996870E+04  0.46999998093E+01 0. -1.
</event>
<event>
 5   0  0.1971600E-07  0.2696380E+04  0.7818609E-02  0.8336180E-01
       -1   -1    0    0    0  501  0.00000000000E+00  0.00000000000E+00  0.66909342589E+03  0.66909342591E+03  0.50400001928E-02 0.  1.
        1   -1    0    0  501    0  0.00000000000E+00  0.00000000000E+00 -0.27165357743E+04  0.27165357743E+04  0.50400001928E-02 0. -1.
    10030    2    1    2    0    0  0.00000000000E+00  0.00000000000E+00 -0.20474423484E+04  0.33856292002E+04  0.26963799642E+04 0.  0.
        5    1    3    3  502    0  0.41448292140E+03  0.12447906541E+04 -0.63408566415E+03  0.14571844715E+04  0.46999998093E+01 0.  1.
       -5    1    3    3    0  502 -0.41448292140E+03 -0.12447906541E+04 -0.14133566843E+04  0.19284447287E+04  0.46999998093E+01 0. -1.
</event>
<event>
 5   0  0.1964242E-07  0.2701051E+04  0.7818609E-02  0.8334664E-01
        1   -1    0    0  501    0  0.00000000000E+00  0.00000000000E+00  0.16392733834E+04  0.16392733834E+04  0.50400001928E-02 0. -1.
       -1   -1    0    0    0  501  0.00000000000E+00  0.00000000000E+00 -0.11126385855E+04  0.11126385855E+04  0.50400001928E-02 0.  1.
    10030    2    1    2    0    0  0.00000000000E+00  0.00000000000E+00  0.52663479797E+03  0.27519119689E+04  0.27010507722E+04 0.  0.
        2    1    3    3  502    0 -0.11153476275E+04  0.75887633291E+03  0.32795652997E+03  0.13883260079E+04  0.25500000920E-02 0. -1.
       -2    1    3    3    0  502  0.11153476275E+04 -0.75887633291E+03  0.19867826800E+03  0.13635859610E+04  0.25500000920E-02 0.  1.
</event>
<event>
 5   0  0.4983208E-07  0.2703470E+04  0.7818609E-02  0.8333880E-01
        2   -1    0    0  501    0  0.00000000000E+00  0.00000000000E+00  0.10210736333E+04  0.10210736333E+04  0.25500000920E-02 0. -1.
       -2   -1    0    0    0  501  0.00000000000E+00  0.00000000000E+00 -0.17894772090E+04  0.17894772090E+04  0.25500000920E-02 0.  1.
    10030    2    1    2    0    0  0.00000000000E+00  0.00000000000E+00 -0.76840357572E+03  0.28105508423E+04  0.27034703590E+04 0.  0.
        4    1    3    3  502    0 -0.11103438166E+04  0.32726380952E+03 -0.11098614916E+04  0.16036705196E+04  0.12699999809E+01 0.  1.
       -4    1    3    3    0  502  0.11103438166E+04 -0.32726380952E+03  0.34145791592E+03  0.12068803227E+04  0.12699999809E+01 0. -1.
</event>
<event>
 5   0  0.4843887E-07  0.2696895E+04  0.7818609E-02  0.8336013E-01
        2   -1    0    0  501    0  0.00000000000E+00  0.00000000000E+00  0.11973770554E+04  0.11973770555E+04  0.25500000920E-02 0. -1.
       -2   -1    0    0    0  501  0.00000000000E+00  0.00000000000E+00 -0.15185787157E+04  0.15185787157E+04  0.25500000920E-02 0.  1.
    10030    2    1    2    0    0  0.00000000000E+00  0.00000000000E+00 -0.32120166028E+03  0.27159557712E+04  0.26968954827E+04 0.  0.
        5    1    3    3  502    0  0.89550738844E+02  0.11899111147E+04  0.47183549076E+03  0.12831830018E+04  0.46999998093E+01 0. -1.
       -5    1    3    3    0  502 -0.89550738844E+02 -0.11899111147E+04 -0.79303715104E+03  0.14327727694E+04  0.46999998093E+01 0.  1.
</event>
<event>
 5   0  0.1888149E-07  0.2700036E+04  0.7818609E-02  0.8334993E-01
        1   -1    0    0  501    0  0.00000000000E+00  0.00000000000E+00  0.13921079460E+04  0.13921079460E+04  0.50400001928E-02 0.  1.
       -1   -1    0    0    0  501  0.00000000000E+00  0.00000000000E+00 -0.13092003825E+04  0.13092003826E+04  0.50400001928E-02 0. -1.
    10030    2    1    2    0    0  0.00000000000E+00  0.00000000000E+00  0.82907563493E+02  0.27013083286E+04  0.27000357446E+04 0.  0.
        1    1    3    3  502    0  0.45593956722E+03  0.12978441347E+03 -0.12231923757E+04  0.13118401087E+04  0.50400001928E-02 0. -1.
       -1    1    3    3    0  502 -0.45593956722E+03 -0.12978441347E+03  0.13060999392E+04  0.13894682199E+04  0.50400001928E-02 0.  1.
</event>
<event>
 5   0  0.4735120E-07  0.2700015E+04  0.7818609E-02  0.8335000E-01
       -2   -1    0    0    0  501  0.00000000000E+00  0.00000000000E+00  0.13021376776E+04  0.13021376776E+04  0.25500000920E-02 0.  1.
        2   -1    0    0  501    0  0.00000000000E+00  0.00000000000E+00 -0.13996370890E+04  0.13996370890E+04  0.25500000920E-02 0. -1.
    10030    2    1    2    0    0  0.00000000000E+00  0.00000000000E+00 -0.97499411321E+02  0.27017747666E+04  0.27000149545E+04 0.  0.
        2    1    3    3  502    0  0.94794866533E+02 -0.46055997360E+03  0.12175468054E+04  0.13051903230E+04  0.25500000920E-02 0.  1.
       -2    1    3    3    0  502 -0.94794866533E+02  0.46055997360E+03 -0.13150462167E+04  0.13965844436E+04  0.25500000920E-02 0. -1.
</event>
<event>
 5   0  0.1964242E-07  0.2700933E+04  0.7818609E-02  0.8334702E-01
       -1   -1    0    0    0  501  0.00000000000E+00  0.00000000000E+00  0.69347686419E+03  0.69347686421E+03  0.50400001928E-02 0. -1.
        1   -1    0    0  501    0  0.00000000000E+00  0.00000000000E+00 -0.26298790488E+04  0.26298790488E+04  0.50400001928E-02 0.  1.
    10030    2    1    2    0    0  0.00000000000E+00  0.00000000000E+00 -0.19364021846E+04  0.33233559130E+04  0.27009333764E+04 0.  0.
        2    1    3    3  502    0  0.37068972635E+03  0.10190415490E+04 -0.19586183994E+04  0.22387591622E+04  0.25500000920E-02 0.  1.
       -2    1    3    3    0  502 -0.37068972635E+03 -0.10190415490E+04  0.22216214791E+02  0.10845967508E+04  0.25500000920E-02 0. -1.
</event>
<event>
 5   0  0.4992668E-07  0.2700524E+04  0.7818609E-02  0.8334835E-01
       -2   -1    0    0    0  501  0.00000000000E+00  0.00000000000E+00  0.11895348839E+04  0.11895348839E+04  0.25500000920E-02 0. -1.
        2   -1    0    0  501    0  0.00000000000E+00  0.00000000000E+00 -0.15327062848E+04  0.15327062848E+04  0.25500000920E-02 0.  1.
    10030    2    1    2    0    0  0.00000000000E+00  0.00000000000E+00 -0.34317140082E+03  0.27222411687E+04  0.27005240918E+04 0.  0.
        1    1    3    3  502    0  0.45252807798E+03 -0.47701209407E+03  0.10172565050E+04  0.12112526558E+04  0.50400001928E-02 0. -1.
       -1    1    3    3    0  502 -0.45252807798E+03  0.47701209407E+03 -0.13604279058E+04  0.15109885129E+04  0.50400001928E-02 0.  1.
</event>
<event>
 5   0  0.1937896E-07  0.2693688E+04  0.7818609E-02  0.8337056E-01
       -1   -1    0    0    0  501  0.00000000000E+00  0.00000000000E+00  0.83935953498E+03  0.83935953499E+03  0.50400001928E-02 0.  1.
        1   -1    0    0  501    0  0.00000000000E+00  0.00000000000E+00 -0.21611577991E+04  0.21611577991E+04  0.50400001928E-02 0. -1.
    10030    2    1    2    0    0  0.00000000000E+00  0.00000000000E+00 -0.13217982641E+04  0.30005173341E+04  0.26936877364E+04 0.  0.
        3    1    3    3  502    0  0.82011987921E+03 -0.94067102838E+03 -0.12250792771E+04  0.17487932540E+04  0.10100000352E+00 0.  1.
       -3    1    3    3    0  502 -0.82011987921E+03  0.94067102838E+03 -0.96718986975E+02  0.12517240800E+04  0.10100000352E+00 0. -1.
</event>
<event>
 5   0  0.1937896E-07  0.2699609E+04  0.7818609E-02  0.8335132E-01
       -1   -1    0    0    0  501  0.00000000000E+00  0.00000000000E+00  0.14662524489E+04  0.14662524489E+04  0.50400001928E-02 0. -1.
        1   -1    0    0  501    0  0.00000000000E+00  0.00000000000E+00 -0.12426043631E+04  0.12426043631E+04  0.50400001928E-02 0.  1.
    10030    2    1    2    0    0  0.00000000000E+00  0.00000000000E+00  0.22364808587E+03  0.27088568120E+04  0.26996086312E+04 0.  0.
        3    1    3    3  502    0  0.10346982039E+04  0.12694948525E+03  0.97223171533E+03  0.14254652095E+04  0.10100000352E+00 0. -1.
       -3    1    3    3    0  502 -0.10346982039E+04 -0.12694948525E+03 -0.74858362945E+03  0.12833916025E+04  0.10100000352E+00 0.  1.
</event>
<event>
 5   0  0.4983208E-07  0.2698893E+04  0.7818609E-02  0.8335364E-01
        2   -1    0    0  501    0  0.00000000000E+00  0.00000000000E+00  0.19633514887E+04  0.19633514887E+04  0.25500000920E-02 0. -1.
       -2   -1    0    0    0  501  0.00000000000E+00  0.00000000000E+00 -0.92749893927E+03  0.92749893927E+03  0.25500000920E-02 0.  1.
    10030    2    1    2    0    0  0.00000000000E+00  0.00000000000E+00  0.10358525495E+04  0.28908504280E+04  0.26988934201E+04 0.  0.
        4    1    3    3  502    0  0.12838897116E+04  0.45615805123E+01  0.72911544116E+02  0.12859670702E+04  0.12699999809E+01 0.  1.
       -4    1    3    3    0  502 -0.12838897116E+04 -0.45615805123E+01  0.96294100533E+03  0.16048833578E+04  0.12699999809E+01 0. -1.
</event>
<event>
 5   0  0.4992668E-07  0.2699474E+04  0.7818609E-02  0.8335176E-01
       -2   -1    0    0    0  501  0.00000000000E+00  0.00000000000E+00  0.10567174861E+04  0.10567174861E+04  0.25500000920E-02 0.  1.
        2   -1    0    0  501    0  0.00000000000E+00  0.00000000000E+00 -0.17240082280E+04  0.17240082281E+04  0.25500000920E-02 0. -1.
    10030    2    1    2    0    0  0.00000000000E+00  0.00000000000E+00 -0.66729074192E+03  0.27807257142E+04  0.26994737567E+04 0.  0.
        1    1    3    3  502    0 -0.94252732151E+03 -0.46400063531E+03  0.53929017936E+03  0.11808845155E+04  0.50400001928E-02 0.  1.
       -1    1    3    3    0  502  0.94252732151E+03  0.46400063531E+03 -0.12065809213E+04  0.15998411987E+04  0.50400001928E-02 0. -1.
</event>
<event>
 5   0  0.1964242E-07  0.2698899E+04  0.7818609E-02  0.8335362E-01
       -1   -1    0    0    0  501  0.00000000000E+00  0.00000000000E+00  0.12530006253E+04  0.12530006253E+04  0.50400001928E-02 0.  1.
        1   -1    0    0  501    0  0.00000000000E+00  0.00000000000E+00 -0.14533225268E+04  0.14533225268E+04  0.50400001928E-02 0. -1.
    10030    2    1    2    0    0  0.00000000000E+00  0.00000000000E+00 -0.20032190152E+03  0.27063231521E+04  0.26988990606E+04 0.  0.
        2    1    3    3  502    0  0.46519200745E+02  0.80572634240E+03 -0.11846418635E+04  0.14334347978E+04  0.25500000920E-02 0. -1.
       -2    1    3    3    0  502 -0.46519200745E+02 -0.80572634240E+03  0.98431996196E+03  0.12728883543E+04  0.25500000920E-02 0.  1.
</event>
<event>
 5   0  0.1965415E-07  0.2699654E+04  0.7818609E-02  0.8335117E-01
       -1   -1    0    0    0  501  0.00000000000E+00  0.00000000000E+00  0.16689381866E+04  0.16689381866E+04  0.50400001928E-02 0.  1.
        1   -1    0    0  501    0  0.00000000000E+00  0.00000000000E+00 -0.10917317272E+04  0.10917317273E+04  0.50400001928E-02 0. -1.
    10030    2    1    2    0    0  0.00000000000E+00  0.00000000000E+00  0.57720645934E+03  0.27606699138E+04  0.26996538809E+04 0.  0.
        4    1    3    3  502    0  0.84190892455E+03  0.42044358773E+03  0.12781769662E+04  0.15872370389E+04  0.12699999809E+01 0. -1.
       -4    1    3    3    0  502 -0.84190892455E+03 -0.42044358773E+03 -0.70097050686E+03  0.11734328750E+04  0.12699999809E+01 0.  1.
</event>
<event>
 5   0  0.1971600E-07  0.2699519E+04  0.7818609E-02  0.8335161E-01
       -1   -1    0    0    0  501  0.00000000000E+00  0.00000000000E+00  0.82143118395E+03  0.82143118396E+03  0.50400001928E-02 0.  1.
        1   -1    0    0  501    0  0.00000000000E+00  0.00000000000E+00 -0.22178976320E+04  0.22178976320E+04  0.50400001928E-02 0. -1.
    10030    2    1    2    0    0  0.00000000000E+00  0.00000000000E+00 -0.13964664481E+04  0.30393288160E+04  0.26995186814E+04 0.  0.
        5    1    3    3  502    0 -0.78033068833E+03 -0.56220788916E+03  0.36798843943E+03  0.10297724386E+04  0.46999998093E+01 0.  1.
       -5    1    3    3    0  502  0.78033068833E+03  0.56220788916E+03 -0.17644548875E+04  0.20095563774E+04  0.46999998093E+01 0. -1.
</event>
<event>
 5   0  0.4735120E-07  0.2701960E+04  0.7818609E-02  0.8334369E-01
        2   -1    0    0  501    0  0.00000000000E+00  0.00000000000E+00  0.13582442250E+04  0.13582442250E+04  0.25500000920E-02 0.  1.
       -2   -1    0    0    0  501  0.00000000000E+00  0.00000000000E+00 -0.13437544411E+04  0.13437544411E+04  0.25500000920E-02 0. -1.
    10030    2    1    2    0    0  0.00000000000E+00  0.00000000000E+00  0.14489783924E+02  0.27019986661E+04  0.27019598142E+04 0.  0.
        2    1    3    3  502    0  0.79824700968E+03 -0.84307975962E+03  0.69802608919E+03  0.13547037280E+04  0.25500000920E-02 0. -1.
       -2    1    3    3    0  502 -0.79824700968E+03  0.84307975962E+03 -0.68353630527E+03  0.13472949381E+04  0.25500000920E-02 0.  1.
</event>
<event>
 5   0  0.1965415E-07  0.2699691E+04  0.7818609E-02  0.8335105E-01
        1   -1    0    0  501    0  0.00000000000E+00  0.00000000000E+00  0.13874115448E+04  0.13874115448E+04  0.50400001928E-02 0. -1.
       -1   -1    0    0    0  501  0.00000000000E+00  0.00000000000E+00 -0.13132965417E+04  0.13132965417E+04  0.50400001928E-02 0.  1.
    10030    2    1    2    0    0  0.00000000000E+00  0.00000000000E+00  0.74115003171E+02  0.27007080865E+04  0.26996909332E+04 0.  0.
        4    1    3    3  502    0 -0.12971912872E+04 -0.29669360884E+03  0.26374569701E+03  0.13565750030E+04  0.12699999809E+01 0. -1.
       -4    1    3    3    0  502  0.12971912872E+04  0.29669360884E+03 -0.18963069384E+03  0.13441330835E+04  0.12699999809E+01 0.  1.
</event>
<event>
 5   0  0.4843887E-07  0.2701115E+04  0.7818609E-02  0.8334643E-01
       -2   -1    0    0    0  501  0.00000000000E+00  0.00000000000E+00  0.21698585944E+04  0.21698585944E+04  0.25500000920E-02 0.  1.
        2   -1    0    0  501    0  0.00000000000E+00  0.00000000000E+00 -0.84061054116E+03  0.84061054116E+03  0.25500000920E-02 0. -1.
    10030    2    1    2    0    0  0.00000000000E+00  0.00000000000E+00  0.13292480532E+04  0.30104691356E+04  0.27011153306E+04 0.  0.
        5    1    3    3  502    0  0.11074454749E+04  0.29928825156E+03 -0.12972654445E+03  0.11544955625E+04  0.46999998093E+01 0. -1.
       -5    1    3    3    0  502 -0.11074454749E+04 -0.29928825156E+03  0.14589745977E+04  0.18559735731E+04  0.46999998093E+01 0.  1.
</event>
<event>
 5   0  0.1971600E-07  0.2700260E+04  0.7818609E-02  0.8334921E-01
       -1   -1    0    0    0  501  0.00000000000E+00  0.00000000000E+00  0.11633331096E+04  0.11633331096E+04  0.50400001928E-02 0.  1.
        1   -1    0    0  501    0  0.00000000000E+00  0.00000000000E+00 -0.15669210485E+04  0.15669210485E+04  0.50400001928E-02 0. -1.
    10030    2    1    2    0    0  0.00000000000E+00  0.00000000000E+00 -0.40358793893E+03  0.27302541581E+04  0.27002600881E+04 0.  0.
        5    1    3    3  502    0  0.11462003249E+04  0.62249833528E+03 -0.55430636795E+03  0.14172356902E+04  0.46999998093E+01 0. -1.
       -5    1    3    3    0  502 -0.11462003249E+04 -0.62249833528E+03  0.15071842902E+03  0.13130184679E+04  0.46999998093E+01 0.  1.
</event>
<event>
 5   0  0.1888149E-07  0.2700920E+04  0.7818609E-02  0.8334706E-01
       -1   -1    0    0    0  501  0.00000000000E+00  0.00000000000E+00  0.14050105914E+04  0.14050105914E+04  0.50400001928E-02 0.  1.
        1   -1    0    0  501    0  0.00000000000E+00  0.00000000000E+00 -0.12980277802E+04  0.12980277803E+04  0.50400001928E-02 0. -1.
    10030    2    1    2    0    0  0.00000000000E+00  0.00000000000E+00  0.10698281115E+03  0.27030383717E+04  0.27009204203E+04 0.  0.
        1    1    3    3  502    0 -0.36649560539E+03 -0.49506332120E+03 -0.11492563340E+04  0.13039159643E+04  0.50400001928E-02 0. -1.
       -1    1    3    3    0  502  0.36649560539E+03  0.49506332120E+03  0.12562391452E+04  0.13991224073E+04  0.50400001928E-02 0.  1.
</event>
<event>
 5   0  0.4735120E-07  0.2699722E+04  0.7818609E-02  0.8335095E-01
        2   -1    0    0  501    0  0.00000000000E+00  0.00000000000E+00  0.11930025413E+04  0.11930025413E+04  0.25500000920E-02 0. -1.
       -2   -1    0    0    0  501  0.00000000000E+00  0.00000000000E+00 -0.15273434599E+04  0.15273434599E+04  0.25500000920E-02 0.  1.
    10030    2    1    2    0    0  0.00000000000E+00  0.00000000000E+00 -0.33434091858E+03  0.27203460012E+04  0.26997219332E+04 0.  0.
        2    1    3    3  502    0 -0.91161078837E+03  0.98719324873E+03 -0.37580483018E+02  0.13442458973E+04  0.25500000920E-02 0.  1.
       -2    1    3    3    0  502  0.91161078837E+03 -0.98719324873E+03 -0.29676043556E+03  0.13761001039E+04  0.25500000920E-02 0. -1.
</event>
<event>
 5   0  0.1971600E-07  0.2701576E+04  0.7818609E-02  0.8334494E-01
       -1   -1    0    0    0  501  0.00000000000E+00  0.00000000000E+00  0.84715600369E+03  0.84715600371E+03  0.50400001928E-02 0.  1.
        1   -1    0    0  501    0  0.00000000000E+00  0.00000000000E+00 -0.21538276098E+04  0.21538276098E+04  0.50400001928E-02 0. -1.
    10030    2    1    2    0    0  0.00000000000E+00  0.00000000000E+00 -0.13066716061E+04  0.30009836135E+04  0.27015758294E+04 0.  0.
        5    1    3    3  502    0 -0.49690004576E+03  0.12204679049E+04 -0.32352239530E+03  0.13568862858E+04  0.46999998093E+01 0.  1.
       -5    1    3    3    0  502  0.49690004576E+03 -0.12204679049E+04 -0.98314921076E+03  0.16440973277E+04  0.46999998093E+01 0. -1.
</event>
<event>
 5   0  0.4992668E-07  0.2699436E+04  0.7818609E-02  0.8335188E-01
        2   -1    0    0  501    0  0.00000000000E+00  0.00000000000E+00  0.10082374518E+04  0.10082374518E+04  0.25500000920E-02 0. -1.
       -2   -1    0    0    0  501  0.00000000000E+00  0.00000000000E+00 -0.18068541808E+04  0.18068541809E+04  0.25500000920E-02 0.  1.
    10030    2    1    2    0    0  0.00000000000E+00  0.00000000000E+00 -0.79861672901E+03  0.28150916327E+04  0.26994355374E+04 0.  0.
        1    1    3    3  502    0  0.74717872712E+03  0.61915477232E+03 -0.13776440567E+04  0.16850910448E+04  0.50400001928E-02 0.  1.
       -1    1    3    3    0  502 -0.74717872712E+03 -0.61915477232E+03  0.57902732769E+03  0.11300005879E+04  0.50400001928E-02 0. -1.
</event>
<event>
 5   0  0.1888149E-07  0.2700202E+04  0.7818609E-02  0.8334939E-01
       -1   -1    0    0    0  501  0.00000000000E+00  0.00000000000E+00  0.22094571999E+04  0.22094571999E+04  0.50400001928E-02 0. -1.
        1   -1    0    0  501    0  0.00000000000E+00  0.00000000000E+00 -0.82498687177E+03  0.82498687178E+03  0.50400001928E-02 0.  1.
    10030    2    1    2    0    0  0.00000000000E+00  0.00000000000E+00  0.13844703281E+04  0.30344440717E+04  0.27002023507E+04 0.  0.
        1    1    3    3  502    0  0.13438709450E+04 -0.11937137033E+03  0.74881121608E+03  0.15430349569E+04  0.50400001928E-02 0.  1.
       -1    1    3    3    0  502 -0.13438709450E+04  0.11937137033E+03  0.63565911202E+03  0.14914091148E+04  0.50400001928E-02 0. -1.
</event>
<event>
 5   0  0.1964242E-07  0.2699278E+04  0.7818609E-02  0.8335239E-01
       -1   -1    0    0    0  501  0.00000000000E+00  0.00000000000E+00  0.85814030471E+03  0.85814030472E+03  0.50400001928E-02 0.  1.
        1   -1    0    0  501    0  0.00000000000E+00  0.00000000000E+00 -0.21226433096E+04  0.21226433096E+04  0.50400001928E-02 0. -1.
    10030    2    1    2    0    0  0.00000000000E+00  0.00000000000E+00 -0.12645030049E+04  0.29807836144E+04  0.26992782565E+04 0.  0.
        2    1    3    3  502    0  0.15737230830E+03 -0.11458471977E+04 -0.14003430794E+04  0.18162303224E+04  0.25500000920E-02 0. -1.
       -2    1    3    3    0  502 -0.15737230830E+03  0.11458471977E+04  0.13584007446E+03  0.11645532920E+04  0.25500000920E-02 0.  1.
</event>
<event>
 5   0  0.4983208E-07  0.2700387E+04  0.7818609E-02  0.8334879E-01
       -2   -1    0    0    0  501  0.00000000000E+00  0.00000000000E+00  0.13482741956E+04  0.13482741956E+04  0.25500000920E-02 0.  1.
        2   -1    0    0  501    0  0.00000000000E+00  0.00000000000E+00 -0.13521153422E+04  0.13521153422E+04  0.25500000920E-02 0. -1.
    10030    2    1    2    0    0  0.00000000000E+00  0.00000000000E+00 -0.38411466315E+01  0.27003895378E+04  0.27003868059E+04 0.  0.
        4    1    3    3  502    0  0.12473429111E+03  0.29080742412E+03 -0.13145120929E+04  0.13520618538E+04  0.12699999809E+01 0. -1.
       -4    1    3    3    0  502 -0.12473429111E+03 -0.29080742412E+03  0.13106709462E+04  0.13483276840E+04  0.12699999809E+01 0.  1.
</event>
<event>
 5   0  0.4735120E-07  0.2700737E+04  0.7818609E-02  0.8334766E-01
        2   -1    0    0  501    0  0.00000000000E+00  0.00000000000E+00  0.13940449977E+04  0.13940449977E+04  0.25500000920E-02 0. -1.
       -2   -1    0    0    0  501  0.00000000000E+00  0.00000000000E+00 -0.13080600015E+04  0.13080600015E+04  0.25500000920E-02 0.  1.
    10030    2    1    2    0    0  0.00000000000E+00  0.00000000000E+00  0.85984996226E+02  0.27021049993E+04  0.27007365676E+04 0.  0.
        2    1    3    3  502    0 -0.12982611462E+04  0.65953245447E+02  0.40877679587E+03  0.13626922995E+04  0.25500000920E-02 0. -1.
       -2    1    3    3    0  502  0.12982611462E+04 -0.65953245447E+02 -0.32279179965E+03  0.13394126997E+04  0.25500000920E-02 0.  1.
</event>
<event>
 5   0  0.4983208E-07  0.2698844E+04  0.7818609E-02  0.8335380E-01
        2   -1    0    0  501    0  0.00000000000E+00  0.00000000000E+00  0.14967064277E+04  0.14967064277E+04  0.25500000920E-02 0. -1.
       -2   -1    0    0    0  501  0.00000000000E+00  0.00000000000E+00 -0.12166314391E+04  0.12166314391E+04  0.25500000920E-02 0.  1.
    10030    2    1    2    0    0  0.00000000000E+00  0.00000000000E+00  0.28007498866E+03  0.27133378668E+04  0.26988442675E+04 0.  0.
        4    1    3    3  502    0 -0.37120935680E+03  0.10024827828E+04 -0.68789600481E+03  0.12712083396E+04  0.12699999809E+01 0.  1.
       -4    1    3    3    0  502  0.37120935680E+03 -0.10024827828E+04  0.96797099347E+03  0.14421295273E+04  0.12699999809E+01 0. -1.
</event>
<event>
 5   0  0.1964242E-07  0.2700623E+04  0.7818609E-02  0.8334803E-01
       -1   -1    0    0    0  501  0.00000000000E+00  0.00000000000E+00  0.10206492096E+04  0.10206492096E+04  0.50400001928E-02 0.  1.
        1   -1    0    0  501    0  0.00000000000E+00  0.00000000000E+00 -0.17864529603E+04  0.17864529604E+04  0.50400001928E-02 0. -1.
    10030    2    1    2    0    0  0.00000000000E+00  0.00000000000E+00 -0.76580375075E+03  0.28071021700E+04  0.27006234850E+04 0.  0.
        2    1    3    3  502    0  0.18432607414E+03 -0.34284036918E+03 -0.17268723905E+04  0.17701988231E+04  0.25500000920E-02 0. -1.
       -2    1    3    3    0  502 -0.18432607414E+03  0.34284036918E+03  0.96106863974E+03  0.10369033468E+04  0.25500000920E-02 0.  1.
</event>
<event>
 5   0  0.4992668E-07  0.2700371E+04  0.7818609E-02  0.8334885E-01
        2   -1    0    0  501    0  0.00000000000E+00  0.00000000000E+00  0.19407828401E+04  0.19407828401E+04  0.25500000920E-02 0. -1.
       -2   -1    0    0    0  501  0.00000000000E+00  0.00000000000E+00 -0.93931204027E+03  0.93931204028E+03  0.25500000920E-02 0.  1.
    10030    2    1    2    0    0  0.00000000000E+00  0.00000000000E+00  0.10014707999E+04  0.28800948804E+04  0.27003708555E+04 0.  0.
        1    1    3    3  502    0  0.18968604580E+03  0.11869138291E+04 -0.15522252501E+03  0.12119567921E+04  0.50400001928E-02 0.  1.
       -1    1    3    3    0  502 -0.18968604580E+03 -0.11869138291E+04  0.11566933249E+04  0.16681380883E+04  0.50400001928E-02 0. -1.
</event>
<event>
 5   0  0.1965415E-07  0.2699092E+04  0.7818609E-02  0.8335300E-01
        1   -1    0    0  501    0  0.00000000000E+00  0.00000000000E+00  0.20078539725E+04  0.20078539725E+04  0.50400001928E-02 0. -1.
       -1   -1    0    0    0  501  0.00000000000E+00  0.00000000000E+00 -0.90707517372E+03  0.90707517373E+03  0.50400001928E-02 0.  1.
    10030    2    1    2    0    0  0.00000000000E+00  0.00000000000E+00  0.11007787987E+04  0.29149291462E+04  0.26990920628E+04 0.  0.
        4    1    3    3  502    0  0.42067427603E+03  0.20027771113E+03  0.19182406324E+04  0.19740128532E+04  0.12699999809E+01 0. -1.
       -4    1    3    3    0  502 -0.42067427603E+03 -0.20027771113E+03 -0.81746183362E+03  0.94091629299E+03  0.12699999809E+01 0.  1.
</event>
<event>
 5   0  0.1964242E-07  0.2699351E+04  0.7818609E-02  0.8335216E-01
       -1   -1    0    0    0  501  0.00000000000E+00  0.00000000000E+00  0.10247375976E+04  0.10247375976E+04  0.50400001928E-02 0.  1.
        1   -1    0    0  501    0  0.00000000000E+00  0.00000000000E+00 -0.17776493658E+04  0.17776493658E+04  0.50400001928E-02 0. -1.
    10030    2    1    2    0    0  0.00000000000E+00  0.00000000000E+00 -0.75291176816E+03  0.28023869634E+04  0.26993511373E+04 0.  0.
        2    1    3    3  502    0 -0.86582405195E+03  0.18785568425E+03 -0.14334966334E+04  0.16851865312E+04  0.25500000920E-02 0. -1.
       -2    1    3    3    0  502  0.86582405195E+03 -0.18785568425E+03  0.68058486521E+03  0.11172004322E+04  0.25500000920E-02 0.  1.
</event>
<event>
 5   0  0.1888149E-07  0.2701013E+04  0.7818609E-02  0.8334676E-01
        1   -1    0    0  501    0  0.00000000000E+00  0.00000000000E+00  0.15490982691E+04  0.15490982691E+04  0.50400001928E-02 0.  1.
       -1   -1    0    0    0  501  0.00000000000E+00  0.00000000000E+00 -0.11773737265E+04  0.11773737265E+04  0.50400001928E-02 0. -1.
    10030    2    1    2    0    0  0.00000000000E+00  0.00000000000E+00  0.37172454263E+03  0.27264719956E+04  0.27010128484E+04 0.  0.
        1    1    3    3  502    0  0.64960316086E+03 -0.49684803056E+03  0.12707134194E+04  0.15111435492E+04  0.50400001928E-02 0.  1.
       -1    1    3    3    0  502 -0.64960316086E+03  0.49684803056E+03 -0.89898887677E+03  0.12153284464E+04  0.50400001928E-02 0. -1.
</event>
<event>
 5   0  0.4992668E-07  0.2693598E+04  0.7818609E-02  0.8337085E-01
        2   -1    0    0  501    0  0.00000000000E+00  0.00000000000E+00  0.17701964175E+04  0.17701964175E+04  0.25500000920E-02 0. -1.
       -2   -1    0    0    0  501  0.00000000000E+00  0.00000000000E+00 -0.10246704574E+04  0.10246704574E+04  0.25500000920E-02 0.  1.
    10030    2    1    2    0    0  0.00000000000E+00  0.00000000000E+00  0.74552596004E+03  0.27948668749E+04  0.26935983166E+04 0.  0.
        1    1    3    3  502    0  0.30809200738E+02 -0.10442594845E+04  0.12546835158E+04  0.16326842324E+04  0.50400001928E-02 0. -1.
       -1    1    3    3    0  502 -0.30809200738E+02  0.10442594845E+04 -0.50915755575E+03  0.11621826425E+04  0.50400001928E-02 0.  1.
</event>
<event>
 5   0  0.1937896E-07  0.2699525E+04  0.7818609E-02  0.8335159E-01
       -1   -1    0    0    0  501  0.00000000000E+00  0.00000000000E+00  0.18456336161E+04  0.18456336161E+04  0.50400001928E-02 0.  1.
        1   -1    0    0  501    0  0.00000000000E+00  0.00000000000E+00 -0.98711869249E+03  0.98711869251E+03  0.50400001928E-02 0. -1.
    10030    2    1    2    0    0  0.00000000000E+00  0.00000000000E+00  0.85851492359E+03  0.28327523086E+04  0.26995254709E+04 0.  0.
        3    1    3    3  502    0 -0.11725684576E+04  0.16061930484E+03 -0.25172593632E+03  0.12099922752E+04  0.10100000352E+00 0. -1.
       -3    1    3    3    0  502  0.11725684576E+04 -0.16061930484E+03  0.11102408599E+04  0.16227600334E+04  0.10100000352E+00 0.  1.
</event>
<event>
 5   0  0.1971600E-07  0.2699913E+04  0.7818609E-02  0.8335033E-01
       -1   -1    0    0    0  501  0.00000000000E+00  0.00000000000E+00  0.13776930850E+04  0.13776930851E+04  0.50400001928E-02 0.  1.
        1   -1    0    0  501    0  0.00000000000E+00  0.00000000000E+00 -0.13227786884E+04  0.13227786884E+04  0.50400001928E-02 0. -1.
    10030    2    1    2    0    0  0.00000000000E+00  0.00000000000E+00  0.54914396619E+02  0.27004717735E+04  0.26999133706E+04 0.  0.
        5    1    3    3  502    0 -0.60780833437E+03  0.10914022387E+04 -0.48428437286E+03  0.13398295645E+04  0.46999998093E+01 0. -1.
       -5    1    3    3    0  502  0.60780833437E+03 -0.10914022387E+04  0.53919876948E+03  0.13606422090E+04  0.46999998093E+01 0.  1.
</event>
<event>
 5   0  0.1937896E-07  0.2700538E+04  0.7818609E-02  0.8334831E-01
       -1   -1    0    0    0  501  0.00000000000E+00  0.00000000000E+00  0.78223031600E+03  0.78223031601E+03  0.50400001928E-02 0. -1.
        1   -1    0    0  501    0  0.00000000000E+00  0.00000000000E+00 -0.23308044747E+04  0.23308044747E+04  0.50400001928E-02 0.  1.
    10030    2    1    2    0    0  0.00000000000E+00  0.00000000000E+00 -0.15485741587E+04  0.31130347907E+04  0.27005376656E+04 0.  0.
        3    1    3    3  502    0  0.12101115030E+03 -0.12650048936E+04 -0.13004558896E+04  0.18182592253E+04  0.10100000352E+00 0.  1.
       -3    1    3    3    0  502 -0.12101115030E+03  0.12650048936E+04 -0.24811826909E+03  0.12947755655E+04  0.10100000352E+00 0. -1.
</event>
<event>
 5   0  0.4735120E-07  0.2699794E+04  0.7818609E-02  0.8335072E-01
       -2   -1    0    0    0  501  0.00000000000E+00  0.00000000000E+00  0.10292890219E+04  0.10292890219E+04  0.25500000920E-02 0.  1.
        2   -1    0    0  501    0  0.00000000000E+00  0.00000000000E+00 -0.17703689791E+04  0.17703689791E+04  0.25500000920E-02 0. -1.
    10030    2    1    2    0    0  0.00000000000E+00  0.00000000000E+00 -0.74107995714E+03  0.27996580010E+04  0.26997935883E+04 0.  0.
        2    1    3    3  502    0  0.90276076190E+03  0.87910265004E+03 -0.87262172289E+03  0.15327319184E+04  0.25500000920E-02 0.  1.
       -2    1    3    3    0  502 -0.90276076190E+03 -0.87910265004E+03  0.13154176575E+03  0.12669260826E+04  0.25500000920E-02 0. -1.
</event>
<event>
 5   0  0.4735120E-07  0.2699578E+04  0.7818609E-02  0.8335142E-01
        2   -1    0    0  501    0  0.00000000000E+00  0.00000000000E+00  0.26836923853E+04  0.26836923853E+04  0.25500000920E-02 0.  1.
       -2   -1    0    0    0  501  0.00000000000E+00  0.00000000000E+00 -0.67888939363E+03  0.67888939363E+03  0.25500000920E-02 0. -1.
    10030    2    1    2    0    0  0.00000000000E+00  0.00000000000E+00  0.20048029916E+04  0.33625817789E+04  0.26995779642E+04 0.  0.
        2    1    3    3  502    0 -0.48792799532E+03  0.28486301080E+02 -0.56479562273E+03  0.74691317663E+03  0.25500000920E-02 0. -1.
       -2    1    3    3    0  502  0.48792799532E+03 -0.28486301080E+02  0.25695986144E+04  0.26156686023E+04  0.25500000920E-02 0.  1.
</event>
<event>
 5   0  0.4983208E-07  0.2700217E+04  0.7818609E-02  0.8334934E-01
        2   -1    0    0  501    0  0.00000000000E+00  0.00000000000E+00  0.19324020636E+04  0.19324020636E+04  0.25500000920E-02 0. -1.
       -2   -1    0    0    0  501  0.00000000000E+00  0.00000000000E+00 -0.94327847244E+03  0.94327847245E+03  0.25500000920E-02 0.  1.
    10030    2    1    2    0    0  0.00000000000E+00  0.00000000000E+00  0.98912359118E+03  0.28756805361E+04  0.27002172259E+04 0.  0.
        4    1    3    3  502    0 -0.36819147307E+03  0.89965002704E+03 -0.50326165045E+03  0.10946273492E+04  0.12699999809E+01 0.  1.
       -4    1    3    3    0  502  0.36819147307E+03 -0.89965002704E+03  0.14923852416E+04  0.17810531868E+04  0.12699999809E+01 0. -1.
</event>
<event>
 5   0  0.1937896E-07  0.2698850E+04  0.7818609E-02  0.8335378E-01
       -1   -1    0    0    0  501  0.00000000000E+00  0.00000000000E+00  0.10049631772E+04  0.10049631773E+04  0.50400001928E-02 0.  1.
        1   -1    0    0  501    0  0.00000000000E+00  0.00000000000E+00 -0.18119547346E+04  0.18119547346E+04  0.50400001928E-02 0. -1.
    10030    2    1    2    0    0  0.00000000000E+00  0.00000000000E+00 -0.80699155733E+03  0.28169179118E+04  0.26988499678E+04 0.  0.
        3    1    3    3  502    0  0.78676604335E+03  0.24244719600E+03 -0.15194597168E+04  0.17281606670E+04  0.10100000352E+00 0. -1.
       -3    1    3    3    0  502 -0.78676604335E+03 -0.24244719600E+03  0.71246815944E+03  0.10887572449E+04  0.10100000352E+00 0.  1.
</event>
<event>
 5   0  0.1965415E-07  0.2715245E+04  0.7818609E-02  0.8330075E-01
       -1   -1    0    0    0  501  0.00000000000E+00  0.00000000000E+00  0.18928994926E+04  0.18928994926E+04  0.50400001928E-02 0.  1.
        1   -1    0    0  501    0  0.00000000000E+00  0.00000000000E+00 -0.97371182262E+03  0.97371182264E+03  0.50400001928E-02 0. -1.
    10030    2    1    2    0    0  0.00000000000E+00  0.00000000000E+00  0.91918767000E+03  0.28666113153E+04  0.27152448251E+04 0.  0.
        4    1    3    3  502    0  0.11785852332E+04 -0.64757549162E+03  0.26287378360E+03  0.13702267726E+04  0.12699999809E+01 0. -1.
       -4    1    3    3    0  502 -0.11785852332E+04  0.64757549162E+03  0.65631388639E+03  0.14963845427E+04  0.12699999809E+01 0.  1.
</event>
<event>
 5   0  0.4843887E-07  0.2700912E+04  0.7818609E-02  0.8334709E-01
        2   -1    0    0  501    0  0.00000000000E+00  0.00000000000E+00  0.12196053002E+04  0.12196053002E+04  0.25500000920E-02 0. -1.
       -2   -1    0    0    0  501  0.00000000000E+00  0.00000000000E+00 -0.14953452451E+04  0.14953452451E+04  0.25500000920E-02 0.  1.
    10030    2    1    2    0    0  0.00000000000E+00  0.00000000000E+00 -0.27573994483E+03  0.27149505453E+04  0.27009116880E+04 0.  0.
        5    1    3    3  502    0  0.35311200663E+03 -0.10193096189E+04  0.67877435868E+03  0.12745339965E+04  0.46999998093E+01 0.  1.
       -5    1    3    3    0  502 -0.35311200663E+03  0.10193096189E+04 -0.95451430350E+03  0.14404165487E+04  0.46999998093E+01 0. -1.
</event>
<event>
 5   0  0.1971600E-07  0.2698162E+04  0.7818609E-02  0.8335602E-01
        1   -1    0    0  501    0  0.00000000000E+00  0.00000000000E+00  0.12525729455E+04  0.12525729455E+04  0.50400001928E-02 0.  1.
       -1   -1    0    0    0  501  0.00000000000E+00  0.00000000000E+00 -0.14530249250E+04  0.14530249251E+04  0.50400001928E-02 0. -1.
    10030    2    1    2    0    0  0.00000000000E+00  0.00000000000E+00 -0.20045197957E+03  0.27055978705E+04  0.26981621228E+04 0.  0.
        5    1    3    3  502    0  0.44630545828E+03  0.32934638892E+03 -0.13333874084E+04  0.14441612364E+04  0.46999998093E+01 0. -1.
       -5    1    3    3    0  502 -0.44630545828E+03 -0.32934638892E+03  0.11329354288E+04  0.12614366341E+04  0.46999998093E+01 0.  1.
</event>
<event>
 5   0  0.1964242E-07  0.2700160E+04  0.7818609E-02  0.8334953E-01
       -1   -1    0    0    0  501  0.00000000000E+00  0.00000000000E+00  0.24216218601E+04  0.24216218601E+04  0.50400001928E-02 0.  1.
        1   -1    0    0  501    0  0.00000000000E+00  0.00000000000E+00 -0.75268417197E+03  0.75268417198E+03  0.50400001928E-02 0. -1.
    10030    2    1    2    0    0  0.00000000000E+00  0.00000000000E+00  0.16689376881E+04  0.31743060321E+04  0.27001603246E+04 0.  0.
        2    1    3    3  502    0  0.97020352102E+03 -0.71142528456E+03  0.11428064542E+03  0.12085035679E+04  0.25500000920E-02 0. -1.
       -2    1    3    3    0  502 -0.97020352102E+03  0.71142528456E+03  0.15546570427E+04  0.19658024642E+04  0.25500000920E-02 0.  1.
</event>
<event>
 5   0  0.5043890E-07  0.2700029E+04  0.7818609E-02  0.8334996E-01
       -2   -1    0    0    0  501  0.00000000000E+00  0.00000000000E+00  0.18183082489E+04  0.18183082489E+04  0.25500000920E-02 0. -1.
        2   -1    0    0  501    0  0.00000000000E+00  0.00000000000E+00 -0.10023266014E+04  0.10023266014E+04  0.25500000920E-02 0.  1.
    10030    2    1    2    0    0  0.00000000000E+00  0.00000000000E+00  0.81598164750E+03  0.28206348504E+04  0.27000286869E+04 0.  0.
        3    1    3    3  502    0 -0.50119524062E+03 -0.11283315408E+04  0.97846971245E+03  0.15753513017E+04  0.10100000352E+00 0. -1.
       -3    1    3    3    0  502  0.50119524062E+03  0.11283315408E+04 -0.16248806494E+03  0.12452835487E+04  0.10100000352E+00 0.  1.
</event>
<event>
 5   0  0.1937896E-07  0.2698825E+04  0.7818609E-02  0.8335386E-01
        1   -1    0    0  501    0  0.00000000000E+00  0.00000000000E+00  0.16629647826E+04  0.16629647826E+04  0.50400001928E-02 0.  1.
       -1   -1    0    0    0  501  0.00000000000E+00  0.00000000000E+00 -0.10949809014E+04  0.10949809014E+04  0.50400001928E-02 0. -1.
    10030    2    1    2    0    0  0.00000000000E+00  0.00000000000E+00  0.56798388113E+03  0.27579456840E+04  0.26988254309E+04 0.  0.
        3    1    3    3  502    0  0.69489047792E+02  0.31672370584E+03  0.16225607688E+04  0.16546437961E+04  0.10100000352E+00 0.  1.
       -3    1    3    3    0  502 -0.69489047792E+02 -0.31672370584E+03 -0.10545768876E+04  0.11033018879E+04  0.10100000352E+00 0. -1.
</event>
<event>
 5   0  0.1937896E-07  0.2700429E+04  0.7818609E-02  0.8334866E-01
        1   -1    0    0  501    0  0.00000000000E+00  0.00000000000E+00  0.21830653399E+04  0.21830653399E+04  0.50400001928E-02 0. -1.
       -1   -1    0    0    0  501  0.00000000000E+00  0.00000000000E+00 -0.83510062102E+03  0.83510062103E+03  0.50400001928E-02 0.  1.
    10030    2    1    2    0    0  0.00000000000E+00  0.00000000000E+00  0.13479647189E+04  0.30181659609E+04  0.27004290186E+04 0.  0.
        3    1    3    3  502    0 -0.64686040565E+03  0.69037186630E+03 -0.40271368186E+03  0.10282120491E+04  0.10100000352E+00 0.  1.
       -3    1    3    3    0  502  0.64686040565E+03 -0.69037186630E+03  0.17506784007E+04  0.19899539118E+04  0.10100000352E+00 0. -1.
</event>
<event>
 5   0  0.1937896E-07  0.2698349E+04  0.7818609E-02  0.8335541E-01
        1   -1    0    0  501    0  0.00000000000E+00  0.00000000000E+00  0.15771254920E+04  0.15771254920E+04  0.50400001928E-02 0.  1.
       -1   -1    0    0    0  501  0.00000000000E+00  0.00000000000E+00 -0.11541703517E+04  0.11541703517E+04  0.50400001928E-02 0. -1.
    10030    2    1    2    0    0  0.00000000000E+00  0.00000000000E+00  0.42295514028E+03  0.27312958438E+04  0.26983487424E+04 0.  0.
        3    1    3    3  502    0  0.10269205649E+04  0.78851123732E+03  0.59552514886E+03  0.14251196550E+04  0.10100000352E+00 0.  1.
       -3    1    3    3    0  502 -0.10269205649E+04 -0.78851123732E+03 -0.17257000858E+03  0.13061761887E+04  0.10100000352E+00 0. -1.
</event>
<event>
 5   0  0.1964242E-07  0.2702356E+04  0.7818609E-02  0.8334241E-01
        1   -1    0    0  501    0  0.00000000000E+00  0.00000000000E+00  0.15433502153E+04  0.15433502153E+04  0.50400001928E-02 0. -1.
       -1   -1    0    0    0  501  0.00000000000E+00  0.00000000000E+00 -0.11829345736E+04  0.11829345736E+04  0.50400001928E-02 0.  1.
    10030    2    1    2    0    0  0.00000000000E+00  0.00000000000E+00  0.36041564162E+03  0.27262847889E+04  0.27023562525E+04 0.  0.
        2    1    3    3  502    0 -0.93988570204E+03  0.90945779678E+03 -0.16218460877E+03  0.13178780157E+04  0.25500000920E-02 0. -1.
       -2    1    3    3    0  502  0.93988570204E+03 -0.90945779678E+03  0.52260025039E+03  0.14084067732E+04  0.25500000920E-02 0.  1.
</event>
<event>
 5   0  0.1965415E-07  0.2700783E+04  0.7818609E-02  0.8334751E-01
       -1   -1    0    0    0  501  0.00000000000E+00  0.00000000000E+00  0.10441093970E+04  0.10441093970E+04  0.50400001928E-02 0.  1.
        1   -1    0    0  501    0  0.00000000000E+00  0.00000000000E+00 -0.17465196441E+04  0.17465196441E+04  0.50400001928E-02 0. -1.
    10030    2    1    2    0    0  0.00000000000E+00  0.00000000000E+00 -0.70241024710E+03  0.27906290411E+04  0.27007832734E+04 0.  0.
        4    1    3    3  502    0  0.11891685075E+04 -0.56415885761E+03 -0.66317463970E+03  0.14738382447E+04  0.12699999809E+01 0. -1.
       -4    1    3    3    0  502 -0.11891685075E+04  0.56415885761E+03 -0.39235607401E+02  0.13167907964E+04  0.12699999809E+01 0.  1.
</event>
<event>
 5   0  0.1965415E-07  0.2699944E+04  0.7818609E-02  0.8335023E-01
        1   -1    0    0  501    0  0.00000000000E+00  0.00000000000E+00  0.10823503455E+04  0.10823503455E+04  0.50400001928E-02 0.  1.
       -1   -1    0    0    0  501  0.00000000000E+00  0.00000000000E+00 -0.16837655004E+04  0.16837655004E+04  0.50400001928E-02 0. -1.
    10030    2    1    2    0    0  0.00000000000E+00  0.00000000000E+00 -0.60141515493E+03  0.27661158459E+04  0.26999438299E+04 0.  0.
        4    1    3    3  502    0  0.79320979243E+03  0.30404574323E+03  0.77419535595E+03  0.11493500993E+04  0.12699999809E+01 0.  1.
       -4    1    3    3    0  502 -0.79320979243E+03 -0.30404574323E+03 -0.13756105109E+04  0.16167657466E+04  0.12699999809E+01 0. -1.
</event>
<event>
 5   0  0.5043890E-07  0.2713294E+04  0.7818609E-02  0.8330704E-01
       -2   -1    0    0    0  501  0.00000000000E+00  0.00000000000E+00  0.12756156689E+04  0.12756156689E+04  0.25500000920E-02 0. -1.
        2   -1    0    0  501    0  0.00000000000E+00  0.00000000000E+00 -0.14428253815E+04  0.14428253815E+04  0.25500000920E-02 0.  1.
    10030    2    1    2    0    0  0.00000000000E+00  0.00000000000E+00 -0.16720971256E+03  0.27184410504E+04  0.27132936916E+04 0.  0.
        3    1    3    3  502    0 -0.60955350206E+03 -0.40829366224E+03 -0.12269232946E+04  0.14295453709E+04  0.10100000352E+00 0.  1.
       -3    1    3    3    0  502  0.60955350206E+03  0.40829366224E+03  0.10597135820E+04  0.12888956795E+04  0.10100000352E+00 0. -1.
</event>
<event>
 5   0  0.4983208E-07  0.2700112E+04  0.7818609E-02  0.8334969E-01
        2   -1    0    0  501    0  0.00000000000E+00  0.00000000000E+00  0.15260542890E+04  0.15260542890E+04  0.25500000920E-02 0. -1.
       -2   -1    0    0    0  501  0.00000000000E+00  0.00000000000E+00 -0.11943550396E+04  0.11943550396E+04  0.25500000920E-02 0.  1.
    10030    2    1    2    0    0  0.00000000000E+00  0.00000000000E+00  0.33169924940E+03  0.27204093286E+04  0.27001115761E+04 0.  0.
        4    1    3    3  502    0 -0.46557208062E+03  0.12672057203E+04  0.15676418306E+03  0.13590968773E+04  0.12699999809E+01 0.  1.
       -4    1    3    3    0  502  0.46557208062E+03 -0.12672057203E+04  0.17493506635E+03  0.13613124513E+04  0.12699999809E+01 0. -1.
</event>
<event>
 5   0  0.4983208E-07  0.2708903E+04  0.7818609E-02  0.8332122E-01
       -2   -1    0    0    0  501  0.00000000000E+00  0.00000000000E+00  0.15039627833E+04  0.15039627833E+04  0.25500000920E-02 0. -1.
        2   -1    0    0  501    0  0.00000000000E+00  0.00000000000E+00 -0.12198031547E+04  0.12198031547E+04  0.25500000920E-02 0.  1.
    10030    2    1    2    0    0  0.00000000000E+00  0.00000000000E+00  0.28415962860E+03  0.27237659380E+04  0.27089027650E+04 0.  0.
        4    1    3    3  502    0  0.10289491534E+04 -0.80954508847E+02 -0.73979970603E+03  0.12698799986E+04  0.12699999809E+01 0.  1.
       -4    1    3    3    0  502 -0.10289491534E+04  0.80954508847E+02  0.10239593346E+04  0.14538859394E+04  0.12699999809E+01 0. -1.
</event>
<event>
 5   0  0.1971600E-07  0.2699849E+04  0.7818609E-02  0.8335054E-01
        1   -1    0    0  501    0  0.00000000000E+00  0.00000000000E+00  0.14834316365E+04  0.14834316365E+04  0.50400001928E-02 0. -1.
       -1   -1    0    0    0  501  0.00000000000E+00  0.00000000000E+00 -0.12284332222E+04  0.12284332222E+04  0.50400001928E-02 0.  1.
    10030    2    1    2    0    0  0.00000000000E+00  0.00000000000E+00  0.25499841431E+03  0.27118648587E+04  0.26998494070E+04 0.  0.
        5    1    3    3  502    0  0.52140192953E+02 -0.13262992868E+04 -0.11953478386E+03  0.13327036627E+04  0.46999998093E+01 0.  1.
       -5    1    3    3    0  502 -0.52140192953E+02  0.13262992868E+04  0.37453319817E+03  0.13791611960E+04  0.46999998093E+01 0. -1.
</event>
<event>
 5   0  0.1937896E-07  0.2700108E+04  0.7818609E-02  0.8334970E-01
        1   -1    0    0  501    0  0.00000000000E+00  0.00000000000E+00  0.12134510612E+04  0.12134510612E+04  0.50400001928E-02 0.  1.
       -1   -1    0    0    0  501  0.00000000000E+00  0.00000000000E+00 -0.15020345103E+04  0.15020345103E+04  0.50400001928E-02 0. -1.
    10030    2    1    2    0    0  0.00000000000E+00  0.00000000000E+00 -0.28858344917E+03  0.27154855715E+04  0.27001076797E+04 0.  0.
        3    1    3    3  502    0 -0.33341981734E+03 -0.37868871711E+03 -0.14036501095E+04  0.14915788813E+04  0.10100000352E+00 0. -1.
       -3    1    3    3    0  502  0.33341981734E+03  0.37868871711E+03  0.11150666603E+04  0.12239066902E+04  0.10100000352E+00 0.  1.
</event>
<event>
 5   0  0.4983208E-07  0.2700477E+04  0.7818609E-02  0.8334850E-01
       -2   -1    0    0    0  501  0.00000000000E+00  0.00000000000E+00  0.10547651332E+04  0.10547651332E+04  0.25500000920E-02 0.  1.
        2   -1    0    0  501    0  0.00000000000E+00  0.00000000000E+00 -0.17284836939E+04  0.17284836939E+04  0.25500000920E-02 0. -1.
    10030    2    1    2    0    0  0.00000000000E+00  0.00000000000E+00 -0.67371856072E+03  0.27832488271E+04  0.27004772420E+04 0.  0.
        4    1    3    3  502    0 -0.96451945224E+02  0.13367108803E+04 -0.50634967605E+03  0.14326515845E+04  0.12699999809E+01 0. -1.
       -4    1    3    3    0  502  0.96451945224E+02 -0.13367108803E+04 -0.16736888467E+03  0.13505972426E+04  0.12699999809E+01 0.  1.
</event>
<event>
 5   0  0.4843887E-07  0.2693820E+04  0.7818609E-02  0.8337013E-01
        2   -1    0    0  501    0  0.00000000000E+00  0.00000000000E+00  0.21603150830E+04  0.21603150830E+04  0.25500000920E-02 0. -1.
       -2   -1    0    0    0  501  0.00000000000E+00  0.00000000000E+00 -0.83976920844E+03  0.83976920844E+03  0.25500000920E-02 0.  1.
    10030    2    1    2    0    0  0.00000000000E+00  0.00000000000E+00  0.13205458746E+04  0.30000842915E+04  0.26938196579E+04 0.  0.
        5    1    3    3  502    0 -0.16045066212E+03  0.11493662706E+04  0.14216314410E+04  0.18351690067E+04  0.46999998093E+01 0. -1.
       -5    1    3    3    0  502  0.16045066212E+03 -0.11493662706E+04 -0.10108556644E+03  0.11649152848E+04  0.46999998093E+01 0.  1.
</event>
<event>
 5   0  0.1971600E-07  0.2700704E+04  0.7818609E-02  0.8334777E-01
        1   -1    0    0  501    0  0.00000000000E+00  0.00000000000E+00  0.27116721451E+04  0.27116721451E+04  0.50400001928E-02 0.  1.
       -1   -1    0    0    0  501  0.00000000000E+00  0.00000000000E+00 -0.67244505230E+03  0.67244505232E+03  0.50400001928E-02 0. -1.
    10030    2    1    2    0    0  0.00000000000E+00  0.00000000000E+00  0.20392270928E+04  0.33841171974E+04  0.27007039952E+04 0.  0.
        5    1    3    3  502    0  0.49381640582E+03 -0.11477851302E+04  0.16611985040E+04  0.20786697447E+04  0.46999998093E+01 0.  1.
       -5    1    3    3    0  502 -0.49381640582E+03  0.11477851302E+04  0.37802858877E+03  0.13054474527E+04  0.46999998093E+01 0. -1.
</event>
<event>
 5   0  0.1937896E-07  0.2702054E+04  0.7818609E-02  0.8334339E-01
        1   -1    0    0  501    0  0.00000000000E+00  0.00000000000E+00  0.10279114967E+04  0.10279114968E+04  0.50400001928E-02 0. -1.
       -1   -1    0    0    0  501  0.00000000000E+00  0.00000000000E+00 -0.17757111393E+04  0.17757111393E+04  0.50400001928E-02 0.  1.
    10030    2    1    2    0    0  0.00000000000E+00  0.00000000000E+00 -0.74779964259E+03  0.28036226361E+04  0.27020539558E+04 0.  0.
        3    1    3    3  502    0 -0.62498464199E+03 -0.11210022441E+04 -0.81168639750E+03  0.15185804727E+04  0.10100000352E+00 0.  1.
       -3    1    3    3    0  502  0.62498464199E+03  0.11210022441E+04  0.63886754906E+02  0.12850421634E+04  0.10100000352E+00 0. -1.
</event>
<event>
 5   0  0.4735120E-07  0.2700849E+04  0.7818609E-02  0.8334730E-01
        2   -1    0    0  501    0  0.00000000000E+00  0.00000000000E+00  0.15137735587E+04  0.15137735587E+04  0.25500000920E-02 0.  1.
       -2   -1    0    0    0  501  0.00000000000E+00  0.00000000000E+00 -0.12047018369E+04  0.12047018369E+04  0.25500000920E-02 0. -1.
    10030    2    1    2    0    0  0.00000000000E+00  0.00000000000E+00  0.30907172176E+03  0.27184753956E+04  0.27008485976E+04 0.  0.
        2    1    3    3  502    0 -0.51841959838E+03  0.12129879368E+04 -0.13639583868E+03  0.13261607895E+04  0.25500000920E-02 0. -1.
       -2    1    3    3    0  502  0.51841959838E+03 -0.12129879368E+04  0.44546756044E+03  0.13923146061E+04  0.25500000920E-02 0.  1.
</event>
<event>
 5   0  0.4843887E-07  0.2698405E+04  0.7818609E-02  0.8335523E-01
        2   -1    0    0  501    0  0.00000000000E+00  0.00000000000E+00  0.15602419860E+04  0.15602419860E+04  0.25500000920E-02 0.  1.
       -2   -1    0    0    0  501  0.00000000000E+00  0.00000000000E+00 -0.11667087724E+04  0.11667087724E+04  0.25500000920E-02 0. -1.
    10030    2    1    2    0    0  0.00000000000E+00  0.00000000000E+00  0.39353321365E+03  0.27269507584E+04  0.26984054640E+04 0.  0.
        5    1    3    3  502    0  0.13456954170E+04  0.97060884949E+02  0.19374309482E+03  0.13630390485E+04  0.46999998093E+01 0.  1.
       -5    1    3    3    0  502 -0.13456954170E+04 -0.97060884949E+02  0.19979011883E+03  0.13639117099E+04  0.46999998093E+01 0. -1.
</event>
<event>
 5   0  0.4992668E-07  0.2698752E+04  0.7818609E-02  0.8335410E-01
        2   -1    0    0  501    0  0.00000000000E+00  0.00000000000E+00  0.13515906958E+04  0.13515906958E+04  0.25500000920E-02 0. -1.
       -2   -1    0    0    0  501  0.00000000000E+00  0.00000000000E+00 -0.13471650751E+04  0.13471650751E+04  0.25500000920E-02 0.  1.
    10030    2    1    2    0    0  0.00000000000E+00  0.00000000000E+00  0.44256207068E+01  0.26987557708E+04  0.26987521421E+04 0.  0.
        1    1    3    3  502    0 -0.13484284439E+04  0.33412729410E+02 -0.35735920768E+02  0.13493156543E+04  0.50400001928E-02 0. -1.
       -1    1    3    3    0  502  0.13484284439E+04 -0.33412729410E+02  0.40161541474E+02  0.13494401166E+04  0.50400001928E-02 0.  1.
</event>
<event>
 5   0  0.4983208E-07  0.2698844E+04  0.7818609E-02  0.8335380E-01
       -2   -1    0    0    0  501  0.00000000000E+00  0.00000000000E+00  0.25432734101E+04  0.25432734101E+04  0.25500000920E-02 0. -1.
        2   -1    0    0  501    0  0.00000000000E+00  0.00000000000E+00 -0.71598289439E+03  0.71598289440E+03  0.25500000920E-02 0.  1.
    10030    2    1    2    0    0  0.00000000000E+00  0.00000000000E+00  0.18272905157E+04  0.32592563045E+04  0.26988443878E+04 0.  0.
        4    1    3    3  502    0  0.26973569762E+03 -0.11634178503E+03  0.25041907138E+04  0.25213618347E+04  0.12699999809E+01 0. -1.
       -4    1    3    3    0  502 -0.26973569762E+03  0.11634178503E+03 -0.67690019808E+03  0.73789446981E+03  0.12699999809E+01 0.  1.
</event>
<event>
 5   0  0.4843887E-07  0.2699882E+04  0.7818609E-02  0.8335043E-01
        2   -1    0    0  501    0  0.00000000000E+00  0.00000000000E+00  0.29974565313E+04  0.29974565313E+04  0.25500000920E-02 0.  1.
       -2   -1    0    0    0  501  0.00000000000E+00  0.00000000000E+00 -0.60796216679E+03  0.60796216679E+03  0.25500000920E-02 0. -1.
    10030    2    1    2    0    0  0.00000000000E+00  0.00000000000E+00  0.23894943646E+04  0.36054186981E+04  0.26998816031E+04 0.  0.
        5    1    3    3  502    0 -0.11361830688E+03 -0.58529952134E+03 -0.42259303675E+03  0.73081571826E+03  0.46999998093E+01 0. -1.
       -5    1    3    3    0  502  0.11361830688E+03  0.58529952134E+03  0.28120874013E+04  0.28746029799E+04  0.46999998093E+01 0.  1.
</event>
<event>
 5   0  0.5043890E-07  0.2699989E+04  0.7818609E-02  0.8335008E-01
        2   -1    0    0  501    0  0.00000000000E+00  0.00000000000E+00  0.13500312728E+04  0.13500312728E+04  0.25500000920E-02 0.  1.
       -2   -1    0    0    0  501  0.00000000000E+00  0.00000000000E+00 -0.13499580589E+04  0.13499580589E+04  0.25500000920E-02 0. -1.
    10030    2    1    2    0    0  0.00000000000E+00  0.00000000000E+00  0.73213886444E-01  0.26999893317E+04  0.26999893307E+04 0.  0.
        3    1    3    3  502    0 -0.23512020444E+03 -0.35420547219E+03  0.12813416293E+04  0.13500294102E+04  0.10100000352E+00 0.  1.
       -3    1    3    3    0  502  0.23512020444E+03  0.35420547219E+03 -0.12812684155E+04  0.13499599215E+04  0.10100000352E+00 0. -1.
</event>
<event>
 5   0  0.1965415E-07  0.2698645E+04  0.7818609E-02  0.8335445E-01
       -1   -1    0    0    0  501  0.00000000000E+00  0.00000000000E+00  0.12165626446E+04  0.12165626446E+04  0.50400001928E-02 0. -1.
        1   -1    0    0  501    0  0.00000000000E+00  0.00000000000E+00 -0.14965698786E+04  0.14965698786E+04  0.50400001928E-02 0.  1.
    10030    2    1    2    0    0  0.00000000000E+00  0.00000000000E+00 -0.28000723406E+03  0.27131325232E+04  0.26986448521E+04 0.  0.
        4    1    3    3  502    0  0.98519450318E+03 -0.83971579188E+03  0.24274820674E+03  0.13170645865E+04  0.12699999809E+01 0. -1.
       -4    1    3    3    0  502 -0.98519450318E+03  0.83971579188E+03 -0.52275544080E+03  0.13960679367E+04  0.12699999809E+01 0.  1.
</event>
<event>
 5   0  0.4843887E-07  0.2699824E+04  0.7818609E-02  0.8335062E-01
        2   -1    0    0  501    0  0.00000000000E+00  0.00000000000E+00  0.17775490272E+04  0.17775490272E+04  0.25500000920E-02 0. -1.
       -2   -1    0    0    0  501  0.00000000000E+00  0.00000000000E+00 -0.10251545876E+04  0.10251545876E+04  0.25500000920E-02 0.  1.
    10030    2    1    2    0    0  0.00000000000E+00  0.00000000000E+00  0.75239443959E+03  0.28027036149E+04  0.26998240980E+04 0.  0.
        5    1    3    3  502    0 -0.10933767963E+04 -0.69350973950E+03  0.77260132909E+03  0.15077677146E+04  0.46999998093E+01 0. -1.
       -5    1    3    3    0  502  0.10933767963E+04  0.69350973950E+03 -0.20206889501E+02  0.12949359003E+04  0.46999998093E+01 0.  1.
</event>
<event>
 5   0  0.1971600E-07  0.2699497E+04  0.7818609E-02  0.8335168E-01
        1   -1    0    0  501    0  0.00000000000E+00  0.00000000000E+00  0.16473227758E+04  0.16473227758E+04  0.50400001928E-02 0.  1.
       -1   -1    0    0    0  501  0.00000000000E+00  0.00000000000E+00 -0.11059286272E+04  0.11059286272E+04  0.50400001928E-02 0. -1.
    10030    2    1    2    0    0  0.00000000000E+00  0.00000000000E+00  0.54139414860E+03  0.27532514030E+04  0.26994972984E+04 0.  0.
        5    1    3    3  502    0  0.11046938892E+04  0.37686628433E+03 -0.42060700848E+03  0.12406889742E+04  0.46999998093E+01 0. -1.
       -5    1    3    3    0  502 -0.11046938892E+04 -0.37686628433E+03  0.96200115708E+03  0.15125624289E+04  0.46999998093E+01 0.  1.
</event>
<event>
 5   0  0.1971600E-07  0.2706237E+04  0.7818609E-02  0.8332984E-01
        1   -1    0    0  501    0  0.00000000000E+00  0.00000000000E+00  0.17250177034E+04  0.17250177034E+04  0.50400001928E-02 0.  1.
       -1   -1    0    0    0  501  0.00000000000E+00  0.00000000000E+00 -0.10613975946E+04  0.10613975946E+04  0.50400001928E-02 0. -1.
    10030    2    1    2    0    0  0.00000000000E+00  0.00000000000E+00  0.66362010884E+03  0.27864152980E+04  0.27062369749E+04 0.  0.
        5    1    3    3  502    0 -0.42213872607E+03 -0.87510716329E+03 -0.63784185336E+03  0.11622727611E+04  0.46999998093E+01 0. -1.
       -5    1    3    3    0  502  0.42213872607E+03  0.87510716329E+03  0.13014619622E+04  0.16241425370E+04  0.46999998093E+01 0.  1.
</event>
<event>
 5   0  0.1971600E-07  0.2700720E+04  0.7818609E-02  0.8334771E-01
        1   -1    0    0  501    0  0.00000000000E+00  0.00000000000E+00  0.13267835990E+04  0.13267835990E+04  0.50400001928E-02 0.  1.
       -1   -1    0    0    0  501  0.00000000000E+00  0.00000000000E+00 -0.13743550110E+04  0.13743550110E+04  0.50400001928E-02 0. -1.
    10030    2    1    2    0    0  0.00000000000E+00  0.00000000000E+00 -0.47571412079E+02  0.27011386100E+04  0.27007196728E+04 0.  0.
        5    1    3    3  502    0  0.28997243933E+03  0.12585887002E+04  0.37038209618E+03  0.13436273736E+04  0.46999998093E+01 0.  1.
       -5    1    3    3    0  502 -0.28997243933E+03 -0.12585887002E+04 -0.41795350826E+03  0.13575112364E+04  0.46999998093E+01 0. -1.
</event>
<event>
 5   0  0.1888149E-07  0.2699845E+04  0.7818609E-02  0.8335055E-01
        1   -1    0    0  501    0  0.00000000000E+00  0.00000000000E+00  0.95670070982E+03  0.95670070983E+03  0.50400001928E-02 0. -1.
       -1   -1    0    0    0  501  0.00000000000E+00  0.00000000000E+00 -0.19047653043E+04  0.19047653043E+04  0.50400001928E-02 0.  1.
    10030    2    1    2    0    0  0.00000000000E+00  0.00000000000E+00 -0.94806459447E+03  0.28614660141E+04  0.26998446760E+04 0.  0.
        1    1    3    3  502    0 -0.12518030333E+04  0.33920802278E+03 -0.87090458079E+03  0.15622252417E+04  0.50400001928E-02 0.  1.
       -1    1    3    3    0  502  0.12518030333E+04 -0.33920802278E+03 -0.77160013682E+02  0.12992407724E+04  0.50400001928E-02 0. -1.
</event>
<event>
 5   0  0.5043890E-07  0.2699516E+04  0.7818609E-02  0.8335162E-01
        2   -1    0    0  501    0  0.00000000000E+00  0.00000000000E+00  0.14112612679E+04  0.14112612679E+04  0.25500000920E-02 0.  1.
       -2   -1    0    0    0  501  0.00000000000E+00  0.00000000000E+00 -0.12909349025E+04  0.12909349025E+04  0.25500000920E-02 0. -1.
    10030    2    1    2    0    0  0.00000000000E+00  0.00000000000E+00  0.12032636547E+03  0.27021961704E+04  0.26995158286E+04 0.  0.
        3    1    3    3  502    0  0.33510251721E+03 -0.13032764102E+04  0.16525942190E+03  0.13557779262E+04  0.10100000352E+00 0. -1.
       -3    1    3    3    0  502 -0.33510251721E+03  0.13032764102E+04 -0.44933056434E+02  0.13464182442E+04  0.10100000352E+00 0.  1.
</event>
<event>
 5   0  0.1641625E-07  0.2699527E+04  0.7818609E-02  0.8335158E-01
       -4   -1    0    0    0  501  0.00000000000E+00  0.00000000000E+00  0.89248227224E+03  0.89248317585E+03  0.12699999809E+01 0.  1.
        4   -1    0    0  501    0  0.00000000000E+00  0.00000000000E+00 -0.20413402654E+04  0.20413406604E+04  0.12699999809E+01 0. -1.
    10030    2    1    2    0    0  0.00000000000E+00  0.00000000000E+00 -0.11488579931E+04  0.29338238363E+04  0.26995272945E+04 0.  0.
        5    1    3    3  502    0 -0.44336956162E+03  0.51275667865E+03 -0.18429266700E+04  0.19636437510E+04  0.46999998093E+01 0. -1.
       -5    1    3    3    0  502  0.44336956162E+03 -0.51275667865E+03  0.69406867690E+03  0.97018008530E+03  0.46999998093E+01 0.  1.
</event>
<event>
 5   0  0.1965415E-07  0.2699300E+04  0.7818609E-02  0.8335232E-01
       -1   -1    0    0    0  501  0.00000000000E+00  0.00000000000E+00  0.78884903631E+03  0.78884903632E+03  0.50400001928E-02 0.  1.
        1   -1    0    0  501    0  0.00000000000E+00  0.00000000000E+00 -0.23091301651E+04  0.23091301651E+04  0.50400001928E-02 0. -1.
    10030    2    1    2    0    0  0.00000000000E+00  0.00000000000E+00 -0.15202811288E+04  0.30979792014E+04  0.26992999874E+04 0.  0.
        4    1    3    3  502    0 -0.31105748719E+03  0.12935791865E+04 -0.10204670967E+04  0.16767404630E+04  0.12699999809E+01 0.  1.
       -4    1    3    3    0  502  0.31105748719E+03 -0.12935791865E+04 -0.49981403211E+03  0.14212387384E+04  0.12699999809E+01 0. -1.
</event>
<event>
 5   0  0.4735120E-07  0.2693529E+04  0.7818609E-02  0.8337107E-01
       -2   -1    0    0    0  501  0.00000000000E+00  0.00000000000E+00  0.96215040642E+03  0.96215040642E+03  0.25500000920E-02 0.  1.
        2   -1    0    0  501    0  0.00000000000E+00  0.00000000000E+00 -0.18851264830E+04  0.18851264830E+04  0.25500000920E-02 0. -1.
    10030    2    1    2    0    0  0.00000000000E+00  0.00000000000E+00 -0.92297607655E+03  0.28472768894E+04  0.26935294405E+04 0.  0.
        2    1    3    3  502    0 -0.51437504979E+03 -0.24228242823E+03  0.82905623943E+03  0.10052943425E+04  0.25500000920E-02 0.  1.
       -2    1    3    3    0  502  0.51437504979E+03  0.24228242823E+03 -0.17520323160E+04  0.18419825469E+04  0.25500000920E-02 0. -1.
</event>
<event>
 5   0  0.4735120E-07  0.2699996E+04  0.7818609E-02  0.8335006E-01
        2   -1    0    0  501    0  0.00000000000E+00  0.00000000000E+00  0.23124792721E+04  0.23124792721E+04  0.25500000920E-02 0.  1.
       -2   -1    0    0    0  501  0.00000000000E+00  0.00000000000E+00 -0.78811264893E+03  0.78811264894E+03  0.25500000920E-02 0. -1.
    10030    2    1    2    0    0  0.00000000000E+00  0.00000000000E+00  0.15243666232E+04  0.31005919211E+04  0.26999956776E+04 0.  0.
        2    1    3    3  502    0 -0.10736402614E+03 -0.12203193565E+04  0.11075545115E+03  0.12300297297E+04  0.25500000920E-02 0. -1.
       -2    1    3    3    0  502  0.10736402614E+03  0.12203193565E+04  0.14136111720E+04  0.18705621914E+04  0.25500000920E-02 0.  1.
</event>
<event>
 5   0  0.1888149E-07  0.2700180E+04  0.7818609E-02  0.8334947E-01
        1   -1    0    0  501    0  0.00000000000E+00  0.00000000000E+00  0.30423283930E+04  0.30423283930E+04  0.50400001928E-02 0. -1.
       -1   -1    0    0    0  501  0.00000000000E+00  0.00000000000E+00 -0.59912764976E+03  0.59912764978E+03  0.50400001928E-02 0.  1.
    10030    2    1    2    0    0  0.00000000000E+00  0.00000000000E+00  0.24432007433E+04  0.36414560428E+04  0.27001800384E+04 0.  0.
        1    1    3    3  502    0 -0.63327433513E+03  0.10863807432E+04  0.18843143511E+04  0.22653697438E+04  0.50400001928E-02 0.  1.
       -1    1    3    3    0  502  0.63327433513E+03 -0.10863807432E+04  0.55888639219E+03  0.13760862989E+04  0.50400001928E-02 0. -1.
</event>
<event>
 5   0  0.4843887E-07  0.2702296E+04  0.7818609E-02  0.8334260E-01
       -2   -1    0    0    0  501  0.00000000000E+00  0.00000000000E+00  0.97760566794E+03  0.97760566794E+03  0.25500000920E-02 0. -1.
        2   -1    0    0  501    0  0.00000000000E+00  0.00000000000E+00 -0.18674206276E+04  0.18674206276E+04  0.25500000920E-02 0.  1.
    10030    2    1    2    0    0  0.00000000000E+00  0.00000000000E+00 -0.88981495966E+03  0.28450262955E+04  0.27022960533E+04 0.  0.
        5    1    3    3  502    0 -0.49325151018E+03  0.12336235298E+04 -0.70376982178E+03  0.15034753465E+04  0.46999998093E+01 0. -1.
       -5    1    3    3    0  502  0.49325151018E+03 -0.12336235298E+04 -0.18604513789E+03  0.13415509490E+04  0.46999998093E+01 0.  1.
</event>
<event>
 5   0  0.1937896E-07  0.2699969E+04  0.7818609E-02  0.8335015E-01
       -1   -1    0    0    0  501  0.00000000000E+00  0.00000000000E+00  0.10108163398E+04  0.10108163399E+04  0.50400001928E-02 0.  1.
        1   -1    0    0  501    0  0.00000000000E+00  0.00000000000E+00 -0.18029573663E+04  0.18029573663E+04  0.50400001928E-02 0. -1.
    10030    2    1    2    0    0  0.00000000000E+00  0.00000000000E+00 -0.79214102649E+03  0.28137737062E+04  0.26999694561E+04 0.  0.
        3    1    3    3  502    0  0.60060877597E+03  0.10616834197E+04  0.20671781964E+03  0.12371882850E+04  0.10100000352E+00 0.  1.
       -3    1    3    3    0  502 -0.60060877597E+03 -0.10616834197E+04 -0.99885884613E+03  0.15765854212E+04  0.10100000352E+00 0. -1.
</event>
<event>
 5   0  0.4983208E-07  0.2716087E+04  0.7818609E-02  0.8329804E-01
       -2   -1    0    0    0  501  0.00000000000E+00  0.00000000000E+00  0.11607379264E+04  0.11607379264E+04  0.25500000920E-02 0.  1.
        2   -1    0    0  501    0  0.00000000000E+00  0.00000000000E+00 -0.15888878537E+04  0.15888878537E+04  0.25500000920E-02 0. -1.
    10030    2    1    2    0    0  0.00000000000E+00  0.00000000000E+00 -0.42814992727E+03  0.27496257800E+04  0.27160871801E+04 0.  0.
        4    1    3    3  502    0 -0.26218384800E+03 -0.83192029358E+02 -0.15603912186E+04  0.15844505836E+04  0.12699999809E+01 0. -1.
       -4    1    3    3    0  502  0.26218384800E+03  0.83192029358E+02  0.11322412913E+04  0.11651751965E+04  0.12699999809E+01 0.  1.
</event>
<event>
 5   0  0.1641625E-07  0.2699816E+04  0.7818609E-02  0.8335065E-01
        4   -1    0    0  501    0  0.00000000000E+00  0.00000000000E+00  0.13219084064E+04  0.13219090165E+04  0.12699999809E+01 0.  1.
       -4   -1    0    0    0  501  0.00000000000E+00  0.00000000000E+00 -0.13784998478E+04  0.13785004328E+04  0.12699999809E+01 0. -1.
    10030    2    1    2    0    0  0.00000000000E+00  0.00000000000E+00 -0.56591441417E+02  0.27004094493E+04  0.26998164017E+04 0.  0.
        5    1    3    3  502    0  0.38710370412E+03  0.57017463810E+03  0.11326838759E+04  0.13258745221E+04  0.46999998093E+01 0.  1.
       -5    1    3    3    0  502 -0.38710370412E+03 -0.57017463810E+03 -0.11892753173E+04  0.13745349272E+04  0.46999998093E+01 0. -1.
</event>
<event>
 5   0  0.1937896E-07  0.2698679E+04  0.7818609E-02  0.8335434E-01
        1   -1    0    0  501    0  0.00000000000E+00  0.00000000000E+00  0.23366987543E+04  0.23366987543E+04  0.50400001928E-02 0.  1.
       -1   -1    0    0    0  501  0.00000000000E+00  0.00000000000E+00 -0.77918347919E+03  0.77918347921E+03  0.50400001928E-02 0. -1.
    10030    2    1    2    0    0  0.00000000000E+00  0.00000000000E+00  0.15575152752E+04  0.31158822336E+04  0.26986789844E+04 0.  0.
        3    1    3    3  502    0  0.10548879036E+03  0.12882898691E+04  0.12257790045E+04  0.17813907067E+04  0.10100000352E+00 0.  1.
       -3    1    3    3    0  502 -0.10548879036E+03 -0.12882898691E+04  0.33173627066E+03  0.13344915269E+04  0.10100000352E+00 0. -1.
</event>
<event>
 5   0  0.1888149E-07  0.2695756E+04  0.7818609E-02  0.8336383E-01
       -1   -1    0    0    0  501  0.00000000000E+00  0.00000000000E+00  0.10475745994E+04  0.10475745994E+04  0.50400001928E-02 0. -1.
        1   -1    0    0  501    0  0.00000000000E+00  0.00000000000E+00 -0.17342676089E+04  0.17342676089E+04  0.50400001928E-02 0.  1.
    10030    2    1    2    0    0  0.00000000000E+00  0.00000000000E+00 -0.68669300951E+03  0.27818422083E+04  0.26957556979E+04 0.  0.
        1    1    3    3  502    0 -0.70383392630E+03 -0.10730711696E+04  0.82019137248E+02  0.12859203202E+04  0.50400001928E-02 0. -1.
       -1    1    3    3    0  502  0.70383392630E+03  0.10730711696E+04 -0.76871214676E+03  0.14959218882E+04  0.50400001928E-02 0.  1.
</event>
<event>
 5   0  0.1937896E-07  0.2698604E+04  0.7818609E-02  0.8335458E-01
        1   -1    0    0  501    0  0.00000000000E+00  0.00000000000E+00  0.16198562629E+04  0.16198562629E+04  0.50400001928E-02 0.  1.
       -1   -1    0    0    0  501  0.00000000000E+00  0.00000000000E+00 -0.11239367843E+04  0.11239367843E+04  0.50400001928E-02 0. -1.
    10030    2    1    2    0    0  0.00000000000E+00  0.00000000000E+00  0.49591947856E+03  0.27437930472E+04  0.26986041126E+04 0.  0.
        3    1    3    3  502    0 -0.51453507903E+03  0.11348657816E+04  0.77426597862E+03  0.14670223262E+04  0.10100000352E+00 0.  1.
       -3    1    3    3    0  502  0.51453507903E+03 -0.11348657816E+04 -0.27834650006E+03  0.12767707210E+04  0.10100000352E+00 0. -1.
</event>
<event>
 5   0  0.4983208E-07  0.2700780E+04  0.7818609E-02  0.8334752E-01
       -2   -1    0    0    0  501  0.00000000000E+00  0.00000000000E+00  0.14082870119E+04  0.14082870119E+04  0.25500000920E-02 0. -1.
        2   -1    0    0  501    0  0.00000000000E+00  0.00000000000E+00 -0.12948730108E+04  0.12948730108E+04  0.25500000920E-02 0.  1.
    10030    2    1    2    0    0  0.00000000000E+00  0.00000000000E+00  0.11341400109E+03  0.27031600228E+04  0.27007797713E+04 0.  0.
        4    1    3    3  502    0 -0.94801564802E+03  0.93479176651E+03  0.28269774612E+03  0.13610616974E+04  0.12699999809E+01 0. -1.
       -4    1    3    3    0  502  0.94801564802E+03 -0.93479176651E+03 -0.16928374503E+03  0.13420983253E+04  0.12699999809E+01 0.  1.
</event>
<event>
 5   0  0.4992668E-07  0.2700159E+04  0.7818609E-02  0.8334953E-01
        2   -1    0    0  501    0  0.00000000000E+00  0.00000000000E+00  0.10145148309E+04  0.10145148309E+04  0.25500000920E-02 0. -1.
       -2   -1    0    0    0  501  0.00000000000E+00  0.00000000000E+00 -0.17966365186E+04  0.17966365186E+04  0.25500000920E-02 0.  1.
    10030    2    1    2    0    0  0.00000000000E+00  0.00000000000E+00 -0.78212168762E+03  0.28111513495E+04  0.27001588056E+04 0.  0.
        1    1    3    3  502    0 -0.75510810684E+03  0.75249427986E+03 -0.12535330679E+04  0.16455336662E+04  0.50400001928E-02 0.  1.
       -1    1    3    3    0  502  0.75510810684E+03 -0.75249427986E+03  0.47141138026E+03  0.11656176833E+04  0.50400001928E-02 0. -1.
</event>
<event>
 5   0  0.1964242E-07  0.2699837E+04  0.7818609E-02  0.8335058E-01
        1   -1    0    0  501    0  0.00000000000E+00  0.00000000000E+00  0.13268420789E+04  0.13268420789E+04  0.50400001928E-02 0. -1.
       -1   -1    0    0    0  501  0.00000000000E+00  0.00000000000E+00 -0.13733962653E+04  0.13733962653E+04  0.50400001928E-02 0.  1.
    10030    2    1    2    0    0  0.00000000000E+00  0.00000000000E+00 -0.46554186435E+02  0.27002383442E+04  0.26998369993E+04 0.  0.
        2    1    3    3  502    0 -0.60117143162E+03  0.75565898208E+03  0.92018300153E+03  0.13338531942E+04  0.25500000920E-02 0. -1.
       -2    1    3    3    0  502  0.60117143162E+03 -0.75565898208E+03 -0.96673718797E+03  0.13663851500E+04  0.25500000920E-02 0.  1.
</event>
<event>
 5   0  0.1964242E-07  0.2696336E+04  0.7818609E-02  0.8336195E-01
        1   -1    0    0  501    0  0.00000000000E+00  0.00000000000E+00  0.13051752806E+04  0.13051752806E+04  0.50400001928E-02 0. -1.
       -1   -1    0    0    0  501  0.00000000000E+00  0.00000000000E+00 -0.13925767155E+04  0.13925767155E+04  0.50400001928E-02 0.  1.
    10030    2    1    2    0    0  0.00000000000E+00  0.00000000000E+00 -0.87401434888E+02  0.26977519962E+04  0.26963358140E+04 0.  0.
        2    1    3    3  502    0 -0.23771522616E+03 -0.86008219328E+03 -0.10548287560E+04  0.13816343990E+04  0.25500000920E-02 0.  1.
       -2    1    3    3    0  502  0.23771522616E+03  0.86008219328E+03  0.96742732113E+03  0.13161175972E+04  0.25500000920E-02 0. -1.
</event>
<event>
 5   0  0.1641625E-07  0.2698852E+04  0.7818609E-02  0.8335377E-01
       -3   -1    0    0    0  501  0.00000000000E+00  0.00000000000E+00  0.24662300859E+04  0.24662300879E+04  0.10100000352E+00 0.  1.
        3   -1    0    0  501    0  0.00000000000E+00  0.00000000000E+00 -0.73835409821E+03  0.73835410512E+03  0.10100000352E+00 0. -1.
    10030    2    1    2    0    0  0.00000000000E+00  0.00000000000E+00  0.17278759876E+04  0.32045841931E+04  0.26988524268E+04 0.  0.
        1    1    3    3  502    0  0.23823889349E+03 -0.10850498274E+04 -0.45681752127E+02  0.11118352939E+04  0.50400001928E-02 0. -1.
       -1    1    3    3    0  502 -0.23823889349E+03  0.10850498274E+04  0.17735577398E+04  0.20927488991E+04  0.50400001928E-02 0.  1.
</event>
<event>
 5   0  0.4983208E-07  0.2699657E+04  0.7818609E-02  0.8335116E-01
        2   -1    0    0  501    0  0.00000000000E+00  0.00000000000E+00  0.23065619096E+04  0.23065619096E+04  0.25500000920E-02 0. -1.
       -2   -1    0    0    0  501  0.00000000000E+00  0.00000000000E+00 -0.78993613659E+03  0.78993613660E+03  0.25500000920E-02 0.  1.
    10030    2    1    2    0    0  0.00000000000E+00  0.00000000000E+00  0.15166257730E+04  0.30964980462E+04  0.26996567217E+04 0.  0.
        4    1    3    3  502    0  0.11494767108E+03  0.13095497439E+04  0.11097911823E+04  0.17203986690E+04  0.12699999809E+01 0. -1.
       -4    1    3    3    0  502 -0.11494767108E+03 -0.13095497439E+04  0.40683459070E+03  0.13760993772E+04  0.12699999809E+01 0.  1.
</event>
<event>
 5   0  0.1937896E-07  0.2700091E+04  0.7818609E-02  0.8334975E-01
        1   -1    0    0  501    0  0.00000000000E+00  0.00000000000E+00  0.11367790503E+04  0.11367790503E+04  0.50400001928E-02 0. -1.
       -1   -1    0    0    0  501  0.00000000000E+00  0.00000000000E+00 -0.16033224357E+04  0.16033224357E+04  0.50400001928E-02 0.  1.
    10030    2    1    2    0    0  0.00000000000E+00  0.00000000000E+00 -0.46654338533E+03  0.27401014860E+04  0.27000913731E+04 0.  0.
        3    1    3    3  502    0  0.18896626337E+03  0.30306545019E+03  0.10879678057E+04  0.11450898970E+04  0.10100000352E+00 0. -1.
       -3    1    3    3    0  502 -0.18896626337E+03 -0.30306545019E+03 -0.15545111910E+04  0.15950115890E+04  0.10100000352E+00 0.  1.
</event>
<event>
 5   0  0.4983208E-07  0.2700108E+04  0.7818609E-02  0.8334970E-01
       -2   -1    0    0    0  501  0.00000000000E+00  0.00000000000E+00  0.10805843123E+04  0.10805843123E+04  0.25500000920E-02 0. -1.
        2   -1    0    0  501    0  0.00000000000E+00  0.00000000000E+00 -0.16867227392E+04  0.16867227392E+04  0.25500000920E-02 0.  1.
    10030    2    1    2    0    0  0.00000000000E+00  0.00000000000E+00 -0.60613842694E+03  0.27673070516E+04  0.27001082432E+04 0.  0.
        4    1    3    3  502    0 -0.11001153813E+04 -0.29568088186E+03 -0.10456448941E+04  0.15463039460E+04  0.12699999809E+01 0.  1.
       -4    1    3    3    0  502  0.11001153813E+04  0.29568088186E+03  0.43950646712E+03  0.12210031055E+04  0.12699999809E+01 0. -1.
</event>
<event>
 5   0  0.1937896E-07  0.2698735E+04  0.7818609E-02  0.8335416E-01
        1   -1    0    0  501    0  0.00000000000E+00  0.00000000000E+00  0.25251936137E+04  0.25251936137E+04  0.50400001928E-02 0. -1.
       -1   -1    0    0    0  501  0.00000000000E+00  0.00000000000E+00 -0.72105055655E+03  0.72105055657E+03  0.50400001928E-02 0.  1.
    10030    2    1    2    0    0  0.00000000000E+00  0.00000000000E+00  0.18041430572E+04  0.32462441703E+04  0.26987347114E+04 0.  0.
        3    1    3    3  502    0  0.53660819861E+03 -0.11595141234E+04  0.38000255770E+03  0.13329753618E+04  0.10100000352E+00 0.  1.
       -3    1    3    3    0  502 -0.53660819861E+03  0.11595141234E+04  0.14241404995E+04  0.19132688085E+04  0.10100000352E+00 0. -1.
</event>
<event>
 5   0  0.1937896E-07  0.2703029E+04  0.7818609E-02  0.8334023E-01
       -1   -1    0    0    0  501  0.00000000000E+00  0.00000000000E+00  0.11661883938E+04  0.11661883938E+04  0.50400001928E-02 0. -1.
        1   -1    0    0  501    0  0.00000000000E+00  0.00000000000E+00 -0.15662924829E+04  0.15662924830E+04  0.50400001928E-02 0.  1.
    10030    2    1    2    0    0  0.00000000000E+00  0.00000000000E+00 -0.40010408913E+03  0.27324808768E+04  0.27030294967E+04 0.  0.
        3    1    3    3  502    0 -0.20898568939E+03  0.10647669724E+04  0.61444913094E+03  0.12469769318E+04  0.10100000352E+00 0. -1.
       -3    1    3    3    0  502  0.20898568939E+03 -0.10647669724E+04 -0.10145532201E+04  0.14855039449E+04  0.10100000352E+00 0.  1.
</event>
<event>
 5   0  0.4983208E-07  0.2699789E+04  0.7818609E-02  0.8335073E-01
       -2   -1    0    0    0  501  0.00000000000E+00  0.00000000000E+00  0.78140721612E+03  0.78140721612E+03  0.25500000920E-02 0.  1.
        2   -1    0    0  501    0  0.00000000000E+00  0.00000000000E+00 -0.23319669590E+04  0.23319669590E+04  0.25500000920E-02 0. -1.
    10030    2    1    2    0    0  0.00000000000E+00  0.00000000000E+00 -0.15505597429E+04  0.31133741751E+04  0.26997894803E+04 0.  0.
        4    1    3    3  502    0  0.25779916058E+02 -0.54894354594E+02  0.77983470987E+03  0.78219037444E+03  0.12699999809E+01 0.  1.
       -4    1    3    3    0  502 -0.25779916058E+02  0.54894354594E+02 -0.23303944528E+04  0.23311838007E+04  0.12699999809E+01 0. -1.
</event>
<event>
 5   0  0.4992668E-07  0.2700944E+04  0.7818609E-02  0.8334699E-01
        2   -1    0    0  501    0  0.00000000000E+00  0.00000000000E+00  0.12827442678E+04  0.12827442678E+04  0.25500000920E-02 0.  1.
       -2   -1    0    0    0  501  0.00000000000E+00  0.00000000000E+00 -0.14217756271E+04  0.14217756271E+04  0.25500000920E-02 0. -1.
    10030    2    1    2    0    0  0.00000000000E+00  0.00000000000E+00 -0.13903135933E+03  0.27045198949E+04  0.27009439355E+04 0.  0.
        1    1    3    3  502    0  0.13254354731E+04  0.20346852917E+03  0.90683325399E+02  0.13440245910E+04  0.50400001928E-02 0.  1.
       -1    1    3    3    0  502 -0.13254354731E+04 -0.20346852917E+03 -0.22971468473E+03  0.13604953039E+04  0.50400001928E-02 0. -1.
</event>
<event>
 5   0  0.4735120E-07  0.2698692E+04  0.7818609E-02  0.8335429E-01
       -2   -1    0    0    0  501  0.00000000000E+00  0.00000000000E+00  0.10870435918E+04  0.10870435918E+04  0.25500000920E-02 0. -1.
        2   -1    0    0  501    0  0.00000000000E+00  0.00000000000E+00 -0.16749416908E+04  0.16749416908E+04  0.25500000920E-02 0.  1.
    10030    2    1    2    0    0  0.00000000000E+00  0.00000000000E+00 -0.58789809902E+03  0.27619852827E+04  0.26986920030E+04 0.  0.
        2    1    3    3  502    0  0.35239400513E+03 -0.10713268463E+04 -0.10521420871E+04  0.15423766459E+04  0.25500000920E-02 0.  1.
       -2    1    3    3    0  502 -0.35239400513E+03  0.10713268463E+04  0.46424398807E+03  0.12196086368E+04  0.25500000920E-02 0. -1.
</event>
<event>
 5   0  0.4983208E-07  0.2697634E+04  0.7818609E-02  0.8335773E-01
        2   -1    0    0  501    0  0.00000000000E+00  0.00000000000E+00  0.21143242721E+04  0.21143242721E+04  0.25500000920E-02 0. -1.
       -2   -1    0    0    0  501  0.00000000000E+00  0.00000000000E+00 -0.86046771409E+03  0.86046771410E+03  0.25500000920E-02 0.  1.
    10030    2    1    2    0    0  0.00000000000E+00  0.00000000000E+00  0.12538565580E+04  0.29747919862E+04  0.26976343513E+04 0.  0.
        4    1    3    3  502    0  0.92285075736E+03 -0.88752465208E+03  0.10947200967E+04  0.16845673722E+04  0.12699999809E+01 0. -1.
       -4    1    3    3    0  502 -0.92285075736E+03  0.88752465208E+03  0.15913646133E+03  0.12902246140E+04  0.12699999809E+01 0.  1.
</event>
<event>
 5   0  0.1888149E-07  0.2699511E+04  0.7818609E-02  0.8335164E-01
       -1   -1    0    0    0  501  0.00000000000E+00  0.00000000000E+00  0.77955737140E+03  0.77955737141E+03  0.50400001928E-02 0.  1.
        1   -1    0    0  501    0  0.00000000000E+00  0.00000000000E+00 -0.23370187706E+04  0.23370187706E+04  0.50400001928E-02 0. -1.
    10030    2    1    2    0    0  0.00000000000E+00  0.00000000000E+00 -0.15574613992E+04  0.31165761420E+04  0.26995112223E+04 0.  0.
        1    1    3    3  502    0  0.94657722100E+03  0.57164333333E+02 -0.18876268084E+04  0.21124419908E+04  0.50400001928E-02 0. -1.
       -1    1    3    3    0  502 -0.94657722100E+03 -0.57164333333E+02  0.33016540922E+03  0.10041341513E+04  0.50400001928E-02 0.  1.
</event>
<event>
 5   0  0.1937896E-07  0.2700615E+04  0.7818609E-02  0.8334805E-01
        1   -1    0    0  501    0  0.00000000000E+00  0.00000000000E+00  0.18830094482E+04  0.18830094482E+04  0.50400001928E-02 0.  1.
       -1   -1    0    0    0  501  0.00000000000E+00  0.00000000000E+00 -0.96830654805E+03  0.96830654806E+03  0.50400001928E-02 0. -1.
    10030    2    1    2    0    0  0.00000000000E+00  0.00000000000E+00  0.91470290017E+03  0.28513159963E+04  0.27006150253E+04 0.  0.
        3    1    3    3  502    0 -0.96294093276E+03  0.83080691926E+03  0.93635890649E+03  0.15793237126E+04  0.10100000352E+00 0.  1.
       -3    1    3    3    0  502  0.96294093276E+03 -0.83080691926E+03 -0.21656006317E+02  0.12719922837E+04  0.10100000352E+00 0. -1.
</event>
<event>
 5   0  0.4735120E-07  0.2699699E+04  0.7818609E-02  0.8335103E-01
       -2   -1    0    0    0  501  0.00000000000E+00  0.00000000000E+00  0.10589644493E+04  0.10589644493E+04  0.25500000920E-02 0.  1.
        2   -1    0    0  501    0  0.00000000000E+00  0.00000000000E+00 -0.17206369099E+04  0.17206369099E+04  0.25500000920E-02 0. -1.
    10030    2    1    2    0    0  0.00000000000E+00  0.00000000000E+00 -0.66167246061E+03  0.27796013592E+04  0.26996987371E+04 0.  0.
        2    1    3    3  502    0  0.77609400379E+03  0.95714455928E+03  0.23651341169E+03  0.12547454738E+04  0.25500000920E-02 0.  1.
       -2    1    3    3    0  502 -0.77609400379E+03 -0.95714455928E+03 -0.89818587230E+03  0.15248558854E+04  0.25500000920E-02 0. -1.
</event>
<event>
 5   0  0.1964242E-07  0.2700681E+04  0.7818609E-02  0.8334784E-01
       -1   -1    0    0    0  501  0.00000000000E+00  0.00000000000E+00  0.10310552331E+04  0.10310552331E+04  0.50400001928E-02 0. -1.
        1   -1    0    0  501    0  0.00000000000E+00  0.00000000000E+00 -0.17684977785E+04  0.17684977786E+04  0.50400001928E-02 0.  1.
    10030    2    1    2    0    0  0.00000000000E+00  0.00000000000E+00 -0.73744254547E+03  0.27995530116E+04  0.27006805729E+04 0.  0.
        2    1    3    3  502    0  0.57975079586E+03  0.12006720642E+04 -0.59030988155E+03  0.14581461338E+04  0.25500000920E-02 0.  1.
       -2    1    3    3    0  502 -0.57975079586E+03 -0.12006720642E+04 -0.14713266392E+03  0.13414068779E+04  0.25500000920E-02 0. -1.
</event>
<event>
 5   0  0.1965415E-07  0.2693206E+04  0.7818609E-02  0.8337213E-01
       -1   -1    0    0    0  501  0.00000000000E+00  0.00000000000E+00  0.11484320422E+04  0.11484320422E+04  0.50400001928E-02 0.  1.
        1   -1    0    0  501    0  0.00000000000E+00  0.00000000000E+00 -0.15789698052E+04  0.15789698052E+04  0.50400001928E-02 0. -1.
    10030    2    1    2    0    0  0.00000000000E+00  0.00000000000E+00 -0.43053776299E+03  0.27274018475E+04  0.26932059097E+04 0.  0.
        4    1    3    3  502    0 -0.12214032273E+03 -0.98712179930E+03  0.70400699889E+03  0.12185873676E+04  0.12699999809E+01 0.  1.
       -4    1    3    3    0  502  0.12214032273E+03  0.98712179930E+03 -0.11345447619E+04  0.15088144799E+04  0.12699999809E+01 0. -1.
</event>
<event>
 5   0  0.1965415E-07  0.2699574E+04  0.7818609E-02  0.8335143E-01
        1   -1    0    0  501    0  0.00000000000E+00  0.00000000000E+00  0.17268925630E+04  0.17268925630E+04  0.50400001928E-02 0. -1.
       -1   -1    0    0    0  501  0.00000000000E+00  0.00000000000E+00 -0.10550306199E+04  0.10550306199E+04  0.50400001928E-02 0.  1.
    10030    2    1    2    0    0  0.00000000000E+00  0.00000000000E+00  0.67186194309E+03  0.27819231830E+04  0.26995736933E+04 0.  0.
        4    1    3    3  502    0  0.41239428099E+03 -0.12503918620E+04  0.29584863799E+02  0.13169759788E+04  0.12699999809E+01 0.  1.
       -4    1    3    3    0  502 -0.41239428099E+03  0.12503918620E+04  0.64227707929E+03  0.14649472042E+04  0.12699999809E+01 0. -1.
</event>
<event>
 5   0  0.4735120E-07  0.2688584E+04  0.7818609E-02  0.8338719E-01
        2   -1    0    0  501    0  0.00000000000E+00  0.00000000000E+00  0.17190255664E+04  0.17190255664E+04  0.25500000920E-02 0. -1.
       -2   -1    0    0    0  501  0.00000000000E+00  0.00000000000E+00 -0.10512470576E+04  0.10512470576E+04  0.25500000920E-02 0.  1.
    10030    2    1    2    0    0  0.00000000000E+00  0.00000000000E+00  0.66777850880E+03  0.27702726240E+04  0.26885836930E+04 0.  0.
        2    1    3    3  502    0  0.18137756601E+03 -0.12565311657E+04  0.78930503724E+03  0.14949149921E+04  0.25500000920E-02 0. -1.
       -2    1    3    3    0  502 -0.18137756601E+03  0.12565311657E+04 -0.12152652844E+03  0.12753576318E+04  0.25500000920E-02 0.  1.
</event>
<event>
 5   0  0.1888149E-07  0.2700302E+04  0.7818609E-02  0.8334907E-01
        1   -1    0    0  501    0  0.00000000000E+00  0.00000000000E+00  0.14418985533E+04  0.14418985533E+04  0.50400001928E-02 0. -1.
       -1   -1    0    0    0  501  0.00000000000E+00  0.00000000000E+00 -0.12642416240E+04  0.12642416240E+04  0.50400001928E-02 0.  1.
    10030    2    1    2    0    0  0.00000000000E+00  0.00000000000E+00  0.17765692928E+03  0.27061401773E+04  0.27003023302E+04 0.  0.
        1    1    3    3  502    0 -0.64703154123E+03  0.58480340600E+03  0.11217182742E+04  0.14208788568E+04  0.50400001928E-02 0. -1.
       -1    1    3    3    0  502  0.64703154123E+03 -0.58480340600E+03 -0.94406134488E+03  0.12852613205E+04  0.50400001928E-02 0.  1.
</event>
<event>
 5   0  0.4735120E-07  0.2700012E+04  0.7818609E-02  0.8335001E-01
       -2   -1    0    0    0  501  0.00000000000E+00  0.00000000000E+00  0.10181379929E+04  0.10181379929E+04  0.25500000920E-02 0.  1.
        2   -1    0    0  501    0  0.00000000000E+00  0.00000000000E+00 -0.17900487415E+04  0.17900487415E+04  0.25500000920E-02 0. -1.
    10030    2    1    2    0    0  0.00000000000E+00  0.00000000000E+00 -0.77191074860E+03  0.28081867344E+04  0.27000123207E+04 0.  0.
        2    1    3    3  502    0 -0.26915319346E+03  0.10853300294E+04  0.40074313307E+03  0.11878466959E+04  0.25500000920E-02 0.  1.
       -2    1    3    3    0  502  0.26915319346E+03 -0.10853300294E+04 -0.11726538817E+04  0.16203400385E+04  0.25500000920E-02 0. -1.
</event>
<event>
 5   0  0.4735120E-07  0.2699864E+04  0.7818609E-02  0.8335049E-01
       -2   -1    0    0    0  501  0.00000000000E+00  0.00000000000E+00  0.95805847236E+03  0.95805847236E+03  0.25500000920E-02 0. -1.
        2   -1    0    0  501    0  0.00000000000E+00  0.00000000000E+00 -0.19020934217E+04  0.19020934217E+04  0.25500000920E-02 0.  1.
    10030    2    1    2    0    0  0.00000000000E+00  0.00000000000E+00 -0.94403494936E+03  0.28601518941E+04  0.26998642321E+04 0.  0.
        2    1    3    3  502    0  0.84247479905E+02  0.72127580765E+03  0.73351454924E+03  0.10321724771E+04  0.25500000920E-02 0. -1.
       -2    1    3    3    0  502 -0.84247479905E+02 -0.72127580765E+03 -0.16775494986E+04  0.18279794170E+04  0.25500000920E-02 0.  1.
</event>
<event>
 5   0  0.4735120E-07  0.2700713E+04  0.7818609E-02  0.8334774E-01
        2   -1    0    0  501    0  0.00000000000E+00  0.00000000000E+00  0.11685214785E+04  0.11685214785E+04  0.25500000920E-02 0. -1.
       -2   -1    0    0    0  501  0.00000000000E+00  0.00000000000E+00 -0.15604865804E+04  0.15604865804E+04  0.25500000920E-02 0.  1.
    10030    2    1    2    0    0  0.00000000000E+00  0.00000000000E+00 -0.39196510186E+03  0.27290080589E+04  0.27007125624E+04 0.  0.
        2    1    3    3  502    0  0.47398645546E+03 -0.56105166726E+03  0.94903551728E+03  0.12000460601E+04  0.25500000920E-02 0. -1.
       -2    1    3    3    0  502 -0.47398645546E+03  0.56105166726E+03 -0.13410006191E+04  0.15289619988E+04  0.25500000920E-02 0.  1.
</event>
<event>
 5   0  0.4992668E-07  0.2702639E+04  0.7818609E-02  0.8334149E-01
        2   -1    0    0  501    0  0.00000000000E+00  0.00000000000E+00  0.14059947029E+04  0.14059947029E+04  0.25500000920E-02 0.  1.
       -2   -1    0    0    0  501  0.00000000000E+00  0.00000000000E+00 -0.12987703505E+04  0.12987703505E+04  0.25500000920E-02 0. -1.
    10030    2    1    2    0    0  0.00000000000E+00  0.00000000000E+00  0.10722435242E+03  0.27047650535E+04  0.27026388831E+04 0.  0.
        1    1    3    3  502    0  0.59132530394E+02 -0.13284374330E+04 -0.18703814280E+03  0.13428424838E+04  0.50400001928E-02 0. -1.
       -1    1    3    3    0  502 -0.59132530394E+02  0.13284374330E+04  0.29426249522E+03  0.13619225696E+04  0.50400001928E-02 0.  1.
</event>
<event>
 5   0  0.1964242E-07  0.2701151E+04  0.7818609E-02  0.8334631E-01
        1   -1    0    0  501    0  0.00000000000E+00  0.00000000000E+00  0.25652566768E+04  0.25652566768E+04  0.50400001928E-02 0. -1.
       -1   -1    0    0    0  501  0.00000000000E+00  0.00000000000E+00 -0.71106129642E+03  0.71106129644E+03  0.50400001928E-02 0.  1.
    10030    2    1    2    0    0  0.00000000000E+00  0.00000000000E+00  0.18541953804E+04  0.32763179733E+04  0.27011514125E+04 0.  0.
        2    1    3    3  502    0  0.10058348361E+04 -0.10129316905E+03  0.20133953889E+04  0.22529369756E+04  0.25500000920E-02 0. -1.
       -2    1    3    3    0  502 -0.10058348361E+04  0.10129316905E+03 -0.15920000854E+03  0.10233809977E+04  0.25500000920E-02 0.  1.
</event>
<event>
 5   0  0.4983208E-07  0.2697203E+04  0.7818609E-02  0.8335913E-01
       -2   -1    0    0    0  501  0.00000000000E+00  0.00000000000E+00  0.13331337695E+04  0.13331337695E+04  0.25500000920E-02 0. -1.
        2   -1    0    0  501    0  0.00000000000E+00  0.00000000000E+00 -0.13642488048E+04  0.13642488049E+04  0.25500000920E-02 0.  1.
    10030    2    1    2    0    0  0.00000000000E+00  0.00000000000E+00 -0.31115035366E+02  0.26973825743E+04  0.26972031082E+04 0.  0.
        4    1    3    3  502    0 -0.95144868481E+03  0.95560556982E+03  0.14122277364E+01  0.13484955366E+04  0.12699999809E+01 0. -1.
       -4    1    3    3    0  502  0.95144868481E+03 -0.95560556982E+03 -0.32527263102E+02  0.13488870378E+04  0.12699999809E+01 0.  1.
</event>
<event>
 5   0  0.4843887E-07  0.2700407E+04  0.7818609E-02  0.8334873E-01
        2   -1    0    0  501    0  0.00000000000E+00  0.00000000000E+00  0.21175487835E+04  0.21175487835E+04  0.25500000920E-02 0.  1.
       -2   -1    0    0    0  501  0.00000000000E+00  0.00000000000E+00 -0.86092471257E+03  0.86092471257E+03  0.25500000920E-02 0. -1.
    10030    2    1    2    0    0  0.00000000000E+00  0.00000000000E+00  0.12566240709E+04  0.29784734960E+04  0.27004074343E+04 0.  0.
        5    1    3    3  502    0  0.12782549859E+04 -0.66343809815E+02  0.15430265916E+03  0.12892512209E+04  0.46999998093E+01 0.  1.
       -5    1    3    3    0  502 -0.12782549859E+04  0.66343809815E+02  0.11023214117E+04  0.16892222751E+04  0.46999998093E+01 0. -1.
</event>
<event>
 5   0  0.1971600E-07  0.2699626E+04  0.7818609E-02  0.8335126E-01
       -1   -1    0    0    0  501  0.00000000000E+00  0.00000000000E+00  0.15784116676E+04  0.15784116676E+04  0.50400001928E-02 0.  1.
        1   -1    0    0  501    0  0.00000000000E+00  0.00000000000E+00 -0.11543216113E+04  0.11543216113E+04  0.50400001928E-02 0. -1.
    10030    2    1    2    0    0  0.00000000000E+00  0.00000000000E+00  0.42409005633E+03  0.27327332789E+04  0.26996256773E+04 0.  0.
        5    1    3    3  502    0 -0.87585130645E+02 -0.41999256188E+03 -0.10834579269E+04  0.11653188733E+04  0.46999998093E+01 0. -1.
       -5    1    3    3    0  502  0.87585130645E+02  0.41999256188E+03  0.15075479832E+04  0.15674144056E+04  0.46999998093E+01 0.  1.
</event>
<event>
 5   0  0.4843887E-07  0.2699891E+04  0.7818609E-02  0.8335040E-01
       -2   -1    0    0    0  501  0.00000000000E+00  0.00000000000E+00  0.12169629539E+04  0.12169629539E+04  0.25500000920E-02 0. -1.
        2   -1    0    0  501    0  0.00000000000E+00  0.00000000000E+00 -0.14974592751E+04  0.14974592751E+04  0.25500000920E-02 0.  1.
    10030    2    1    2    0    0  0.00000000000E+00  0.00000000000E+00 -0.28049632127E+03  0.27144222290E+04  0.26998907109E+04 0.  0.
        5    1    3    3  502    0  0.64490740936E+02 -0.62890123864E+03 -0.13394186904E+04  0.14811280640E+04  0.46999998093E+01 0.  1.
       -5    1    3    3    0  502 -0.64490740936E+02  0.62890123864E+03  0.10589223691E+04  0.12332941650E+04  0.46999998093E+01 0. -1.
</event>
<event>
 5   0  0.1971600E-07  0.2699359E+04  0.7818609E-02  0.8335213E-01
        1   -1    0    0  501    0  0.00000000000E+00  0.00000000000E+00  0.18505080797E+04  0.18505080797E+04  0.50400001928E-02 0.  1.
       -1   -1    0    0    0  501  0.00000000000E+00  0.00000000000E+00 -0.98439710634E+03  0.98439710635E+03  0.50400001928E-02 0. -1.
    10030    2    1    2    0    0  0.00000000000E+00  0.00000000000E+00  0.86611097341E+03  0.28349051861E+04  0.26993590343E+04 0.  0.
        5    1    3    3  502    0 -0.23356830258E+03  0.61518052226E+03  0.16706211799E+04  0.17955496216E+04  0.46999998093E+01 0.  1.
       -5    1    3    3    0  502  0.23356830258E+03 -0.61518052226E+03 -0.80451020653E+03  0.10393555645E+04  0.46999998093E+01 0. -1.
</event>
<event>
 5   0  0.4843887E-07  0.2699900E+04  0.7818609E-02  0.8335038E-01
       -2   -1    0    0    0  501  0.00000000000E+00  0.00000000000E+00  0.93916903848E+03  0.93916903848E+03  0.25500000920E-02 0.  1.
        2   -1    0    0  501    0  0.00000000000E+00  0.00000000000E+00 -0.19404009657E+04  0.19404009657E+04  0.25500000920E-02 0. -1.
    10030    2    1    2    0    0  0.00000000000E+00  0.00000000000E+00 -0.10012319272E+04  0.28795700041E+04  0.26998996346E+04 0.  0.
        5    1    3    3  502    0  0.90214443415E+03  0.19598228765E+03  0.54984830668E+03  0.10745365920E+04  0.46999998093E+01 0.  1.
       -5    1    3    3    0  502 -0.90214443415E+03 -0.19598228765E+03 -0.15510802339E+04  0.18050334122E+04  0.46999998093E+01 0. -1.
</event>
<event>
 5   0  0.4735120E-07  0.2700191E+04  0.7818609E-02  0.8334943E-01
       -2   -1    0    0    0  501  0.00000000000E+00  0.00000000000E+00  0.17286646706E+04  0.17286646706E+04  0.25500000920E-02 0.  1.
        2   -1    0    0  501    0  0.00000000000E+00  0.00000000000E+00 -0.10544311932E+04  0.10544311932E+04  0.25500000920E-02 0. -1.
    10030    2    1    2    0    0  0.00000000000E+00  0.00000000000E+00  0.67423347745E+03  0.27830958638E+04  0.27001910682E+04 0.  0.
        2    1    3    3  502    0 -0.15073977384E+03  0.54544256340E+03 -0.92629509216E+03  0.10854734760E+04  0.25500000920E-02 0. -1.
       -2    1    3    3    0  502  0.15073977384E+03 -0.54544256340E+03  0.16005285696E+04  0.16976223878E+04  0.25500000920E-02 0.  1.
</event>
<event>
 5   0  0.1888149E-07  0.2698912E+04  0.7818609E-02  0.8335358E-01
        1   -1    0    0  501    0  0.00000000000E+00  0.00000000000E+00  0.65553415815E+03  0.65553415817E+03  0.50400001928E-02 0. -1.
       -1   -1    0    0    0  501  0.00000000000E+00  0.00000000000E+00 -0.27779343155E+04  0.27779343155E+04  0.50400001928E-02 0.  1.
    10030    2    1    2    0    0  0.00000000000E+00  0.00000000000E+00 -0.21224001574E+04  0.34334684737E+04  0.26989115087E+04 0.  0.
        1    1    3    3  502    0  0.67148191106E+03 -0.97140593171E+03 -0.18920273715E+04  0.22303105200E+04  0.50400001928E-02 0.  1.
       -1    1    3    3    0  502 -0.67148191106E+03  0.97140593171E+03 -0.23037278585E+03  0.12031579537E+04  0.50400001928E-02 0. -1.
</event>
<event>
 5   0  0.1937896E-07  0.2699338E+04  0.7818609E-02  0.8335220E-01
        1   -1    0    0  501    0  0.00000000000E+00  0.00000000000E+00  0.20237221490E+04  0.20237221490E+04  0.50400001928E-02 0. -1.
       -1   -1    0    0    0  501  0.00000000000E+00  0.00000000000E+00 -0.90012669796E+03  0.90012669797E+03  0.50400001928E-02 0.  1.
    10030    2    1    2    0    0  0.00000000000E+00  0.00000000000E+00  0.11235954511E+04  0.29238488470E+04  0.26993379452E+04 0.  0.
        3    1    3    3  502    0 -0.36249939500E+02 -0.10241596317E+04  0.15131348995E+04  0.18275103949E+04  0.10100000352E+00 0. -1.
       -3    1    3    3    0  502  0.36249939500E+02  0.10241596317E+04 -0.38953944841E+03  0.10963384521E+04  0.10100000352E+00 0.  1.
</event>
<event>
 5   0  0.4983208E-07  0.2700583E+04  0.7818609E-02  0.8334816E-01
        2   -1    0    0  501    0  0.00000000000E+00  0.00000000000E+00  0.20660117132E+04  0.20660117132E+04  0.25500000920E-02 0.  1.
       -2   -1    0    0    0  501  0.00000000000E+00  0.00000000000E+00 -0.88251511935E+03  0.88251511935E+03  0.25500000920E-02 0. -1.
    10030    2    1    2    0    0  0.00000000000E+00  0.00000000000E+00  0.11834965938E+04  0.29485268325E+04  0.27005825843E+04 0.  0.
        4    1    3    3  502    0  0.45021132303E+03  0.45609723919E+03  0.18893834920E+04  0.19951156658E+04  0.12699999809E+01 0.  1.
       -4    1    3    3    0  502 -0.45021132303E+03 -0.45609723919E+03 -0.70588689819E+03  0.95341116676E+03  0.12699999809E+01 0. -1.
</event>
<event>
 5   0  0.4983208E-07  0.2700369E+04  0.7818609E-02  0.8334885E-01
        2   -1    0    0  501    0  0.00000000000E+00  0.00000000000E+00  0.14915090264E+04  0.14915090264E+04  0.25500000920E-02 0. -1.
       -2   -1    0    0    0  501  0.00000000000E+00  0.00000000000E+00 -0.12222512141E+04  0.12222512141E+04  0.25500000920E-02 0.  1.
    10030    2    1    2    0    0  0.00000000000E+00  0.00000000000E+00  0.26925781223E+03  0.27137602405E+04  0.27003693957E+04 0.  0.
        4    1    3    3  502    0 -0.10812641417E+04  0.77751246609E+03 -0.88597160266E+02  0.13347317516E+04  0.12699999809E+01 0.  1.
       -4    1    3    3    0  502  0.10812641417E+04 -0.77751246609E+03  0.35785497250E+03  0.13790284889E+04  0.12699999809E+01 0. -1.
</event>
<event>
 5   0  0.4992668E-07  0.2699184E+04  0.7818609E-02  0.8335270E-01
       -2   -1    0    0    0  501  0.00000000000E+00  0.00000000000E+00  0.12095142734E+04  0.12095142734E+04  0.25500000920E-02 0.  1.
        2   -1    0    0  501    0  0.00000000000E+00  0.00000000000E+00 -0.15058921891E+04  0.15058921891E+04  0.25500000920E-02 0. -1.
    10030    2    1    2    0    0  0.00000000000E+00  0.00000000000E+00 -0.29637791569E+03  0.27154064625E+04  0.26991836521E+04 0.  0.
        1    1    3    3  502    0  0.85448244571E+02  0.10352786988E+04  0.71855454571E+03  0.12631009547E+04  0.50400001928E-02 0.  1.
       -1    1    3    3    0  502 -0.85448244571E+02 -0.10352786988E+04 -0.10149324614E+04  0.14523055078E+04  0.50400001928E-02 0. -1.
</event>
<event>
 5   0  0.4843887E-07  0.2705385E+04  0.7818609E-02  0.8333260E-01
        2   -1    0    0  501    0  0.00000000000E+00  0.00000000000E+00  0.14728267432E+04  0.14728267432E+04  0.25500000920E-02 0. -1.
       -2   -1    0    0    0  501  0.00000000000E+00  0.00000000000E+00 -0.12423573603E+04  0.12423573603E+04  0.25500000920E-02 0.  1.
    10030    2    1    2    0    0  0.00000000000E+00  0.00000000000E+00  0.23046938296E+03  0.27151841035E+04  0.27053851074E+04 0.  0.
        5    1    3    3  502    0 -0.19801729445E+03 -0.12621123322E+04 -0.33091641291E+03  0.13197219974E+04  0.46999998093E+01 0.  1.
       -5    1    3    3    0  502  0.19801729445E+03  0.12621123322E+04  0.56138579587E+03  0.13954621062E+04  0.46999998093E+01 0. -1.
</event>
<event>
 5   0  0.1937896E-07  0.2695211E+04  0.7818609E-02  0.8336561E-01
        1   -1    0    0  501    0  0.00000000000E+00  0.00000000000E+00  0.18118944339E+04  0.18118944340E+04  0.50400001928E-02 0.  1.
       -1   -1    0    0    0  501  0.00000000000E+00  0.00000000000E+00 -0.10022880107E+04  0.10022880107E+04  0.50400001928E-02 0. -1.
    10030    2    1    2    0    0  0.00000000000E+00  0.00000000000E+00  0.80960642328E+03  0.28141824446E+04  0.26952106172E+04 0.  0.
        3    1    3    3  502    0  0.28173240564E+03  0.12889211309E+03 -0.96459749517E+03  0.10131311184E+04  0.10100000352E+00 0. -1.
       -3    1    3    3    0  502 -0.28173240564E+03 -0.12889211309E+03  0.17742039185E+04  0.18010513262E+04  0.10100000352E+00 0.  1.
</event>
<event>
 5   0  0.1888149E-07  0.2696848E+04  0.7818609E-02  0.8336028E-01
        1   -1    0    0  501    0  0.00000000000E+00  0.00000000000E+00  0.18190150700E+04  0.18190150700E+04  0.50400001928E-02 0. -1.
       -1   -1    0    0    0  501  0.00000000000E+00  0.00000000000E+00 -0.99957808814E+03  0.99957808816E+03  0.50400001928E-02 0.  1.
    10030    2    1    2    0    0  0.00000000000E+00  0.00000000000E+00  0.81943698181E+03  0.28185931581E+04  0.26968482389E+04 0.  0.
        1    1    3    3  502    0  0.88851091389E+03 -0.95789199943E+03  0.75829987328E+03  0.15106380852E+04  0.50400001928E-02 0.  1.
       -1    1    3    3    0  502 -0.88851091389E+03  0.95789199943E+03  0.61137108530E+02  0.13079550729E+04  0.50400001928E-02 0. -1.
</event>
<event>
 5   0  0.4735120E-07  0.2699426E+04  0.7818609E-02  0.8335191E-01
        2   -1    0    0  501    0  0.00000000000E+00  0.00000000000E+00  0.13609339170E+04  0.13609339170E+04  0.25500000920E-02 0.  1.
       -2   -1    0    0    0  501  0.00000000000E+00  0.00000000000E+00 -0.13385842794E+04  0.13385842794E+04  0.25500000920E-02 0. -1.
    10030    2    1    2    0    0  0.00000000000E+00  0.00000000000E+00  0.22349637575E+02  0.26995181964E+04  0.26994256772E+04 0.  0.
        2    1    3    3  502    0  0.12537754930E+03 -0.12767570891E+04  0.43058942225E+03  0.13532314824E+04  0.25500000920E-02 0.  1.
       -2    1    3    3    0  502 -0.12537754930E+03  0.12767570891E+04 -0.40823978468E+03  0.13462867140E+04  0.25500000920E-02 0. -1.
</event>
<event>
 5   0  0.1971600E-07  0.2694124E+04  0.7818609E-02  0.8336914E-01
        1   -1    0    0  501    0  0.00000000000E+00  0.00000000000E+00  0.13762981785E+04  0.13762981785E+04  0.50400001928E-02 0. -1.
       -1   -1    0    0    0  501  0.00000000000E+00  0.00000000000E+00 -0.13184472048E+04  0.13184472048E+04  0.50400001928E-02 0.  1.
    10030    2    1    2    0    0  0.00000000000E+00  0.00000000000E+00  0.57850973701E+02  0.26947453832E+04  0.26941243374E+04 0.  0.
        5    1    3    3  502    0 -0.58405630043E+03  0.12961883144E+03  0.12361136377E+04  0.13732886874E+04  0.46999998093E+01 0. -1.
       -5    1    3    3    0  502  0.58405630043E+03 -0.12961883144E+03 -0.11782626640E+04  0.13214566958E+04  0.46999998093E+01 0.  1.
</event>
<event>
 5   0  0.1937896E-07  0.2700476E+04  0.7818609E-02  0.8334851E-01
        1   -1    0    0  501    0  0.00000000000E+00  0.00000000000E+00  0.21666371430E+04  0.21666371430E+04  0.50400001928E-02 0. -1.
       -1   -1    0    0    0  501  0.00000000000E+00  0.00000000000E+00 -0.84146185107E+03  0.84146185109E+03  0.50400001928E-02 0.  1.
    10030    2    1    2    0    0  0.00000000000E+00  0.00000000000E+00  0.13251752920E+04  0.30080989941E+04  0.27004758847E+04 0.  0.
        3    1    3    3  502    0  0.83610912504E+03 -0.66879970991E+03  0.15789614838E+04  0.19077449773E+04  0.10100000352E+00 0. -1.
       -3    1    3    3    0  502 -0.83610912504E+03  0.66879970991E+03 -0.25378619183E+03  0.11003540168E+04  0.10100000352E+00 0.  1.
</event>
<event>
 5   0  0.1964242E-07  0.2699122E+04  0.7818609E-02  0.8335290E-01
       -1   -1    0    0    0  501  0.00000000000E+00  0.00000000000E+00  0.20399389373E+04  0.20399389373E+04  0.50400001928E-02 0.  1.
        1   -1    0    0  501    0  0.00000000000E+00  0.00000000000E+00 -0.89282825771E+03  0.89282825773E+03  0.50400001928E-02 0. -1.
    10030    2    1    2    0    0  0.00000000000E+00  0.00000000000E+00  0.11471106796E+04  0.29327671950E+04  0.26991221738E+04 0.  0.
        2    1    3    3  502    0 -0.91949966816E+03 -0.97926954981E+03  0.43244160480E+03  0.14111889429E+04  0.25500000920E-02 0.  1.
       -2    1    3    3    0  502  0.91949966816E+03  0.97926954981E+03  0.71466907475E+03  0.15215782521E+04  0.25500000920E-02 0. -1.
</event>
<event>
 5   0  0.4735120E-07  0.2699100E+04  0.7818609E-02  0.8335297E-01
       -2   -1    0    0    0  501  0.00000000000E+00  0.00000000000E+00  0.16411810971E+04  0.16411810971E+04  0.25500000920E-02 0. -1.
        2   -1    0    0  501    0  0.00000000000E+00  0.00000000000E+00 -0.11097409177E+04  0.11097409177E+04  0.25500000920E-02 0.  1.
    10030    2    1    2    0    0  0.00000000000E+00  0.00000000000E+00  0.53144017932E+03  0.27509220148E+04  0.26991004552E+04 0.  0.
        2    1    3    3  502    0  0.75282077518E+03 -0.10212475295E+04  0.73455209059E+03  0.14660328816E+04  0.25500000920E-02 0. -1.
       -2    1    3    3    0  502 -0.75282077518E+03  0.10212475295E+04 -0.20311191127E+03  0.12848891332E+04  0.25500000920E-02 0.  1.
</event>
<event>
 5   0  0.5043890E-07  0.2699682E+04  0.7818609E-02  0.8335108E-01
        2   -1    0    0  501    0  0.00000000000E+00  0.00000000000E+00  0.16909855197E+04  0.16909855197E+04  0.25500000920E-02 0.  1.
       -2   -1    0    0    0  501  0.00000000000E+00  0.00000000000E+00 -0.10775201680E+04  0.10775201680E+04  0.25500000920E-02 0. -1.
    10030    2    1    2    0    0  0.00000000000E+00  0.00000000000E+00  0.61346535175E+03  0.27685056877E+04  0.26996822044E+04 0.  0.
        3    1    3    3  502    0  0.19810112780E+03 -0.11340068357E+04 -0.41611667752E+03  0.12240786983E+04  0.10100000352E+00 0.  1.
       -3    1    3    3    0  502 -0.19810112780E+03  0.11340068357E+04  0.10295820293E+04  0.15444269893E+04  0.10100000352E+00 0. -1.
</event>
<event>
 5   0  0.1971600E-07  0.2699749E+04  0.7818609E-02  0.8335086E-01
       -1   -1    0    0    0  501  0.00000000000E+00  0.00000000000E+00  0.86478673294E+03  0.86478673295E+03  0.50400001928E-02 0.  1.
        1   -1    0    0  501    0  0.00000000000E+00  0.00000000000E+00 -0.21070648194E+04  0.21070648194E+04  0.50400001928E-02 0. -1.
    10030    2    1    2    0    0  0.00000000000E+00  0.00000000000E+00 -0.12422780865E+04  0.29718515524E+04  0.26997493968E+04 0.  0.
        5    1    3    3  502    0 -0.21273136519E+03 -0.10107334599E+04 -0.15778135942E+04  0.18858299469E+04  0.46999998093E+01 0. -1.
       -5    1    3    3    0  502  0.21273136519E+03  0.10107334599E+04  0.33553550766E+03  0.10860216055E+04  0.46999998093E+01 0.  1.
</event>
<event>
 5   0  0.1888149E-07  0.2700974E+04  0.7818609E-02  0.8334689E-01
        1   -1    0    0  501    0  0.00000000000E+00  0.00000000000E+00  0.13008098327E+04  0.13008098327E+04  0.50400001928E-02 0.  1.
       -1   -1    0    0    0  501  0.00000000000E+00  0.00000000000E+00 -0.14020609943E+04  0.14020609943E+04  0.50400001928E-02 0. -1.
    10030    2    1    2    0    0  0.00000000000E+00  0.00000000000E+00 -0.10125116164E+03  0.27028708270E+04  0.27009736966E+04 0.  0.
        1    1    3    3  502    0  0.65911708635E+03 -0.11728902985E+04 -0.16778788136E+03  0.13558243835E+04  0.50400001928E-02 0. -1.
       -1    1    3    3    0  502 -0.65911708635E+03  0.11728902985E+04  0.66536719721E+02  0.13470464435E+04  0.50400001928E-02 0.  1.
</event>
<event>
 5   0  0.1971600E-07  0.2700166E+04  0.7818609E-02  0.8334951E-01
        1   -1    0    0  501    0  0.00000000000E+00  0.00000000000E+00  0.11193805822E+04  0.11193805822E+04  0.50400001928E-02 0.  1.
       -1   -1    0    0    0  501  0.00000000000E+00  0.00000000000E+00 -0.16283325935E+04  0.16283325935E+04  0.50400001928E-02 0. -1.
    10030    2    1    2    0    0  0.00000000000E+00  0.00000000000E+00 -0.50895201128E+03  0.27477131758E+04  0.27001658369E+04 0.  0.
        5    1    3    3  502    0 -0.10127176922E+04  0.52159148863E+03  0.48288479375E+03  0.12372770987E+04  0.46999998093E+01 0.  1.
       -5    1    3    3    0  502  0.10127176922E+04 -0.52159148863E+03 -0.99183680503E+03  0.15104360770E+04  0.46999998093E+01 0. -1.
</event>
<event>
 5   0  0.4843887E-07  0.2700259E+04  0.7818609E-02  0.8334921E-01
       -2   -1    0    0    0  501  0.00000000000E+00  0.00000000000E+00  0.15078682049E+04  0.15078682049E+04  0.25500000920E-02 0. -1.
        2   -1    0    0  501    0  0.00000000000E+00  0.00000000000E+00 -0.12088918593E+04  0.12088918593E+04  0.25500000920E-02 0.  1.
    10030    2    1    2    0    0  0.00000000000E+00  0.00000000000E+00  0.29897634559E+03  0.27167600641E+04  0.27002589488E+04 0.  0.
        5    1    3    3  502    0 -0.11271843715E+04  0.41717115432E+03  0.76826777168E+03  0.14264760210E+04  0.46999998093E+01 0. -1.
       -5    1    3    3    0  502  0.11271843715E+04 -0.41717115432E+03 -0.46929142608E+03  0.12902840431E+04  0.46999998093E+01 0.  1.
</event>
<event>
 5   0  0.4735120E-07  0.2696974E+04  0.7818609E-02  0.8335987E-01
        2   -1    0    0  501    0  0.00000000000E+00  0.00000000000E+00  0.90848749251E+03  0.90848749251E+03  0.25500000920E-02 0.  1.
       -2   -1    0    0    0  501  0.00000000000E+00  0.00000000000E+00 -0.20015874703E+04  0.20015874703E+04  0.25500000920E-02 0. -1.
    10030    2    1    2    0    0  0.00000000000E+00  0.00000000000E+00 -0.10930999778E+04  0.29100749628E+04  0.26969739946E+04 0.  0.
        2    1    3    3  502    0  0.85667840934E+03  0.19698786452E+03  0.55685285815E+03  0.10405706230E+04  0.25500000920E-02 0.  1.
       -2    1    3    3    0  502 -0.85667840934E+03 -0.19698786452E+03 -0.16499528359E+04  0.18695043398E+04  0.25500000920E-02 0. -1.
</event>
<event>
 5   0  0.4735120E-07  0.2699665E+04  0.7818609E-02  0.8335114E-01
        2   -1    0    0  501    0  0.00000000000E+00  0.00000000000E+00  0.19169133734E+04  0.19169133734E+04  0.25500000920E-02 0. -1.
       -2   -1    0    0    0  501  0.00000000000E+00  0.00000000000E+00 -0.95051110610E+03  0.95051110611E+03  0.25500000920E-02 0.  1.
    10030    2    1    2    0    0  0.00000000000E+00  0.00000000000E+00  0.96640226725E+03  0.28674244795E+04  0.26996647576E+04 0.  0.
        2    1    3    3  502    0 -0.70780462284E+03 -0.11493659768E+04  0.48769715874E+03  0.14352275260E+04  0.25500000920E-02 0.  1.
       -2    1    3    3    0  502  0.70780462284E+03  0.11493659768E+04  0.47870510851E+03  0.14321969535E+04  0.25500000920E-02 0. -1.
</event>
<event>
 5   0  0.4843887E-07  0.2700059E+04  0.7818609E-02  0.8334986E-01
       -2   -1    0    0    0  501  0.00000000000E+00  0.00000000000E+00  0.11497375468E+04  0.11497375468E+04  0.25500000920E-02 0.  1.
        2   -1    0    0  501    0  0.00000000000E+00  0.00000000000E+00 -0.15852138546E+04  0.15852138546E+04  0.25500000920E-02 0. -1.
    10030    2    1    2    0    0  0.00000000000E+00  0.00000000000E+00 -0.43547630772E+03  0.27349514014E+04  0.27000591759E+04 0.  0.
        5    1    3    3  502    0  0.65296751758E+03  0.35873337498E+03 -0.13581207655E+04  0.15490546526E+04  0.46999998093E+01 0. -1.
       -5    1    3    3    0  502 -0.65296751758E+03 -0.35873337498E+03  0.92264445773E+03  0.11858967488E+04  0.46999998093E+01 0.  1.
</event>
<event>
 5   0  0.4992668E-07  0.2699698E+04  0.7818609E-02  0.8335103E-01
       -2   -1    0    0    0  501  0.00000000000E+00  0.00000000000E+00  0.76134466552E+03  0.76134466552E+03  0.25500000920E-02 0.  1.
        2   -1    0    0  501    0  0.00000000000E+00  0.00000000000E+00 -0.23932563341E+04  0.23932563341E+04  0.25500000920E-02 0. -1.
    10030    2    1    2    0    0  0.00000000000E+00  0.00000000000E+00 -0.16319116686E+04  0.31546009996E+04  0.26996984596E+04 0.  0.
        1    1    3    3  502    0  0.78705852874E+03  0.10557796921E+04 -0.46939905567E+03  0.13980226606E+04  0.50400001928E-02 0.  1.
       -1    1    3    3    0  502 -0.78705852874E+03 -0.10557796921E+04 -0.11625126129E+04  0.17565783391E+04  0.50400001928E-02 0. -1.
</event>
<event>
 5   0  0.4735120E-07  0.2699829E+04  0.7818609E-02  0.8335061E-01
       -2   -1    0    0    0  501  0.00000000000E+00  0.00000000000E+00  0.13161562385E+04  0.13161562385E+04  0.25500000920E-02 0.  1.
        2   -1    0    0  501    0  0.00000000000E+00  0.00000000000E+00 -0.13845381743E+04  0.13845381743E+04  0.25500000920E-02 0. -1.
    10030    2    1    2    0    0  0.00000000000E+00  0.00000000000E+00 -0.68381935833E+02  0.27006944128E+04  0.26998285543E+04 0.  0.
        2    1    3    3  502    0  0.11480622651E+04 -0.29304238034E+03 -0.68119648026E+03  0.13667294706E+04  0.25500000920E-02 0. -1.
       -2    1    3    3    0  502 -0.11480622651E+04  0.29304238034E+03  0.61281454443E+03  0.13339649422E+04  0.25500000920E-02 0.  1.
</event>
<event>
 5   0  0.4992668E-07  0.2701158E+04  0.7818609E-02  0.8334629E-01
       -2   -1    0    0    0  501  0.00000000000E+00  0.00000000000E+00  0.10253404393E+04  0.10253404393E+04  0.25500000920E-02 0.  1.
        2   -1    0    0  501    0  0.00000000000E+00  0.00000000000E+00 -0.17789839440E+04  0.17789839440E+04  0.25500000920E-02 0. -1.
    10030    2    1    2    0    0  0.00000000000E+00  0.00000000000E+00 -0.75364350470E+03  0.28043243833E+04  0.27011584024E+04 0.  0.
        1    1    3    3  502    0  0.19798180220E+03  0.13358860689E+04 -0.39406312330E+03  0.14067956953E+04  0.50400001928E-02 0.  1.
       -1    1    3    3    0  502 -0.19798180220E+03 -0.13358860689E+04 -0.35958038140E+03  0.13975286880E+04  0.50400001928E-02 0. -1.
</event>
<event>
 5   0  0.1965415E-07  0.2699897E+04  0.7818609E-02  0.8335038E-01
        1   -1    0    0  501    0  0.00000000000E+00  0.00000000000E+00  0.12938580922E+04  0.12938580922E+04  0.50400001928E-02 0. -1.
       -1   -1    0    0    0  501  0.00000000000E+00  0.00000000000E+00 -0.14084705199E+04  0.14084705199E+04  0.50400001928E-02 0.  1.
    10030    2    1    2    0    0  0.00000000000E+00  0.00000000000E+00 -0.11461242773E+03  0.27023286121E+04  0.26998970201E+04 0.  0.
        4    1    3    3  502    0  0.61110438945E+02 -0.12089971697E+04  0.54068540084E+03  0.13258020054E+04  0.12699999809E+01 0.  1.
       -4    1    3    3    0  502 -0.61110438945E+02  0.12089971697E+04 -0.65529782856E+03  0.13765266067E+04  0.12699999809E+01 0. -1.
</event>
<event>
 5   0  0.1888149E-07  0.2700486E+04  0.7818609E-02  0.8334847E-01
       -1   -1    0    0    0  501  0.00000000000E+00  0.00000000000E+00  0.96998025480E+03  0.96998025481E+03  0.50400001928E-02 0. -1.
        1   -1    0    0  501    0  0.00000000000E+00  0.00000000000E+00 -0.18795807622E+04  0.18795807622E+04  0.50400001928E-02 0.  1.
    10030    2    1    2    0    0  0.00000000000E+00  0.00000000000E+00 -0.90960050736E+03  0.28495610170E+04  0.27004860500E+04 0.  0.
        1    1    3    3  502    0 -0.45547338029E+03 -0.11817173485E+04 -0.94888359646E+03  0.15824954887E+04  0.50400001928E-02 0.  1.
       -1    1    3    3    0  502  0.45547338029E+03  0.11817173485E+04  0.39283089095E+02  0.12670655283E+04  0.50400001928E-02 0. -1.
</event>
<event>
 5   0  0.1965415E-07  0.2690668E+04  0.7818609E-02  0.8338039E-01
       -1   -1    0    0    0  501  0.00000000000E+00  0.00000000000E+00  0.11533246917E+04  0.11533246917E+04  0.50400001928E-02 0.  1.
        1   -1    0    0  501    0  0.00000000000E+00  0.00000000000E+00 -0.15693095531E+04  0.15693095531E+04  0.50400001928E-02 0. -1.
    10030    2    1    2    0    0  0.00000000000E+00  0.00000000000E+00 -0.41598486145E+03  0.27226342448E+04  0.26906679144E+04 0.  0.
        4    1    3    3  502    0  0.24935766148E+03  0.37800930722E+03  0.10738854027E+04  0.11654620332E+04  0.12699999809E+01 0.  1.
       -4    1    3    3    0  502 -0.24935766148E+03 -0.37800930722E+03 -0.14898702642E+04  0.15571722116E+04  0.12699999809E+01 0. -1.
</event>
<event>
 5   0  0.4983208E-07  0.2693421E+04  0.7818609E-02  0.8337143E-01
       -2   -1    0    0    0  501  0.00000000000E+00  0.00000000000E+00  0.81448022876E+03  0.81448022876E+03  0.25500000920E-02 0. -1.
        2   -1    0    0  501    0  0.00000000000E+00  0.00000000000E+00 -0.22267326843E+04  0.22267326843E+04  0.25500000920E-02 0.  1.
    10030    2    1    2    0    0  0.00000000000E+00  0.00000000000E+00 -0.14122524555E+04  0.30412129131E+04  0.26934214272E+04 0.  0.
        4    1    3    3  502    0  0.79967852378E+03 -0.29128846887E+03 -0.18845865238E+04  0.20678497750E+04  0.12699999809E+01 0.  1.
       -4    1    3    3    0  502 -0.79967852378E+03  0.29128846887E+03  0.47233406828E+03  0.97336313801E+03  0.12699999809E+01 0. -1.
</event>
<event>
 5   0  0.1971600E-07  0.2699398E+04  0.7818609E-02  0.8335200E-01
       -1   -1    0    0    0  501  0.00000000000E+00  0.00000000000E+00  0.97433291915E+03  0.97433291917E+03  0.50400001928E-02 0. -1.
        1   -1    0    0  501    0  0.00000000000E+00  0.00000000000E+00 -0.18696765477E+04  0.18696765477E+04  0.50400001928E-02 0.  1.
    10030    2    1    2    0    0  0.00000000000E+00  0.00000000000E+00 -0.89534362852E+03  0.28440094668E+04  0.26993980133E+04 0.  0.
        5    1    3    3  502    0 -0.11993436117E+04 -0.44498060522E+03  0.57711683471E+01  0.12792529986E+04  0.46999998093E+01 0. -1.
       -5    1    3    3    0  502  0.11993436117E+04  0.44498060522E+03 -0.90111479686E+03  0.15647564683E+04  0.46999998093E+01 0.  1.
</event>
<event>
 5   0  0.1964242E-07  0.2699769E+04  0.7818609E-02  0.8335080E-01
        1   -1    0    0  501    0  0.00000000000E+00  0.00000000000E+00  0.61745700588E+03  0.61745700590E+03  0.50400001928E-02 0.  1.
       -1   -1    0    0    0  501  0.00000000000E+00  0.00000000000E+00 -0.29511183350E+04  0.29511183350E+04  0.50400001928E-02 0. -1.
    10030    2    1    2    0    0  0.00000000000E+00  0.00000000000E+00 -0.23336613291E+04  0.35685753409E+04  0.26997693910E+04 0.  0.
        2    1    3    3  502    0 -0.98388824511E+03 -0.62176654695E+03 -0.26300139959E+03  0.11932306793E+04  0.25500000920E-02 0.  1.
       -2    1    3    3    0  502  0.98388824511E+03  0.62176654695E+03 -0.20706599295E+04  0.23753446616E+04  0.25500000920E-02 0. -1.
</event>
<event>
 5   0  0.1965415E-07  0.2700395E+04  0.7818609E-02  0.8334877E-01
        1   -1    0    0  501    0  0.00000000000E+00  0.00000000000E+00  0.18980775633E+04  0.18980775634E+04  0.50400001928E-02 0.  1.
       -1   -1    0    0    0  501  0.00000000000E+00  0.00000000000E+00 -0.96046290966E+03  0.96046290967E+03  0.50400001928E-02 0. -1.
    10030    2    1    2    0    0  0.00000000000E+00  0.00000000000E+00  0.93761465369E+03  0.28585404730E+04  0.27003948595E+04 0.  0.
        4    1    3    3  502    0  0.84263469852E+03  0.10546692057E+04  0.49623042160E+03  0.14382651399E+04  0.12699999809E+01 0. -1.
       -4    1    3    3    0  502 -0.84263469852E+03 -0.10546692057E+04  0.44138423209E+03  0.14202753331E+04  0.12699999809E+01 0.  1.
</event>
<event>
 5   0  0.1888149E-07  0.2696463E+04  0.7818609E-02  0.8336153E-01
       -1   -1    0    0    0  501  0.00000000000E+00  0.00000000000E+00  0.64208513843E+03  0.64208513845E+03  0.50400001928E-02 0.  1.
        1   -1    0    0  501    0  0.00000000000E+00  0.00000000000E+00 -0.28309779058E+04  0.28309779058E+04  0.50400001928E-02 0. -1.
    10030    2    1    2    0    0  0.00000000000E+00  0.00000000000E+00 -0.21888927674E+04  0.34730630443E+04  0.26964634918E+04 0.  0.
        1    1    3    3  502    0  0.61549938511E+03 -0.28522023402E+02 -0.26390214418E+04  0.27099976327E+04  0.50400001928E-02 0. -1.
       -1    1    3    3    0  502 -0.61549938511E+03  0.28522023402E+02  0.45012867437E+03  0.76306541162E+03  0.50400001928E-02 0.  1.
</event>
<event>
 5   0  0.5043890E-07  0.2699904E+04  0.7818609E-02  0.8335036E-01
       -2   -1    0    0    0  501  0.00000000000E+00  0.00000000000E+00  0.99206785563E+03  0.99206785564E+03  0.25500000920E-02 0.  1.
        2   -1    0    0  501    0  0.00000000000E+00  0.00000000000E+00 -0.18369406909E+04  0.18369406909E+04  0.25500000920E-02 0. -1.
    10030    2    1    2    0    0  0.00000000000E+00  0.00000000000E+00 -0.84487283527E+03  0.28290085465E+04  0.26999035628E+04 0.  0.
        3    1    3    3  502    0 -0.14924492083E+03 -0.78950563606E+03 -0.15591028130E+04  0.17539654465E+04  0.10100000352E+00 0. -1.
       -3    1    3    3    0  502  0.14924492083E+03  0.78950563606E+03  0.71422997771E+03  0.10750431001E+04  0.10100000352E+00 0.  1.
</event>
<event>
 5   0  0.1964242E-07  0.2700235E+04  0.7818609E-02  0.8334929E-01
        1   -1    0    0  501    0  0.00000000000E+00  0.00000000000E+00  0.15315179568E+04  0.15315179568E+04  0.50400001928E-02 0.  1.
       -1   -1    0    0    0  501  0.00000000000E+00  0.00000000000E+00 -0.11902026359E+04  0.11902026359E+04  0.50400001928E-02 0. -1.
    10030    2    1    2    0    0  0.00000000000E+00  0.00000000000E+00  0.34131532083E+03  0.27217205927E+04  0.27002345892E+04 0.  0.
        2    1    3    3  502    0 -0.59868751955E+03 -0.24170143376E+03  0.13658288861E+04  0.15107398437E+04  0.25500000920E-02 0.  1.
       -2    1    3    3    0  502  0.59868751955E+03  0.24170143376E+03 -0.10245135653E+04  0.12109807490E+04  0.25500000920E-02 0. -1.
</event>
<event>
 5   0  0.5043890E-07  0.2699681E+04  0.7818609E-02  0.8335108E-01
        2   -1    0    0  501    0  0.00000000000E+00  0.00000000000E+00  0.15027121967E+04  0.15027121967E+04  0.25500000920E-02 0. -1.
       -2   -1    0    0    0  501  0.00000000000E+00  0.00000000000E+00 -0.12125208306E+04  0.12125208306E+04  0.25500000920E-02 0.  1.
    10030    2    1    2    0    0  0.00000000000E+00  0.00000000000E+00  0.29019136611E+03  0.27152330273E+04  0.26996813448E+04 0.  0.
        3    1    3    3  502    0 -0.21313508580E+03 -0.45431241168E+03 -0.11152164118E+04  0.12229202703E+04  0.10100000352E+00 0.  1.
       -3    1    3    3    0  502  0.21313508580E+03  0.45431241168E+03  0.14054077779E+04  0.14923127570E+04  0.10100000352E+00 0. -1.
</event>
<event>
 5   0  0.1971600E-07  0.2712075E+04  0.7818609E-02  0.8331098E-01
       -1   -1    0    0    0  501  0.00000000000E+00  0.00000000000E+00  0.12050229929E+04  0.12050229929E+04  0.50400001928E-02 0.  1.
        1   -1    0    0  501    0  0.00000000000E+00  0.00000000000E+00 -0.15259776266E+04  0.15259776266E+04  0.50400001928E-02 0. -1.
    10030    2    1    2    0    0  0.00000000000E+00  0.00000000000E+00 -0.32095463375E+03  0.27310006195E+04  0.27120753136E+04 0.  0.
        5    1    3    3  502    0 -0.48799108120E+03  0.11145089819E+04 -0.76344661787E+03  0.14363629049E+04  0.46999998093E+01 0. -1.
       -5    1    3    3    0  502  0.48799108120E+03 -0.11145089819E+04  0.44249198413E+03  0.12946377146E+04  0.46999998093E+01 0.  1.
</event>
<event>
 5   0  0.5043890E-07  0.2701084E+04  0.7818609E-02  0.8334653E-01
        2   -1    0    0  501    0  0.00000000000E+00  0.00000000000E+00  0.12947193807E+04  0.12947193807E+04  0.25500000920E-02 0. -1.
       -2   -1    0    0    0  501  0.00000000000E+00  0.00000000000E+00 -0.14087716004E+04  0.14087716004E+04  0.25500000920E-02 0.  1.
    10030    2    1    2    0    0  0.00000000000E+00  0.00000000000E+00 -0.11405221970E+03  0.27034909812E+04  0.27010841483E+04 0.  0.
        3    1    3    3  502    0 -0.24911547617E+03 -0.63405207621E+03  0.11101533485E+04  0.13025056711E+04  0.10100000352E+00 0. -1.
       -3    1    3    3    0  502  0.24911547617E+03  0.63405207621E+03 -0.12242055682E+04  0.14009853101E+04  0.10100000352E+00 0.  1.
</event>
<event>
 5   0  0.1937896E-07  0.2699912E+04  0.7818609E-02  0.8335033E-01
        1   -1    0    0  501    0  0.00000000000E+00  0.00000000000E+00  0.11911994646E+04  0.11911994646E+04  0.50400001928E-02 0. -1.
       -1   -1    0    0    0  501  0.00000000000E+00  0.00000000000E+00 -0.15298711912E+04  0.15298711912E+04  0.50400001928E-02 0.  1.
    10030    2    1    2    0    0  0.00000000000E+00  0.00000000000E+00 -0.33867172657E+03  0.27210706558E+04  0.26999124014E+04 0.  0.
        3    1    3    3  502    0  0.72341414467E+03 -0.73378394993E+03 -0.10483027977E+04  0.14699339018E+04  0.10100000352E+00 0.  1.
       -3    1    3    3    0  502 -0.72341414467E+03  0.73378394993E+03  0.70963107110E+03  0.12511367540E+04  0.10100000352E+00 0. -1.
</event>
<event>
 5   0  0.1971600E-07  0.2700826E+04  0.7818609E-02  0.8334737E-01
       -1   -1    0    0    0  501  0.00000000000E+00  0.00000000000E+00  0.11068749200E+04  0.11068749200E+04  0.50400001928E-02 0. -1.
        1   -1    0    0  501    0  0.00000000000E+00  0.00000000000E+00 -0.16475352485E+04  0.16475352485E+04  0.50400001928E-02 0.  1.
    10030    2    1    2    0    0  0.00000000000E+00  0.00000000000E+00 -0.54066032845E+03  0.27544101685E+04  0.27008261302E+04 0.  0.
        5    1    3    3  502    0 -0.58320410770E+03  0.14842167777E+03 -0.15032137899E+04  0.16192065384E+04  0.46999998093E+01 0.  1.
       -5    1    3    3    0  502  0.58320410770E+03 -0.14842167777E+03  0.96255346147E+03  0.11352036301E+04  0.46999998093E+01 0. -1.
</event>
<event>
 5   0  0.4843887E-07  0.2697037E+04  0.7818609E-02  0.8335967E-01
       -2   -1    0    0    0  501  0.00000000000E+00  0.00000000000E+00  0.13274936615E+04  0.13274936615E+04  0.25500000920E-02 0.  1.
        2   -1    0    0  501    0  0.00000000000E+00  0.00000000000E+00 -0.13698763071E+04  0.13698763071E+04  0.25500000920E-02 0. -1.
    10030    2    1    2    0    0  0.00000000000E+00  0.00000000000E+00 -0.42382645574E+02  0.26973699686E+04  0.26970369777E+04 0.  0.
        5    1    3    3  502    0 -0.71101062259E+03 -0.26442922413E+03  0.10938548933E+04  0.13311647297E+04  0.46999998093E+01 0.  1.
       -5    1    3    3    0  502  0.71101062259E+03  0.26442922413E+03 -0.11362375389E+04  0.13662052389E+04  0.46999998093E+01 0. -1.
</event>
<event>
 5   0  0.1937896E-07  0.2699320E+04  0.7818609E-02  0.8335226E-01
       -1   -1    0    0    0  501  0.00000000000E+00  0.00000000000E+00  0.99939998407E+03  0.99939998408E+03  0.50400001928E-02 0. -1.
        1   -1    0    0  501    0  0.00000000000E+00  0.00000000000E+00 -0.18226753361E+04  0.18226753361E+04  0.50400001928E-02 0.  1.
    10030    2    1    2    0    0  0.00000000000E+00  0.00000000000E+00 -0.82327535201E+03  0.28220753202E+04  0.26993196935E+04 0.  0.
        3    1    3    3  502    0 -0.88121996740E+03  0.76742095916E+03  0.29442527644E+03  0.12050600869E+04  0.10100000352E+00 0. -1.
       -3    1    3    3    0  502  0.88121996740E+03 -0.76742095916E+03 -0.11177006284E+04  0.16170152332E+04  0.10100000352E+00 0.  1.
</event>
<event>
 5   0  0.1964242E-07  0.2700903E+04  0.7818609E-02  0.8334712E-01
       -1   -1    0    0    0  501  0.00000000000E+00  0.00000000000E+00  0.11193989961E+04  0.11193989961E+04  0.50400001928E-02 0. -1.
        1   -1    0    0  501    0  0.00000000000E+00  0.00000000000E+00 -0.16291950037E+04  0.16291950037E+04  0.50400001928E-02 0.  1.
    10030    2    1    2    0    0  0.00000000000E+00  0.00000000000E+00 -0.50979600754E+03  0.27485939998E+04  0.27009029983E+04 0.  0.
        2    1    3    3  502    0 -0.70499190604E+03  0.32539305719E+03 -0.13793173730E+04  0.15828489014E+04  0.25500000920E-02 0.  1.
       -2    1    3    3    0  502  0.70499190604E+03 -0.32539305719E+03  0.86952136549E+03  0.11657450983E+04  0.25500000920E-02 0. -1.
</event>
<event>
 5   0  0.4735120E-07  0.2699007E+04  0.7818609E-02  0.8335327E-01
        2   -1    0    0  501    0  0.00000000000E+00  0.00000000000E+00  0.17640323591E+04  0.17640323591E+04  0.25500000920E-02 0. -1.
       -2   -1    0    0    0  501  0.00000000000E+00  0.00000000000E+00 -0.10323846400E+04  0.10323846400E+04  0.25500000920E-02 0.  1.
    10030    2    1    2    0    0  0.00000000000E+00  0.00000000000E+00  0.73164771903E+03  0.27964169991E+04  0.26990071597E+04 0.  0.
        2    1    3    3  502    0  0.13473266980E+04  0.24871836156E+02  0.29073711823E+03  0.13785629878E+04  0.25500000920E-02 0.  1.
       -2    1    3    3    0  502 -0.13473266980E+04 -0.24871836156E+02  0.44091060080E+03  0.14178540113E+04  0.25500000920E-02 0. -1.
</event>
<event>
 5   0  0.4735120E-07  0.2700930E+04  0.7818609E-02  0.8334703E-01
        2   -1    0    0  501    0  0.00000000000E+00  0.00000000000E+00  0.21395346530E+04  0.21395346530E+04  0.25500000920E-02 0.  1.
       -2   -1    0    0    0  501  0.00000000000E+00  0.00000000000E+00 -0.85240743863E+03  0.85240743864E+03  0.25500000920E-02 0. -1.
    10030    2    1    2    0    0  0.00000000000E+00  0.00000000000E+00  0.12871272144E+04  0.29919420916E+04  0.27009296573E+04 0.  0.
        2    1    3    3  502    0  0.13288306570E+04  0.70861017538E+02  0.89844868315E+03  0.16056220711E+04  0.25500000920E-02 0. -1.
       -2    1    3    3    0  502 -0.13288306570E+04 -0.70861017538E+02  0.38867853121E+03  0.13863200206E+04  0.25500000920E-02 0.  1.
</event>
<event>
 5   0  0.4983208E-07  0.2703457E+04  0.7818609E-02  0.8333884E-01
       -2   -1    0    0    0  501  0.00000000000E+00  0.00000000000E+00  0.19781568157E+04  0.19781568157E+04  0.25500000920E-02 0.  1.
        2   -1    0    0  501    0  0.00000000000E+00  0.00000000000E+00 -0.92367307829E+03  0.92367307830E+03  0.25500000920E-02 0. -1.
    10030    2    1    2    0    0  0.00000000000E+00  0.00000000000E+00  0.10544837374E+04  0.29018298940E+04  0.27034571905E+04 0.  0.
        4    1    3    3  502    0  0.35984889174E+03 -0.10836491526E+04  0.13037782212E+04  0.17330972199E+04  0.12699999809E+01 0.  1.
       -4    1    3    3    0  502 -0.35984889174E+03  0.10836491526E+04 -0.24929448382E+03  0.11687326740E+04  0.12699999809E+01 0. -1.
</event>
<event>
 5   0  0.4992668E-07  0.2701546E+04  0.7818609E-02  0.8334504E-01
       -2   -1    0    0    0  501  0.00000000000E+00  0.00000000000E+00  0.14857164057E+04  0.14857164057E+04  0.25500000920E-02 0. -1.
        2   -1    0    0  501    0  0.00000000000E+00  0.00000000000E+00 -0.12280859222E+04  0.12280859222E+04  0.25500000920E-02 0.  1.
    10030    2    1    2    0    0  0.00000000000E+00  0.00000000000E+00  0.25763048350E+03  0.27138023280E+04  0.27015457815E+04 0.  0.
        1    1    3    3  502    0 -0.86464539180E+03  0.70331145181E+02 -0.91127064275E+03  0.12581622741E+04  0.50400001928E-02 0.  1.
       -1    1    3    3    0  502  0.86464539180E+03 -0.70331145181E+02  0.11689011262E+04  0.14556400539E+04  0.50400001928E-02 0. -1.
</event>
<event>
 5   0  0.1964242E-07  0.2699096E+04  0.7818609E-02  0.8335298E-01
        1   -1    0    0  501    0  0.00000000000E+00  0.00000000000E+00  0.10930912244E+04  0.10930912244E+04  0.50400001928E-02 0. -1.
       -1   -1    0    0    0  501  0.00000000000E+00  0.00000000000E+00 -0.16661735118E+04  0.16661735118E+04  0.50400001928E-02 0.  1.
    10030    2    1    2    0    0  0.00000000000E+00  0.00000000000E+00 -0.57308228736E+03  0.27592647362E+04  0.26990958812E+04 0.  0.
        2    1    3    3  502    0  0.19254821531E+03  0.89987644712E+03  0.72259499511E+03  0.11700410088E+04  0.25500000920E-02 0. -1.
       -2    1    3    3    0  502 -0.19254821531E+03 -0.89987644712E+03 -0.12956772825E+04  0.15892237274E+04  0.25500000920E-02 0.  1.
</event>
<event>
 5   0  0.4735120E-07  0.2702837E+04  0.7818609E-02  0.8334085E-01
       -2   -1    0    0    0  501  0.00000000000E+00  0.00000000000E+00  0.85981459329E+03  0.85981459329E+03  0.25500000920E-02 0.  1.
        2   -1    0    0  501    0  0.00000000000E+00  0.00000000000E+00 -0.21240992623E+04  0.21240992624E+04  0.25500000920E-02 0. -1.
    10030    2    1    2    0    0  0.00000000000E+00  0.00000000000E+00 -0.12642846691E+04  0.29839138556E+04  0.27028366901E+04 0.  0.
        2    1    3    3  502    0 -0.10553849739E+04  0.84213067401E+03 -0.56862645477E+03  0.14650452417E+04  0.25500000920E-02 0. -1.
       -2    1    3    3    0  502  0.10553849739E+04 -0.84213067401E+03 -0.69565821429E+03  0.15188686139E+04  0.25500000920E-02 0.  1.
</event>
<event>
 5   0  0.5043890E-07  0.2700701E+04  0.7818609E-02  0.8334778E-01
       -2   -1    0    0    0  501  0.00000000000E+00  0.00000000000E+00  0.73260782126E+03  0.73260782126E+03  0.25500000920E-02 0.  1.
        2   -1    0    0  501    0  0.00000000000E+00  0.00000000000E+00 -0.24889803291E+04  0.24889803291E+04  0.25500000920E-02 0. -1.
    10030    2    1    2    0    0  0.00000000000E+00  0.00000000000E+00 -0.17563725078E+04  0.32215881504E+04  0.27007009876E+04 0.  0.
        3    1    3    3  502    0  0.89061113535E+03 -0.90677011699E+03 -0.14222534490E+04  0.19074132019E+04  0.10100000352E+00 0. -1.
       -3    1    3    3    0  502 -0.89061113535E+03  0.90677011699E+03 -0.33411905888E+03  0.13141749485E+04  0.10100000352E+00 0.  1.
</event>
<event>
 5   0  0.1937896E-07  0.2700291E+04  0.7818609E-02  0.8334911E-01
        1   -1    0    0  501    0  0.00000000000E+00  0.00000000000E+00  0.13768161329E+04  0.13768161330E+04  0.50400001928E-02 0. -1.
       -1   -1    0    0    0  501  0.00000000000E+00  0.00000000000E+00 -0.13239916426E+04  0.13239916426E+04  0.50400001928E-02 0.  1.
    10030    2    1    2    0    0  0.00000000000E+00  0.00000000000E+00  0.52824490367E+02  0.27008077755E+04  0.27002911350E+04 0.  0.
        3    1    3    3  502    0 -0.50887217323E+03  0.57147932094E+02 -0.12230970692E+04  0.13259650168E+04  0.10100000352E+00 0.  1.
       -3    1    3    3    0  502  0.50887217323E+03 -0.57147932094E+02  0.12759215596E+04  0.13748427587E+04  0.10100000352E+00 0. -1.
</event>
<event>
 5   0  0.4843887E-07  0.2700760E+04  0.7818609E-02  0.8334758E-01
        2   -1    0    0  501    0  0.00000000000E+00  0.00000000000E+00  0.97176944891E+03  0.97176944891E+03  0.25500000920E-02 0. -1.
       -2   -1    0    0    0  501  0.00000000000E+00  0.00000000000E+00 -0.18765014640E+04  0.18765014640E+04  0.25500000920E-02 0.  1.
    10030    2    1    2    0    0  0.00000000000E+00  0.00000000000E+00 -0.90473201505E+03  0.28482709129E+04  0.27007604807E+04 0.  0.
        5    1    3    3  502    0 -0.13488453379E+04  0.55928031942E+02 -0.48559925026E+03  0.14346917482E+04  0.46999998093E+01 0. -1.
       -5    1    3    3    0  502  0.13488453379E+04 -0.55928031942E+02 -0.41913276479E+03  0.14135791647E+04  0.46999998093E+01 0.  1.
</event>
<event>
 5   0  0.1965415E-07  0.2702586E+04  0.7818609E-02  0.8334166E-01
        1   -1    0    0  501    0  0.00000000000E+00  0.00000000000E+00  0.17371400716E+04  0.17371400716E+04  0.50400001928E-02 0. -1.
       -1   -1    0    0    0  501  0.00000000000E+00  0.00000000000E+00 -0.10511490024E+04  0.10511490024E+04  0.50400001928E-02 0.  1.
    10030    2    1    2    0    0  0.00000000000E+00  0.00000000000E+00  0.68599106924E+03  0.27882890740E+04  0.27025862083E+04 0.  0.
        4    1    3    3  502    0 -0.21308078563E+03  0.67075029687E+03  0.15331282441E+04  0.16869478971E+04  0.12699999809E+01 0. -1.
       -4    1    3    3    0  502  0.21308078563E+03 -0.67075029687E+03 -0.84713717485E+03  0.11013411769E+04  0.12699999809E+01 0.  1.
</event>
<event>
 5   0  0.4992668E-07  0.2699830E+04  0.7818609E-02  0.8335060E-01
        2   -1    0    0  501    0  0.00000000000E+00  0.00000000000E+00  0.16075291537E+04  0.16075291537E+04  0.25500000920E-02 0.  1.
       -2   -1    0    0    0  501  0.00000000000E+00  0.00000000000E+00 -0.11335843856E+04  0.11335843857E+04  0.25500000920E-02 0. -1.
    10030    2    1    2    0    0  0.00000000000E+00  0.00000000000E+00  0.47394476807E+03  0.27411135394E+04  0.26998295858E+04 0.  0.
        1    1    3    3  502    0 -0.85132987469E+03  0.45549724170E+03  0.11948122556E+04  0.15361694629E+04  0.50400001928E-02 0. -1.
       -1    1    3    3    0  502  0.85132987469E+03 -0.45549724170E+03 -0.72086748752E+03  0.12049440764E+04  0.50400001928E-02 0.  1.
</event>
<event>
 5   0  0.4735120E-07  0.2681047E+04  0.7818609E-02  0.8341181E-01
        2   -1    0    0  501    0  0.00000000000E+00  0.00000000000E+00  0.21011892905E+04  0.21011892905E+04  0.25500000920E-02 0.  1.
       -2   -1    0    0    0  501  0.00000000000E+00  0.00000000000E+00 -0.85523123473E+03  0.85523123473E+03  0.25500000920E-02 0. -1.
    10030    2    1    2    0    0  0.00000000000E+00  0.00000000000E+00  0.12459580558E+04  0.29564205252E+04  0.26810465951E+04 0.  0.
        2    1    3    3  502    0 -0.25338179531E+03  0.27730352104E+03 -0.79601089407E+03  0.88018913902E+03  0.25500000920E-02 0. -1.
       -2    1    3    3    0  502  0.25338179531E+03 -0.27730352104E+03  0.20419689498E+04  0.20762313862E+04  0.25500000920E-02 0.  1.
</event>
<event>
 5   0  0.1971600E-07  0.2698798E+04  0.7818609E-02  0.8335395E-01
       -1   -1    0    0    0  501  0.00000000000E+00  0.00000000000E+00  0.14877613135E+04  0.14877613135E+04  0.50400001928E-02 0. -1.
        1   -1    0    0  501    0  0.00000000000E+00  0.00000000000E+00 -0.12239048094E+04  0.12239048094E+04  0.50400001928E-02 0.  1.
    10030    2    1    2    0    0  0.00000000000E+00  0.00000000000E+00  0.26385650406E+03  0.27116661229E+04  0.26987984191E+04 0.  0.
        5    1    3    3  502    0  0.14962682879E+03 -0.85280932862E+03  0.11718432626E+04  0.14570211601E+04  0.46999998093E+01 0. -1.
       -5    1    3    3    0  502 -0.14962682879E+03  0.85280932862E+03 -0.90798675854E+03  0.12546449628E+04  0.46999998093E+01 0.  1.
</event>
<event>
 5   0  0.4983208E-07  0.2701067E+04  0.7818609E-02  0.8334659E-01
       -2   -1    0    0    0  501  0.00000000000E+00  0.00000000000E+00  0.10110339654E+04  0.10110339654E+04  0.25500000920E-02 0. -1.
        2   -1    0    0  501    0  0.00000000000E+00  0.00000000000E+00 -0.18040349604E+04  0.18040349604E+04  0.25500000920E-02 0.  1.
    10030    2    1    2    0    0  0.00000000000E+00  0.00000000000E+00 -0.79300099505E+03  0.28150689258E+04  0.27010669149E+04 0.  0.
        4    1    3    3  502    0  0.67447257932E+03  0.20860566147E+02 -0.16157440377E+04  0.17509936698E+04  0.12699999809E+01 0.  1.
       -4    1    3    3    0  502 -0.67447257932E+03 -0.20860566147E+02  0.82274304261E+03  0.10640752560E+04  0.12699999809E+01 0. -1.
</event>
<event>
 5   0  0.4843887E-07  0.2702217E+04  0.7818609E-02  0.8334286E-01
        2   -1    0    0  501    0  0.00000000000E+00  0.00000000000E+00  0.14383108415E+04  0.14383108415E+04  0.25500000920E-02 0.  1.
       -2   -1    0    0    0  501  0.00000000000E+00  0.00000000000E+00 -0.12691930999E+04  0.12691930999E+04  0.25500000920E-02 0. -1.
    10030    2    1    2    0    0  0.00000000000E+00  0.00000000000E+00  0.16911774162E+03  0.27075039414E+04  0.27022170124E+04 0.  0.
        5    1    3    3  502    0 -0.22189542613E+03  0.13205338676E+04 -0.95862395654E+02  0.13424823889E+04  0.46999998093E+01 0. -1.
       -5    1    3    3    0  502  0.22189542613E+03 -0.13205338676E+04  0.26498013728E+03  0.13650215525E+04  0.46999998093E+01 0.  1.
</event>
<event>
 5   0  0.1965415E-07  0.2697949E+04  0.7818609E-02  0.8335671E-01
        1   -1    0    0  501    0  0.00000000000E+00  0.00000000000E+00  0.18642352959E+04  0.18642352959E+04  0.50400001928E-02 0.  1.
       -1   -1    0    0    0  501  0.00000000000E+00  0.00000000000E+00 -0.97612768602E+03  0.97612768604E+03  0.50400001928E-02 0. -1.
    10030    2    1    2    0    0  0.00000000000E+00  0.00000000000E+00  0.88810760987E+03  0.28403629819E+04  0.26979486175E+04 0.  0.
        4    1    3    3  502    0  0.10433289490E+04 -0.76911761791E+03  0.50625956938E+02  0.12971668383E+04  0.12699999809E+01 0. -1.
       -4    1    3    3    0  502 -0.10433289490E+04  0.76911761791E+03  0.83748165294E+03  0.15431961437E+04  0.12699999809E+01 0.  1.
</event>
<event>
 5   0  0.5043890E-07  0.2700130E+04  0.7818609E-02  0.8334963E-01
       -2   -1    0    0    0  501  0.00000000000E+00  0.00000000000E+00  0.14349377082E+04  0.14349377082E+04  0.25500000920E-02 0. -1.
        2   -1    0    0  501    0  0.00000000000E+00  0.00000000000E+00 -0.12702125736E+04  0.12702125736E+04  0.25500000920E-02 0.  1.
    10030    2    1    2    0    0  0.00000000000E+00  0.00000000000E+00  0.16472513455E+03  0.27051502818E+04  0.27001303075E+04 0.  0.
        3    1    3    3  502    0 -0.98753543277E+03 -0.27008826482E+03  0.96405669267E+03  0.14062642777E+04  0.10100000352E+00 0. -1.
       -3    1    3    3    0  502  0.98753543277E+03  0.27008826482E+03 -0.79933155812E+03  0.12988860042E+04  0.10100000352E+00 0.  1.
</event>
<event>
 5   0  0.1641625E-07  0.2699084E+04  0.7818609E-02  0.8335302E-01
        3   -1    0    0  501    0  0.00000000000E+00  0.00000000000E+00  0.15003500456E+04  0.15003500490E+04  0.10100000352E+00 0.  1.
       -3   -1    0    0    0  501  0.00000000000E+00  0.00000000000E+00 -0.12138921728E+04  0.12138921770E+04  0.10100000352E+00 0. -1.
    10030    2    1    2    0    0  0.00000000000E+00  0.00000000000E+00  0.28645787280E+03  0.27142422260E+04  0.26990836868E+04 0.  0.
        4    1    3    3  502    0 -0.80757125498E+03 -0.10708756943E+04  0.29345160134E+03  0.13729754331E+04  0.12699999809E+01 0.  1.
       -4    1    3    3    0  502  0.80757125498E+03  0.10708756943E+04 -0.69937285445E+01  0.13412667929E+04  0.12699999809E+01 0. -1.
</event>
<event>
 5   0  0.1937896E-07  0.2700579E+04  0.7818609E-02  0.8334817E-01
        1   -1    0    0  501    0  0.00000000000E+00  0.00000000000E+00  0.15961530344E+04  0.15961530344E+04  0.50400001928E-02 0.  1.
       -1   -1    0    0    0  501  0.00000000000E+00  0.00000000000E+00 -0.11422979903E+04  0.11422979903E+04  0.50400001928E-02 0. -1.
    10030    2    1    2    0    0  0.00000000000E+00  0.00000000000E+00  0.45385504410E+03  0.27384510247E+04  0.27005794959E+04 0.  0.
        3    1    3    3  502    0 -0.48220237924E+03  0.11557483676E+04  0.73899328600E+03  0.14540923322E+04  0.10100000352E+00 0.  1.
       -3    1    3    3    0  502  0.48220237924E+03 -0.11557483676E+04 -0.28513824190E+03  0.12843586925E+04  0.10100000352E+00 0. -1.
</event>
<event>
 5   0  0.1937896E-07  0.2700362E+04  0.7818609E-02  0.8334887E-01
        1   -1    0    0  501    0  0.00000000000E+00  0.00000000000E+00  0.14232148346E+04  0.14232148346E+04  0.50400001928E-02 0. -1.
       -1   -1    0    0    0  501  0.00000000000E+00  0.00000000000E+00 -0.12808953495E+04  0.12808953495E+04  0.50400001928E-02 0.  1.
    10030    2    1    2    0    0  0.00000000000E+00  0.00000000000E+00  0.14231948504E+03  0.27041101841E+04  0.27003623927E+04 0.  0.
        3    1    3    3  502    0  0.86309744663E+03 -0.10346071971E+04 -0.16368650776E+02  0.13474484026E+04  0.10100000352E+00 0.  1.
       -3    1    3    3    0  502 -0.86309744663E+03  0.10346071971E+04  0.15868813582E+03  0.13566617815E+04  0.10100000352E+00 0. -1.
</event>
<event>
 5   0  0.1888149E-07  0.2699227E+04  0.7818609E-02  0.8335256E-01
        1   -1    0    0  501    0  0.00000000000E+00  0.00000000000E+00  0.12665889205E+04  0.12665889205E+04  0.50400001928E-02 0.  1.
       -1   -1    0    0    0  501  0.00000000000E+00  0.00000000000E+00 -0.14380800963E+04  0.14380800964E+04  0.50400001928E-02 0. -1.
    10030    2    1    2    0    0  0.00000000000E+00  0.00000000000E+00 -0.17149117583E+03  0.27046690169E+04  0.26992267907E+04 0.  0.
        1    1    3    3  502    0 -0.18431096132E+03  0.12656120373E+04  0.34606638905E+03  0.13249552087E+04  0.50400001928E-02 0.  1.
       -1    1    3    3    0  502  0.18431096132E+03 -0.12656120373E+04 -0.51755756488E+03  0.13797138082E+04  0.50400001928E-02 0. -1.
</event>
<event>
 5   0  0.5043890E-07  0.2697203E+04  0.7818609E-02  0.8335913E-01
       -2   -1    0    0    0  501  0.00000000000E+00  0.00000000000E+00  0.11352752181E+04  0.11352752181E+04  0.25500000920E-02 0. -1.
        2   -1    0    0  501    0  0.00000000000E+00  0.00000000000E+00 -0.16020134985E+04  0.16020134985E+04  0.25500000920E-02 0.  1.
    10030    2    1    2    0    0  0.00000000000E+00  0.00000000000E+00 -0.46673828047E+03  0.27372887166E+04  0.26972031617E+04 0.  0.
        3    1    3    3  502    0  0.44560137052E+03 -0.38391545619E+03  0.99824618201E+03  0.11586401983E+04  0.10100000352E+00 0. -1.
       -3    1    3    3    0  502 -0.44560137052E+03  0.38391545619E+03 -0.14649844625E+04  0.15786485183E+04  0.10100000352E+00 0.  1.
</event>
<event>
 5   0  0.5043890E-07  0.2700559E+04  0.7818609E-02  0.8334824E-01
       -2   -1    0    0    0  501  0.00000000000E+00  0.00000000000E+00  0.79392178199E+03  0.79392178199E+03  0.25500000920E-02 0.  1.
        2   -1    0    0  501    0  0.00000000000E+00  0.00000000000E+00 -0.22965164182E+04  0.22965164182E+04  0.25500000920E-02 0. -1.
    10030    2    1    2    0    0  0.00000000000E+00  0.00000000000E+00 -0.15025946362E+04  0.30904382002E+04  0.27005587622E+04 0.  0.
        3    1    3    3  502    0 -0.11921108868E+04  0.63413367845E+03 -0.75048146833E+03  0.15448224277E+04  0.10100000352E+00 0. -1.
       -3    1    3    3    0  502  0.11921108868E+04 -0.63413367845E+03 -0.75211316785E+03  0.15456157725E+04  0.10100000352E+00 0.  1.
</event>
<event>
 5   0  0.4843887E-07  0.2696411E+04  0.7818609E-02  0.8336170E-01
       -2   -1    0    0    0  501  0.00000000000E+00  0.00000000000E+00  0.13824102755E+04  0.13824102755E+04  0.25500000920E-02 0. -1.
        2   -1    0    0  501    0  0.00000000000E+00  0.00000000000E+00 -0.13148475170E+04  0.13148475170E+04  0.25500000920E-02 0.  1.
    10030    2    1    2    0    0  0.00000000000E+00  0.00000000000E+00  0.67562758494E+02  0.26972577925E+04  0.26964114806E+04 0.  0.
        5    1    3    3  502    0 -0.82127951827E+03 -0.36265452168E+03 -0.97232666854E+03  0.13234272136E+04  0.46999998093E+01 0.  1.
       -5    1    3    3    0  502  0.82127951827E+03  0.36265452168E+03  0.10398894270E+04  0.13738305790E+04  0.46999998093E+01 0. -1.
</event>
<event>
 5   0  0.1965415E-07  0.2701391E+04  0.7818609E-02  0.8334554E-01
        1   -1    0    0  501    0  0.00000000000E+00  0.00000000000E+00  0.16186194542E+04  0.16186194542E+04  0.50400001928E-02 0.  1.
       -1   -1    0    0    0  501  0.00000000000E+00  0.00000000000E+00 -0.11271198310E+04  0.11271198310E+04  0.50400001928E-02 0. -1.
    10030    2    1    2    0    0  0.00000000000E+00  0.00000000000E+00  0.49149962326E+03  0.27457392852E+04  0.27013908163E+04 0.  0.
        4    1    3    3  502    0  0.70205198630E+03  0.11538995372E+04  0.24176895916E+03  0.13721570522E+04  0.12699999809E+01 0.  1.
       -4    1    3    3    0  502 -0.70205198630E+03 -0.11538995372E+04  0.24973066410E+03  0.13735822330E+04  0.12699999809E+01 0. -1.
</event>
<event>
 5   0  0.1888149E-07  0.2697781E+04  0.7818609E-02  0.8335725E-01
        1   -1    0    0  501    0  0.00000000000E+00  0.00000000000E+00  0.16332643619E+04  0.16332643619E+04  0.50400001928E-02 0.  1.
       -1   -1    0    0    0  501  0.00000000000E+00  0.00000000000E+00 -0.11140299895E+04  0.11140299895E+04  0.50400001928E-02 0. -1.
    10030    2    1    2    0    0  0.00000000000E+00  0.00000000000E+00  0.51923437241E+03  0.27472943515E+04  0.26977809252E+04 0.  0.
        1    1    3    3  502    0 -0.80028508313E+02 -0.59289173017E+03  0.14907640300E+04  0.16063320202E+04  0.50400001928E-02 0.  1.
       -1    1    3    3    0  502  0.80028508313E+02  0.59289173017E+03 -0.97152965760E+03  0.11409623313E+04  0.50400001928E-02 0. -1.
</event>
<event>
 5   0  0.4735120E-07  0.2701869E+04  0.7818609E-02  0.8334399E-01
        2   -1    0    0  501    0  0.00000000000E+00  0.00000000000E+00  0.14827939967E+04  0.14827939967E+04  0.25500000920E-02 0.  1.
       -2   -1    0    0    0  501  0.00000000000E+00  0.00000000000E+00 -0.12308010327E+04  0.12308010327E+04  0.25500000920E-02 0. -1.
    10030    2    1    2    0    0  0.00000000000E+00  0.00000000000E+00  0.25199296397E+03  0.27135950294E+04  0.27018692659E+04 0.  0.
        2    1    3    3  502    0  0.32149804303E+03  0.89930010714E+03  0.10856129865E+04  0.14459105196E+04  0.25500000920E-02 0.  1.
       -2    1    3    3    0  502 -0.32149804303E+03 -0.89930010714E+03 -0.83362002252E+03  0.12676845098E+04  0.25500000920E-02 0. -1.
</event>
<event>
 5   0  0.5043890E-07  0.2703288E+04  0.7818609E-02  0.8333939E-01
       -2   -1    0    0    0  501  0.00000000000E+00  0.00000000000E+00  0.88613238861E+03  0.88613238861E+03  0.25500000920E-02 0.  1.
        2   -1    0    0  501    0  0.00000000000E+00  0.00000000000E+00 -0.20617032483E+04  0.20617032483E+04  0.25500000920E-02 0. -1.
    10030    2    1    2    0    0  0.00000000000E+00  0.00000000000E+00 -0.11755708596E+04  0.29478356369E+04  0.27032883856E+04 0.  0.
        3    1    3    3  502    0 -0.56548758909E+03  0.35935598127E+03  0.69230330996E+03  0.96342971610E+03  0.10100000352E+00 0.  1.
       -3    1    3    3    0  502  0.56548758909E+03 -0.35935598127E+03 -0.18678741696E+04  0.19844059208E+04  0.10100000352E+00 0. -1.
</event>
<event>
 5   0  0.1888149E-07  0.2703643E+04  0.7818609E-02  0.8333824E-01
       -1   -1    0    0    0  501  0.00000000000E+00  0.00000000000E+00  0.11375466865E+04  0.11375466865E+04  0.50400001928E-02 0. -1.
        1   -1    0    0  501    0  0.00000000000E+00  0.00000000000E+00 -0.16064581397E+04  0.16064581397E+04  0.50400001928E-02 0.  1.
    10030    2    1    2    0    0  0.00000000000E+00  0.00000000000E+00 -0.46891145325E+03  0.27440048262E+04  0.27036428269E+04 0.  0.
        1    1    3    3  502    0  0.13124581660E+04  0.15725803101E+03  0.52868805656E+02  0.13229027312E+04  0.50400001928E-02 0. -1.
       -1    1    3    3    0  502 -0.13124581660E+04 -0.15725803101E+03 -0.52178025890E+03  0.14211020950E+04  0.50400001928E-02 0.  1.
</event>
<event>
 5   0  0.4843887E-07  0.2702598E+04  0.7818609E-02  0.8334162E-01
        2   -1    0    0  501    0  0.00000000000E+00  0.00000000000E+00  0.10575726611E+04  0.10575726611E+04  0.25500000920E-02 0. -1.
       -2   -1    0    0    0  501  0.00000000000E+00  0.00000000000E+00 -0.17266042328E+04  0.17266042328E+04  0.25500000920E-02 0.  1.
    10030    2    1    2    0    0  0.00000000000E+00  0.00000000000E+00 -0.66903157172E+03  0.27841768939E+04  0.27025983299E+04 0.  0.
        5    1    3    3  502    0  0.11512210346E+03  0.63230414220E+03  0.89002988050E+03  0.10978328220E+04  0.46999998093E+01 0. -1.
       -5    1    3    3    0  502 -0.11512210346E+03 -0.63230414220E+03 -0.15590614522E+04  0.16863440719E+04  0.46999998093E+01 0.  1.
</event>
<event>
 5   0  0.1888149E-07  0.2700382E+04  0.7818609E-02  0.8334881E-01
        1   -1    0    0  501    0  0.00000000000E+00  0.00000000000E+00  0.20428208099E+04  0.20428208099E+04  0.50400001928E-02 0.  1.
       -1   -1    0    0    0  501  0.00000000000E+00  0.00000000000E+00 -0.89240097496E+03  0.89240097498E+03  0.50400001928E-02 0. -1.
    10030    2    1    2    0    0  0.00000000000E+00  0.00000000000E+00  0.11504198349E+04  0.29352217849E+04  0.27003816637E+04 0.  0.
        1    1    3    3  502    0 -0.88489685278E+03 -0.52587435853E+03  0.15249397907E+04  0.18398444625E+04  0.50400001928E-02 0. -1.
       -1    1    3    3    0  502  0.88489685278E+03  0.52587435853E+03 -0.37451995577E+03  0.10953773223E+04  0.50400001928E-02 0.  1.
</event>
<event>
 5   0  0.1971600E-07  0.2698749E+04  0.7818609E-02  0.8335411E-01
        1   -1    0    0  501    0  0.00000000000E+00  0.00000000000E+00  0.20110570498E+04  0.20110570498E+04  0.50400001928E-02 0.  1.
       -1   -1    0    0    0  501  0.00000000000E+00  0.00000000000E+00 -0.90540037078E+03  0.90540037079E+03  0.50400001928E-02 0. -1.
    10030    2    1    2    0    0  0.00000000000E+00  0.00000000000E+00  0.11056566790E+04  0.29164574206E+04  0.26987491907E+04 0.  0.
        5    1    3    3  502    0 -0.88051859606E+03 -0.93558779065E+03  0.10705725387E+03  0.12892326623E+04  0.46999998093E+01 0. -1.
       -5    1    3    3    0  502  0.88051859606E+03  0.93558779065E+03  0.99859942516E+03  0.16272247583E+04  0.46999998093E+01 0.  1.
</event>
<event>
 5   0  0.4735120E-07  0.2698018E+04  0.7818609E-02  0.8335648E-01
       -2   -1    0    0    0  501  0.00000000000E+00  0.00000000000E+00  0.16828508869E+04  0.16828508869E+04  0.25500000920E-02 0.  1.
        2   -1    0    0  501    0  0.00000000000E+00  0.00000000000E+00 -0.10813944238E+04  0.10813944238E+04  0.25500000920E-02 0. -1.
    10030    2    1    2    0    0  0.00000000000E+00  0.00000000000E+00  0.60145646318E+03  0.27642453107E+04  0.26980182098E+04 0.  0.
        2    1    3    3  502    0 -0.46806796222E+03 -0.15538383292E+02  0.15968895908E+04  0.16641470559E+04  0.25500000920E-02 0.  1.
       -2    1    3    3    0  502  0.46806796222E+03  0.15538383292E+02 -0.99543312760E+03  0.11000982548E+04  0.25500000920E-02 0. -1.
</event>
<event>
 5   0  0.1888149E-07  0.2698897E+04  0.7818609E-02  0.8335363E-01
        1   -1    0    0  501    0  0.00000000000E+00  0.00000000000E+00  0.13717960633E+04  0.13717960633E+04  0.50400001928E-02 0. -1.
       -1   -1    0    0    0  501  0.00000000000E+00  0.00000000000E+00 -0.13274648165E+04  0.13274648165E+04  0.50400001928E-02 0.  1.
    10030    2    1    2    0    0  0.00000000000E+00  0.00000000000E+00  0.44331246768E+02  0.26992608798E+04  0.26988968187E+04 0.  0.
        1    1    3    3  502    0 -0.64074460678E+03 -0.91372393667E+03 -0.73659732740E+03  0.13371689147E+04  0.50400001928E-02 0. -1.
       -1    1    3    3    0  502  0.64074460678E+03  0.91372393667E+03  0.78092857417E+03  0.13620919652E+04  0.50400001928E-02 0.  1.
</event>
<event>
 5   0  0.1964242E-07  0.2700548E+04  0.7818609E-02  0.8334827E-01
       -1   -1    0    0    0  501  0.00000000000E+00  0.00000000000E+00  0.91895925411E+03  0.91895925412E+03  0.50400001928E-02 0.  1.
        1   -1    0    0  501    0  0.00000000000E+00  0.00000000000E+00 -0.19840268503E+04  0.19840268503E+04  0.50400001928E-02 0. -1.
    10030    2    1    2    0    0  0.00000000000E+00  0.00000000000E+00 -0.10650675962E+04  0.29029861044E+04  0.27005479700E+04 0.  0.
        2    1    3    3  502    0 -0.11839360378E+04 -0.52424718436E+03 -0.94425988834E+03  0.16025499645E+04  0.25500000920E-02 0. -1.
       -2    1    3    3    0  502  0.11839360378E+04  0.52424718436E+03 -0.12080770786E+03  0.13004361400E+04  0.25500000920E-02 0.  1.
</event>
<event>
 5   0  0.4843887E-07  0.2699679E+04  0.7818609E-02  0.8335109E-01
       -2   -1    0    0    0  501  0.00000000000E+00  0.00000000000E+00  0.14524485627E+04  0.14524485627E+04  0.25500000920E-02 0.  1.
        2   -1    0    0  501    0  0.00000000000E+00  0.00000000000E+00 -0.12544792375E+04  0.12544792375E+04  0.25500000920E-02 0. -1.
    10030    2    1    2    0    0  0.00000000000E+00  0.00000000000E+00  0.19796932519E+03  0.27069278002E+04  0.26996789182E+04 0.  0.
        5    1    3    3  502    0  0.51328024843E+03  0.34304450122E+03  0.13025861992E+04  0.14414884806E+04  0.46999998093E+01 0.  1.
       -5    1    3    3    0  502 -0.51328024843E+03 -0.34304450122E+03 -0.11046168740E+04  0.12654393196E+04  0.46999998093E+01 0. -1.
</event>
<event>
 5   0  0.4983208E-07  0.2699678E+04  0.7818609E-02  0.8335109E-01
       -2   -1    0    0    0  501  0.00000000000E+00  0.00000000000E+00  0.18147706326E+04  0.18147706326E+04  0.25500000920E-02 0.  1.
        2   -1    0    0  501    0  0.00000000000E+00  0.00000000000E+00 -0.10040199641E+04  0.10040199641E+04  0.25500000920E-02 0. -1.
    10030    2    1    2    0    0  0.00000000000E+00  0.00000000000E+00  0.81075066856E+03  0.28187905967E+04  0.26996784589E+04 0.  0.
        4    1    3    3  502    0  0.46371200523E+03  0.44815153741E+03 -0.83277579144E+03  0.10532738276E+04  0.12699999809E+01 0. -1.
       -4    1    3    3    0  502 -0.46371200523E+03 -0.44815153741E+03  0.16435264600E+04  0.17655167691E+04  0.12699999809E+01 0.  1.
</event>
<event>
 5   0  0.1964242E-07  0.2700067E+04  0.7818609E-02  0.8334983E-01
        1   -1    0    0  501    0  0.00000000000E+00  0.00000000000E+00  0.13436336634E+04  0.13436336634E+04  0.50400001928E-02 0.  1.
       -1   -1    0    0    0  501  0.00000000000E+00  0.00000000000E+00 -0.13564639717E+04  0.13564639717E+04  0.50400001928E-02 0. -1.
    10030    2    1    2    0    0  0.00000000000E+00  0.00000000000E+00 -0.12830308350E+02  0.27000976351E+04  0.27000671515E+04 0.  0.
        2    1    3    3  502    0  0.63790470986E+03  0.49664261267E+03 -0.10876370317E+04  0.13551865614E+04  0.25500000920E-02 0. -1.
       -2    1    3    3    0  502 -0.63790470986E+03 -0.49664261267E+03  0.10748067234E+04  0.13449110737E+04  0.25500000920E-02 0.  1.
</event>
<event>
 5   0  0.1937896E-07  0.2697787E+04  0.7818609E-02  0.8335724E-01
       -1   -1    0    0    0  501  0.00000000000E+00  0.00000000000E+00  0.17915582910E+04  0.17915582910E+04  0.50400001928E-02 0. -1.
        1   -1    0    0  501    0  0.00000000000E+00  0.00000000000E+00 -0.10156036201E+04  0.10156036201E+04  0.50400001928E-02 0.  1.
    10030    2    1    2    0    0  0.00000000000E+00  0.00000000000E+00  0.77595467096E+03  0.28071619111E+04  0.26977865638E+04 0.  0.
        3    1    3    3  502    0 -0.51310009914E+03 -0.12474918243E+04  0.38553429996E+03  0.14029056526E+04  0.10100000352E+00 0. -1.
       -3    1    3    3    0  502  0.51310009914E+03  0.12474918243E+04  0.39042037100E+03  0.14042562585E+04  0.10100000352E+00 0.  1.
</event>
<event>
 5   0  0.1964242E-07  0.2700388E+04  0.7818609E-02  0.8334879E-01
       -1   -1    0    0    0  501  0.00000000000E+00  0.00000000000E+00  0.98107762267E+03  0.98107762269E+03  0.50400001928E-02 0.  1.
        1   -1    0    0  501    0  0.00000000000E+00  0.00000000000E+00 -0.18581847251E+04  0.18581847251E+04  0.50400001928E-02 0. -1.
    10030    2    1    2    0    0  0.00000000000E+00  0.00000000000E+00 -0.87710710243E+03  0.28392623478E+04  0.27003877148E+04 0.  0.
        2    1    3    3  502    0 -0.54712122650E+03  0.70510223804E+03 -0.15038281034E+04  0.17487166057E+04  0.25500000920E-02 0. -1.
       -2    1    3    3    0  502  0.54712122650E+03 -0.70510223804E+03  0.62672100093E+03  0.10905457421E+04  0.25500000920E-02 0.  1.
</event>
<event>
 5   0  0.5043890E-07  0.2700806E+04  0.7818609E-02  0.8334743E-01
        2   -1    0    0  501    0  0.00000000000E+00  0.00000000000E+00  0.15368301371E+04  0.15368301371E+04  0.25500000920E-02 0. -1.
       -2   -1    0    0    0  501  0.00000000000E+00  0.00000000000E+00 -0.11865910661E+04  0.11865910661E+04  0.25500000920E-02 0.  1.
    10030    2    1    2    0    0  0.00000000000E+00  0.00000000000E+00  0.35023907105E+03  0.27234212032E+04  0.27008064802E+04 0.  0.
        3    1    3    3  502    0 -0.65582400526E+03  0.11374003836E+04  0.49368275416E+03  0.14026786625E+04  0.10100000352E+00 0. -1.
       -3    1    3    3    0  502  0.65582400526E+03 -0.11374003836E+04 -0.14344368311E+03  0.13207425407E+04  0.10100000352E+00 0.  1.
</event>
<event>
 5   0  0.1641625E-07  0.2699789E+04  0.7818609E-02  0.8335073E-01
       -3   -1    0    0    0  501  0.00000000000E+00  0.00000000000E+00  0.11018586603E+04  0.11018586649E+04  0.10100000352E+00 0.  1.
        3   -1    0    0  501    0  0.00000000000E+00  0.00000000000E+00 -0.16537647107E+04  0.16537647138E+04  0.10100000352E+00 0. -1.
    10030    2    1    2    0    0  0.00000000000E+00  0.00000000000E+00 -0.55190605045E+03  0.27556233787E+04  0.26997888652E+04 0.  0.
        1    1    3    3  502    0  0.12974096709E+04  0.31493741102E+03 -0.47946964349E+03  0.14185727215E+04  0.50400001928E-02 0. -1.
       -1    1    3    3    0  502 -0.12974096709E+04 -0.31493741102E+03 -0.72436406958E+02  0.13370506573E+04  0.50400001928E-02 0.  1.
</event>
<event>
 5   0  0.1965415E-07  0.2699219E+04  0.7818609E-02  0.8335258E-01
        1   -1    0    0  501    0  0.00000000000E+00  0.00000000000E+00  0.88179578143E+03  0.88179578144E+03  0.50400001928E-02 0.  1.
       -1   -1    0    0    0  501  0.00000000000E+00  0.00000000000E+00 -0.20656096221E+04  0.20656096221E+04  0.50400001928E-02 0. -1.
    10030    2    1    2    0    0  0.00000000000E+00  0.00000000000E+00 -0.11838138407E+04  0.29474054036E+04  0.26992190359E+04 0.  0.
        4    1    3    3  502    0  0.46435551814E+03  0.11609226151E+04 -0.11466300708E+04  0.16965050833E+04  0.12699999809E+01 0.  1.
       -4    1    3    3    0  502 -0.46435551814E+03 -0.11609226151E+04 -0.37183769894E+02  0.12509003203E+04  0.12699999809E+01 0. -1.
</event>
<event>
 5   0  0.1937896E-07  0.2699090E+04  0.7818609E-02  0.8335300E-01
       -1   -1    0    0    0  501  0.00000000000E+00  0.00000000000E+00  0.99888424888E+03  0.99888424889E+03  0.50400001928E-02 0. -1.
        1   -1    0    0  501    0  0.00000000000E+00  0.00000000000E+00 -0.18233056503E+04  0.18233056503E+04  0.50400001928E-02 0.  1.
    10030    2    1    2    0    0  0.00000000000E+00  0.00000000000E+00 -0.82442140139E+03  0.28221898992E+04  0.26990896947E+04 0.  0.
        3    1    3    3  502    0  0.59499122701E+03  0.28377327429E+03 -0.16435132709E+04  0.17707844910E+04  0.10100000352E+00 0.  1.
       -3    1    3    3    0  502 -0.59499122701E+03 -0.28377327429E+03  0.81909186956E+03  0.10514054082E+04  0.10100000352E+00 0. -1.
</event>
<event>
 5   0  0.4992668E-07  0.2699581E+04  0.7818609E-02  0.8335141E-01
        2   -1    0    0  501    0  0.00000000000E+00  0.00000000000E+00  0.14498409338E+04  0.14498409339E+04  0.25500000920E-02 0. -1.
       -2   -1    0    0    0  501  0.00000000000E+00  0.00000000000E+00 -0.12566442490E+04  0.12566442490E+04  0.25500000920E-02 0.  1.
    10030    2    1    2    0    0  0.00000000000E+00  0.00000000000E+00  0.19319668484E+03  0.27064851829E+04  0.26995809093E+04 0.  0.
        1    1    3    3  502    0  0.12646837889E+04  0.27310864506E+03  0.48218678456E+03  0.13807670018E+04  0.50400001928E-02 0.  1.
       -1    1    3    3    0  502 -0.12646837889E+04 -0.27310864506E+03 -0.28899009973E+03  0.13257181811E+04  0.50400001928E-02 0. -1.
</event>
<event>
 5   0  0.1888149E-07  0.2700290E+04  0.7818609E-02  0.8334911E-01
       -1   -1    0    0    0  501  0.00000000000E+00  0.00000000000E+00  0.12169103660E+04  0.12169103660E+04  0.50400001928E-02 0. -1.
        1   -1    0    0  501    0  0.00000000000E+00  0.00000000000E+00 -0.14979665498E+04  0.14979665499E+04  0.50400001928E-02 0.  1.
    10030    2    1    2    0    0  0.00000000000E+00  0.00000000000E+00 -0.28105618384E+03  0.27148769159E+04  0.27002896307E+04 0.  0.
        1    1    3    3  502    0 -0.50185261282E+03 -0.61997129227E+03  0.95470077699E+03  0.12440554738E+04  0.50400001928E-02 0. -1.
       -1    1    3    3    0  502  0.50185261282E+03  0.61997129227E+03 -0.12357569608E+04  0.14708214421E+04  0.50400001928E-02 0.  1.
</event>
<event>
 5   0  0.5043890E-07  0.2700253E+04  0.7818609E-02  0.8334923E-01
       -2   -1    0    0    0  501  0.00000000000E+00  0.00000000000E+00  0.11692235268E+04  0.11692235268E+04  0.25500000920E-02 0.  1.
        2   -1    0    0  501    0  0.00000000000E+00  0.00000000000E+00 -0.15590185838E+04  0.15590185838E+04  0.25500000920E-02 0. -1.
    10030    2    1    2    0    0  0.00000000000E+00  0.00000000000E+00 -0.38979505704E+03  0.27282421106E+04  0.27002527340E+04 0.  0.
        3    1    3    3  502    0  0.10494301084E+04 -0.78473635149E+03  0.13362898693E+03  0.13171831346E+04  0.10100000352E+00 0. -1.
       -3    1    3    3    0  502 -0.10494301084E+04  0.78473635149E+03 -0.52342404397E+03  0.14110589760E+04  0.10100000352E+00 0.  1.
</event>
<event>
 5   0  0.5043890E-07  0.2701095E+04  0.7818609E-02  0.8334650E-01
       -2   -1    0    0    0  501  0.00000000000E+00  0.00000000000E+00  0.89790521248E+03  0.89790521249E+03  0.25500000920E-02 0.  1.
        2   -1    0    0  501    0  0.00000000000E+00  0.00000000000E+00 -0.20313705070E+04  0.20313705070E+04  0.25500000920E-02 0. -1.
    10030    2    1    2    0    0  0.00000000000E+00  0.00000000000E+00 -0.11334652945E+04  0.29292757195E+04  0.27010947164E+04 0.  0.
        3    1    3    3  502    0 -0.98346011378E+03 -0.48687557862E+03 -0.14204694183E+04  0.17949860732E+04  0.10100000352E+00 0. -1.
       -3    1    3    3    0  502  0.98346011378E+03  0.48687557862E+03  0.28700412377E+03  0.11342896463E+04  0.10100000352E+00 0.  1.
</event>
<event>
 5   0  0.4983208E-07  0.2699648E+04  0.7818609E-02  0.8335119E-01
       -2   -1    0    0    0  501  0.00000000000E+00  0.00000000000E+00  0.72203600275E+03  0.72203600275E+03  0.25500000920E-02 0. -1.
        2   -1    0    0  501    0  0.00000000000E+00  0.00000000000E+00 -0.25234544447E+04  0.25234544447E+04  0.25500000920E-02 0.  1.
    10030    2    1    2    0    0  0.00000000000E+00  0.00000000000E+00 -0.18014184420E+04  0.32454904475E+04  0.26996480959E+04 0.  0.
        4    1    3    3  502    0 -0.23042204899E+02  0.12399793852E+04 -0.26010592928E+03  0.12671765963E+04  0.12699999809E+01 0. -1.
       -4    1    3    3    0  502  0.23042204899E+02 -0.12399793852E+04 -0.15413125127E+04  0.19783138511E+04  0.12699999809E+01 0.  1.
</event>
<event>
 5   0  0.1971600E-07  0.2691952E+04  0.7818609E-02  0.8337621E-01
        1   -1    0    0  501    0  0.00000000000E+00  0.00000000000E+00  0.11608353795E+04  0.11608353795E+04  0.50400001928E-02 0. -1.
       -1   -1    0    0    0  501  0.00000000000E+00  0.00000000000E+00 -0.15606442641E+04  0.15606442642E+04  0.50400001928E-02 0.  1.
    10030    2    1    2    0    0  0.00000000000E+00  0.00000000000E+00 -0.39980888464E+03  0.27214796437E+04  0.26919517653E+04 0.  0.
        5    1    3    3  502    0 -0.50073269486E+03  0.81287424207E+03  0.75925482919E+03  0.12198310337E+04  0.46999998093E+01 0. -1.
       -5    1    3    3    0  502  0.50073269486E+03 -0.81287424207E+03 -0.11590637138E+04  0.15016486100E+04  0.46999998093E+01 0.  1.
</event>
<event>
 5   0  0.4983208E-07  0.2701848E+04  0.7818609E-02  0.8334406E-01
       -2   -1    0    0    0  501  0.00000000000E+00  0.00000000000E+00  0.14088259588E+04  0.14088259588E+04  0.25500000920E-02 0.  1.
        2   -1    0    0  501    0  0.00000000000E+00  0.00000000000E+00 -0.12954017140E+04  0.12954017140E+04  0.25500000920E-02 0. -1.
    10030    2    1    2    0    0  0.00000000000E+00  0.00000000000E+00  0.11342424480E+03  0.27042276728E+04  0.27018479319E+04 0.  0.
        4    1    3    3  502    0  0.10068862244E+04  0.89304183119E+03  0.17364981656E+03  0.13570185897E+04  0.12699999809E+01 0.  1.
       -4    1    3    3    0  502 -0.10068862244E+04 -0.89304183119E+03 -0.60225571754E+02  0.13472090831E+04  0.12699999809E+01 0. -1.
</event>
<event>
 5   0  0.1971600E-07  0.2699733E+04  0.7818609E-02  0.8335092E-01
       -1   -1    0    0    0  501  0.00000000000E+00  0.00000000000E+00  0.12269936289E+04  0.12269936289E+04  0.50400001928E-02 0. -1.
        1   -1    0    0  501    0  0.00000000000E+00  0.00000000000E+00 -0.14850438963E+04  0.14850438963E+04  0.50400001928E-02 0.  1.
    10030    2    1    2    0    0  0.00000000000E+00  0.00000000000E+00 -0.25805026747E+03  0.27120375252E+04  0.26997328752E+04 0.  0.
        5    1    3    3  502    0  0.74871101479E+03 -0.11083425449E+04 -0.31185996393E+03  0.13734154898E+04  0.46999998093E+01 0.  1.
       -5    1    3    3    0  502 -0.74871101479E+03  0.11083425449E+04  0.53809696460E+02  0.13386220355E+04  0.46999998093E+01 0. -1.
</event>
<event>
 5   0  0.4992668E-07  0.2699994E+04  0.7818609E-02  0.8335007E-01
       -2   -1    0    0    0  501  0.00000000000E+00  0.00000000000E+00  0.79863632323E+03  0.79863632323E+03  0.25500000920E-02 0. -1.
        2   -1    0    0  501    0  0.00000000000E+00  0.00000000000E+00 -0.22820054534E+04  0.22820054534E+04  0.25500000920E-02 0.  1.
    10030    2    1    2    0    0  0.00000000000E+00  0.00000000000E+00 -0.14833691302E+04  0.30806417767E+04  0.26999944036E+04 0.  0.
        1    1    3    3  502    0 -0.90385487568E+03 -0.42870907340E+03 -0.17759868636E+04  0.20383509133E+04  0.50400001928E-02 0.  1.
       -1    1    3    3    0  502  0.90385487568E+03  0.42870907340E+03  0.29261773344E+03  0.10422908634E+04  0.50400001928E-02 0. -1.
</event>
<event>
 5   0  0.1964242E-07  0.2699735E+04  0.7818609E-02  0.8335091E-01
       -1   -1    0    0    0  501  0.00000000000E+00  0.00000000000E+00  0.11684491576E+04  0.11684491576E+04  0.50400001928E-02 0.  1.
        1   -1    0    0  501    0  0.00000000000E+00  0.00000000000E+00 -0.15594536404E+04  0.15594536404E+04  0.50400001928E-02 0. -1.
    10030    2    1    2    0    0  0.00000000000E+00  0.00000000000E+00 -0.39100448282E+03  0.27279027980E+04  0.26997350184E+04 0.  0.
        2    1    3    3  502    0 -0.63357727438E+03 -0.11173751282E+04  0.22379109476E+03  0.13038519064E+04  0.25500000920E-02 0.  1.
       -2    1    3    3    0  502  0.63357727438E+03  0.11173751282E+04 -0.61479557758E+03  0.14240508916E+04  0.25500000920E-02 0. -1.
</event>
<event>
 5   0  0.4843887E-07  0.2699739E+04  0.7818609E-02  0.8335090E-01
        2   -1    0    0  501    0  0.00000000000E+00  0.00000000000E+00  0.84242421077E+03  0.84242421077E+03  0.25500000920E-02 0.  1.
       -2   -1    0    0    0  501  0.00000000000E+00  0.00000000000E+00 -0.21629815961E+04  0.21629815961E+04  0.25500000920E-02 0. -1.
    10030    2    1    2    0    0  0.00000000000E+00  0.00000000000E+00 -0.13205573853E+04  0.30054058069E+04  0.26997392941E+04 0.  0.
        5    1    3    3  502    0 -0.65647423241E+03  0.90348903545E+03  0.18377106555E+03  0.11318324741E+04  0.46999998093E+01 0.  1.
       -5    1    3    3    0  502  0.65647423241E+03 -0.90348903545E+03 -0.15043284509E+04  0.18735733327E+04  0.46999998093E+01 0. -1.
</event>
<event>
 5   0  0.1937896E-07  0.2700172E+04  0.7818609E-02  0.8334949E-01
        1   -1    0    0  501    0  0.00000000000E+00  0.00000000000E+00  0.22835061748E+04  0.22835061748E+04  0.50400001928E-02 0.  1.
       -1   -1    0    0    0  501  0.00000000000E+00  0.00000000000E+00 -0.79821630102E+03  0.79821630104E+03  0.50400001928E-02 0. -1.
    10030    2    1    2    0    0  0.00000000000E+00  0.00000000000E+00  0.14852898738E+04  0.30817224758E+04  0.27001717369E+04 0.  0.
        3    1    3    3  502    0 -0.13193130879E+04  0.17265238156E+03  0.48154769099E+03  0.14150208683E+04  0.10100000352E+00 0. -1.
       -3    1    3    3    0  502  0.13193130879E+04 -0.17265238156E+03  0.10037421828E+04  0.16667016075E+04  0.10100000352E+00 0.  1.
</event>
<event>
 5   0  0.1937896E-07  0.2701112E+04  0.7818609E-02  0.8334644E-01
        1   -1    0    0  501    0  0.00000000000E+00  0.00000000000E+00  0.88678370084E+03  0.88678370085E+03  0.50400001928E-02 0. -1.
       -1   -1    0    0    0  501  0.00000000000E+00  0.00000000000E+00 -0.20568737909E+04  0.20568737909E+04  0.50400001928E-02 0.  1.
    10030    2    1    2    0    0  0.00000000000E+00  0.00000000000E+00 -0.11700900900E+04  0.29436574917E+04  0.27011124763E+04 0.  0.
        3    1    3    3  502    0  0.41896479023E+03  0.76968901541E+03 -0.17049643686E+04  0.19169914409E+04  0.10100000352E+00 0.  1.
       -3    1    3    3    0  502 -0.41896479023E+03 -0.76968901541E+03  0.53487427858E+03  0.10266660509E+04  0.10100000352E+00 0. -1.
</event>
<event>
 5   0  0.1937896E-07  0.2691580E+04  0.7818609E-02  0.8337742E-01
       -1   -1    0    0    0  501  0.00000000000E+00  0.00000000000E+00  0.18520900793E+04  0.18520900793E+04  0.50400001928E-02 0.  1.
        1   -1    0    0  501    0  0.00000000000E+00  0.00000000000E+00 -0.97789544692E+03  0.97789544693E+03  0.50400001928E-02 0. -1.
    10030    2    1    2    0    0  0.00000000000E+00  0.00000000000E+00  0.87419463236E+03  0.28299855262E+04  0.26915798007E+04 0.  0.
        3    1    3    3  502    0  0.33757694014E+03 -0.81509947250E+02  0.18041673270E+04  0.18372865361E+04  0.10100000352E+00 0.  1.
       -3    1    3    3    0  502 -0.33757694014E+03  0.81509947250E+02 -0.92997269460E+03  0.99269899008E+03  0.10100000352E+00 0. -1.
</event>
<event>
 5   0  0.1964242E-07  0.2700058E+04  0.7818609E-02  0.8334986E-01
        1   -1    0    0  501    0  0.00000000000E+00  0.00000000000E+00  0.14652540579E+04  0.14652540579E+04  0.50400001928E-02 0.  1.
       -1   -1    0    0    0  501  0.00000000000E+00  0.00000000000E+00 -0.12438652597E+04  0.12438652597E+04  0.50400001928E-02 0. -1.
    10030    2    1    2    0    0  0.00000000000E+00  0.00000000000E+00  0.22138879818E+03  0.27091193176E+04  0.27000582359E+04 0.  0.
        2    1    3    3  502    0  0.70082770064E+03 -0.75665027983E+03 -0.76337745791E+03  0.12831306462E+04  0.25500000920E-02 0. -1.
       -2    1    3    3    0  502 -0.70082770064E+03  0.75665027983E+03  0.98476625609E+03  0.14259886714E+04  0.25500000920E-02 0.  1.
</event>
<event>
 5   0  0.1971600E-07  0.2700139E+04  0.7818609E-02  0.8334960E-01
        1   -1    0    0  501    0  0.00000000000E+00  0.00000000000E+00  0.15525663779E+04  0.15525663779E+04  0.50400001928E-02 0.  1.
       -1   -1    0    0    0  501  0.00000000000E+00  0.00000000000E+00 -0.11739833635E+04  0.11739833635E+04  0.50400001928E-02 0. -1.
    10030    2    1    2    0    0  0.00000000000E+00  0.00000000000E+00  0.37858301440E+03  0.27265497414E+04  0.27001385878E+04 0.  0.
        5    1    3    3  502    0 -0.47779667680E+03 -0.10461139947E+04  0.90332967745E+03  0.14624194851E+04  0.46999998093E+01 0.  1.
       -5    1    3    3    0  502  0.47779667680E+03  0.10461139947E+04 -0.52474666305E+03  0.12641302562E+04  0.46999998093E+01 0. -1.
</event>
<event>
 5   0  0.4843887E-07  0.2701942E+04  0.7818609E-02  0.8334375E-01
       -2   -1    0    0    0  501  0.00000000000E+00  0.00000000000E+00  0.12990936709E+04  0.12990936709E+04  0.25500000920E-02 0.  1.
        2   -1    0    0  501    0  0.00000000000E+00  0.00000000000E+00 -0.14049198887E+04  0.14049198887E+04  0.25500000920E-02 0. -1.
    10030    2    1    2    0    0  0.00000000000E+00  0.00000000000E+00 -0.10582621785E+03  0.27040135596E+04  0.27019419206E+04 0.  0.
        5    1    3    3  502    0  0.16209556706E+03  0.23086385722E+03 -0.13751101622E+04  0.14037532338E+04  0.46999998093E+01 0. -1.
       -5    1    3    3    0  502 -0.16209556706E+03 -0.23086385722E+03  0.12692839443E+04  0.13002603258E+04  0.46999998093E+01 0.  1.
</event>
<event>
 5   0  0.1641625E-07  0.2706793E+04  0.7818609E-02  0.8332804E-01
       -3   -1    0    0    0  501  0.00000000000E+00  0.00000000000E+00  0.97053737991E+03  0.97053738516E+03  0.10100000352E+00 0. -1.
        3   -1    0    0  501    0  0.00000000000E+00  0.00000000000E+00 -0.18872861534E+04  0.18872861561E+04  0.10100000352E+00 0.  1.
    10030    2    1    2    0    0  0.00000000000E+00  0.00000000000E+00 -0.91674877346E+03  0.28578235412E+04  0.27067927662E+04 0.  0.
        1    1    3    3  502    0 -0.97345192773E+03  0.51869026245E+03 -0.12863733581E+04  0.16945219563E+04  0.50400001928E-02 0.  1.
       -1    1    3    3    0  502  0.97345192773E+03 -0.51869026245E+03  0.36962458461E+03  0.11633015849E+04  0.50400001928E-02 0. -1.
</event>
<event>
 5   0  0.4992668E-07  0.2697312E+04  0.7818609E-02  0.8335878E-01
       -2   -1    0    0    0  501  0.00000000000E+00  0.00000000000E+00  0.79276173251E+03  0.79276173251E+03  0.25500000920E-02 0.  1.
        2   -1    0    0  501    0  0.00000000000E+00  0.00000000000E+00 -0.22943494054E+04  0.22943494054E+04  0.25500000920E-02 0. -1.
    10030    2    1    2    0    0  0.00000000000E+00  0.00000000000E+00 -0.15015876729E+04  0.30871111379E+04  0.26973115576E+04 0.  0.
        1    1    3    3  502    0  0.12276829654E+04 -0.83796574296E+01 -0.11191633387E+03  0.12328020718E+04  0.50400001928E-02 0.  1.
       -1    1    3    3    0  502 -0.12276829654E+04  0.83796574296E+01 -0.13896713390E+04  0.18543090662E+04  0.50400001928E-02 0. -1.
</event>
<event>
 5   0  0.1888149E-07  0.2700701E+04  0.7818609E-02  0.8334777E-01
       -1   -1    0    0    0  501  0.00000000000E+00  0.00000000000E+00  0.31495237226E+04  0.31495237226E+04  0.50400001928E-02 0. -1.
        1   -1    0    0  501    0  0.00000000000E+00  0.00000000000E+00 -0.57895957840E+03  0.57895957842E+03  0.50400001928E-02 0.  1.
    10030    2    1    2    0    0  0.00000000000E+00  0.00000000000E+00  0.25705641442E+04  0.37284833011E+04  0.27007013361E+04 0.  0.
        1    1    3    3  502    0  0.86274500728E+03 -0.99859098551E+03  0.89010860077E+03  0.15917933990E+04  0.50400001928E-02 0. -1.
       -1    1    3    3    0  502 -0.86274500728E+03  0.99859098551E+03  0.16804555435E+04  0.21366899021E+04  0.50400001928E-02 0.  1.
</event>
<event>
 5   0  0.4983208E-07  0.2700658E+04  0.7818609E-02  0.8334792E-01
       -2   -1    0    0    0  501  0.00000000000E+00  0.00000000000E+00  0.90697992193E+03  0.90697992193E+03  0.25500000920E-02 0. -1.
        2   -1    0    0  501    0  0.00000000000E+00  0.00000000000E+00 -0.20103950346E+04  0.20103950346E+04  0.25500000920E-02 0.  1.
    10030    2    1    2    0    0  0.00000000000E+00  0.00000000000E+00 -0.11034151126E+04  0.29173749565E+04  0.27006576469E+04 0.  0.
        4    1    3    3  502    0 -0.39355496155E+03 -0.10298165493E+04 -0.13940077372E+04  0.17772638569E+04  0.12699999809E+01 0.  1.
       -4    1    3    3    0  502  0.39355496155E+03  0.10298165493E+04  0.29059262454E+03  0.11401110996E+04  0.12699999809E+01 0. -1.
</event>
<event>
 5   0  0.5043890E-07  0.2699442E+04  0.7818609E-02  0.8335186E-01
        2   -1    0    0  501    0  0.00000000000E+00  0.00000000000E+00  0.14741789116E+04  0.14741789116E+04  0.25500000920E-02 0. -1.
       -2   -1    0    0    0  501  0.00000000000E+00  0.00000000000E+00 -0.12357700306E+04  0.12357700306E+04  0.25500000920E-02 0.  1.
    10030    2    1    2    0    0  0.00000000000E+00  0.00000000000E+00  0.23840888100E+03  0.27099489422E+04  0.26994415116E+04 0.  0.
        3    1    3    3  502    0  0.85577485863E+03 -0.50091194137E+03  0.10384557274E+04  0.14358459839E+04  0.10100000352E+00 0. -1.
       -3    1    3    3    0  502 -0.85577485863E+03  0.50091194137E+03 -0.80004684636E+03  0.12741029583E+04  0.10100000352E+00 0.  1.
</event>
<event>
 5   0  0.1937896E-07  0.2700032E+04  0.7818609E-02  0.8334995E-01
       -1   -1    0    0    0  501  0.00000000000E+00  0.00000000000E+00  0.15042710646E+04  0.15042710646E+04  0.50400001928E-02 0.  1.
        1   -1    0    0  501    0  0.00000000000E+00  0.00000000000E+00 -0.12115787043E+04  0.12115787043E+04  0.50400001928E-02 0. -1.
    10030    2    1    2    0    0  0.00000000000E+00  0.00000000000E+00  0.29269236026E+03  0.27158497689E+04  0.27000316941E+04 0.  0.
        3    1    3    3  502    0  0.16326348922E+03 -0.13400410870E+04  0.13293784238E+03  0.13564798421E+04  0.10100000352E+00 0. -1.
       -3    1    3    3    0  502 -0.16326348922E+03  0.13400410870E+04  0.15975451787E+03  0.13593699268E+04  0.10100000352E+00 0.  1.
</event>
<event>
 5   0  0.1971600E-07  0.2700595E+04  0.7818609E-02  0.8334812E-01
        1   -1    0    0  501    0  0.00000000000E+00  0.00000000000E+00  0.10472707759E+04  0.10472707759E+04  0.50400001928E-02 0. -1.
       -1   -1    0    0    0  501  0.00000000000E+00  0.00000000000E+00 -0.17410047400E+04  0.17410047400E+04  0.50400001928E-02 0.  1.
    10030    2    1    2    0    0  0.00000000000E+00  0.00000000000E+00 -0.69373396404E+03  0.27882755159E+04  0.27005950344E+04 0.  0.
        5    1    3    3  502    0 -0.46798127006E+03 -0.45763138545E+03  0.87251483723E+03  0.10907507439E+04  0.46999998093E+01 0. -1.
       -5    1    3    3    0  502  0.46798127006E+03  0.45763138545E+03 -0.15662488013E+04  0.16975247720E+04  0.46999998093E+01 0.  1.
</event>
<event>
 5   0  0.1965415E-07  0.2699751E+04  0.7818609E-02  0.8335086E-01
        1   -1    0    0  501    0  0.00000000000E+00  0.00000000000E+00  0.20332619939E+04  0.20332619939E+04  0.50400001928E-02 0.  1.
       -1   -1    0    0    0  501  0.00000000000E+00  0.00000000000E+00 -0.89617740624E+03  0.89617740626E+03  0.50400001928E-02 0. -1.
    10030    2    1    2    0    0  0.00000000000E+00  0.00000000000E+00  0.11370845877E+04  0.29294394002E+04  0.26997506996E+04 0.  0.
        4    1    3    3  502    0 -0.90507957459E+03  0.44378398741E+02  0.16541751137E+04  0.18861164858E+04  0.12699999809E+01 0.  1.
       -4    1    3    3    0  502  0.90507957459E+03 -0.44378398741E+02 -0.51709052599E+03  0.10433229143E+04  0.12699999809E+01 0. -1.
</event>
<event>
 5   0  0.4843887E-07  0.2697615E+04  0.7818609E-02  0.8335779E-01
        2   -1    0    0  501    0  0.00000000000E+00  0.00000000000E+00  0.16589685470E+04  0.16589685470E+04  0.25500000920E-02 0. -1.
       -2   -1    0    0    0  501  0.00000000000E+00  0.00000000000E+00 -0.10966341358E+04  0.10966341358E+04  0.25500000920E-02 0.  1.
    10030    2    1    2    0    0  0.00000000000E+00  0.00000000000E+00  0.56233441127E+03  0.27556026828E+04  0.26976149013E+04 0.  0.
        5    1    3    3  502    0 -0.13037109283E+03 -0.65818044111E+03 -0.91405347615E+03  0.11338932764E+04  0.46999998093E+01 0.  1.
       -5    1    3    3    0  502  0.13037109283E+03  0.65818044111E+03  0.14763878874E+04  0.16217094065E+04  0.46999998093E+01 0. -1.
</event>
<event>
 5   0  0.4735120E-07  0.2700934E+04  0.7818609E-02  0.8334702E-01
        2   -1    0    0  501    0  0.00000000000E+00  0.00000000000E+00  0.17420609713E+04  0.17420609713E+04  0.25500000920E-02 0. -1.
       -2   -1    0    0    0  501  0.00000000000E+00  0.00000000000E+00 -0.10468988772E+04  0.10468988772E+04  0.25500000920E-02 0.  1.
    10030    2    1    2    0    0  0.00000000000E+00  0.00000000000E+00  0.69516209413E+03  0.27889598485E+04  0.27009344123E+04 0.  0.
        2    1    3    3  502    0  0.77726039333E+03  0.12383399936E+03 -0.78558700604E+03  0.11120321589E+04  0.25500000920E-02 0.  1.
       -2    1    3    3    0  502 -0.77726039333E+03 -0.12383399936E+03  0.14807491002E+04  0.16769276896E+04  0.25500000920E-02 0. -1.
</event>
<event>
 5   0  0.5043890E-07  0.2699145E+04  0.7818609E-02  0.8335282E-01
        2   -1    0    0  501    0  0.00000000000E+00  0.00000000000E+00  0.13937860337E+04  0.13937860337E+04  0.25500000920E-02 0. -1.
       -2   -1    0    0    0  501  0.00000000000E+00  0.00000000000E+00 -0.13067618477E+04  0.13067618478E+04  0.25500000920E-02 0.  1.
    10030    2    1    2    0    0  0.00000000000E+00  0.00000000000E+00  0.87024185991E+02  0.27005478815E+04  0.26991453557E+04 0.  0.
        3    1    3    3  502    0 -0.11107998103E+04  0.44387503595E+03 -0.58166868645E+03  0.13301277146E+04  0.10100000352E+00 0.  1.
       -3    1    3    3    0  502  0.11107998103E+04 -0.44387503595E+03  0.66869287244E+03  0.13704201669E+04  0.10100000352E+00 0. -1.
</event>
<event>
 5   0  0.4735120E-07  0.2701881E+04  0.7818609E-02  0.8334395E-01
       -2   -1    0    0    0  501  0.00000000000E+00  0.00000000000E+00  0.10423866707E+04  0.10423866707E+04  0.25500000920E-02 0. -1.
        2   -1    0    0  501    0  0.00000000000E+00  0.00000000000E+00 -0.17508279279E+04  0.17508279279E+04  0.25500000920E-02 0.  1.
    10030    2    1    2    0    0  0.00000000000E+00  0.00000000000E+00 -0.70844125717E+03  0.27932145986E+04  0.27018806004E+04 0.  0.
        2    1    3    3  502    0 -0.59871179569E+03  0.63609460602E+03 -0.14195742090E+04  0.16668122560E+04  0.25500000920E-02 0. -1.
       -2    1    3    3    0  502  0.59871179569E+03 -0.63609460602E+03  0.71113295181E+03  0.11264023425E+04  0.25500000920E-02 0.  1.
</event>
<event>
 5   0  0.5043890E-07  0.2703829E+04  0.7818609E-02  0.8333764E-01
        2   -1    0    0  501    0  0.00000000000E+00  0.00000000000E+00  0.21520443646E+04  0.21520443646E+04  0.25500000920E-02 0. -1.
       -2   -1    0    0    0  501  0.00000000000E+00  0.00000000000E+00 -0.84927292679E+03  0.84927292680E+03  0.25500000920E-02 0.  1.
    10030    2    1    2    0    0  0.00000000000E+00  0.00000000000E+00  0.13027714378E+04  0.30013172914E+04  0.27038291485E+04 0.  0.
        3    1    3    3  502    0  0.38748240508E+03  0.80470359708E+03  0.17779282440E+04  0.19896530714E+04  0.10100000352E+00 0. -1.
       -3    1    3    3    0  502 -0.38748240508E+03 -0.80470359708E+03 -0.47515680620E+03  0.10116642200E+04  0.10100000352E+00 0.  1.
</event>
<event>
 5   0  0.4843887E-07  0.2699005E+04  0.7818609E-02  0.8335328E-01
       -2   -1    0    0    0  501  0.00000000000E+00  0.00000000000E+00  0.10456304024E+04  0.10456304024E+04  0.25500000920E-02 0.  1.
        2   -1    0    0  501    0  0.00000000000E+00  0.00000000000E+00 -0.17416832494E+04  0.17416832494E+04  0.25500000920E-02 0. -1.
    10030    2    1    2    0    0  0.00000000000E+00  0.00000000000E+00 -0.69605284699E+03  0.27873136519E+04  0.26990049700E+04 0.  0.
        5    1    3    3  502    0  0.65307675515E+02 -0.13305392587E+04 -0.57080441115E+03  0.14492893352E+04  0.46999998093E+01 0. -1.
       -5    1    3    3    0  502 -0.65307675515E+02  0.13305392587E+04 -0.12524843584E+03  0.13380243167E+04  0.46999998093E+01 0.  1.
</event>
<event>
 5   0  0.4983208E-07  0.2705115E+04  0.7818609E-02  0.8333347E-01
       -2   -1    0    0    0  501  0.00000000000E+00  0.00000000000E+00  0.13753788119E+04  0.13753788119E+04  0.25500000920E-02 0. -1.
        2   -1    0    0  501    0  0.00000000000E+00  0.00000000000E+00 -0.13301144304E+04  0.13301144304E+04  0.25500000920E-02 0.  1.
    10030    2    1    2    0    0  0.00000000000E+00  0.00000000000E+00  0.45264381524E+02  0.27054932423E+04  0.27051145669E+04 0.  0.
        4    1    3    3  502    0  0.89972001310E+03  0.95704691757E+03  0.34512839161E+03  0.13581421590E+04  0.12699999809E+01 0. -1.
       -4    1    3    3    0  502 -0.89972001310E+03 -0.95704691757E+03 -0.29986401009E+03  0.13473510834E+04  0.12699999809E+01 0.  1.
</event>
<event>
 5   0  0.4983208E-07  0.2697600E+04  0.7818609E-02  0.8335784E-01
       -2   -1    0    0    0  501  0.00000000000E+00  0.00000000000E+00  0.27499989705E+04  0.27499989705E+04  0.25500000920E-02 0.  1.
        2   -1    0    0  501    0  0.00000000000E+00  0.00000000000E+00 -0.66154982763E+03  0.66154982764E+03  0.25500000920E-02 0. -1.
    10030    2    1    2    0    0  0.00000000000E+00  0.00000000000E+00  0.20884491428E+04  0.34115487981E+04  0.26975999295E+04 0.  0.
        4    1    3    3  502    0  0.32976789645E+03 -0.11135222975E+04  0.19117679942E+04  0.22368587906E+04  0.12699999809E+01 0. -1.
       -4    1    3    3    0  502 -0.32976789645E+03  0.11135222975E+04  0.17668114866E+03  0.11746900075E+04  0.12699999809E+01 0.  1.
</event>
<event>
 5   0  0.1888149E-07  0.2699447E+04  0.7818609E-02  0.8335185E-01
       -1   -1    0    0    0  501  0.00000000000E+00  0.00000000000E+00  0.75417785479E+03  0.75417785480E+03  0.50400001928E-02 0.  1.
        1   -1    0    0  501    0  0.00000000000E+00  0.00000000000E+00 -0.24155481638E+04  0.24155481638E+04  0.50400001928E-02 0. -1.
    10030    2    1    2    0    0  0.00000000000E+00  0.00000000000E+00 -0.16613703090E+04  0.31697260186E+04  0.26994465598E+04 0.  0.
        1    1    3    3  502    0 -0.55611810461E+03 -0.12185352355E+04 -0.10259630941E+04  0.16872153795E+04  0.50400001928E-02 0. -1.
       -1    1    3    3    0  502  0.55611810461E+03  0.12185352355E+04 -0.63540721494E+03  0.14825106391E+04  0.50400001928E-02 0.  1.
</event>
<event>
 5   0  0.4735120E-07  0.2699130E+04  0.7818609E-02  0.8335287E-01
        2   -1    0    0  501    0  0.00000000000E+00  0.00000000000E+00  0.20095641378E+04  0.20095641378E+04  0.25500000920E-02 0.  1.
       -2   -1    0    0    0  501  0.00000000000E+00  0.00000000000E+00 -0.90632856449E+03  0.90632856449E+03  0.25500000920E-02 0. -1.
    10030    2    1    2    0    0  0.00000000000E+00  0.00000000000E+00  0.11032355733E+04  0.29158927023E+04  0.26991297711E+04 0.  0.
        2    1    3    3  502    0  0.13091890030E+04  0.23298202700E+03  0.30275047520E+03  0.13637867578E+04  0.25500000920E-02 0. -1.
       -2    1    3    3    0  502 -0.13091890030E+04 -0.23298202700E+03  0.80048509812E+03  0.15521059445E+04  0.25500000920E-02 0.  1.
</event>
<event>
 5   0  0.1971600E-07  0.2700106E+04  0.7818609E-02  0.8334971E-01
       -1   -1    0    0    0  501  0.00000000000E+00  0.00000000000E+00  0.12344367935E+04  0.12344367935E+04  0.50400001928E-02 0.  1.
        1   -1    0    0  501    0  0.00000000000E+00  0.00000000000E+00 -0.14764976264E+04  0.14764976264E+04  0.50400001928E-02 0. -1.
    10030    2    1    2    0    0  0.00000000000E+00  0.00000000000E+00 -0.24206083282E+03  0.27109344199E+04  0.27001059206E+04 0.  0.
        5    1    3    3  502    0  0.36176916135E+03  0.28982577221E+03  0.11520234920E+04  0.12417955228E+04  0.46999998093E+01 0.  1.
       -5    1    3    3    0  502 -0.36176916135E+03 -0.28982577221E+03 -0.13940843248E+04  0.14691388971E+04  0.46999998093E+01 0. -1.
</event>
<event>
 5   0  0.1888149E-07  0.2700245E+04  0.7818609E-02  0.8334925E-01
        1   -1    0    0  501    0  0.00000000000E+00  0.00000000000E+00  0.22450319175E+04  0.22450319175E+04  0.50400001928E-02 0. -1.
       -1   -1    0    0    0  501  0.00000000000E+00  0.00000000000E+00 -0.81193990815E+03  0.81193990817E+03  0.50400001928E-02 0.  1.
    10030    2    1    2    0    0  0.00000000000E+00  0.00000000000E+00  0.14330920094E+04  0.30569718257E+04  0.27002451807E+04 0.  0.
        1    1    3    3  502    0 -0.61689133565E+02 -0.11713598844E+04 -0.40310535843E+02  0.11736756227E+04  0.50400001928E-02 0.  1.
       -1    1    3    3    0  502  0.61689133565E+02  0.11713598844E+04  0.14734025452E+04  0.18832962030E+04  0.50400001928E-02 0. -1.
</event>
<event>
 5   0  0.1971600E-07  0.2700580E+04  0.7818609E-02  0.8334817E-01
       -1   -1    0    0    0  501  0.00000000000E+00  0.00000000000E+00  0.15524793537E+04  0.15524793537E+04  0.50400001928E-02 0.  1.
        1   -1    0    0  501    0  0.00000000000E+00  0.00000000000E+00 -0.11744334796E+04  0.11744334796E+04  0.50400001928E-02 0. -1.
    10030    2    1    2    0    0  0.00000000000E+00  0.00000000000E+00  0.37804587417E+03  0.27269128333E+04  0.27005804779E+04 0.  0.
        5    1    3    3  502    0  0.12314862905E+04 -0.33225821034E+03  0.63640928780E+03  0.14254798748E+04  0.46999998093E+01 0.  1.
       -5    1    3    3    0  502 -0.12314862905E+04  0.33225821034E+03 -0.25836341362E+03  0.13014329585E+04  0.46999998093E+01 0. -1.
</event>
<event>
 5   0  0.4992668E-07  0.2700119E+04  0.7818609E-02  0.8334966E-01
       -2   -1    0    0    0  501  0.00000000000E+00  0.00000000000E+00  0.16381409927E+04  0.16381409927E+04  0.25500000920E-02 0.  1.
        2   -1    0    0  501    0  0.00000000000E+00  0.00000000000E+00 -0.11126395682E+04  0.11126395682E+04  0.25500000920E-02 0. -1.
    10030    2    1    2    0    0  0.00000000000E+00  0.00000000000E+00  0.52550142445E+03  0.27507805609E+04  0.27001188765E+04 0.  0.
        1    1    3    3  502    0  0.33058069695E+03 -0.11903374534E+04 -0.29195942408E+03  0.12694200076E+04  0.50400001928E-02 0. -1.
       -1    1    3    3    0  502 -0.33058069695E+03  0.11903374534E+04  0.81746084852E+03  0.14813605534E+04  0.50400001928E-02 0.  1.
</event>
<event>
 5   0  0.5043890E-07  0.2700324E+04  0.7818609E-02  0.8334900E-01
       -2   -1    0    0    0  501  0.00000000000E+00  0.00000000000E+00  0.20957188079E+04  0.20957188079E+04  0.25500000920E-02 0. -1.
        2   -1    0    0  501    0  0.00000000000E+00  0.00000000000E+00 -0.86983903727E+03  0.86983903728E+03  0.25500000920E-02 0.  1.
    10030    2    1    2    0    0  0.00000000000E+00  0.00000000000E+00  0.12258797707E+04  0.29655578452E+04  0.27003244474E+04 0.  0.
        3    1    3    3  502    0  0.10217358749E+03  0.18525958178E+03  0.20774015326E+04  0.20881469518E+04  0.10100000352E+00 0. -1.
       -3    1    3    3    0  502 -0.10217358749E+03 -0.18525958178E+03 -0.85152176192E+03  0.87741089339E+03  0.10100000352E+00 0.  1.
</event>
<event>
 5   0  0.4843887E-07  0.2700618E+04  0.7818609E-02  0.8334804E-01
       -2   -1    0    0    0  501  0.00000000000E+00  0.00000000000E+00  0.86625488135E+03  0.86625488136E+03  0.25500000920E-02 0.  1.
        2   -1    0    0  501    0  0.00000000000E+00  0.00000000000E+00 -0.21048477298E+04  0.21048477298E+04  0.25500000920E-02 0. -1.
    10030    2    1    2    0    0  0.00000000000E+00  0.00000000000E+00 -0.12385928484E+04  0.29711026111E+04  0.27006181666E+04 0.  0.
        5    1    3    3  502    0  0.66063004049E+02 -0.67917182943E+03  0.66259779962E+03  0.95115541762E+03  0.46999998093E+01 0.  1.
       -5    1    3    3    0  502 -0.66063004049E+02  0.67917182943E+03 -0.19011906481E+04  0.20199471935E+04  0.46999998093E+01 0. -1.
</event>
<event>
 5   0  0.1971600E-07  0.2700019E+04  0.7818609E-02  0.8334999E-01
       -1   -1    0    0    0  501  0.00000000000E+00  0.00000000000E+00  0.11615861917E+04  0.11615861917E+04  0.50400001928E-02 0.  1.
        1   -1    0    0  501    0  0.00000000000E+00  0.00000000000E+00 -0.15689971529E+04  0.15689971529E+04  0.50400001928E-02 0. -1.
    10030    2    1    2    0    0  0.00000000000E+00  0.00000000000E+00 -0.40741096122E+03  0.27305833446E+04  0.27000188352E+04 0.  0.
        5    1    3    3  502    0 -0.45923119446E+03 -0.25996531676E+03  0.10529500313E+04  0.11777950222E+04  0.46999998093E+01 0.  1.
       -5    1    3    3    0  502  0.45923119446E+03  0.25996531676E+03 -0.14603609925E+04  0.15527883224E+04  0.46999998093E+01 0. -1.
</event>
<event>
 5   0  0.5043890E-07  0.2700873E+04  0.7818609E-02  0.8334722E-01
       -2   -1    0    0    0  501  0.00000000000E+00  0.00000000000E+00  0.11909796569E+04  0.11909796569E+04  0.25500000920E-02 0.  1.
        2   -1    0    0  501    0  0.00000000000E+00  0.00000000000E+00 -0.15312423578E+04  0.15312423578E+04  0.25500000920E-02 0. -1.
    10030    2    1    2    0    0  0.00000000000E+00  0.00000000000E+00 -0.34026270092E+03  0.27222220147E+04  0.27008728204E+04 0.  0.
        3    1    3    3  502    0  0.39286310697E+03 -0.95831713157E+03  0.70330116316E+03  0.12519367723E+04  0.10100000352E+00 0.  1.
       -3    1    3    3    0  502 -0.39286310697E+03  0.95831713157E+03 -0.10435638641E+04  0.14702852424E+04  0.10100000352E+00 0. -1.
</event>
<event>
 5   0  0.4983208E-07  0.2693095E+04  0.7818609E-02  0.8337249E-01
        2   -1    0    0  501    0  0.00000000000E+00  0.00000000000E+00  0.19470604312E+04  0.19470604312E+04  0.25500000920E-02 0.  1.
       -2   -1    0    0    0  501  0.00000000000E+00  0.00000000000E+00 -0.93124525192E+03  0.93124525192E+03  0.25500000920E-02 0. -1.
    10030    2    1    2    0    0  0.00000000000E+00  0.00000000000E+00  0.10158151792E+04  0.28783056831E+04  0.26930954545E+04 0.  0.
        4    1    3    3  502    0  0.10674083624E+04  0.82085171263E+03  0.51386042687E+03  0.14412537242E+04  0.12699999809E+01 0.  1.
       -4    1    3    3    0  502 -0.10674083624E+04 -0.82085171263E+03  0.50195475236E+03  0.14370519589E+04  0.12699999809E+01 0. -1.
</event>
<event>
 5   0  0.4843887E-07  0.2698571E+04  0.7818609E-02  0.8335469E-01
        2   -1    0    0  501    0  0.00000000000E+00  0.00000000000E+00  0.16718231397E+04  0.16718231397E+04  0.25500000920E-02 0.  1.
       -2   -1    0    0    0  501  0.00000000000E+00  0.00000000000E+00 -0.10889734902E+04  0.10889734902E+04  0.25500000920E-02 0. -1.
    10030    2    1    2    0    0  0.00000000000E+00  0.00000000000E+00  0.58284964948E+03  0.27607966300E+04  0.26985707918E+04 0.  0.
        5    1    3    3  502    0  0.57525257118E+03 -0.65339837252E+03  0.13460709603E+04  0.16030514883E+04  0.46999998093E+01 0.  1.
       -5    1    3    3    0  502 -0.57525257118E+03  0.65339837252E+03 -0.76322131081E+03  0.11577451417E+04  0.46999998093E+01 0. -1.
</event>
<event>
 5   0  0.1971600E-07  0.2700453E+04  0.7818609E-02  0.8334858E-01
       -1   -1    0    0    0  501  0.00000000000E+00  0.00000000000E+00  0.17215050592E+04  0.17215050592E+04  0.50400001928E-02 0.  1.
        1   -1    0    0  501    0  0.00000000000E+00  0.00000000000E+00 -0.10590219596E+04  0.10590219596E+04  0.50400001928E-02 0. -1.
    10030    2    1    2    0    0  0.00000000000E+00  0.00000000000E+00  0.66248309961E+03  0.27805270187E+04  0.27004530443E+04 0.  0.
        5    1    3    3  502    0  0.96601349480E+03  0.91713313971E+03  0.10384387185E+03  0.13360841694E+04  0.46999998093E+01 0.  1.
       -5    1    3    3    0  502 -0.96601349480E+03 -0.91713313971E+03  0.55863922776E+03  0.14444428493E+04  0.46999998093E+01 0. -1.
</event>
<event>
 5   0  0.5043890E-07  0.2701949E+04  0.7818609E-02  0.8334373E-01
       -2   -1    0    0    0  501  0.00000000000E+00  0.00000000000E+00  0.10106909241E+04  0.10106909241E+04  0.25500000920E-02 0.  1.
        2   -1    0    0  501    0  0.00000000000E+00  0.00000000000E+00 -0.18058259637E+04  0.18058259637E+04  0.25500000920E-02 0. -1.
    10030    2    1    2    0    0  0.00000000000E+00  0.00000000000E+00 -0.79513503967E+03  0.28165168878E+04  0.27019488611E+04 0.  0.
        3    1    3    3  502    0  0.99930912866E+02 -0.12616091058E+04 -0.89035823042E+03  0.15473789167E+04  0.10100000352E+00 0. -1.
       -3    1    3    3    0  502 -0.99930912866E+02  0.12616091058E+04  0.95223190756E+02  0.12691379710E+04  0.10100000352E+00 0.  1.
</event>
<event>
 5   0  0.4992668E-07  0.2701045E+04  0.7818609E-02  0.8334666E-01
        2   -1    0    0  501    0  0.00000000000E+00  0.00000000000E+00  0.13776694830E+04  0.13776694830E+04  0.25500000920E-02 0.  1.
       -2   -1    0    0    0  501  0.00000000000E+00  0.00000000000E+00 -0.13239100173E+04  0.13239100173E+04  0.25500000920E-02 0. -1.
    10030    2    1    2    0    0  0.00000000000E+00  0.00000000000E+00  0.53759465706E+02  0.27015795003E+04  0.27010445602E+04 0.  0.
        1    1    3    3  502    0 -0.74080991076E+03 -0.93711842581E+02 -0.10986560670E+04  0.13283924070E+04  0.50400001928E-02 0. -1.
       -1    1    3    3    0  502  0.74080991076E+03  0.93711842581E+02  0.11524155327E+04  0.13731870933E+04  0.50400001928E-02 0.  1.
</event>
<event>
 5   0  0.4983208E-07  0.2693981E+04  0.7818609E-02  0.8336960E-01
        2   -1    0    0  501    0  0.00000000000E+00  0.00000000000E+00  0.28737052010E+04  0.28737052010E+04  0.25500000920E-02 0.  1.
       -2   -1    0    0    0  501  0.00000000000E+00  0.00000000000E+00 -0.63137436459E+03  0.63137436460E+03  0.25500000920E-02 0. -1.
    10030    2    1    2    0    0  0.00000000000E+00  0.00000000000E+00  0.22423308364E+04  0.35050795656E+04  0.26939812882E+04 0.  0.
        4    1    3    3  502    0 -0.11439223818E+04 -0.67927692173E+03  0.13953400169E+04  0.19279395550E+04  0.12699999809E+01 0.  1.
       -4    1    3    3    0  502  0.11439223818E+04  0.67927692173E+03  0.84699081955E+03  0.15771400107E+04  0.12699999809E+01 0. -1.
</event>
<event>
 5   0  0.4992668E-07  0.2700314E+04  0.7818609E-02  0.8334903E-01
        2   -1    0    0  501    0  0.00000000000E+00  0.00000000000E+00  0.22267949927E+04  0.22267949927E+04  0.25500000920E-02 0. -1.
       -2   -1    0    0    0  501  0.00000000000E+00  0.00000000000E+00 -0.81863152332E+03  0.81863152332E+03  0.25500000920E-02 0.  1.
    10030    2    1    2    0    0  0.00000000000E+00  0.00000000000E+00  0.14081634694E+04  0.30454265160E+04  0.27003144832E+04 0.  0.
        1    1    3    3  502    0  0.94067771536E+03  0.70708211336E+03 -0.42389230296E+02  0.11775553176E+04  0.50400001928E-02 0.  1.
       -1    1    3    3    0  502 -0.94067771536E+03 -0.70708211336E+03  0.14505526997E+04  0.18678711984E+04  0.50400001928E-02 0. -1.
</event>
<event>
 5   0  0.5043890E-07  0.2700346E+04  0.7818609E-02  0.8334893E-01
       -2   -1    0    0    0  501  0.00000000000E+00  0.00000000000E+00  0.88965795933E+03  0.88965795933E+03  0.25500000920E-02 0.  1.
        2   -1    0    0  501    0  0.00000000000E+00  0.00000000000E+00 -0.20490654234E+04  0.20490654234E+04  0.25500000920E-02 0. -1.
    10030    2    1    2    0    0  0.00000000000E+00  0.00000000000E+00 -0.11594074641E+04  0.29387233827E+04  0.27003461727E+04 0.  0.
        3    1    3    3  502    0 -0.10824965127E+04 -0.54314750471E+03  0.69769859429E+02  0.12131264383E+04  0.10100000352E+00 0.  1.
       -3    1    3    3    0  502  0.10824965127E+04  0.54314750471E+03 -0.12291773235E+04  0.17255969444E+04  0.10100000352E+00 0. -1.
</event>
<event>
 5   0  0.4735120E-07  0.2701834E+04  0.7818609E-02  0.8334410E-01
        2   -1    0    0  501    0  0.00000000000E+00  0.00000000000E+00  0.14008264460E+04  0.14008264460E+04  0.25500000920E-02 0.  1.
       -2   -1    0    0    0  501  0.00000000000E+00  0.00000000000E+00 -0.13027857652E+04  0.13027857652E+04  0.25500000920E-02 0. -1.
    10030    2    1    2    0    0  0.00000000000E+00  0.00000000000E+00  0.98040680842E+02  0.27036122112E+04  0.27018340092E+04 0.  0.
        2    1    3    3  502    0  0.91872720372E+03  0.81500630414E+03 -0.51409491048E+03  0.13313859424E+04  0.25500000920E-02 0. -1.
       -2    1    3    3    0  502 -0.91872720372E+03 -0.81500630414E+03  0.61213559132E+03  0.13722262688E+04  0.25500000920E-02 0.  1.
</event>
<event>
 5   0  0.4992668E-07  0.2699208E+04  0.7818609E-02  0.8335262E-01
       -2   -1    0    0    0  501  0.00000000000E+00  0.00000000000E+00  0.92953135690E+03  0.92953135690E+03  0.25500000920E-02 0.  1.
        2   -1    0    0  501    0  0.00000000000E+00  0.00000000000E+00 -0.19595152545E+04  0.19595152545E+04  0.25500000920E-02 0. -1.
    10030    2    1    2    0    0  0.00000000000E+00  0.00000000000E+00 -0.10299838976E+04  0.28890466114E+04  0.26992079382E+04 0.  0.
        1    1    3    3  502    0  0.74972570995E+03  0.83716327313E+03 -0.13148809980E+04  0.17296944889E+04  0.50400001928E-02 0. -1.
       -1    1    3    3    0  502 -0.74972570995E+03 -0.83716327313E+03  0.28489710043E+03  0.11593521225E+04  0.50400001928E-02 0.  1.
</event>
<event>
 5   0  0.4735120E-07  0.2700651E+04  0.7818609E-02  0.8334794E-01
        2   -1    0    0  501    0  0.00000000000E+00  0.00000000000E+00  0.17920033334E+04  0.17920033334E+04  0.25500000920E-02 0. -1.
       -2   -1    0    0    0  501  0.00000000000E+00  0.00000000000E+00 -0.10175089448E+04  0.10175089448E+04  0.25500000920E-02 0.  1.
    10030    2    1    2    0    0  0.00000000000E+00  0.00000000000E+00  0.77449438862E+03  0.28095122782E+04  0.27006513443E+04 0.  0.
        2    1    3    3  502    0 -0.88144787298E+03  0.57866987173E+03 -0.49030166241E+03  0.11628434518E+04  0.25500000920E-02 0.  1.
       -2    1    3    3    0  502  0.88144787298E+03 -0.57866987173E+03  0.12647960510E+04  0.16466688264E+04  0.25500000920E-02 0. -1.
</event>
<event>
 5   0  0.1888149E-07  0.2700229E+04  0.7818609E-02  0.8334931E-01
       -1   -1    0    0    0  501  0.00000000000E+00  0.00000000000E+00  0.84574396979E+03  0.84574396981E+03  0.50400001928E-02 0. -1.
        1   -1    0    0  501    0  0.00000000000E+00  0.00000000000E+00 -0.21552723523E+04  0.21552723524E+04  0.50400001928E-02 0.  1.
    10030    2    1    2    0    0  0.00000000000E+00  0.00000000000E+00 -0.13095283826E+04  0.30010163222E+04  0.27002285794E+04 0.  0.
        1    1    3    3  502    0  0.97146073691E+03 -0.43515161389E+03 -0.15777667085E+04  0.19032710466E+04  0.50400001928E-02 0.  1.
       -1    1    3    3    0  502 -0.97146073691E+03  0.43515161389E+03  0.26823832595E+03  0.10977452755E+04  0.50400001928E-02 0. -1.
</event>
<event>
 5   0  0.1964242E-07  0.2702591E+04  0.7818609E-02  0.8334165E-01
       -1   -1    0    0    0  501  0.00000000000E+00  0.00000000000E+00  0.75838907397E+03  0.75838907398E+03  0.50400001928E-02 0.  1.
        1   -1    0    0  501    0  0.00000000000E+00  0.00000000000E+00 -0.24077349364E+04  0.24077349364E+04  0.50400001928E-02 0. -1.
    10030    2    1    2    0    0  0.00000000000E+00  0.00000000000E+00 -0.16493458624E+04  0.31661240104E+04  0.27025912520E+04 0.  0.
        2    1    3    3  502    0 -0.11396949836E+04  0.71217719736E+03 -0.98993058136E+03  0.16691505540E+04  0.25500000920E-02 0. -1.
       -2    1    3    3    0  502  0.11396949836E+04 -0.71217719736E+03 -0.65941528108E+03  0.14969734564E+04  0.25500000920E-02 0.  1.
</event>
<event>
 5   0  0.1965415E-07  0.2697998E+04  0.7818609E-02  0.8335655E-01
        1   -1    0    0  501    0  0.00000000000E+00  0.00000000000E+00  0.18129837104E+04  0.18129837104E+04  0.50400001928E-02 0. -1.
       -1   -1    0    0    0  501  0.00000000000E+00  0.00000000000E+00 -0.10037585995E+04  0.10037585995E+04  0.50400001928E-02 0.  1.
    10030    2    1    2    0    0  0.00000000000E+00  0.00000000000E+00  0.80922511090E+03  0.28167423099E+04  0.26979977687E+04 0.  0.
        4    1    3    3  502    0 -0.11143224707E+03  0.85690718776E+03 -0.67687982489E+03  0.10976679755E+04  0.12699999809E+01 0.  1.
       -4    1    3    3    0  502  0.11143224707E+03 -0.85690718776E+03  0.14861049358E+04  0.17190743344E+04  0.12699999809E+01 0. -1.
</event>
<event>
 5   0  0.1641625E-07  0.2699430E+04  0.7818609E-02  0.8335190E-01
        3   -1    0    0  501    0  0.00000000000E+00  0.00000000000E+00  0.10544990741E+04  0.10544990790E+04  0.10100000352E+00 0.  1.
       -3   -1    0    0    0  501  0.00000000000E+00  0.00000000000E+00 -0.17275795918E+04  0.17275795947E+04  0.10100000352E+00 0. -1.
    10030    2    1    2    0    0  0.00000000000E+00  0.00000000000E+00 -0.67308051765E+03  0.27820786737E+04  0.26994303776E+04 0.  0.
        2    1    3    3  502    0  0.12510351130E+04  0.37683003125E+03  0.12413555367E+02  0.13066154073E+04  0.25500000920E-02 0.  1.
       -2    1    3    3    0  502 -0.12510351130E+04 -0.37683003125E+03 -0.68549407302E+03  0.14754632664E+04  0.25500000920E-02 0. -1.
</event>
<event>
 5   0  0.5043890E-07  0.2703305E+04  0.7818609E-02  0.8333934E-01
       -2   -1    0    0    0  501  0.00000000000E+00  0.00000000000E+00  0.89176641874E+03  0.89176641874E+03  0.25500000920E-02 0.  1.
        2   -1    0    0  501    0  0.00000000000E+00  0.00000000000E+00 -0.20487025274E+04  0.20487025274E+04  0.25500000920E-02 0. -1.
    10030    2    1    2    0    0  0.00000000000E+00  0.00000000000E+00 -0.11569361087E+04  0.29404689461E+04  0.27033047301E+04 0.  0.
        3    1    3    3  502    0 -0.13362817757E+04 -0.13348640193E+03 -0.41173442663E+03  0.14046326395E+04  0.10100000352E+00 0. -1.
       -3    1    3    3    0  502  0.13362817757E+04  0.13348640193E+03 -0.74520168203E+03  0.15358363066E+04  0.10100000352E+00 0.  1.
</event>
<event>
 5   0  0.5043890E-07  0.2700200E+04  0.7818609E-02  0.8334940E-01
        2   -1    0    0  501    0  0.00000000000E+00  0.00000000000E+00  0.20303485880E+04  0.20303485880E+04  0.25500000920E-02 0.  1.
       -2   -1    0    0    0  501  0.00000000000E+00  0.00000000000E+00 -0.89776186471E+03  0.89776186472E+03  0.25500000920E-02 0. -1.
    10030    2    1    2    0    0  0.00000000000E+00  0.00000000000E+00  0.11325867233E+04  0.29281104527E+04  0.27001996477E+04 0.  0.
        3    1    3    3  502    0  0.12828906559E+04 -0.38291016513E+02  0.10205735666E+04  0.16397698167E+04  0.10100000352E+00 0.  1.
       -3    1    3    3    0  502 -0.12828906559E+04  0.38291016513E+02  0.11201315671E+03  0.12883406360E+04  0.10100000352E+00 0. -1.
</event>
<event>
 5   0  0.1937896E-07  0.2700250E+04  0.7818609E-02  0.8334924E-01
        1   -1    0    0  501    0  0.00000000000E+00  0.00000000000E+00  0.15280225347E+04  0.15280225348E+04  0.50400001928E-02 0.  1.
       -1   -1    0    0    0  501  0.00000000000E+00  0.00000000000E+00 -0.11929385236E+04  0.11929385236E+04  0.50400001928E-02 0. -1.
    10030    2    1    2    0    0  0.00000000000E+00  0.00000000000E+00  0.33508401115E+03  0.27209610584E+04  0.27002495786E+04 0.  0.
        3    1    3    3  502    0  0.12407385114E+03  0.10342594194E+04  0.10330539164E+04  0.14670675756E+04  0.10100000352E+00 0.  1.
       -3    1    3    3    0  502 -0.12407385114E+03 -0.10342594194E+04 -0.69796990521E+03  0.12538934827E+04  0.10100000352E+00 0. -1.
</event>
<event>
 5   0  0.1965415E-07  0.2702021E+04  0.7818609E-02  0.8334350E-01
       -1   -1    0    0    0  501  0.00000000000E+00  0.00000000000E+00  0.85574342056E+03  0.85574342058E+03  0.50400001928E-02 0. -1.
        1   -1    0    0  501    0  0.00000000000E+00  0.00000000000E+00 -0.21329161465E+04  0.21329161465E+04  0.50400001928E-02 0.  1.
    10030    2    1    2    0    0  0.00000000000E+00  0.00000000000E+00 -0.12771727259E+04  0.29886595671E+04  0.27020206950E+04 0.  0.
        4    1    3    3  502    0 -0.78685163797E+03  0.81793179181E+02 -0.18499376669E+04  0.20119882228E+04  0.12699999809E+01 0.  1.
       -4    1    3    3    0  502  0.78685163797E+03 -0.81793179181E+02  0.57276494094E+03  0.97667134431E+03  0.12699999809E+01 0. -1.
</event>
<event>
 5   0  0.1971600E-07  0.2711003E+04  0.7818609E-02  0.8331444E-01
        1   -1    0    0  501    0  0.00000000000E+00  0.00000000000E+00  0.12436592364E+04  0.12436592365E+04  0.50400001928E-02 0.  1.
       -1   -1    0    0    0  501  0.00000000000E+00  0.00000000000E+00 -0.14774014636E+04  0.14774014636E+04  0.50400001928E-02 0. -1.
    10030    2    1    2    0    0  0.00000000000E+00  0.00000000000E+00 -0.23374222717E+03  0.27210607001E+04  0.27110027489E+04 0.  0.
        5    1    3    3  502    0 -0.97367471145E+02  0.11649375636E+04  0.57182461802E+03  0.13013705988E+04  0.46999998093E+01 0.  1.
       -5    1    3    3    0  502  0.97367471145E+02 -0.11649375636E+04 -0.80556684519E+03  0.14196901013E+04  0.46999998093E+01 0. -1.
</event>
<event>
 5   0  0.4983208E-07  0.2699518E+04  0.7818609E-02  0.8335161E-01
       -2   -1    0    0    0  501  0.00000000000E+00  0.00000000000E+00  0.75272883604E+03  0.75272883605E+03  0.25500000920E-02 0. -1.
        2   -1    0    0  501    0  0.00000000000E+00  0.00000000000E+00 -0.24203256975E+04  0.24203256975E+04  0.25500000920E-02 0.  1.
    10030    2    1    2    0    0  0.00000000000E+00  0.00000000000E+00 -0.16675968615E+04  0.31730545336E+04  0.26995176941E+04 0.  0.
        4    1    3    3  502    0  0.12344825083E+03  0.11955110414E+04 -0.15558529432E+04  0.19660025724E+04  0.12699999809E+01 0. -1.
       -4    1    3    3    0  502 -0.12344825083E+03 -0.11955110414E+04 -0.11174391830E+03  0.12070519612E+04  0.12699999809E+01 0.  1.
</event>
<event>
 5   0  0.4983208E-07  0.2700375E+04  0.7818609E-02  0.8334883E-01
       -2   -1    0    0    0  501  0.00000000000E+00  0.00000000000E+00  0.16042688255E+04  0.16042688255E+04  0.25500000920E-02 0.  1.
        2   -1    0    0  501    0  0.00000000000E+00  0.00000000000E+00 -0.11363473738E+04  0.11363473738E+04  0.25500000920E-02 0. -1.
    10030    2    1    2    0    0  0.00000000000E+00  0.00000000000E+00  0.46792145164E+03  0.27406161993E+04  0.27003752826E+04 0.  0.
        4    1    3    3  502    0  0.43331609684E+03  0.38048740730E+03 -0.10050810267E+04  0.11587592459E+04  0.12699999809E+01 0. -1.
       -4    1    3    3    0  502 -0.43331609684E+03 -0.38048740730E+03  0.14730024783E+04  0.15818569534E+04  0.12699999809E+01 0.  1.
</event>
<event>
 5   0  0.5043890E-07  0.2700442E+04  0.7818609E-02  0.8334862E-01
        2   -1    0    0  501    0  0.00000000000E+00  0.00000000000E+00  0.89402798972E+03  0.89402798972E+03  0.25500000920E-02 0.  1.
       -2   -1    0    0    0  501  0.00000000000E+00  0.00000000000E+00 -0.20391944977E+04  0.20391944977E+04  0.25500000920E-02 0. -1.
    10030    2    1    2    0    0  0.00000000000E+00  0.00000000000E+00 -0.11451665080E+04  0.29332224874E+04  0.27004421545E+04 0.  0.
        3    1    3    3  502    0 -0.63041395067E+03 -0.98481797754E+03  0.16075012914E+03  0.11803087784E+04  0.10100000352E+00 0.  1.
       -3    1    3    3    0  502  0.63041395067E+03  0.98481797754E+03 -0.13059166371E+04  0.17529137090E+04  0.10100000352E+00 0. -1.
</event>
<event>
 5   0  0.1888149E-07  0.2699625E+04  0.7818609E-02  0.8335127E-01
       -1   -1    0    0    0  501  0.00000000000E+00  0.00000000000E+00  0.13803401698E+04  0.13803401699E+04  0.50400001928E-02 0.  1.
        1   -1    0    0  501    0  0.00000000000E+00  0.00000000000E+00 -0.13199600247E+04  0.13199600247E+04  0.50400001928E-02 0. -1.
    10030    2    1    2    0    0  0.00000000000E+00  0.00000000000E+00  0.60380145114E+02  0.27003001946E+04  0.26996250442E+04 0.  0.
        1    1    3    3  502    0  0.50253551513E+03  0.11771241289E+04  0.45905210868E+03  0.13597396800E+04  0.50400001928E-02 0.  1.
       -1    1    3    3    0  502 -0.50253551513E+03 -0.11771241289E+04 -0.39867196356E+03  0.13405605146E+04  0.50400001928E-02 0. -1.
</event>
<event>
 5   0  0.4983208E-07  0.2699865E+04  0.7818609E-02  0.8335049E-01
        2   -1    0    0  501    0  0.00000000000E+00  0.00000000000E+00  0.20676752009E+04  0.20676752009E+04  0.25500000920E-02 0.  1.
       -2   -1    0    0    0  501  0.00000000000E+00  0.00000000000E+00 -0.88133647896E+03  0.88133647896E+03  0.25500000920E-02 0. -1.
    10030    2    1    2    0    0  0.00000000000E+00  0.00000000000E+00  0.11863387219E+04  0.29490116798E+04  0.26998648716E+04 0.  0.
        4    1    3    3  502    0  0.18537996770E+03 -0.11103190857E+04 -0.22066573554E+03  0.11471134139E+04  0.12699999809E+01 0. -1.
       -4    1    3    3    0  502 -0.18537996770E+03  0.11103190857E+04  0.14070044574E+04  0.18018982659E+04  0.12699999809E+01 0.  1.
</event>
<event>
 5   0  0.1965415E-07  0.2700055E+04  0.7818609E-02  0.8334987E-01
       -1   -1    0    0    0  501  0.00000000000E+00  0.00000000000E+00  0.10016668690E+04  0.10016668690E+04  0.50400001928E-02 0. -1.
        1   -1    0    0  501    0  0.00000000000E+00  0.00000000000E+00 -0.18195418852E+04  0.18195418852E+04  0.50400001928E-02 0.  1.
    10030    2    1    2    0    0  0.00000000000E+00  0.00000000000E+00 -0.81787501621E+03  0.28212087542E+04  0.27000554240E+04 0.  0.
        4    1    3    3  502    0  0.12872615458E+04  0.28570430108E+03 -0.71159666122E+03  0.14983459735E+04  0.12699999809E+01 0.  1.
       -4    1    3    3    0  502 -0.12872615458E+04 -0.28570430108E+03 -0.10627835500E+03  0.13228627808E+04  0.12699999809E+01 0. -1.
</event>
<event>
 5   0  0.4992668E-07  0.2700029E+04  0.7818609E-02  0.8334996E-01
        2   -1    0    0  501    0  0.00000000000E+00  0.00000000000E+00  0.15860020761E+04  0.15860020761E+04  0.25500000920E-02 0. -1.
       -2   -1    0    0    0  501  0.00000000000E+00  0.00000000000E+00 -0.11491402434E+04  0.11491402434E+04  0.25500000920E-02 0.  1.
    10030    2    1    2    0    0  0.00000000000E+00  0.00000000000E+00  0.43686183271E+03  0.27351423196E+04  0.27000287494E+04 0.  0.
        1    1    3    3  502    0  0.39868586282E+03  0.35145356992E+03 -0.10387031627E+04  0.11667794519E+04  0.50400001928E-02 0.  1.
       -1    1    3    3    0  502 -0.39868586282E+03 -0.35145356992E+03  0.14755649954E+04  0.15683628677E+04  0.50400001928E-02 0. -1.
</event>
<event>
 5   0  0.4843887E-07  0.2699434E+04  0.7818609E-02  0.8335189E-01
       -2   -1    0    0    0  501  0.00000000000E+00  0.00000000000E+00  0.85500499790E+03  0.85500499790E+03  0.25500000920E-02 0. -1.
        2   -1    0    0  501    0  0.00000000000E+00  0.00000000000E+00 -0.21306735242E+04  0.21306735242E+04  0.25500000920E-02 0.  1.
    10030    2    1    2    0    0  0.00000000000E+00  0.00000000000E+00 -0.12756685263E+04  0.29856785221E+04  0.26994343942E+04 0.  0.
        5    1    3    3  502    0 -0.57103815280E+03  0.49343064651E+03  0.59982043446E+03  0.96403579729E+03  0.46999998093E+01 0. -1.
       -5    1    3    3    0  502  0.57103815280E+03 -0.49343064651E+03 -0.18754889608E+04  0.20216427248E+04  0.46999998093E+01 0.  1.
</event>
<event>
 5   0  0.1888149E-07  0.2700430E+04  0.7818609E-02  0.8334866E-01
       -1   -1    0    0    0  501  0.00000000000E+00  0.00000000000E+00  0.82820870636E+03  0.82820870637E+03  0.50400001928E-02 0. -1.
        1   -1    0    0  501    0  0.00000000000E+00  0.00000000000E+00 -0.22012329131E+04  0.22012329132E+04  0.50400001928E-02 0.  1.
    10030    2    1    2    0    0  0.00000000000E+00  0.00000000000E+00 -0.13730242068E+04  0.30294416195E+04  0.27004297906E+04 0.  0.
        1    1    3    3  502    0 -0.36271187952E+03  0.90078826099E+03 -0.17389486505E+04  0.19917132845E+04  0.50400001928E-02 0.  1.
       -1    1    3    3    0  502  0.36271187952E+03 -0.90078826099E+03  0.36592444372E+03  0.10377283350E+04  0.50400001928E-02 0. -1.
</event>
<event>
 5   0  0.1888149E-07  0.2700020E+04  0.7818609E-02  0.8334999E-01
        1   -1    0    0  501    0  0.00000000000E+00  0.00000000000E+00  0.12236484710E+04  0.12236484710E+04  0.50400001928E-02 0. -1.
       -1   -1    0    0    0  501  0.00000000000E+00  0.00000000000E+00 -0.14894198954E+04  0.14894198954E+04  0.50400001928E-02 0.  1.
    10030    2    1    2    0    0  0.00000000000E+00  0.00000000000E+00 -0.26577142440E+03  0.27130683665E+04  0.27000195390E+04 0.  0.
        1    1    3    3  502    0 -0.89554215540E+03 -0.20134472282E+03 -0.11276148931E+04  0.14539775778E+04  0.50400001928E-02 0.  1.
       -1    1    3    3    0  502  0.89554215540E+03  0.20134472282E+03  0.86184346873E+03  0.12590907887E+04  0.50400001928E-02 0. -1.
</event>
<event>
 5   0  0.1965415E-07  0.2700237E+04  0.7818609E-02  0.8334928E-01
        1   -1    0    0  501    0  0.00000000000E+00  0.00000000000E+00  0.16780822753E+04  0.16780822753E+04  0.50400001928E-02 0. -1.
       -1   -1    0    0    0  501  0.00000000000E+00  0.00000000000E+00 -0.10862517633E+04  0.10862517633E+04  0.50400001928E-02 0.  1.
    10030    2    1    2    0    0  0.00000000000E+00  0.00000000000E+00  0.59183051193E+03  0.27643340386E+04  0.27002369011E+04 0.  0.
        4    1    3    3  502    0 -0.86349387067E+03  0.10260142092E+04  0.45612739521E+03  0.14164676614E+04  0.12699999809E+01 0.  1.
       -4    1    3    3    0  502  0.86349387067E+03 -0.10260142092E+04  0.13570311673E+03  0.13478663772E+04  0.12699999809E+01 0. -1.
</event>
<event>
 5   0  0.4983208E-07  0.2701131E+04  0.7818609E-02  0.8334638E-01
       -2   -1    0    0    0  501  0.00000000000E+00  0.00000000000E+00  0.55751108214E+03  0.55751108214E+03  0.25500000920E-02 0.  1.
        2   -1    0    0  501    0  0.00000000000E+00  0.00000000000E+00 -0.32717327063E+04  0.32717327063E+04  0.25500000920E-02 0. -1.
    10030    2    1    2    0    0  0.00000000000E+00  0.00000000000E+00 -0.27142216241E+04  0.38292437884E+04  0.27011310531E+04 0.  0.
        4    1    3    3  502    0 -0.72103852184E+03 -0.54091171867E+03  0.68692641285E+02  0.90399243871E+03  0.12699999809E+01 0.  1.
       -4    1    3    3    0  502  0.72103852184E+03  0.54091171867E+03 -0.27829142654E+04  0.29252513497E+04  0.12699999809E+01 0. -1.
</event>
<event>
 5   0  0.1888149E-07  0.2699946E+04  0.7818609E-02  0.8335022E-01
       -1   -1    0    0    0  501  0.00000000000E+00  0.00000000000E+00  0.98825977953E+03  0.98825977954E+03  0.50400001928E-02 0.  1.
        1   -1    0    0  501    0  0.00000000000E+00  0.00000000000E+00 -0.18440775651E+04  0.18440775651E+04  0.50400001928E-02 0. -1.
    10030    2    1    2    0    0  0.00000000000E+00  0.00000000000E+00 -0.85581778560E+03  0.28323373447E+04  0.26999464350E+04 0.  0.
        1    1    3    3  502    0 -0.12391521521E+04 -0.35601856383E+03 -0.80585265745E+01  0.12893068734E+04  0.50400001928E-02 0.  1.
       -1    1    3    3    0  502  0.12391521521E+04  0.35601856383E+03 -0.84775925902E+03  0.15430304713E+04  0.50400001928E-02 0. -1.
</event>
<event>
 5   0  0.4992668E-07  0.2700979E+04  0.7818609E-02  0.8334687E-01
        2   -1    0    0  501    0  0.00000000000E+00  0.00000000000E+00  0.16487803772E+04  0.16487803772E+04  0.25500000920E-02 0. -1.
       -2   -1    0    0    0  501  0.00000000000E+00  0.00000000000E+00 -0.11061645987E+04  0.11061645987E+04  0.25500000920E-02 0.  1.
    10030    2    1    2    0    0  0.00000000000E+00  0.00000000000E+00  0.54261577854E+03  0.27549449759E+04  0.27009794403E+04 0.  0.
        1    1    3    3  502    0  0.68260179687E+03 -0.70348695333E+03 -0.67622188587E+03  0.11908463988E+04  0.50400001928E-02 0.  1.
       -1    1    3    3    0  502 -0.68260179687E+03  0.70348695333E+03  0.12188376644E+04  0.15640985771E+04  0.50400001928E-02 0. -1.
</event>
<event>
 5   0  0.1641625E-07  0.2701382E+04  0.7818609E-02  0.8334557E-01
       -3   -1    0    0    0  501  0.00000000000E+00  0.00000000000E+00  0.92757304069E+03  0.92757304619E+03  0.10100000352E+00 0.  1.
        3   -1    0    0  501    0  0.00000000000E+00  0.00000000000E+00 -0.19668161550E+04  0.19668161576E+04  0.10100000352E+00 0. -1.
    10030    2    1    2    0    0  0.00000000000E+00  0.00000000000E+00 -0.10392431144E+04  0.28943892038E+04  0.27013816118E+04 0.  0.
        4    1    3    3  502    0 -0.12387481863E+04 -0.53714021101E+03 -0.55895062180E+03  0.14613158747E+04  0.12699999809E+01 0. -1.
       -4    1    3    3    0  502  0.12387481863E+04  0.53714021101E+03 -0.48029249255E+03  0.14330733291E+04  0.12699999809E+01 0.  1.
</event>
<event>
 5   0  0.5043890E-07  0.2700584E+04  0.7818609E-02  0.8334816E-01
       -2   -1    0    0    0  501  0.00000000000E+00  0.00000000000E+00  0.99484788543E+03  0.99484788543E+03  0.25500000920E-02 0.  1.
        2   -1    0    0  501    0  0.00000000000E+00  0.00000000000E+00 -0.18327309458E+04  0.18327309458E+04  0.25500000920E-02 0. -1.
    10030    2    1    2    0    0  0.00000000000E+00  0.00000000000E+00 -0.83788306039E+03  0.28275788313E+04  0.27005840154E+04 0.  0.
        3    1    3    3  502    0 -0.98654472133E+03  0.80430194627E+03 -0.89081929240E+03  0.15536187209E+04  0.10100000352E+00 0. -1.
       -3    1    3    3    0  502  0.98654472133E+03 -0.80430194627E+03  0.52936232008E+02  0.12739601104E+04  0.10100000352E+00 0.  1.
</event>
<event>
 5   0  0.1888149E-07  0.2696448E+04  0.7818609E-02  0.8336159E-01
       -1   -1    0    0    0  501  0.00000000000E+00  0.00000000000E+00  0.13371764406E+04  0.13371764406E+04  0.50400001928E-02 0. -1.
        1   -1    0    0  501    0  0.00000000000E+00  0.00000000000E+00 -0.13593623784E+04  0.13593623784E+04  0.50400001928E-02 0.  1.
    10030    2    1    2    0    0  0.00000000000E+00  0.00000000000E+00 -0.22185937867E+02  0.26965388190E+04  0.26964475494E+04 0.  0.
        1    1    3    3  502    0 -0.44100573405E+02 -0.12310710064E+02  0.13363987173E+04  0.13371828393E+04  0.50400001928E-02 0. -1.
       -1    1    3    3    0  502  0.44100573405E+02  0.12310710064E+02 -0.13585846552E+04  0.13593559797E+04  0.50400001928E-02 0.  1.
</event>
<event>
 5   0  0.1641625E-07  0.2699561E+04  0.7818609E-02  0.8335147E-01
        3   -1    0    0  501    0  0.00000000000E+00  0.00000000000E+00  0.13566940366E+04  0.13566940403E+04  0.10100000352E+00 0. -1.
       -3   -1    0    0    0  501  0.00000000000E+00  0.00000000000E+00 -0.13429020868E+04  0.13429020906E+04  0.10100000352E+00 0.  1.
    10030    2    1    2    0    0  0.00000000000E+00  0.00000000000E+00  0.13791949821E+02  0.26995961309E+04  0.26995608999E+04 0.  0.
        4    1    3    3  502    0 -0.87035874932E+03 -0.11022622215E+03 -0.10189007605E+04  0.13445573789E+04  0.12699999809E+01 0.  1.
       -4    1    3    3    0  502  0.87035874932E+03  0.11022622215E+03  0.10326927103E+04  0.13550387520E+04  0.12699999809E+01 0. -1.
</event>
<event>
 5   0  0.4843887E-07  0.2700673E+04  0.7818609E-02  0.8334787E-01
       -2   -1    0    0    0  501  0.00000000000E+00  0.00000000000E+00  0.24824382086E+04  0.24824382086E+04  0.25500000920E-02 0. -1.
        2   -1    0    0  501    0  0.00000000000E+00  0.00000000000E+00 -0.73452344135E+03  0.73452344135E+03  0.25500000920E-02 0.  1.
    10030    2    1    2    0    0  0.00000000000E+00  0.00000000000E+00  0.17479147673E+04  0.32169616500E+04  0.27006732908E+04 0.  0.
        5    1    3    3  502    0  0.14831080785E+02 -0.79866563741E+03  0.21708022105E+04  0.23131128568E+04  0.46999998093E+01 0. -1.
       -5    1    3    3    0  502 -0.14831080785E+02  0.79866563741E+03 -0.42288744318E+03  0.90384879318E+03  0.46999998093E+01 0.  1.
</event>
<event>
 5   0  0.1888149E-07  0.2699607E+04  0.7818609E-02  0.8335132E-01
       -1   -1    0    0    0  501  0.00000000000E+00  0.00000000000E+00  0.82336360051E+03  0.82336360052E+03  0.50400001928E-02 0.  1.
        1   -1    0    0  501    0  0.00000000000E+00  0.00000000000E+00 -0.22128372341E+04  0.22128372341E+04  0.50400001928E-02 0. -1.
    10030    2    1    2    0    0  0.00000000000E+00  0.00000000000E+00 -0.13894736336E+04  0.30362008347E+04  0.26996071066E+04 0.  0.
        1    1    3    3  502    0 -0.24109441172E+02 -0.18898768794E+03 -0.21976392222E+04  0.22058820826E+04  0.50400001928E-02 0. -1.
       -1    1    3    3    0  502  0.24109441172E+02  0.18898768794E+03  0.80816558861E+03  0.83031875204E+03  0.50400001928E-02 0.  1.
</event>
<event>
 5   0  0.1971600E-07  0.2699627E+04  0.7818609E-02  0.8335126E-01
        1   -1    0    0  501    0  0.00000000000E+00  0.00000000000E+00  0.12521370103E+04  0.12521370103E+04  0.50400001928E-02 0.  1.
       -1   -1    0    0    0  501  0.00000000000E+00  0.00000000000E+00 -0.14551094283E+04  0.14551094283E+04  0.50400001928E-02 0. -1.
    10030    2    1    2    0    0  0.00000000000E+00  0.00000000000E+00 -0.20297241799E+03  0.27072464386E+04  0.26996269144E+04 0.  0.
        5    1    3    3  502    0 -0.81813870565E+03 -0.10731525442E+04 -0.13266986654E+03  0.13559611750E+04  0.46999998093E+01 0.  1.
       -5    1    3    3    0  502  0.81813870565E+03  0.10731525442E+04 -0.70302551451E+02  0.13512852635E+04  0.46999998093E+01 0. -1.
</event>
<event>
 5   0  0.1937896E-07  0.2700405E+04  0.7818609E-02  0.8334874E-01
       -1   -1    0    0    0  501  0.00000000000E+00  0.00000000000E+00  0.13671953382E+04  0.13671953382E+04  0.50400001928E-02 0.  1.
        1   -1    0    0  501    0  0.00000000000E+00  0.00000000000E+00 -0.13334209247E+04  0.13334209248E+04  0.50400001928E-02 0. -1.
    10030    2    1    2    0    0  0.00000000000E+00  0.00000000000E+00  0.33774413465E+02  0.27006162630E+04  0.27004050601E+04 0.  0.
        3    1    3    3  502    0  0.38609518651E+03  0.87714709540E+03 -0.93428672391E+03  0.13384125719E+04  0.10100000352E+00 0. -1.
       -3    1    3    3    0  502 -0.38609518651E+03 -0.87714709540E+03  0.96806113738E+03  0.13622036911E+04  0.10100000352E+00 0.  1.
</event>
<event>
 5   0  0.4983208E-07  0.2699479E+04  0.7818609E-02  0.8335174E-01
        2   -1    0    0  501    0  0.00000000000E+00  0.00000000000E+00  0.14548780730E+04  0.14548780730E+04  0.25500000920E-02 0.  1.
       -2   -1    0    0    0  501  0.00000000000E+00  0.00000000000E+00 -0.12521993309E+04  0.12521993309E+04  0.25500000920E-02 0. -1.
    10030    2    1    2    0    0  0.00000000000E+00  0.00000000000E+00  0.20267874205E+03  0.27070774039E+04  0.26994794681E+04 0.  0.
        4    1    3    3  502    0  0.85587174656E+03  0.90687187331E+03 -0.41670216142E+03  0.13147529598E+04  0.12699999809E+01 0. -1.
       -4    1    3    3    0  502 -0.85587174656E+03 -0.90687187331E+03  0.61938090347E+03  0.13923244441E+04  0.12699999809E+01 0.  1.
</event>
<event>
 5   0  0.1964242E-07  0.2699724E+04  0.7818609E-02  0.8335094E-01
       -1   -1    0    0    0  501  0.00000000000E+00  0.00000000000E+00  0.83387549562E+03  0.83387549563E+03  0.50400001928E-02 0.  1.
        1   -1    0    0  501    0  0.00000000000E+00  0.00000000000E+00 -0.21851320235E+04  0.21851320235E+04  0.50400001928E-02 0. -1.
    10030    2    1    2    0    0  0.00000000000E+00  0.00000000000E+00 -0.13512565279E+04  0.30190075192E+04  0.26997244668E+04 0.  0.
        2    1    3    3  502    0  0.68441381024E+03 -0.43497597295E+02  0.62455083768E+03  0.92756565993E+03  0.25500000920E-02 0.  1.
       -2    1    3    3    0  502 -0.68441381024E+03  0.43497597295E+02 -0.19758073656E+04  0.20914418592E+04  0.25500000920E-02 0. -1.
</event>
<event>
 5   0  0.4992668E-07  0.2700338E+04  0.7818609E-02  0.8334895E-01
       -2   -1    0    0    0  501  0.00000000000E+00  0.00000000000E+00  0.63399202406E+03  0.63399202407E+03  0.25500000920E-02 0. -1.
        2   -1    0    0  501    0  0.00000000000E+00  0.00000000000E+00 -0.28753606994E+04  0.28753606994E+04  0.25500000920E-02 0.  1.
    10030    2    1    2    0    0  0.00000000000E+00  0.00000000000E+00 -0.22413686754E+04  0.35093527235E+04  0.27003375713E+04 0.  0.
        1    1    3    3  502    0  0.26821421380E+03 -0.36396578381E+03 -0.27740596851E+04  0.28106613266E+04  0.50400001928E-02 0.  1.
       -1    1    3    3    0  502 -0.26821421380E+03  0.36396578381E+03  0.53269100972E+03  0.69869139692E+03  0.50400001928E-02 0. -1.
</event>
<event>
 5   0  0.4983208E-07  0.2699984E+04  0.7818609E-02  0.8335010E-01
       -2   -1    0    0    0  501  0.00000000000E+00  0.00000000000E+00  0.15621078154E+04  0.15621078154E+04  0.25500000920E-02 0.  1.
        2   -1    0    0  501    0  0.00000000000E+00  0.00000000000E+00 -0.11666791508E+04  0.11666791508E+04  0.25500000920E-02 0. -1.
    10030    2    1    2    0    0  0.00000000000E+00  0.00000000000E+00  0.39542866460E+03  0.27287869662E+04  0.26999841626E+04 0.  0.
        4    1    3    3  502    0  0.27228035051E+03 -0.18322428807E+03  0.15211756808E+04  0.15561763376E+04  0.12699999809E+01 0.  1.
       -4    1    3    3    0  502 -0.27228035051E+03  0.18322428807E+03 -0.11257470162E+04  0.11726106286E+04  0.12699999809E+01 0. -1.
</event>
<event>
 5   0  0.4983208E-07  0.2698283E+04  0.7818609E-02  0.8335562E-01
        2   -1    0    0  501    0  0.00000000000E+00  0.00000000000E+00  0.13700361882E+04  0.13700361882E+04  0.25500000920E-02 0.  1.
       -2   -1    0    0    0  501  0.00000000000E+00  0.00000000000E+00 -0.13285654621E+04  0.13285654621E+04  0.25500000920E-02 0. -1.
    10030    2    1    2    0    0  0.00000000000E+00  0.00000000000E+00  0.41470726174E+02  0.26986016503E+04  0.26982829811E+04 0.  0.
        4    1    3    3  502    0 -0.29114459934E+03 -0.94542820083E+03 -0.89675048557E+03  0.13352013732E+04  0.12699999809E+01 0. -1.
       -4    1    3    3    0  502  0.29114459934E+03  0.94542820083E+03  0.93822121174E+03  0.13634002771E+04  0.12699999809E+01 0.  1.
</event>
<event>
 5   0  0.4735120E-07  0.2702689E+04  0.7818609E-02  0.8334133E-01
        2   -1    0    0  501    0  0.00000000000E+00  0.00000000000E+00  0.93394985724E+03  0.93394985724E+03  0.25500000920E-02 0.  1.
       -2   -1    0    0    0  501  0.00000000000E+00  0.00000000000E+00 -0.19552780364E+04  0.19552780364E+04  0.25500000920E-02 0. -1.
    10030    2    1    2    0    0  0.00000000000E+00  0.00000000000E+00 -0.10213281792E+04  0.28892278937E+04  0.27026887671E+04 0.  0.
        2    1    3    3  502    0 -0.11472746068E+04 -0.70521075484E+03 -0.39080789122E+03  0.14022453566E+04  0.25500000920E-02 0.  1.
       -2    1    3    3    0  502  0.11472746068E+04  0.70521075484E+03 -0.63052028794E+03  0.14869825371E+04  0.25500000920E-02 0. -1.
</event>
<event>
 5   0  0.5043890E-07  0.2696800E+04  0.7818609E-02  0.8336044E-01
       -2   -1    0    0    0  501  0.00000000000E+00  0.00000000000E+00  0.20577202818E+04  0.20577202818E+04  0.25500000920E-02 0.  1.
        2   -1    0    0  501    0  0.00000000000E+00  0.00000000000E+00 -0.88359067061E+03  0.88359067062E+03  0.25500000920E-02 0. -1.
    10030    2    1    2    0    0  0.00000000000E+00  0.00000000000E+00  0.11741296112E+04  0.29413109524E+04  0.26967999138E+04 0.  0.
        3    1    3    3  502    0 -0.90923944440E+03 -0.79696758304E+03  0.12381014752E+04  0.17305400801E+04  0.10100000352E+00 0.  1.
       -3    1    3    3    0  502  0.90923944440E+03  0.79696758304E+03 -0.63971864036E+02  0.12107708723E+04  0.10100000352E+00 0. -1.
</event>
<event>
 5   0  0.1937896E-07  0.2706757E+04  0.7818609E-02  0.8332816E-01
       -1   -1    0    0    0  501  0.00000000000E+00  0.00000000000E+00  0.89706856481E+03  0.89706856483E+03  0.50400001928E-02 0. -1.
        1   -1    0    0  501    0  0.00000000000E+00  0.00000000000E+00 -0.20417979793E+04  0.20417979793E+04  0.50400001928E-02 0.  1.
    10030    2    1    2    0    0  0.00000000000E+00  0.00000000000E+00 -0.11447294145E+04  0.29388665441E+04  0.27067565705E+04 0.  0.
        3    1    3    3  502    0 -0.40887679094E+03  0.12832965946E+04 -0.71641578810E+03  0.15255431726E+04  0.10100000352E+00 0.  1.
       -3    1    3    3    0  502  0.40887679094E+03 -0.12832965946E+04 -0.42831362639E+03  0.14133233715E+04  0.10100000352E+00 0. -1.
</event>
<event>
 5   0  0.1965415E-07  0.2699458E+04  0.7818609E-02  0.8335181E-01
        1   -1    0    0  501    0  0.00000000000E+00  0.00000000000E+00  0.10813929675E+04  0.10813929675E+04  0.50400001928E-02 0.  1.
       -1   -1    0    0    0  501  0.00000000000E+00  0.00000000000E+00 -0.16846496375E+04  0.16846496375E+04  0.50400001928E-02 0. -1.
    10030    2    1    2    0    0  0.00000000000E+00  0.00000000000E+00 -0.60325667002E+03  0.27660426050E+04  0.26994579239E+04 0.  0.
        4    1    3    3  502    0 -0.10805682583E+04  0.80512774200E+03 -0.38038920144E+03  0.14001985571E+04  0.12699999809E+01 0. -1.
       -4    1    3    3    0  502  0.10805682583E+04 -0.80512774200E+03 -0.22286746858E+03  0.13658440479E+04  0.12699999809E+01 0.  1.
</event>
<event>
 5   0  0.5043890E-07  0.2698883E+04  0.7818609E-02  0.8335368E-01
       -2   -1    0    0    0  501  0.00000000000E+00  0.00000000000E+00  0.78970474261E+03  0.78970474262E+03  0.25500000920E-02 0. -1.
        2   -1    0    0  501    0  0.00000000000E+00  0.00000000000E+00 -0.23059148637E+04  0.23059148637E+04  0.25500000920E-02 0.  1.
    10030    2    1    2    0    0  0.00000000000E+00  0.00000000000E+00 -0.15162101211E+04  0.30956196063E+04  0.26988826606E+04 0.  0.
        3    1    3    3  502    0 -0.28419867874E+03  0.70601586833E+03  0.52004905473E+03  0.92177997638E+03  0.10100000352E+00 0. -1.
       -3    1    3    3    0  502  0.28419867874E+03 -0.70601586833E+03 -0.20362591758E+04  0.21738396299E+04  0.10100000352E+00 0.  1.
</event>
<event>
 5   0  0.4735120E-07  0.2708833E+04  0.7818609E-02  0.8332145E-01
        2   -1    0    0  501    0  0.00000000000E+00  0.00000000000E+00  0.22799353097E+04  0.22799353097E+04  0.25500000920E-02 0. -1.
       -2   -1    0    0    0  501  0.00000000000E+00  0.00000000000E+00 -0.80460380833E+03  0.80460380833E+03  0.25500000920E-02 0.  1.
    10030    2    1    2    0    0  0.00000000000E+00  0.00000000000E+00  0.14753315014E+04  0.30845391181E+04  0.27088334264E+04 0.  0.
        2    1    3    3  502    0 -0.61950225536E+02 -0.10835963214E+04  0.16602388951E+04  0.19835352296E+04  0.25500000920E-02 0. -1.
       -2    1    3    3    0  502  0.61950225536E+02  0.10835963214E+04 -0.18490739372E+03  0.11010038885E+04  0.25500000920E-02 0.  1.
</event>
<event>
 5   0  0.1888149E-07  0.2699733E+04  0.7818609E-02  0.8335092E-01
       -1   -1    0    0    0  501  0.00000000000E+00  0.00000000000E+00  0.13080456001E+04  0.13080456001E+04  0.50400001928E-02 0.  1.
        1   -1    0    0  501    0  0.00000000000E+00  0.00000000000E+00 -0.13930241844E+04  0.13930241844E+04  0.50400001928E-02 0. -1.
    10030    2    1    2    0    0  0.00000000000E+00  0.00000000000E+00 -0.84978584250E+02  0.27010697845E+04  0.26997326944E+04 0.  0.
        1    1    3    3  502    0 -0.54203279094E+03  0.98490782080E+03  0.70507297437E+03  0.13270157728E+04  0.50400001928E-02 0.  1.
       -1    1    3    3    0  502  0.54203279094E+03 -0.98490782080E+03 -0.79005155862E+03  0.13740540118E+04  0.50400001928E-02 0. -1.
</event>
<event>
 5   0  0.4992668E-07  0.2692495E+04  0.7818609E-02  0.8337444E-01
        2   -1    0    0  501    0  0.00000000000E+00  0.00000000000E+00  0.17927868548E+04  0.17927868548E+04  0.25500000920E-02 0.  1.
       -2   -1    0    0    0  501  0.00000000000E+00  0.00000000000E+00 -0.10109303708E+04  0.10109303708E+04  0.25500000920E-02 0. -1.
    10030    2    1    2    0    0  0.00000000000E+00  0.00000000000E+00  0.78185648403E+03  0.28037172255E+04  0.26924952589E+04 0.  0.
        1    1    3    3  502    0  0.12468946877E+04  0.48839307991E+03  0.53487197271E+03  0.14419993724E+04  0.50400001928E-02 0.  1.
       -1    1    3    3    0  502 -0.12468946877E+04 -0.48839307991E+03  0.24698451132E+03  0.13617178532E+04  0.50400001928E-02 0. -1.
</event>
<event>
 5   0  0.1964242E-07  0.2699916E+04  0.7818609E-02  0.8335032E-01
        1   -1    0    0  501    0  0.00000000000E+00  0.00000000000E+00  0.11491663864E+04  0.11491663864E+04  0.50400001928E-02 0.  1.
       -1   -1    0    0    0  501  0.00000000000E+00  0.00000000000E+00 -0.15858329847E+04  0.15858329847E+04  0.50400001928E-02 0. -1.
    10030    2    1    2    0    0  0.00000000000E+00  0.00000000000E+00 -0.43666659831E+03  0.27349993711E+04  0.26999155250E+04 0.  0.
        2    1    3    3  502    0 -0.46967831703E+03 -0.49530083590E+03 -0.13981414772E+04  0.15558663920E+04  0.25500000920E-02 0. -1.
       -2    1    3    3    0  502  0.46967831703E+03  0.49530083590E+03  0.96147487892E+03  0.11791329791E+04  0.25500000920E-02 0.  1.
</event>
<event>
 5   0  0.4843887E-07  0.2699818E+04  0.7818609E-02  0.8335064E-01
        2   -1    0    0  501    0  0.00000000000E+00  0.00000000000E+00  0.12060926238E+04  0.12060926238E+04  0.25500000920E-02 0.  1.
       -2   -1    0    0    0  501  0.00000000000E+00  0.00000000000E+00 -0.15108745605E+04  0.15108745605E+04  0.25500000920E-02 0. -1.
    10030    2    1    2    0    0  0.00000000000E+00  0.00000000000E+00 -0.30478193669E+03  0.27169671843E+04  0.26998182627E+04 0.  0.
        5    1    3    3  502    0 -0.74380646073E+03  0.71676650738E+03  0.72216893871E+03  0.12603778573E+04  0.46999998093E+01 0.  1.
       -5    1    3    3    0  502  0.74380646073E+03 -0.71676650738E+03 -0.10269508754E+04  0.14565893270E+04  0.46999998093E+01 0. -1.
</event>
<event>
 5   0  0.1964242E-07  0.2700569E+04  0.7818609E-02  0.8334820E-01
        1   -1    0    0  501    0  0.00000000000E+00  0.00000000000E+00  0.15123577531E+04  0.15123577531E+04  0.50400001928E-02 0.  1.
       -1   -1    0    0    0  501  0.00000000000E+00  0.00000000000E+00 -0.12055799268E+04  0.12055799268E+04  0.50400001928E-02 0. -1.
    10030    2    1    2    0    0  0.00000000000E+00  0.00000000000E+00  0.30677782629E+03  0.27179376799E+04  0.27005689395E+04 0.  0.
        2    1    3    3  502    0 -0.31911184903E+03  0.79903227293E+03  0.12007467501E+04  0.14771857376E+04  0.25500000920E-02 0.  1.
       -2    1    3    3    0  502  0.31911184903E+03 -0.79903227293E+03 -0.89396892386E+03  0.12407519423E+04  0.25500000920E-02 0. -1.
</event>
<event>
 5   0  0.1937896E-07  0.2700487E+04  0.7818609E-02  0.8334847E-01
       -1   -1    0    0    0  501  0.00000000000E+00  0.00000000000E+00  0.12059304190E+04  0.12059304190E+04  0.50400001928E-02 0. -1.
        1   -1    0    0  501    0  0.00000000000E+00  0.00000000000E+00 -0.15118263579E+04  0.15118263579E+04  0.50400001928E-02 0.  1.
    10030    2    1    2    0    0  0.00000000000E+00  0.00000000000E+00 -0.30589593888E+03  0.27177567769E+04  0.27004869140E+04 0.  0.
        3    1    3    3  502    0 -0.10562593413E+04 -0.18132441632E+03  0.67364190898E+03  0.12658419221E+04  0.10100000352E+00 0. -1.
       -3    1    3    3    0  502  0.10562593413E+04  0.18132441632E+03 -0.97953784787E+03  0.14519148548E+04  0.10100000352E+00 0.  1.
</event>
<event>
 5   0  0.1971600E-07  0.2700767E+04  0.7818609E-02  0.8334756E-01
       -1   -1    0    0    0  501  0.00000000000E+00  0.00000000000E+00  0.16459959968E+04  0.16459959968E+04  0.50400001928E-02 0.  1.
        1   -1    0    0  501    0  0.00000000000E+00  0.00000000000E+00 -0.11078612645E+04  0.11078612645E+04  0.50400001928E-02 0. -1.
    10030    2    1    2    0    0  0.00000000000E+00  0.00000000000E+00  0.53813473229E+03  0.27538572612E+04  0.27007667106E+04 0.  0.
        5    1    3    3  502    0 -0.54177864974E+02 -0.75445205034E+03  0.14097083062E+04  0.15998227201E+04  0.46999998093E+01 0.  1.
       -5    1    3    3    0  502  0.54177864974E+02  0.75445205034E+03 -0.87157357390E+03  0.11540345411E+04  0.46999998093E+01 0. -1.
</event>
<event>
 5   0  0.4992668E-07  0.2700269E+04  0.7818609E-02  0.8334918E-01
        2   -1    0    0  501    0  0.00000000000E+00  0.00000000000E+00  0.66493356063E+03  0.66493356064E+03  0.25500000920E-02 0. -1.
       -2   -1    0    0    0  501  0.00000000000E+00  0.00000000000E+00 -0.27414210517E+04  0.27414210517E+04  0.25500000920E-02 0.  1.
    10030    2    1    2    0    0  0.00000000000E+00  0.00000000000E+00 -0.20764874911E+04  0.34063546123E+04  0.27002687726E+04 0.  0.
        1    1    3    3  502    0 -0.65044865830E+02 -0.13483179860E+04 -0.10055754866E+04  0.16832629876E+04  0.50400001928E-02 0. -1.
       -1    1    3    3    0  502  0.65044865830E+02  0.13483179860E+04 -0.10709120044E+04  0.17230916247E+04  0.50400001928E-02 0.  1.
</event>
<event>
 5   0  0.1937896E-07  0.2699672E+04  0.7818609E-02  0.8335111E-01
        1   -1    0    0  501    0  0.00000000000E+00  0.00000000000E+00  0.15982309597E+04  0.15982309597E+04  0.50400001928E-02 0.  1.
       -1   -1    0    0    0  501  0.00000000000E+00  0.00000000000E+00 -0.11400461974E+04  0.11400461974E+04  0.50400001928E-02 0. -1.
    10030    2    1    2    0    0  0.00000000000E+00  0.00000000000E+00  0.45818476237E+03  0.27382771571E+04  0.26996719269E+04 0.  0.
        3    1    3    3  502    0 -0.91162035275E+03 -0.67214728418E+03  0.97391148967E+03  0.14937661260E+04  0.10100000352E+00 0.  1.
       -3    1    3    3    0  502  0.91162035275E+03  0.67214728418E+03 -0.51572672731E+03  0.12445110311E+04  0.10100000352E+00 0. -1.
</event>
<event>
 5   0  0.4735120E-07  0.2701897E+04  0.7818609E-02  0.8334390E-01
        2   -1    0    0  501    0  0.00000000000E+00  0.00000000000E+00  0.15725868663E+04  0.15725868663E+04  0.25500000920E-02 0. -1.
       -2   -1    0    0    0  501  0.00000000000E+00  0.00000000000E+00 -0.11605472261E+04  0.11605472261E+04  0.25500000920E-02 0.  1.
    10030    2    1    2    0    0  0.00000000000E+00  0.00000000000E+00  0.41203964018E+03  0.27331340925E+04  0.27018966121E+04 0.  0.
        2    1    3    3  502    0 -0.25396196139E+03  0.23961779464E+03  0.15261549924E+04  0.15655869271E+04  0.25500000920E-02 0. -1.
       -2    1    3    3    0  502  0.25396196139E+03 -0.23961779464E+03 -0.11141153522E+04  0.11675471654E+04  0.25500000920E-02 0.  1.
</event>
<event>
 5   0  0.1965415E-07  0.2698143E+04  0.7818609E-02  0.8335608E-01
       -1   -1    0    0    0  501  0.00000000000E+00  0.00000000000E+00  0.11432864714E+04  0.11432864714E+04  0.50400001928E-02 0. -1.
        1   -1    0    0  501    0  0.00000000000E+00  0.00000000000E+00 -0.15918970578E+04  0.15918970578E+04  0.50400001928E-02 0.  1.
    10030    2    1    2    0    0  0.00000000000E+00  0.00000000000E+00 -0.44861058639E+03  0.27351835292E+04  0.26981433394E+04 0.  0.
        4    1    3    3  502    0 -0.10198112549E+03  0.98512279350E+02 -0.15843218262E+04  0.15906546077E+04  0.12699999809E+01 0.  1.
       -4    1    3    3    0  502  0.10198112549E+03 -0.98512279350E+02  0.11357112398E+04  0.11445289215E+04  0.12699999809E+01 0. -1.
</event>
<event>
 5   0  0.1971600E-07  0.2700018E+04  0.7818609E-02  0.8334999E-01
       -1   -1    0    0    0  501  0.00000000000E+00  0.00000000000E+00  0.96822450802E+03  0.96822450804E+03  0.50400001928E-02 0. -1.
        1   -1    0    0  501    0  0.00000000000E+00  0.00000000000E+00 -0.18823358564E+04  0.18823358564E+04  0.50400001928E-02 0.  1.
    10030    2    1    2    0    0  0.00000000000E+00  0.00000000000E+00 -0.91411134835E+03  0.28505603644E+04  0.27000175618E+04 0.  0.
        5    1    3    3  502    0 -0.11771786674E+04  0.30806500011E+03  0.16022140228E+03  0.12273331442E+04  0.46999998093E+01 0. -1.
       -5    1    3    3    0  502  0.11771786674E+04 -0.30806500011E+03 -0.10743327506E+04  0.16232272202E+04  0.46999998093E+01 0.  1.
</event>
<event>
 5   0  0.4843887E-07  0.2699855E+04  0.7818609E-02  0.8335052E-01
       -2   -1    0    0    0  501  0.00000000000E+00  0.00000000000E+00  0.10567019099E+04  0.10567019099E+04  0.25500000920E-02 0.  1.
        2   -1    0    0  501    0  0.00000000000E+00  0.00000000000E+00 -0.17245206032E+04  0.17245206032E+04  0.25500000920E-02 0. -1.
    10030    2    1    2    0    0  0.00000000000E+00  0.00000000000E+00 -0.66781869331E+03  0.27812225131E+04  0.26998549702E+04 0.  0.
        5    1    3    3  502    0  0.63504587333E+03  0.28808209052E+03  0.85678354415E+03  0.11047057000E+04  0.46999998093E+01 0.  1.
       -5    1    3    3    0  502 -0.63504587333E+03 -0.28808209052E+03 -0.15246022375E+04  0.16765168131E+04  0.46999998093E+01 0. -1.
</event>
<event>
 5   0  0.1971600E-07  0.2699359E+04  0.7818609E-02  0.8335213E-01
        1   -1    0    0  501    0  0.00000000000E+00  0.00000000000E+00  0.20161212041E+04  0.20161212041E+04  0.50400001928E-02 0.  1.
       -1   -1    0    0    0  501  0.00000000000E+00  0.00000000000E+00 -0.90353412127E+03  0.90353412128E+03  0.50400001928E-02 0. -1.
    10030    2    1    2    0    0  0.00000000000E+00  0.00000000000E+00  0.11125870829E+04  0.29196553254E+04  0.26993586650E+04 0.  0.
        5    1    3    3  502    0  0.59305518643E+03 -0.73882209589E+03 -0.48342622084E+03  0.10636237796E+04  0.46999998093E+01 0. -1.
       -5    1    3    3    0  502 -0.59305518643E+03  0.73882209589E+03  0.15960133037E+04  0.18560315458E+04  0.46999998093E+01 0.  1.
</event>
<event>
 5   0  0.1964242E-07  0.2699564E+04  0.7818609E-02  0.8335146E-01
        1   -1    0    0  501    0  0.00000000000E+00  0.00000000000E+00  0.13887478591E+04  0.13887478591E+04  0.50400001928E-02 0. -1.
       -1   -1    0    0    0  501  0.00000000000E+00  0.00000000000E+00 -0.13119093764E+04  0.13119093764E+04  0.50400001928E-02 0.  1.
    10030    2    1    2    0    0  0.00000000000E+00  0.00000000000E+00  0.76838482715E+02  0.27006572355E+04  0.26995639188E+04 0.  0.
        2    1    3    3  502    0 -0.44297953208E+03  0.23315625394E+03  0.12924494050E+04  0.13860079975E+04  0.25500000920E-02 0. -1.
       -2    1    3    3    0  502  0.44297953208E+03 -0.23315625394E+03 -0.12156109223E+04  0.13146492380E+04  0.25500000920E-02 0.  1.
</event>
<event>
 5   0  0.4992668E-07  0.2699556E+04  0.7818609E-02  0.8335149E-01
       -2   -1    0    0    0  501  0.00000000000E+00  0.00000000000E+00  0.87858416594E+03  0.87858416594E+03  0.25500000920E-02 0.  1.
        2   -1    0    0  501    0  0.00000000000E+00  0.00000000000E+00 -0.20736775115E+04  0.20736775115E+04  0.25500000920E-02 0. -1.
    10030    2    1    2    0    0  0.00000000000E+00  0.00000000000E+00 -0.11950933456E+04  0.29522616774E+04  0.26995556870E+04 0.  0.
        1    1    3    3  502    0  0.56268360259E+03 -0.21730676772E+03 -0.19180850427E+04  0.20106927410E+04  0.50400001928E-02 0. -1.
       -1    1    3    3    0  502 -0.56268360259E+03  0.21730676772E+03  0.72299169710E+03  0.94156893641E+03  0.50400001928E-02 0.  1.
</event>
<event>
 5   0  0.1888149E-07  0.2699846E+04  0.7818609E-02  0.8335055E-01
        1   -1    0    0  501    0  0.00000000000E+00  0.00000000000E+00  0.20968489686E+04  0.20968489686E+04  0.50400001928E-02 0. -1.
       -1   -1    0    0    0  501  0.00000000000E+00  0.00000000000E+00 -0.86906207552E+03  0.86906207553E+03  0.50400001928E-02 0.  1.
    10030    2    1    2    0    0  0.00000000000E+00  0.00000000000E+00  0.12277868930E+04  0.29659110441E+04  0.26998458598E+04 0.  0.
        1    1    3    3  502    0 -0.89536350720E+03 -0.42712237176E+03 -0.39185291030E+03  0.10666105352E+04  0.50400001928E-02 0.  1.
       -1    1    3    3    0  502  0.89536350720E+03  0.42712237176E+03  0.16196398033E+04  0.18993005089E+04  0.50400001928E-02 0. -1.
</event>
<event>
 5   0  0.4992668E-07  0.2700474E+04  0.7818609E-02  0.8334851E-01
        2   -1    0    0  501    0  0.00000000000E+00  0.00000000000E+00  0.11150484986E+04  0.11150484986E+04  0.25500000920E-02 0. -1.
       -2   -1    0    0    0  501  0.00000000000E+00  0.00000000000E+00 -0.16350316351E+04  0.16350316351E+04  0.25500000920E-02 0.  1.
    10030    2    1    2    0    0  0.00000000000E+00  0.00000000000E+00 -0.51998313654E+03  0.27500801336E+04  0.27004737139E+04 0.  0.
        1    1    3    3  502    0 -0.12210740052E+03  0.72258534794E+03 -0.14148871620E+04  0.15934068794E+04  0.50400001928E-02 0.  1.
       -1    1    3    3    0  502  0.12210740052E+03 -0.72258534794E+03  0.89490402541E+03  0.11566732542E+04  0.50400001928E-02 0. -1.
</event>
<event>
 5   0  0.4992668E-07  0.2698392E+04  0.7818609E-02  0.8335527E-01
       -2   -1    0    0    0  501  0.00000000000E+00  0.00000000000E+00  0.16438577036E+04  0.16438577036E+04  0.25500000920E-02 0. -1.
        2   -1    0    0  501    0  0.00000000000E+00  0.00000000000E+00 -0.11073527647E+04  0.11073527647E+04  0.25500000920E-02 0.  1.
    10030    2    1    2    0    0  0.00000000000E+00  0.00000000000E+00  0.53650493887E+03  0.27512104684E+04  0.26983923902E+04 0.  0.
        1    1    3    3  502    0  0.10466826335E+04  0.13584103733E+03  0.11251393150E+04  0.15427040548E+04  0.50400001928E-02 0. -1.
       -1    1    3    3    0  502 -0.10466826335E+04 -0.13584103733E+03 -0.58863437610E+03  0.12085064135E+04  0.50400001928E-02 0.  1.
</event>
<event>
 5   0  0.1965415E-07  0.2700649E+04  0.7818609E-02  0.8334794E-01
        1   -1    0    0  501    0  0.00000000000E+00  0.00000000000E+00  0.17129730115E+04  0.17129730115E+04  0.50400001928E-02 0.  1.
       -1   -1    0    0    0  501  0.00000000000E+00  0.00000000000E+00 -0.10644515713E+04  0.10644515713E+04  0.50400001928E-02 0. -1.
    10030    2    1    2    0    0  0.00000000000E+00  0.00000000000E+00  0.64852144020E+03  0.27774245828E+04  0.27006494135E+04 0.  0.
        4    1    3    3  502    0  0.37625301183E+01  0.13502836117E+04  0.33429577947E+03  0.13910554518E+04  0.12699999809E+01 0. -1.
       -4    1    3    3    0  502 -0.37625301183E+01 -0.13502836117E+04  0.31422566073E+03  0.13863691311E+04  0.12699999809E+01 0.  1.
</event>
<event>
 5   0  0.1971600E-07  0.2701147E+04  0.7818609E-02  0.8334633E-01
       -1   -1    0    0    0  501  0.00000000000E+00  0.00000000000E+00  0.17888186007E+04  0.17888186007E+04  0.50400001928E-02 0. -1.
        1   -1    0    0  501    0  0.00000000000E+00  0.00000000000E+00 -0.10196946814E+04  0.10196946815E+04  0.50400001928E-02 0.  1.
    10030    2    1    2    0    0  0.00000000000E+00  0.00000000000E+00  0.76912391923E+03  0.28085132821E+04  0.27011470254E+04 0.  0.
        5    1    3    3  502    0 -0.12135374022E+04  0.43675775088E+03  0.80123568171E+03  0.15183646028E+04  0.46999998093E+01 0.  1.
       -5    1    3    3    0  502  0.12135374022E+04 -0.43675775088E+03 -0.32111762476E+02  0.12901486793E+04  0.46999998093E+01 0. -1.
</event>
<event>
 5   0  0.4983208E-07  0.2699695E+04  0.7818609E-02  0.8335104E-01
        2   -1    0    0  501    0  0.00000000000E+00  0.00000000000E+00  0.75699109122E+03  0.75699109122E+03  0.25500000920E-02 0. -1.
       -2   -1    0    0    0  501  0.00000000000E+00  0.00000000000E+00 -0.24070136989E+04  0.24070136989E+04  0.25500000920E-02 0.  1.
    10030    2    1    2    0    0  0.00000000000E+00  0.00000000000E+00 -0.16500226077E+04  0.31640047902E+04  0.26996947431E+04 0.  0.
        4    1    3    3  502    0  0.21468284570E+03 -0.95024039556E+03  0.27005328796E+03  0.10109282491E+04  0.12699999809E+01 0. -1.
       -4    1    3    3    0  502 -0.21468284570E+03  0.95024039556E+03 -0.19200758957E+04  0.21530765411E+04  0.12699999809E+01 0.  1.
</event>
<event>
 5   0  0.1965415E-07  0.2699259E+04  0.7818609E-02  0.8335245E-01
        1   -1    0    0  501    0  0.00000000000E+00  0.00000000000E+00  0.15952949642E+04  0.15952949642E+04  0.50400001928E-02 0.  1.
       -1   -1    0    0    0  501  0.00000000000E+00  0.00000000000E+00 -0.11417948234E+04  0.11417948234E+04  0.50400001928E-02 0. -1.
    10030    2    1    2    0    0  0.00000000000E+00  0.00000000000E+00  0.45350014081E+03  0.27370897876E+04  0.26992588108E+04 0.  0.
        4    1    3    3  502    0 -0.10636443659E+04 -0.82663244199E+03  0.31059747464E+03  0.13824373170E+04  0.12699999809E+01 0. -1.
       -4    1    3    3    0  502  0.10636443659E+04  0.82663244199E+03  0.14290266617E+03  0.13546524706E+04  0.12699999809E+01 0.  1.
</event>
<event>
 5   0  0.1888149E-07  0.2700472E+04  0.7818609E-02  0.8334852E-01
        1   -1    0    0  501    0  0.00000000000E+00  0.00000000000E+00  0.22458056004E+04  0.22458056004E+04  0.50400001928E-02 0.  1.
       -1   -1    0    0    0  501  0.00000000000E+00  0.00000000000E+00 -0.81179643281E+03  0.81179643283E+03  0.50400001928E-02 0. -1.
    10030    2    1    2    0    0  0.00000000000E+00  0.00000000000E+00  0.14340091676E+04  0.30576020333E+04  0.27004717923E+04 0.  0.
        1    1    3    3  502    0 -0.71327217968E+03  0.48910521275E+03  0.18910287247E+04  0.20794159635E+04  0.50400001928E-02 0.  1.
       -1    1    3    3    0  502  0.71327217968E+03 -0.48910521275E+03 -0.45701955713E+03  0.97818606976E+03  0.50400001928E-02 0. -1.
</event>
<event>
 5   0  0.1971600E-07  0.2702489E+04  0.7818609E-02  0.8334198E-01
        1   -1    0    0  501    0  0.00000000000E+00  0.00000000000E+00  0.17215428456E+04  0.17215428456E+04  0.50400001928E-02 0.  1.
       -1   -1    0    0    0  501  0.00000000000E+00  0.00000000000E+00 -0.10605962677E+04  0.10605962677E+04  0.50400001928E-02 0. -1.
    10030    2    1    2    0    0  0.00000000000E+00  0.00000000000E+00  0.66094657793E+03  0.27821391133E+04  0.27024891613E+04 0.  0.
        5    1    3    3  502    0  0.18785069069E+03  0.11950994656E+03 -0.10415746574E+04  0.10651151892E+04  0.46999998093E+01 0. -1.
       -5    1    3    3    0  502 -0.18785069069E+03 -0.11950994656E+03  0.17025212353E+04  0.17170239241E+04  0.46999998093E+01 0.  1.
</event>
<event>
 5   0  0.4983208E-07  0.2697566E+04  0.7818609E-02  0.8335795E-01
        2   -1    0    0  501    0  0.00000000000E+00  0.00000000000E+00  0.14191244623E+04  0.14191244623E+04  0.25500000920E-02 0. -1.
       -2   -1    0    0    0  501  0.00000000000E+00  0.00000000000E+00 -0.12819281978E+04  0.12819281978E+04  0.25500000920E-02 0.  1.
    10030    2    1    2    0    0  0.00000000000E+00  0.00000000000E+00  0.13719626457E+03  0.27010526601E+04  0.26975660618E+04 0.  0.
        4    1    3    3  502    0 -0.66393523867E+03 -0.12737957924E+03 -0.11000343995E+04  0.12911672437E+04  0.12699999809E+01 0.  1.
       -4    1    3    3    0  502  0.66393523867E+03  0.12737957924E+03  0.12372306640E+04  0.14098854164E+04  0.12699999809E+01 0. -1.
</event>
<event>
 5   0  0.4735120E-07  0.2700560E+04  0.7818609E-02  0.8334823E-01
       -2   -1    0    0    0  501  0.00000000000E+00  0.00000000000E+00  0.99115286638E+03  0.99115286638E+03  0.25500000920E-02 0. -1.
        2   -1    0    0  501    0  0.00000000000E+00  0.00000000000E+00 -0.18395300464E+04  0.18395300464E+04  0.25500000920E-02 0.  1.
    10030    2    1    2    0    0  0.00000000000E+00  0.00000000000E+00 -0.84837718006E+03  0.28306829128E+04  0.27005595556E+04 0.  0.
        2    1    3    3  502    0 -0.11345080703E+04 -0.43922883432E+03  0.18989414594E+03  0.12312961939E+04  0.25500000920E-02 0.  1.
       -2    1    3    3    0  502  0.11345080703E+04  0.43922883432E+03 -0.10382713260E+04  0.15993867190E+04  0.25500000920E-02 0. -1.
</event>
<event>
 5   0  0.1971600E-07  0.2700529E+04  0.7818609E-02  0.8334834E-01
       -1   -1    0    0    0  501  0.00000000000E+00  0.00000000000E+00  0.12206754418E+04  0.12206754418E+04  0.50400001928E-02 0.  1.
        1   -1    0    0  501    0  0.00000000000E+00  0.00000000000E+00 -0.14936104269E+04  0.14936104269E+04  0.50400001928E-02 0. -1.
    10030    2    1    2    0    0  0.00000000000E+00  0.00000000000E+00 -0.27293498504E+03  0.27142858687E+04  0.27005285170E+04 0.  0.
        5    1    3    3  502    0 -0.12551230568E+04  0.60116682362E+02  0.36026022181E+03  0.13071944846E+04  0.46999998093E+01 0.  1.
       -5    1    3    3    0  502  0.12551230568E+04 -0.60116682362E+02 -0.63319520685E+03  0.14070913841E+04  0.46999998093E+01 0. -1.
</event>
<event>
 5   0  0.1888149E-07  0.2700332E+04  0.7818609E-02  0.8334897E-01
        1   -1    0    0  501    0  0.00000000000E+00  0.00000000000E+00  0.17019261978E+04  0.17019261978E+04  0.50400001928E-02 0. -1.
       -1   -1    0    0    0  501  0.00000000000E+00  0.00000000000E+00 -0.10711089714E+04  0.10711089714E+04  0.50400001928E-02 0.  1.
    10030    2    1    2    0    0  0.00000000000E+00  0.00000000000E+00  0.63081722638E+03  0.27730351693E+04  0.27003321420E+04 0.  0.
        1    1    3    3  502    0  0.84997734920E+03  0.95349203946E+02  0.13882345439E+04  0.16305668075E+04  0.50400001928E-02 0. -1.
       -1    1    3    3    0  502 -0.84997734920E+03 -0.95349203946E+02 -0.75741731747E+03  0.11424683618E+04  0.50400001928E-02 0.  1.
</event>
<event>
 5   0  0.5043890E-07  0.2699944E+04  0.7818609E-02  0.8335023E-01
        2   -1    0    0  501    0  0.00000000000E+00  0.00000000000E+00  0.16584299978E+04  0.16584299978E+04  0.25500000920E-02 0.  1.
       -2   -1    0    0    0  501  0.00000000000E+00  0.00000000000E+00 -0.10988854045E+04  0.10988854045E+04  0.25500000920E-02 0. -1.
    10030    2    1    2    0    0  0.00000000000E+00  0.00000000000E+00  0.55954459329E+03  0.27573154023E+04  0.26999440875E+04 0.  0.
        3    1    3    3  502    0 -0.11719087574E+04 -0.29573905847E+03  0.89387576860E+03  0.15032782930E+04  0.10100000352E+00 0.  1.
       -3    1    3    3    0  502  0.11719087574E+04  0.29573905847E+03 -0.33433117530E+03  0.12540371092E+04  0.10100000352E+00 0. -1.
</event>
<event>
 5   0  0.4983208E-07  0.2699801E+04  0.7818609E-02  0.8335070E-01
        2   -1    0    0  501    0  0.00000000000E+00  0.00000000000E+00  0.13270150882E+04  0.13270150882E+04  0.25500000920E-02 0.  1.
       -2   -1    0    0    0  501  0.00000000000E+00  0.00000000000E+00 -0.13731803772E+04  0.13731803772E+04  0.25500000920E-02 0. -1.
    10030    2    1    2    0    0  0.00000000000E+00  0.00000000000E+00 -0.46165289073E+02  0.27001954654E+04  0.26998007922E+04 0.  0.
        4    1    3    3  502    0 -0.11348569667E+04 -0.10241463788E+03  0.70079133692E+03  0.13377216466E+04  0.12699999809E+01 0.  1.
       -4    1    3    3    0  502  0.11348569667E+04  0.10241463788E+03 -0.74695662600E+03  0.13624738188E+04  0.12699999809E+01 0. -1.
</event>
<event>
 5   0  0.4983208E-07  0.2701064E+04  0.7818609E-02  0.8334660E-01
        2   -1    0    0  501    0  0.00000000000E+00  0.00000000000E+00  0.13536471276E+04  0.13536471276E+04  0.25500000920E-02 0.  1.
       -2   -1    0    0    0  501  0.00000000000E+00  0.00000000000E+00 -0.13474236269E+04  0.13474236269E+04  0.25500000920E-02 0. -1.
    10030    2    1    2    0    0  0.00000000000E+00  0.00000000000E+00  0.62235006771E+01  0.27010707545E+04  0.27010635847E+04 0.  0.
        4    1    3    3  502    0 -0.93896326895E+03 -0.78223976902E+03  0.57790317906E+03  0.13518597464E+04  0.12699999809E+01 0.  1.
       -4    1    3    3    0  502  0.93896326895E+03  0.78223976902E+03 -0.57167967838E+03  0.13492110081E+04  0.12699999809E+01 0. -1.
</event>
<event>
 5   0  0.1937896E-07  0.2700438E+04  0.7818609E-02  0.8334863E-01
       -1   -1    0    0    0  501  0.00000000000E+00  0.00000000000E+00  0.22462182479E+04  0.22462182479E+04  0.50400001928E-02 0.  1.
        1   -1    0    0  501    0  0.00000000000E+00  0.00000000000E+00 -0.81162693313E+03  0.81162693314E+03  0.50400001928E-02 0. -1.
    10030    2    1    2    0    0  0.00000000000E+00  0.00000000000E+00  0.14345913147E+04  0.30578451810E+04  0.27004379109E+04 0.  0.
        3    1    3    3  502    0  0.68308219325E+03 -0.74456595768E+03  0.17314374029E+04  0.20047082676E+04  0.10100000352E+00 0.  1.
       -3    1    3    3    0  502 -0.68308219325E+03  0.74456595768E+03 -0.29684608813E+03  0.10531369134E+04  0.10100000352E+00 0. -1.
</event>
<event>
 5   0  0.1971600E-07  0.2700558E+04  0.7818609E-02  0.8334824E-01
       -1   -1    0    0    0  501  0.00000000000E+00  0.00000000000E+00  0.11443675538E+04  0.11443675538E+04  0.50400001928E-02 0.  1.
        1   -1    0    0  501    0  0.00000000000E+00  0.00000000000E+00 -0.15932410985E+04  0.15932410985E+04  0.50400001928E-02 0. -1.
    10030    2    1    2    0    0  0.00000000000E+00  0.00000000000E+00 -0.44887354465E+03  0.27376086523E+04  0.27005580302E+04 0.  0.
        5    1    3    3  502    0 -0.11955702530E+04  0.32113364841E+03 -0.77101524932E+03  0.14584243740E+04  0.46999998093E+01 0. -1.
       -5    1    3    3    0  502  0.11955702530E+04 -0.32113364841E+03  0.32214170466E+03  0.12791842783E+04  0.46999998093E+01 0.  1.
</event>
<event>
 5   0  0.1937896E-07  0.2700576E+04  0.7818609E-02  0.8334818E-01
        1   -1    0    0  501    0  0.00000000000E+00  0.00000000000E+00  0.25090843614E+04  0.25090843614E+04  0.50400001928E-02 0.  1.
       -1   -1    0    0    0  501  0.00000000000E+00  0.00000000000E+00 -0.72667068985E+03  0.72667068986E+03  0.50400001928E-02 0. -1.
    10030    2    1    2    0    0  0.00000000000E+00  0.00000000000E+00  0.17824136716E+04  0.32357550513E+04  0.27005762821E+04 0.  0.
        3    1    3    3  502    0 -0.85600549335E+03  0.10325720944E+04  0.70432456747E+03  0.15149335436E+04  0.10100000352E+00 0. -1.
       -3    1    3    3    0  502  0.85600549335E+03 -0.10325720944E+04  0.10780891041E+04  0.17208215077E+04  0.10100000352E+00 0.  1.
</event>
<event>
 5   0  0.1964242E-07  0.2706064E+04  0.7818609E-02  0.8333040E-01
       -1   -1    0    0    0  501  0.00000000000E+00  0.00000000000E+00  0.14982422029E+04  0.14982422030E+04  0.50400001928E-02 0. -1.
        1   -1    0    0  501    0  0.00000000000E+00  0.00000000000E+00 -0.12218958055E+04  0.12218958055E+04  0.50400001928E-02 0.  1.
    10030    2    1    2    0    0  0.00000000000E+00  0.00000000000E+00  0.27634639741E+03  0.27201380085E+04  0.27060641999E+04 0.  0.
        2    1    3    3  502    0 -0.94472140826E+03 -0.92576740900E+03 -0.14818032630E+03  0.13309775520E+04  0.25500000920E-02 0.  1.
       -2    1    3    3    0  502  0.94472140826E+03  0.92576740900E+03  0.42452672371E+03  0.13891604565E+04  0.25500000920E-02 0. -1.
</event>
<event>
 5   0  0.5043890E-07  0.2700149E+04  0.7818609E-02  0.8334956E-01
        2   -1    0    0  501    0  0.00000000000E+00  0.00000000000E+00  0.15577064888E+04  0.15577064888E+04  0.25500000920E-02 0. -1.
       -2   -1    0    0    0  501  0.00000000000E+00  0.00000000000E+00 -0.11701188524E+04  0.11701188524E+04  0.25500000920E-02 0.  1.
    10030    2    1    2    0    0  0.00000000000E+00  0.00000000000E+00  0.38758763642E+03  0.27278253412E+04  0.27001494248E+04 0.  0.
        3    1    3    3  502    0 -0.13389241048E+04  0.17093517515E+03  0.16584938202E+03  0.13599421385E+04  0.10100000352E+00 0. -1.
       -3    1    3    3    0  502  0.13389241048E+04 -0.17093517515E+03  0.22173825440E+03  0.13678832027E+04  0.10100000352E+00 0.  1.
</event>
<event>
 5   0  0.5043890E-07  0.2701732E+04  0.7818609E-02  0.8334443E-01
        2   -1    0    0  501    0  0.00000000000E+00  0.00000000000E+00  0.17368493966E+04  0.17368493966E+04  0.25500000920E-02 0. -1.
       -2   -1    0    0    0  501  0.00000000000E+00  0.00000000000E+00 -0.10506601875E+04  0.10506601875E+04  0.25500000920E-02 0.  1.
    10030    2    1    2    0    0  0.00000000000E+00  0.00000000000E+00  0.68618920911E+03  0.27875095842E+04  0.27017316764E+04 0.  0.
        3    1    3    3  502    0 -0.10516682284E+04  0.14036203683E+03  0.12057819256E+04  0.16061188083E+04  0.10100000352E+00 0. -1.
       -3    1    3    3    0  502  0.10516682284E+04 -0.14036203683E+03 -0.51959271651E+03  0.11813907759E+04  0.10100000352E+00 0.  1.
</event>
<event>
 5   0  0.1937896E-07  0.2701049E+04  0.7818609E-02  0.8334665E-01
        1   -1    0    0  501    0  0.00000000000E+00  0.00000000000E+00  0.14465282604E+04  0.14465282604E+04  0.50400001928E-02 0. -1.
       -1   -1    0    0    0  501  0.00000000000E+00  0.00000000000E+00 -0.12608926429E+04  0.12608926429E+04  0.50400001928E-02 0.  1.
    10030    2    1    2    0    0  0.00000000000E+00  0.00000000000E+00  0.18563561751E+03  0.27074209033E+04  0.27010493082E+04 0.  0.
        3    1    3    3  502    0 -0.23856480373E+03  0.87630256494E+03 -0.90908869803E+03  0.12850142497E+04  0.10100000352E+00 0.  1.
       -3    1    3    3    0  502  0.23856480373E+03 -0.87630256494E+03  0.10947243155E+04  0.14224066536E+04  0.10100000352E+00 0. -1.
</event>
<event>
 5   0  0.4735120E-07  0.2699164E+04  0.7818609E-02  0.8335276E-01
        2   -1    0    0  501    0  0.00000000000E+00  0.00000000000E+00  0.91117396388E+03  0.91117396388E+03  0.25500000920E-02 0.  1.
       -2   -1    0    0    0  501  0.00000000000E+00  0.00000000000E+00 -0.19989290720E+04  0.19989290720E+04  0.25500000920E-02 0. -1.
    10030    2    1    2    0    0  0.00000000000E+00  0.00000000000E+00 -0.10877551081E+04  0.29101030358E+04  0.26991644085E+04 0.  0.
        2    1    3    3  502    0 -0.13927917024E+03 -0.12343448455E+03 -0.19850282222E+04  0.19937331321E+04  0.25500000920E-02 0. -1.
       -2    1    3    3    0  502  0.13927917024E+03  0.12343448455E+03  0.89727311408E+03  0.91636990375E+03  0.25500000920E-02 0.  1.
</event>
<event>
 5   0  0.4992668E-07  0.2700326E+04  0.7818609E-02  0.8334899E-01
       -2   -1    0    0    0  501  0.00000000000E+00  0.00000000000E+00  0.29001954091E+04  0.29001954091E+04  0.25500000920E-02 0. -1.
        2   -1    0    0  501    0  0.00000000000E+00  0.00000000000E+00 -0.62855779566E+03  0.62855779566E+03  0.25500000920E-02 0.  1.
    10030    2    1    2    0    0  0.00000000000E+00  0.00000000000E+00  0.22716376134E+04  0.35287532048E+04  0.27003262272E+04 0.  0.
        1    1    3    3  502    0  0.98375454896E+03 -0.90719852781E+03  0.90147619428E+03  0.16135183638E+04  0.50400001928E-02 0.  1.
       -1    1    3    3    0  502 -0.98375454896E+03  0.90719852781E+03  0.13701614192E+04  0.19152348410E+04  0.50400001928E-02 0. -1.
</event>
<event>
 5   0  0.4983208E-07  0.2703711E+04  0.7818609E-02  0.8333802E-01
       -2   -1    0    0    0  501  0.00000000000E+00  0.00000000000E+00  0.19133570861E+04  0.19133570861E+04  0.25500000920E-02 0. -1.
        2   -1    0    0  501    0  0.00000000000E+00  0.00000000000E+00 -0.95513419549E+03  0.95513419549E+03  0.25500000920E-02 0.  1.
    10030    2    1    2    0    0  0.00000000000E+00  0.00000000000E+00  0.95822289061E+03  0.28684912816E+04  0.27037106214E+04 0.  0.
        4    1    3    3  502    0 -0.72475371029E+03  0.65665182643E+03  0.14692939990E+04  0.17650172889E+04  0.12699999809E+01 0. -1.
       -4    1    3    3    0  502  0.72475371029E+03 -0.65665182643E+03 -0.51107110842E+03  0.11034739927E+04  0.12699999809E+01 0.  1.
</event>
<event>
 5   0  0.1971600E-07  0.2698619E+04  0.7818609E-02  0.8335453E-01
       -1   -1    0    0    0  501  0.00000000000E+00  0.00000000000E+00  0.71142246342E+03  0.71142246344E+03  0.50400001928E-02 0. -1.
        1   -1    0    0  501    0  0.00000000000E+00  0.00000000000E+00 -0.25591493901E+04  0.25591493901E+04  0.50400001928E-02 0.  1.
    10030    2    1    2    0    0  0.00000000000E+00  0.00000000000E+00 -0.18477269266E+04  0.32705718535E+04  0.26986191753E+04 0.  0.
        5    1    3    3  502    0  0.27972686473E+03 -0.10782100343E+03 -0.25182669392E+04  0.25360526325E+04  0.46999998093E+01 0.  1.
       -5    1    3    3    0  502 -0.27972686473E+03  0.10782100343E+03  0.67054001256E+03  0.73451922103E+03  0.46999998093E+01 0. -1.
</event>
<event>
 5   0  0.4992668E-07  0.2699151E+04  0.7818609E-02  0.8335281E-01
        2   -1    0    0  501    0  0.00000000000E+00  0.00000000000E+00  0.18330533376E+04  0.18330533376E+04  0.25500000920E-02 0.  1.
       -2   -1    0    0    0  501  0.00000000000E+00  0.00000000000E+00 -0.99361732998E+03  0.99361732998E+03  0.25500000920E-02 0. -1.
    10030    2    1    2    0    0  0.00000000000E+00  0.00000000000E+00  0.83943600761E+03  0.28266706676E+04  0.26991506538E+04 0.  0.
        1    1    3    3  502    0  0.90435919269E+03 -0.21311693969E+03 -0.60533547147E+03  0.11089253412E+04  0.50400001928E-02 0. -1.
       -1    1    3    3    0  502 -0.90435919269E+03  0.21311693969E+03  0.14447714791E+04  0.17177453263E+04  0.50400001928E-02 0.  1.
</event>
<event>
 5   0  0.5043890E-07  0.2699841E+04  0.7818609E-02  0.8335057E-01
        2   -1    0    0  501    0  0.00000000000E+00  0.00000000000E+00  0.14752190362E+04  0.14752190362E+04  0.25500000920E-02 0.  1.
       -2   -1    0    0    0  501  0.00000000000E+00  0.00000000000E+00 -0.12352641827E+04  0.12352641827E+04  0.25500000920E-02 0. -1.
    10030    2    1    2    0    0  0.00000000000E+00  0.00000000000E+00  0.23995485352E+03  0.27104832189E+04  0.26998409116E+04 0.  0.
        3    1    3    3  502    0 -0.64877517209E+03 -0.90169542174E+03 -0.65006713911E+03  0.12870707646E+04  0.10100000352E+00 0. -1.
       -3    1    3    3    0  502  0.64877517209E+03  0.90169542174E+03  0.89002199262E+03  0.14234124543E+04  0.10100000352E+00 0.  1.
</event>
<event>
 5   0  0.1965415E-07  0.2699986E+04  0.7818609E-02  0.8335010E-01
       -1   -1    0    0    0  501  0.00000000000E+00  0.00000000000E+00  0.89699580254E+03  0.89699580255E+03  0.50400001928E-02 0.  1.
        1   -1    0    0  501    0  0.00000000000E+00  0.00000000000E+00 -0.20317609597E+04  0.20317609598E+04  0.50400001928E-02 0. -1.
    10030    2    1    2    0    0  0.00000000000E+00  0.00000000000E+00 -0.11347651572E+04  0.29287567623E+04  0.26999859649E+04 0.  0.
        4    1    3    3  502    0  0.14615720887E+02 -0.67156721658E+03  0.70284700507E+03  0.97221997054E+03  0.12699999809E+01 0.  1.
       -4    1    3    3    0  502 -0.14615720887E+02  0.67156721658E+03 -0.18376121623E+04  0.19565367918E+04  0.12699999809E+01 0. -1.
</event>
<event>
 5   0  0.4843887E-07  0.2697039E+04  0.7818609E-02  0.8335966E-01
       -2   -1    0    0    0  501  0.00000000000E+00  0.00000000000E+00  0.94101729661E+03  0.94101729661E+03  0.25500000920E-02 0.  1.
        2   -1    0    0  501    0  0.00000000000E+00  0.00000000000E+00 -0.19324880525E+04  0.19324880525E+04  0.25500000920E-02 0. -1.
    10030    2    1    2    0    0  0.00000000000E+00  0.00000000000E+00 -0.99147075588E+03  0.28735053491E+04  0.26970388821E+04 0.  0.
        5    1    3    3  502    0 -0.11573460564E+04 -0.22959272040E+03  0.19991751511E+03  0.11967254549E+04  0.46999998093E+01 0.  1.
       -5    1    3    3    0  502  0.11573460564E+04  0.22959272040E+03 -0.11913882710E+04  0.16767798942E+04  0.46999998093E+01 0. -1.
</event>
<event>
 5   0  0.4735120E-07  0.2700444E+04  0.7818609E-02  0.8334861E-01
       -2   -1    0    0    0  501  0.00000000000E+00  0.00000000000E+00  0.89671802329E+03  0.89671802330E+03  0.25500000920E-02 0.  1.
        2   -1    0    0  501    0  0.00000000000E+00  0.00000000000E+00 -0.20330801743E+04  0.20330801743E+04  0.25500000920E-02 0. -1.
    10030    2    1    2    0    0  0.00000000000E+00  0.00000000000E+00 -0.11363621510E+04  0.29297981976E+04  0.27004441376E+04 0.  0.
        2    1    3    3  502    0 -0.16152115596E+03 -0.22525311060E+03  0.86551931560E+03  0.90881886718E+03  0.25500000920E-02 0.  1.
       -2    1    3    3    0  502  0.16152115596E+03  0.22525311060E+03 -0.20018814666E+04  0.20209793304E+04  0.25500000920E-02 0. -1.
</event>
<event>
 5   0  0.4735120E-07  0.2698960E+04  0.7818609E-02  0.8335342E-01
       -2   -1    0    0    0  501  0.00000000000E+00  0.00000000000E+00  0.62555420786E+03  0.62555420787E+03  0.25500000920E-02 0.  1.
        2   -1    0    0  501    0  0.00000000000E+00  0.00000000000E+00 -0.29111730110E+04  0.29111730110E+04  0.25500000920E-02 0. -1.
    10030    2    1    2    0    0  0.00000000000E+00  0.00000000000E+00 -0.22856188031E+04  0.35367272189E+04  0.26989601900E+04 0.  0.
        2    1    3    3  502    0 -0.10311521947E+04 -0.69364399776E+03 -0.18320862958E+04  0.22138105248E+04  0.25500000920E-02 0. -1.
       -2    1    3    3    0  502  0.10311521947E+04  0.69364399776E+03 -0.45353250730E+03  0.13229166941E+04  0.25500000920E-02 0.  1.
</event>
<event>
 5   0  0.1937896E-07  0.2696232E+04  0.7818609E-02  0.8336229E-01
       -1   -1    0    0    0  501  0.00000000000E+00  0.00000000000E+00  0.75794773777E+03  0.75794773778E+03  0.50400001928E-02 0.  1.
        1   -1    0    0  501    0  0.00000000000E+00  0.00000000000E+00 -0.23978119805E+04  0.23978119805E+04  0.50400001928E-02 0. -1.
    10030    2    1    2    0    0  0.00000000000E+00  0.00000000000E+00 -0.16398642428E+04  0.31557597183E+04  0.26962315674E+04 0.  0.
        3    1    3    3  502    0  0.11878074106E+04 -0.49411651382E+03 -0.12915726439E+04  0.18229639268E+04  0.10100000352E+00 0.  1.
       -3    1    3    3    0  502 -0.11878074106E+04  0.49411651382E+03 -0.34829159887E+03  0.13327957915E+04  0.10100000352E+00 0. -1.
</event>
<event>
 5   0  0.1964242E-07  0.2701773E+04  0.7818609E-02  0.8334430E-01
       -1   -1    0    0    0  501  0.00000000000E+00  0.00000000000E+00  0.86273429194E+03  0.86273429195E+03  0.50400001928E-02 0. -1.
        1   -1    0    0  501    0  0.00000000000E+00  0.00000000000E+00 -0.21152450447E+04  0.21152450447E+04  0.50400001928E-02 0.  1.
    10030    2    1    2    0    0  0.00000000000E+00  0.00000000000E+00 -0.12525107528E+04  0.29779793367E+04  0.27017730741E+04 0.  0.
        2    1    3    3  502    0 -0.18237505232E+03 -0.46445400841E+03  0.75743645701E+03  0.90702159404E+03  0.25500000920E-02 0. -1.
       -2    1    3    3    0  502  0.18237505232E+03  0.46445400841E+03 -0.20099472098E+04  0.20709577426E+04  0.25500000920E-02 0.  1.
</event>
<event>
 5   0  0.4992668E-07  0.2700025E+04  0.7818609E-02  0.8334997E-01
       -2   -1    0    0    0  501  0.00000000000E+00  0.00000000000E+00  0.14977305135E+04  0.14977305135E+04  0.25500000920E-02 0. -1.
        2   -1    0    0  501    0  0.00000000000E+00  0.00000000000E+00 -0.12168637755E+04  0.12168637755E+04  0.25500000920E-02 0.  1.
    10030    2    1    2    0    0  0.00000000000E+00  0.00000000000E+00  0.28086673794E+03  0.27145942890E+04  0.27000251905E+04 0.  0.
        1    1    3    3  502    0  0.23353999688E+03 -0.98118256978E+03 -0.76177927882E+03  0.12639493008E+04  0.50400001928E-02 0.  1.
       -1    1    3    3    0  502 -0.23353999688E+03  0.98118256978E+03  0.10426460168E+04  0.14506449882E+04  0.50400001928E-02 0. -1.
</event>
<event>
 5   0  0.1964242E-07  0.2700234E+04  0.7818609E-02  0.8334929E-01
        1   -1    0    0  501    0  0.00000000000E+00  0.00000000000E+00  0.21250947627E+04  0.21250947627E+04  0.50400001928E-02 0.  1.
       -1   -1    0    0    0  501  0.00000000000E+00  0.00000000000E+00 -0.85775763150E+03  0.85775763151E+03  0.50400001928E-02 0. -1.
    10030    2    1    2    0    0  0.00000000000E+00  0.00000000000E+00  0.12673371312E+04  0.29828523942E+04  0.27002342494E+04 0.  0.
        2    1    3    3  502    0  0.39225693115E+03 -0.46939218810E+03 -0.69589105934E+03  0.92653056764E+03  0.25500000920E-02 0. -1.
       -2    1    3    3    0  502 -0.39225693115E+03  0.46939218810E+03  0.19632281906E+04  0.20563218266E+04  0.25500000920E-02 0.  1.
</event>
<event>
 5   0  0.1971600E-07  0.2706557E+04  0.7818609E-02  0.8332881E-01
        1   -1    0    0  501    0  0.00000000000E+00  0.00000000000E+00  0.12535422879E+04  0.12535422879E+04  0.50400001928E-02 0.  1.
       -1   -1    0    0    0  501  0.00000000000E+00  0.00000000000E+00 -0.14609496558E+04  0.14609496558E+04  0.50400001928E-02 0. -1.
    10030    2    1    2    0    0  0.00000000000E+00  0.00000000000E+00 -0.20740736791E+03  0.27144919437E+04  0.27065566124E+04 0.  0.
        5    1    3    3  502    0  0.12379668828E+04 -0.44824577464E+03  0.21002938956E+03  0.13332744323E+04  0.46999998093E+01 0. -1.
       -5    1    3    3    0  502 -0.12379668828E+04  0.44824577464E+03 -0.41743675747E+03  0.13812175114E+04  0.46999998093E+01 0.  1.
</event>
<event>
 5   0  0.4843887E-07  0.2700302E+04  0.7818609E-02  0.8334907E-01
       -2   -1    0    0    0  501  0.00000000000E+00  0.00000000000E+00  0.11006704747E+04  0.11006704747E+04  0.25500000920E-02 0.  1.
        2   -1    0    0  501    0  0.00000000000E+00  0.00000000000E+00 -0.16561789567E+04  0.16561789567E+04  0.25500000920E-02 0. -1.
    10030    2    1    2    0    0  0.00000000000E+00  0.00000000000E+00 -0.55550848201E+03  0.27568494314E+04  0.27003016709E+04 0.  0.
        5    1    3    3  502    0 -0.11624548744E+03 -0.61093022285E+03  0.94573065624E+03  0.11318910348E+04  0.46999998093E+01 0.  1.
       -5    1    3    3    0  502  0.11624548744E+03  0.61093022285E+03 -0.15012391383E+04  0.16249583966E+04  0.46999998093E+01 0. -1.
</event>
<event>
 5   0  0.1964242E-07  0.2700038E+04  0.7818609E-02  0.8334993E-01
       -1   -1    0    0    0  501  0.00000000000E+00  0.00000000000E+00  0.12245896055E+04  0.12245896055E+04  0.50400001928E-02 0. -1.
        1   -1    0    0  501    0  0.00000000000E+00  0.00000000000E+00 -0.14882953875E+04  0.14882953875E+04  0.50400001928E-02 0.  1.
    10030    2    1    2    0    0  0.00000000000E+00  0.00000000000E+00 -0.26370578193E+03  0.27128849930E+04  0.27000378231E+04 0.  0.
        2    1    3    3  502    0  0.80442106213E+03 -0.95071849673E+02  0.95329481743E+03  0.12509607950E+04  0.25500000920E-02 0. -1.
       -2    1    3    3    0  502 -0.80442106213E+03  0.95071849673E+02 -0.12170005994E+04  0.14619241980E+04  0.25500000920E-02 0.  1.
</event>
<event>
 5   0  0.1937896E-07  0.2699966E+04  0.7818609E-02  0.8335016E-01
       -1   -1    0    0    0  501  0.00000000000E+00  0.00000000000E+00  0.17824825485E+04  0.17824825485E+04  0.50400001928E-02 0. -1.
        1   -1    0    0  501    0  0.00000000000E+00  0.00000000000E+00 -0.10224248280E+04  0.10224248280E+04  0.50400001928E-02 0.  1.
    10030    2    1    2    0    0  0.00000000000E+00  0.00000000000E+00  0.76005772045E+03  0.28049073765E+04  0.26999662317E+04 0.  0.
        3    1    3    3  502    0 -0.12824628690E+04 -0.25886734860E+03  0.72572535534E+03  0.14961285426E+04  0.10100000352E+00 0.  1.
       -3    1    3    3    0  502  0.12824628690E+04  0.25886734860E+03  0.34332365106E+02  0.13087788339E+04  0.10100000352E+00 0. -1.
</event>
<event>
 5   0  0.1971600E-07  0.2699651E+04  0.7818609E-02  0.8335118E-01
       -1   -1    0    0    0  501  0.00000000000E+00  0.00000000000E+00  0.15349778484E+04  0.15349778484E+04  0.50400001928E-02 0. -1.
        1   -1    0    0  501    0  0.00000000000E+00  0.00000000000E+00 -0.11870068758E+04  0.11870068758E+04  0.50400001928E-02 0.  1.
    10030    2    1    2    0    0  0.00000000000E+00  0.00000000000E+00  0.34797097262E+03  0.27219847242E+04  0.26996512814E+04 0.  0.
        5    1    3    3  502    0 -0.12632646645E+04 -0.40227236939E+03 -0.81779137116E+02  0.13282961225E+04  0.46999998093E+01 0.  1.
       -5    1    3    3    0  502  0.12632646645E+04  0.40227236939E+03  0.42975010974E+03  0.13936886017E+04  0.46999998093E+01 0. -1.
</event>
<event>
 5   0  0.4735120E-07  0.2700426E+04  0.7818609E-02  0.8334867E-01
        2   -1    0    0  501    0  0.00000000000E+00  0.00000000000E+00  0.12367130909E+04  0.12367130909E+04  0.25500000920E-02 0.  1.
       -2   -1    0    0    0  501  0.00000000000E+00  0.00000000000E+00 -0.14741296685E+04  0.14741296685E+04  0.25500000920E-02 0. -1.
    10030    2    1    2    0    0  0.00000000000E+00  0.00000000000E+00 -0.23741657760E+03  0.27108427594E+04  0.27004262320E+04 0.  0.
        2    1    3    3  502    0  0.27729648801E+03 -0.31004547873E+03 -0.14082074888E+04  0.14683561804E+04  0.25500000920E-02 0. -1.
       -2    1    3    3    0  502 -0.27729648801E+03  0.31004547873E+03  0.11707909112E+04  0.12424865789E+04  0.25500000920E-02 0.  1.
</event>
<event>
 5   0  0.4992668E-07  0.2700942E+04  0.7818609E-02  0.8334699E-01
        2   -1    0    0  501    0  0.00000000000E+00  0.00000000000E+00  0.14971749110E+04  0.14971749111E+04  0.25500000920E-02 0. -1.
       -2   -1    0    0    0  501  0.00000000000E+00  0.00000000000E+00 -0.12181420863E+04  0.12181420863E+04  0.25500000920E-02 0.  1.
    10030    2    1    2    0    0  0.00000000000E+00  0.00000000000E+00  0.27903282474E+03  0.27153169974E+04  0.27009418874E+04 0.  0.
        1    1    3    3  502    0  0.59706533415E+03  0.50685613740E+03 -0.96651244126E+03  0.12440001834E+04  0.50400001928E-02 0.  1.
       -1    1    3    3    0  502 -0.59706533415E+03 -0.50685613740E+03  0.12455452660E+04  0.14713168139E+04  0.50400001928E-02 0. -1.
</event>
<event>
 5   0  0.1937896E-07  0.2703873E+04  0.7818609E-02  0.8333749E-01
       -1   -1    0    0    0  501  0.00000000000E+00  0.00000000000E+00  0.10254264898E+04  0.10254264899E+04  0.50400001928E-02 0.  1.
        1   -1    0    0  501    0  0.00000000000E+00  0.00000000000E+00 -0.17824118478E+04  0.17824118478E+04  0.50400001928E-02 0. -1.
    10030    2    1    2    0    0  0.00000000000E+00  0.00000000000E+00 -0.75698535796E+03  0.28078383377E+04  0.27038730182E+04 0.  0.
        3    1    3    3  502    0  0.11117164738E+04  0.30925946222E+03  0.35299040763E+03  0.12067133758E+04  0.10100000352E+00 0.  1.
       -3    1    3    3    0  502 -0.11117164738E+04 -0.30925946222E+03 -0.11099757656E+04  0.16011249619E+04  0.10100000352E+00 0. -1.
</event>
<event>
 5   0  0.4992668E-07  0.2700062E+04  0.7818609E-02  0.8334985E-01
        2   -1    0    0  501    0  0.00000000000E+00  0.00000000000E+00  0.23928381239E+04  0.23928381239E+04  0.25500000920E-02 0. -1.
       -2   -1    0    0    0  501  0.00000000000E+00  0.00000000000E+00 -0.76168282788E+03  0.76168282789E+03  0.25500000920E-02 0.  1.
    10030    2    1    2    0    0  0.00000000000E+00  0.00000000000E+00  0.16311552960E+04  0.31545209518E+04  0.27000620059E+04 0.  0.
        1    1    3    3  502    0 -0.79982618862E+03 -0.73058978021E+02 -0.45220438410E+03  0.92170947228E+03  0.50400001928E-02 0.  1.
       -1    1    3    3    0  502  0.79982618862E+03  0.73058978021E+02  0.20833596801E+04  0.22328114795E+04  0.50400001928E-02 0. -1.
</event>
<event>
 5   0  0.4992668E-07  0.2702000E+04  0.7818609E-02  0.8334356E-01
        2   -1    0    0  501    0  0.00000000000E+00  0.00000000000E+00  0.18952577265E+04  0.18952577265E+04  0.25500000920E-02 0.  1.
       -2   -1    0    0    0  501  0.00000000000E+00  0.00000000000E+00 -0.96303576470E+03  0.96303576470E+03  0.25500000920E-02 0. -1.
    10030    2    1    2    0    0  0.00000000000E+00  0.00000000000E+00  0.93222196178E+03  0.28582934912E+04  0.27019999807E+04 0.  0.
        1    1    3    3  502    0 -0.88134922762E+03 -0.72212126159E+03 -0.30180291714E+03  0.11786944380E+04  0.50400001928E-02 0. -1.
       -1    1    3    3    0  502  0.88134922762E+03  0.72212126159E+03  0.12340248789E+04  0.16795990531E+04  0.50400001928E-02 0.  1.
</event>
<event>
 5   0  0.4843887E-07  0.2699646E+04  0.7818609E-02  0.8335120E-01
       -2   -1    0    0    0  501  0.00000000000E+00  0.00000000000E+00  0.10755830836E+04  0.10755830837E+04  0.25500000920E-02 0. -1.
        2   -1    0    0  501    0  0.00000000000E+00  0.00000000000E+00 -0.16939853204E+04  0.16939853204E+04  0.25500000920E-02 0.  1.
    10030    2    1    2    0    0  0.00000000000E+00  0.00000000000E+00 -0.61840223672E+03  0.27695684040E+04  0.26996458690E+04 0.  0.
        5    1    3    3  502    0  0.53486830647E+03  0.57869548980E+03  0.81509765075E+03  0.11337454941E+04  0.46999998093E+01 0. -1.
       -5    1    3    3    0  502 -0.53486830647E+03 -0.57869548980E+03 -0.14334998875E+04  0.16358229099E+04  0.46999998093E+01 0.  1.
</event>
<event>
 5   0  0.5043890E-07  0.2701882E+04  0.7818609E-02  0.8334395E-01
        2   -1    0    0  501    0  0.00000000000E+00  0.00000000000E+00  0.18118050076E+04  0.18118050076E+04  0.25500000920E-02 0. -1.
       -2   -1    0    0    0  501  0.00000000000E+00  0.00000000000E+00 -0.10073054391E+04  0.10073054391E+04  0.25500000920E-02 0.  1.
    10030    2    1    2    0    0  0.00000000000E+00  0.00000000000E+00  0.80449956848E+03  0.28191104467E+04  0.27018815953E+04 0.  0.
        3    1    3    3  502    0 -0.84354531637E+03 -0.83456734676E+03 -0.27149902659E+03  0.12172851304E+04  0.10100000352E+00 0.  1.
       -3    1    3    3    0  502  0.84354531637E+03  0.83456734676E+03  0.10759985951E+04  0.16018253163E+04  0.10100000352E+00 0. -1.
</event>
<event>
 5   0  0.1888149E-07  0.2702922E+04  0.7818609E-02  0.8334058E-01
        1   -1    0    0  501    0  0.00000000000E+00  0.00000000000E+00  0.94062199545E+03  0.94062199546E+03  0.50400001928E-02 0. -1.
       -1   -1    0    0    0  501  0.00000000000E+00  0.00000000000E+00 -0.19417430798E+04  0.19417430798E+04  0.50400001928E-02 0.  1.
    10030    2    1    2    0    0  0.00000000000E+00  0.00000000000E+00 -0.10011210843E+04  0.28823650752E+04  0.27029215678E+04 0.  0.
        1    1    3    3  502    0  0.12633901688E+04  0.42653698576E+03 -0.26605748843E+03  0.13597334688E+04  0.50400001928E-02 0.  1.
       -1    1    3    3    0  502 -0.12633901688E+04 -0.42653698576E+03 -0.73506359589E+03  0.15226316065E+04  0.50400001928E-02 0. -1.
</event>
<event>
 5   0  0.1888149E-07  0.2697178E+04  0.7818609E-02  0.8335921E-01
       -1   -1    0    0    0  501  0.00000000000E+00  0.00000000000E+00  0.14893447494E+04  0.14893447494E+04  0.50400001928E-02 0. -1.
        1   -1    0    0  501    0  0.00000000000E+00  0.00000000000E+00 -0.12211360990E+04  0.12211360990E+04  0.50400001928E-02 0.  1.
    10030    2    1    2    0    0  0.00000000000E+00  0.00000000000E+00  0.26820865036E+03  0.27104808484E+04  0.26971782569E+04 0.  0.
        1    1    3    3  502    0  0.59087444905E+03  0.93686038251E+03 -0.63900958972E+03  0.12787389283E+04  0.50400001928E-02 0.  1.
       -1    1    3    3    0  502 -0.59087444905E+03 -0.93686038251E+03  0.90721824008E+03  0.14317419202E+04  0.50400001928E-02 0. -1.
</event>
<event>
 5   0  0.1937896E-07  0.2699875E+04  0.7818609E-02  0.8335046E-01
       -1   -1    0    0    0  501  0.00000000000E+00  0.00000000000E+00  0.10206511158E+04  0.10206511158E+04  0.50400001928E-02 0.  1.
        1   -1    0    0  501    0  0.00000000000E+00  0.00000000000E+00 -0.17854590030E+04  0.17854590030E+04  0.50400001928E-02 0. -1.
    10030    2    1    2    0    0  0.00000000000E+00  0.00000000000E+00 -0.76480788723E+03  0.28061101188E+04  0.26998746071E+04 0.  0.
        3    1    3    3  502    0  0.37861410312E+03 -0.51464651471E+03  0.85355603284E+03  0.10661930339E+04  0.10100000352E+00 0.  1.
       -3    1    3    3    0  502 -0.37861410312E+03  0.51464651471E+03 -0.16183639201E+04  0.17399170849E+04  0.10100000352E+00 0. -1.
</event>
<event>
 5   0  0.4843887E-07  0.2700749E+04  0.7818609E-02  0.8334762E-01
        2   -1    0    0  501    0  0.00000000000E+00  0.00000000000E+00  0.12872785752E+04  0.12872785752E+04  0.25500000920E-02 0.  1.
       -2   -1    0    0    0  501  0.00000000000E+00  0.00000000000E+00 -0.14165635326E+04  0.14165635326E+04  0.25500000920E-02 0. -1.
    10030    2    1    2    0    0  0.00000000000E+00  0.00000000000E+00 -0.12928495733E+03  0.27038421078E+04  0.27007494411E+04 0.  0.
        5    1    3    3  502    0 -0.75839696399E+03  0.11166460006E+04 -0.10244217450E+03  0.13537284568E+04  0.46999998093E+01 0. -1.
       -5    1    3    3    0  502  0.75839696399E+03 -0.11166460006E+04 -0.26842782836E+02  0.13501136510E+04  0.46999998093E+01 0.  1.
</event>
<event>
 5   0  0.4992668E-07  0.2681047E+04  0.7818609E-02  0.8341181E-01
       -2   -1    0    0    0  501  0.00000000000E+00  0.00000000000E+00  0.13385157285E+04  0.13385157285E+04  0.25500000920E-02 0. -1.
        2   -1    0    0  501    0  0.00000000000E+00  0.00000000000E+00 -0.13425339966E+04  0.13425339966E+04  0.25500000920E-02 0.  1.
    10030    2    1    2    0    0  0.00000000000E+00  0.00000000000E+00 -0.40182680535E+01  0.26810497251E+04  0.26810467139E+04 0.  0.
        1    1    3    3  502    0 -0.38684296137E+03  0.80091075296E+03 -0.10049546056E+04  0.13420280438E+04  0.50400001928E-02 0.  1.
       -1    1    3    3    0  502  0.38684296137E+03 -0.80091075296E+03  0.10009363376E+04  0.13390216813E+04  0.50400001928E-02 0. -1.
</event>
<event>
 5   0  0.1971600E-07  0.2701500E+04  0.7818609E-02  0.8334518E-01
       -1   -1    0    0    0  501  0.00000000000E+00  0.00000000000E+00  0.10736442869E+04  0.10736442869E+04  0.50400001928E-02 0.  1.
        1   -1    0    0  501    0  0.00000000000E+00  0.00000000000E+00 -0.16993762662E+04  0.16993762662E+04  0.50400001928E-02 0. -1.
    10030    2    1    2    0    0  0.00000000000E+00  0.00000000000E+00 -0.62573197929E+03  0.27730205531E+04  0.27015000422E+04 0.  0.
        5    1    3    3  502    0 -0.13186080432E+03 -0.73821975436E+03 -0.14660622520E+04  0.16467289680E+04  0.46999998093E+01 0. -1.
       -5    1    3    3    0  502  0.13186080432E+03  0.73821975436E+03  0.84033027268E+03  0.11262915851E+04  0.46999998093E+01 0.  1.
</event>
<event>
 5   0  0.1971600E-07  0.2702641E+04  0.7818609E-02  0.8334148E-01
       -1   -1    0    0    0  501  0.00000000000E+00  0.00000000000E+00  0.12092041992E+04  0.12092041992E+04  0.50400001928E-02 0.  1.
        1   -1    0    0  501    0  0.00000000000E+00  0.00000000000E+00 -0.15101400040E+04  0.15101400040E+04  0.50400001928E-02 0. -1.
    10030    2    1    2    0    0  0.00000000000E+00  0.00000000000E+00 -0.30093580473E+03  0.27193442032E+04  0.27026414000E+04 0.  0.
        5    1    3    3  502    0  0.21864348220E+03  0.12281922087E+04  0.37214993750E+03  0.13018366794E+04  0.46999998093E+01 0.  1.
       -5    1    3    3    0  502 -0.21864348220E+03 -0.12281922087E+04 -0.67308574223E+03  0.14175075238E+04  0.46999998093E+01 0. -1.
</event>
<event>
 5   0  0.4992668E-07  0.2699203E+04  0.7818609E-02  0.8335264E-01
        2   -1    0    0  501    0  0.00000000000E+00  0.00000000000E+00  0.21095277179E+04  0.21095277179E+04  0.25500000920E-02 0.  1.
       -2   -1    0    0    0  501  0.00000000000E+00  0.00000000000E+00 -0.86342745617E+03  0.86342745618E+03  0.25500000920E-02 0. -1.
    10030    2    1    2    0    0  0.00000000000E+00  0.00000000000E+00  0.12461002617E+04  0.29729551741E+04  0.26992029573E+04 0.  0.
        1    1    3    3  502    0 -0.76952628252E+03 -0.95709007687E+03  0.66170927725E+01  0.12281025611E+04  0.50400001928E-02 0.  1.
       -1    1    3    3    0  502  0.76952628252E+03  0.95709007687E+03  0.12394831689E+04  0.17448526129E+04  0.50400001928E-02 0. -1.
</event>
<event>
 5   0  0.1937896E-07  0.2700479E+04  0.7818609E-02  0.8334850E-01
        1   -1    0    0  501    0  0.00000000000E+00  0.00000000000E+00  0.16686572561E+04  0.16686572561E+04  0.50400001928E-02 0. -1.
       -1   -1    0    0    0  501  0.00000000000E+00  0.00000000000E+00 -0.10925828528E+04  0.10925828528E+04  0.50400001928E-02 0.  1.
    10030    2    1    2    0    0  0.00000000000E+00  0.00000000000E+00  0.57607440326E+03  0.27612401089E+04  0.27004787022E+04 0.  0.
        3    1    3    3  502    0  0.63719657615E+03  0.10403905679E+04 -0.30352516858E+03  0.12572030657E+04  0.10100000352E+00 0.  1.
       -3    1    3    3    0  502 -0.63719657615E+03 -0.10403905679E+04  0.87959957183E+03  0.15040370432E+04  0.10100000352E+00 0. -1.
</event>
<event>
 5   0  0.1964242E-07  0.2698737E+04  0.7818609E-02  0.8335415E-01
       -1   -1    0    0    0  501  0.00000000000E+00  0.00000000000E+00  0.12002703329E+04  0.12002703329E+04  0.50400001928E-02 0. -1.
        1   -1    0    0  501    0  0.00000000000E+00  0.00000000000E+00 -0.15169880109E+04  0.15169880109E+04  0.50400001928E-02 0.  1.
    10030    2    1    2    0    0  0.00000000000E+00  0.00000000000E+00 -0.31671767802E+03  0.27172583438E+04  0.26987372639E+04 0.  0.
        2    1    3    3  502    0 -0.67973025300E+03 -0.11486519885E+04 -0.35811672054E+03  0.13819125128E+04  0.25500000920E-02 0. -1.
       -2    1    3    3    0  502  0.67973025300E+03  0.11486519885E+04  0.41399042520E+02  0.13353458310E+04  0.25500000920E-02 0.  1.
</event>
<event>
 5   0  0.1965415E-07  0.2699580E+04  0.7818609E-02  0.8335141E-01
        1   -1    0    0  501    0  0.00000000000E+00  0.00000000000E+00  0.19860617962E+04  0.19860617962E+04  0.50400001928E-02 0.  1.
       -1   -1    0    0    0  501  0.00000000000E+00  0.00000000000E+00 -0.91735944219E+03  0.91735944220E+03  0.50400001928E-02 0. -1.
    10030    2    1    2    0    0  0.00000000000E+00  0.00000000000E+00  0.10687023540E+04  0.29034212384E+04  0.26995796277E+04 0.  0.
        4    1    3    3  502    0  0.43524296497E+03  0.67337104427E+03  0.17021901162E+04  0.18815732264E+04  0.12699999809E+01 0.  1.
       -4    1    3    3    0  502 -0.43524296497E+03 -0.67337104427E+03 -0.63348776220E+03  0.10218480120E+04  0.12699999809E+01 0. -1.
</event>
<event>
 5   0  0.1965415E-07  0.2698977E+04  0.7818609E-02  0.8335337E-01
        1   -1    0    0  501    0  0.00000000000E+00  0.00000000000E+00  0.85484949800E+03  0.85484949801E+03  0.50400001928E-02 0.  1.
       -1   -1    0    0    0  501  0.00000000000E+00  0.00000000000E+00 -0.21303394372E+04  0.21303394372E+04  0.50400001928E-02 0. -1.
    10030    2    1    2    0    0  0.00000000000E+00  0.00000000000E+00 -0.12754899392E+04  0.29851889352E+04  0.26989772867E+04 0.  0.
        4    1    3    3  502    0 -0.94198800539E+03 -0.73878718676E+03  0.51179655225E+02  0.11982357363E+04  0.12699999809E+01 0.  1.
       -4    1    3    3    0  502  0.94198800539E+03  0.73878718676E+03 -0.13266695945E+04  0.17869531990E+04  0.12699999809E+01 0. -1.
</event>
<event>
 5   0  0.1888149E-07  0.2694400E+04  0.7818609E-02  0.8336824E-01
        1   -1    0    0  501    0  0.00000000000E+00  0.00000000000E+00  0.19839988169E+04  0.19839988169E+04  0.50400001928E-02 0. -1.
       -1   -1    0    0    0  501  0.00000000000E+00  0.00000000000E+00 -0.91479290641E+03  0.91479290643E+03  0.50400001928E-02 0.  1.
    10030    2    1    2    0    0  0.00000000000E+00  0.00000000000E+00  0.10692059105E+04  0.28987917234E+04  0.26944001515E+04 0.  0.
        1    1    3    3  502    0  0.60449531317E+03  0.10676725916E+04 -0.64031203543E+02  0.12285924229E+04  0.50400001928E-02 0.  1.
       -1    1    3    3    0  502 -0.60449531317E+03 -0.10676725916E+04  0.11332371141E+04  0.16701993005E+04  0.50400001928E-02 0. -1.
</event>
<event>
 5   0  0.1937896E-07  0.2691908E+04  0.7818609E-02  0.8337635E-01
       -1   -1    0    0    0  501  0.00000000000E+00  0.00000000000E+00  0.89394924989E+03  0.89394924990E+03  0.50400001928E-02 0.  1.
        1   -1    0    0  501    0  0.00000000000E+00  0.00000000000E+00 -0.20265045152E+04  0.20265045152E+04  0.50400001928E-02 0. -1.
    10030    2    1    2    0    0  0.00000000000E+00  0.00000000000E+00 -0.11325552653E+04  0.29204537651E+04  0.26919080157E+04 0.  0.
        3    1    3    3  502    0  0.31992717211E+03  0.12985286916E+04 -0.40152255177E+03  0.13963346763E+04  0.10100000352E+00 0.  1.
       -3    1    3    3    0  502 -0.31992717211E+03 -0.12985286916E+04 -0.73103271353E+03  0.15241190888E+04  0.10100000352E+00 0. -1.
</event>
<event>
 5   0  0.1965415E-07  0.2699855E+04  0.7818609E-02  0.8335052E-01
       -1   -1    0    0    0  501  0.00000000000E+00  0.00000000000E+00  0.86411079396E+03  0.86411079398E+03  0.50400001928E-02 0. -1.
        1   -1    0    0  501    0  0.00000000000E+00  0.00000000000E+00 -0.21088782314E+04  0.21088782314E+04  0.50400001928E-02 0.  1.
    10030    2    1    2    0    0  0.00000000000E+00  0.00000000000E+00 -0.12447674374E+04  0.29729890254E+04  0.26998551390E+04 0.  0.
        4    1    3    3  502    0 -0.12969728123E+04  0.33334497721E+03 -0.81005253976E+03  0.15650699919E+04  0.12699999809E+01 0.  1.
       -4    1    3    3    0  502  0.12969728123E+04 -0.33334497721E+03 -0.43471489767E+03  0.14079190334E+04  0.12699999809E+01 0. -1.
</event>
<event>
 5   0  0.4843887E-07  0.2701524E+04  0.7818609E-02  0.8334511E-01
        2   -1    0    0  501    0  0.00000000000E+00  0.00000000000E+00  0.15792398568E+04  0.15792398568E+04  0.25500000920E-02 0. -1.
       -2   -1    0    0    0  501  0.00000000000E+00  0.00000000000E+00 -0.11553397034E+04  0.11553397034E+04  0.25500000920E-02 0.  1.
    10030    2    1    2    0    0  0.00000000000E+00  0.00000000000E+00  0.42390015344E+03  0.27345795602E+04  0.27015243903E+04 0.  0.
        5    1    3    3  502    0 -0.78294953853E+03 -0.59653525359E+03  0.11482939296E+04  0.15124368838E+04  0.46999998093E+01 0. -1.
       -5    1    3    3    0  502  0.78294953853E+03  0.59653525359E+03 -0.72439377616E+03  0.12221426765E+04  0.46999998093E+01 0.  1.
</event>
<event>
 5   0  0.1964242E-07  0.2700521E+04  0.7818609E-02  0.8334836E-01
        1   -1    0    0  501    0  0.00000000000E+00  0.00000000000E+00  0.22096469250E+04  0.22096469250E+04  0.50400001928E-02 0.  1.
       -1   -1    0    0    0  501  0.00000000000E+00  0.00000000000E+00 -0.82511052605E+03  0.82511052606E+03  0.50400001928E-02 0. -1.
    10030    2    1    2    0    0  0.00000000000E+00  0.00000000000E+00  0.13845363989E+04  0.30347574511E+04  0.27005206436E+04 0.  0.
        2    1    3    3  502    0  0.94674991029E+03 -0.37824671316E+03 -0.30262915138E+03  0.10634803110E+04  0.25500000920E-02 0. -1.
       -2    1    3    3    0  502 -0.94674991029E+03  0.37824671316E+03  0.16871655503E+04  0.19712771400E+04  0.25500000920E-02 0.  1.
</event>
<event>
 5   0  0.1937896E-07  0.2700710E+04  0.7818609E-02  0.8334775E-01
       -1   -1    0    0    0  501  0.00000000000E+00  0.00000000000E+00  0.12233899918E+04  0.12233899918E+04  0.50400001928E-02 0. -1.
        1   -1    0    0  501    0  0.00000000000E+00  0.00000000000E+00 -0.14904965617E+04  0.14904965617E+04  0.50400001928E-02 0.  1.
    10030    2    1    2    0    0  0.00000000000E+00  0.00000000000E+00 -0.26710656982E+03  0.27138865535E+04  0.27007099633E+04 0.  0.
        3    1    3    3  502    0 -0.93932233458E+03  0.75837342141E+03 -0.74148583313E+03  0.14167773098E+04  0.10100000352E+00 0. -1.
       -3    1    3    3    0  502  0.93932233458E+03 -0.75837342141E+03  0.47437926331E+03  0.12971092437E+04  0.10100000352E+00 0.  1.
</event>
<event>
 5   0  0.1964242E-07  0.2700955E+04  0.7818609E-02  0.8334695E-01
        1   -1    0    0  501    0  0.00000000000E+00  0.00000000000E+00  0.14983462621E+04  0.14983462621E+04  0.50400001928E-02 0.  1.
       -1   -1    0    0    0  501  0.00000000000E+00  0.00000000000E+00 -0.12172013364E+04  0.12172013364E+04  0.50400001928E-02 0. -1.
    10030    2    1    2    0    0  0.00000000000E+00  0.00000000000E+00  0.28114492565E+03  0.27155475985E+04  0.27009546998E+04 0.  0.
        2    1    3    3  502    0 -0.47803466689E+03  0.12157727773E+04 -0.20357575444E+03  0.13221435915E+04  0.25500000920E-02 0. -1.
       -2    1    3    3    0  502  0.47803466689E+03 -0.12157727773E+04  0.48472068009E+03  0.13934040069E+04  0.25500000920E-02 0.  1.
</event>
<event>
 5   0  0.4992668E-07  0.2698075E+04  0.7818609E-02  0.8335630E-01
        2   -1    0    0  501    0  0.00000000000E+00  0.00000000000E+00  0.12143247837E+04  0.12143247837E+04  0.25500000920E-02 0. -1.
       -2   -1    0    0    0  501  0.00000000000E+00  0.00000000000E+00 -0.14986945523E+04  0.14986945523E+04  0.25500000920E-02 0.  1.
    10030    2    1    2    0    0  0.00000000000E+00  0.00000000000E+00 -0.28436976865E+03  0.27130193360E+04  0.26980748233E+04 0.  0.
        1    1    3    3  502    0  0.62209959504E+03 -0.20741190780E+02 -0.13456700259E+04  0.14826550245E+04  0.50400001928E-02 0.  1.
       -1    1    3    3    0  502 -0.62209959504E+03  0.20741190780E+02  0.10613002572E+04  0.12303643115E+04  0.50400001928E-02 0. -1.
</event>
<event>
 5   0  0.1888149E-07  0.2699264E+04  0.7818609E-02  0.8335244E-01
       -1   -1    0    0    0  501  0.00000000000E+00  0.00000000000E+00  0.10481631055E+04  0.10481631055E+04  0.50400001928E-02 0.  1.
        1   -1    0    0  501    0  0.00000000000E+00  0.00000000000E+00 -0.17378086505E+04  0.17378086505E+04  0.50400001928E-02 0. -1.
    10030    2    1    2    0    0  0.00000000000E+00  0.00000000000E+00 -0.68964554502E+03  0.27859717560E+04  0.26992642790E+04 0.  0.
        1    1    3    3  502    0  0.71667303217E+03 -0.83799562448E+03 -0.11480569258E+04  0.15918202180E+04  0.50400001928E-02 0. -1.
       -1    1    3    3    0  502 -0.71667303217E+03  0.83799562448E+03  0.45841138076E+03  0.11941515380E+04  0.50400001928E-02 0.  1.
</event>
<event>
 5   0  0.4735120E-07  0.2700439E+04  0.7818609E-02  0.8334863E-01
        2   -1    0    0  501    0  0.00000000000E+00  0.00000000000E+00  0.19672207098E+04  0.19672207098E+04  0.25500000920E-02 0. -1.
       -2   -1    0    0    0  501  0.00000000000E+00  0.00000000000E+00 -0.92673523182E+03  0.92673523182E+03  0.25500000920E-02 0.  1.
    10030    2    1    2    0    0  0.00000000000E+00  0.00000000000E+00  0.10404854780E+04  0.28939559416E+04  0.27004390314E+04 0.  0.
        2    1    3    3  502    0  0.43599103289E+03  0.52928392863E+03 -0.72623481226E+03  0.99882263712E+03  0.25500000920E-02 0.  1.
       -2    1    3    3    0  502 -0.43599103289E+03 -0.52928392863E+03  0.17667202903E+04  0.18951333045E+04  0.25500000920E-02 0. -1.
</event>
<event>
 5   0  0.1641625E-07  0.2706964E+04  0.7818609E-02  0.8332749E-01
        3   -1    0    0  501    0  0.00000000000E+00  0.00000000000E+00  0.21518416082E+04  0.21518416106E+04  0.10100000352E+00 0. -1.
       -3   -1    0    0    0  501  0.00000000000E+00  0.00000000000E+00 -0.85132351290E+03  0.85132351889E+03  0.10100000352E+00 0.  1.
    10030    2    1    2    0    0  0.00000000000E+00  0.00000000000E+00  0.13005180953E+04  0.30031651294E+04  0.27069638857E+04 0.  0.
        3    1    3    3  502    0  0.73576505597E+03 -0.77222124949E+03 -0.27412146252E+03  0.11012803740E+04  0.10100000352E+00 0.  1.
       -3    1    3    3    0  502 -0.73576505597E+03  0.77222124949E+03  0.15746395578E+04  0.19018847554E+04  0.10100000352E+00 0. -1.
</event>
<event>
 5   0  0.1888149E-07  0.2699805E+04  0.7818609E-02  0.8335068E-01
       -1   -1    0    0    0  501  0.00000000000E+00  0.00000000000E+00  0.15103423283E+04  0.15103423283E+04  0.50400001928E-02 0. -1.
        1   -1    0    0  501    0  0.00000000000E+00  0.00000000000E+00 -0.12065058254E+04  0.12065058254E+04  0.50400001928E-02 0.  1.
    10030    2    1    2    0    0  0.00000000000E+00  0.00000000000E+00  0.30383650286E+03  0.27168481537E+04  0.26998050429E+04 0.  0.
        1    1    3    3  502    0 -0.55793229249E+03 -0.27457522778E+03 -0.10537925597E+04  0.12235843893E+04  0.50400001928E-02 0.  1.
       -1    1    3    3    0  502  0.55793229249E+03  0.27457522778E+03  0.13576290626E+04  0.14932637645E+04  0.50400001928E-02 0. -1.
</event>
<event>
 5   0  0.1937896E-07  0.2692730E+04  0.7818609E-02  0.8337368E-01
        1   -1    0    0  501    0  0.00000000000E+00  0.00000000000E+00  0.66042541509E+03  0.66042541511E+03  0.50400001928E-02 0. -1.
       -1   -1    0    0    0  501  0.00000000000E+00  0.00000000000E+00 -0.27447430572E+04  0.27447430572E+04  0.50400001928E-02 0.  1.
    10030    2    1    2    0    0  0.00000000000E+00  0.00000000000E+00 -0.20843176421E+04  0.34051684723E+04  0.26927295244E+04 0.  0.
        3    1    3    3  502    0  0.10350172610E+04 -0.41249771660E+03 -0.86348955303E+02  0.11175290819E+04  0.10100000352E+00 0. -1.
       -3    1    3    3    0  502 -0.10350172610E+04  0.41249771660E+03 -0.19979686868E+04  0.22876393903E+04  0.10100000352E+00 0.  1.
</event>
<event>
 5   0  0.5043890E-07  0.2698803E+04  0.7818609E-02  0.8335393E-01
       -2   -1    0    0    0  501  0.00000000000E+00  0.00000000000E+00  0.15381939737E+04  0.15381939737E+04  0.25500000920E-02 0.  1.
        2   -1    0    0  501    0  0.00000000000E+00  0.00000000000E+00 -0.11837807554E+04  0.11837807554E+04  0.25500000920E-02 0. -1.
    10030    2    1    2    0    0  0.00000000000E+00  0.00000000000E+00  0.35441321838E+03  0.27219747291E+04  0.26988030118E+04 0.  0.
        3    1    3    3  502    0  0.14714279682E+03 -0.76687849907E+03 -0.93275618957E+03  0.12164652705E+04  0.10100000352E+00 0. -1.
       -3    1    3    3    0  502 -0.14714279682E+03  0.76687849907E+03  0.12871694079E+04  0.15055094586E+04  0.10100000352E+00 0.  1.
</event>
<event>
 5   0  0.4983208E-07  0.2699603E+04  0.7818609E-02  0.8335134E-01
        2   -1    0    0  501    0  0.00000000000E+00  0.00000000000E+00  0.16311880127E+04  0.16311880127E+04  0.25500000920E-02 0. -1.
       -2   -1    0    0    0  501  0.00000000000E+00  0.00000000000E+00 -0.11169550346E+04  0.11169550346E+04  0.25500000920E-02 0.  1.
    10030    2    1    2    0    0  0.00000000000E+00  0.00000000000E+00  0.51423297812E+03  0.27481430473E+04  0.26996026842E+04 0.  0.
        4    1    3    3  502    0 -0.83247429992E+03 -0.25997597469E+03 -0.79163131225E+03  0.11778296629E+04  0.12699999809E+01 0.  1.
       -4    1    3    3    0  502  0.83247429992E+03  0.25997597469E+03  0.13058642904E+04  0.15703133844E+04  0.12699999809E+01 0. -1.
</event>
<event>
 5   0  0.1888149E-07  0.2699234E+04  0.7818609E-02  0.8335253E-01
        1   -1    0    0  501    0  0.00000000000E+00  0.00000000000E+00  0.13286525979E+04  0.13286525980E+04  0.50400001928E-02 0. -1.
       -1   -1    0    0    0  501  0.00000000000E+00  0.00000000000E+00 -0.13709126863E+04  0.13709126863E+04  0.50400001928E-02 0.  1.
    10030    2    1    2    0    0  0.00000000000E+00  0.00000000000E+00 -0.42260088350E+02  0.26995652843E+04  0.26992344857E+04 0.  0.
        1    1    3    3  502    0  0.68854019894E+03 -0.10642012282E+02 -0.11819901075E+04  0.13679552157E+04  0.50400001928E-02 0.  1.
       -1    1    3    3    0  502 -0.68854019894E+03  0.10642012282E+02  0.11397300192E+04  0.13316100685E+04  0.50400001928E-02 0. -1.
</event>
<event>
 5   0  0.1971600E-07  0.2700167E+04  0.7818609E-02  0.8334951E-01
       -1   -1    0    0    0  501  0.00000000000E+00  0.00000000000E+00  0.11126477271E+04  0.11126477271E+04  0.50400001928E-02 0. -1.
        1   -1    0    0  501    0  0.00000000000E+00  0.00000000000E+00 -0.16381872374E+04  0.16381872374E+04  0.50400001928E-02 0.  1.
    10030    2    1    2    0    0  0.00000000000E+00  0.00000000000E+00 -0.52553951026E+03  0.27508349645E+04  0.27001668884E+04 0.  0.
        5    1    3    3  502    0  0.71937986109E+03 -0.66678512034E+03 -0.12078592655E+04  0.15559742531E+04  0.46999998093E+01 0.  1.
       -5    1    3    3    0  502 -0.71937986109E+03  0.66678512034E+03  0.68231975521E+03  0.11948607114E+04  0.46999998093E+01 0. -1.
</event>
<event>
 5   0  0.5043890E-07  0.2703908E+04  0.7818609E-02  0.8333738E-01
       -2   -1    0    0    0  501  0.00000000000E+00  0.00000000000E+00  0.16851726113E+04  0.16851726113E+04  0.25500000920E-02 0. -1.
        2   -1    0    0  501    0  0.00000000000E+00  0.00000000000E+00 -0.10846244743E+04  0.10846244743E+04  0.25500000920E-02 0.  1.
    10030    2    1    2    0    0  0.00000000000E+00  0.00000000000E+00  0.60054813702E+03  0.27697970856E+04  0.27039078813E+04 0.  0.
        3    1    3    3  502    0  0.28044449597E+03  0.16411631638E+03  0.16445776987E+04  0.16763708116E+04  0.10100000352E+00 0. -1.
       -3    1    3    3    0  502 -0.28044449597E+03 -0.16411631638E+03 -0.10440295617E+04  0.10934262740E+04  0.10100000352E+00 0.  1.
</event>
<event>
 5   0  0.1965415E-07  0.2700205E+04  0.7818609E-02  0.8334939E-01
        1   -1    0    0  501    0  0.00000000000E+00  0.00000000000E+00  0.97755771157E+03  0.97755771158E+03  0.50400001928E-02 0. -1.
       -1   -1    0    0    0  501  0.00000000000E+00  0.00000000000E+00 -0.18646225183E+04  0.18646225183E+04  0.50400001928E-02 0.  1.
    10030    2    1    2    0    0  0.00000000000E+00  0.00000000000E+00 -0.88706480673E+03  0.28421802299E+04  0.27002045270E+04 0.  0.
        4    1    3    3  502    0  0.35016689551E+03 -0.86804653447E+03 -0.14676511846E+04  0.17407249218E+04  0.12699999809E+01 0.  1.
       -4    1    3    3    0  502 -0.35016689551E+03  0.86804653447E+03  0.58058637787E+03  0.11014553081E+04  0.12699999809E+01 0. -1.
</event>
<event>
 5   0  0.5043890E-07  0.2704070E+04  0.7818609E-02  0.8333686E-01
        2   -1    0    0  501    0  0.00000000000E+00  0.00000000000E+00  0.62256058144E+03  0.62256058144E+03  0.25500000920E-02 0.  1.
       -2   -1    0    0    0  501  0.00000000000E+00  0.00000000000E+00 -0.29362572066E+04  0.29362572066E+04  0.25500000920E-02 0. -1.
    10030    2    1    2    0    0  0.00000000000E+00  0.00000000000E+00 -0.23136966251E+04  0.35588177880E+04  0.27040695211E+04 0.  0.
        3    1    3    3  502    0  0.70083985573E+03  0.33946563753E+03 -0.26114686901E+04  0.27251022278E+04  0.10100000352E+00 0. -1.
       -3    1    3    3    0  502 -0.70083985573E+03 -0.33946563753E+03  0.29777206497E+03  0.83371556020E+03  0.10100000352E+00 0.  1.
</event>
<event>
 5   0  0.1641625E-07  0.2699308E+04  0.7818609E-02  0.8335230E-01
       -3   -1    0    0    0  501  0.00000000000E+00  0.00000000000E+00  0.11032984750E+04  0.11032984797E+04  0.10100000352E+00 0.  1.
        3   -1    0    0  501    0  0.00000000000E+00  0.00000000000E+00 -0.16510180804E+04  0.16510180835E+04  0.10100000352E+00 0. -1.
    10030    2    1    2    0    0  0.00000000000E+00  0.00000000000E+00 -0.54771960538E+03  0.27543165632E+04  0.26993078676E+04 0.  0.
        4    1    3    3  502    0  0.10455808764E+04  0.59345267386E+03 -0.89965962139E+03  0.15016039732E+04  0.12699999809E+01 0. -1.
       -4    1    3    3    0  502 -0.10455808764E+04 -0.59345267386E+03  0.35194001602E+03  0.12527125899E+04  0.12699999809E+01 0.  1.
</event>
<event>
 5   0  0.1964242E-07  0.2701097E+04  0.7818609E-02  0.8334649E-01
       -1   -1    0    0    0  501  0.00000000000E+00  0.00000000000E+00  0.69237017429E+03  0.69237017431E+03  0.50400001928E-02 0. -1.
        1   -1    0    0  501    0  0.00000000000E+00  0.00000000000E+00 -0.26344019692E+04  0.26344019692E+04  0.50400001928E-02 0.  1.
    10030    2    1    2    0    0  0.00000000000E+00  0.00000000000E+00 -0.19420317949E+04  0.33267721435E+04  0.27010970739E+04 0.  0.
        2    1    3    3  502    0 -0.33553707027E+03 -0.45553005348E+03 -0.24814114454E+04  0.25450924377E+04  0.25500000920E-02 0.  1.
       -2    1    3    3    0  502  0.33553707027E+03  0.45553005348E+03  0.53937965047E+03  0.78167970582E+03  0.25500000920E-02 0. -1.
</event>
<event>
 5   0  0.4843887E-07  0.2699433E+04  0.7818609E-02  0.8335189E-01
        2   -1    0    0  501    0  0.00000000000E+00  0.00000000000E+00  0.22853672422E+04  0.22853672422E+04  0.25500000920E-02 0.  1.
       -2   -1    0    0    0  501  0.00000000000E+00  0.00000000000E+00 -0.79712967064E+03  0.79712967064E+03  0.25500000920E-02 0. -1.
    10030    2    1    2    0    0  0.00000000000E+00  0.00000000000E+00  0.14882375716E+04  0.30824969129E+04  0.26994325604E+04 0.  0.
        5    1    3    3  502    0  0.10880515905E+04  0.38490382709E+03  0.15432117680E+04  0.19270526382E+04  0.46999998093E+01 0.  1.
       -5    1    3    3    0  502 -0.10880515905E+04 -0.38490382709E+03 -0.54974196371E+02  0.11554442747E+04  0.46999998093E+01 0. -1.
</event>
<event>
 5   0  0.1888149E-07  0.2700266E+04  0.7818609E-02  0.8334919E-01
        1   -1    0    0  501    0  0.00000000000E+00  0.00000000000E+00  0.25322559891E+04  0.25322559891E+04  0.50400001928E-02 0. -1.
       -1   -1    0    0    0  501  0.00000000000E+00  0.00000000000E+00 -0.71985589073E+03  0.71985589075E+03  0.50400001928E-02 0.  1.
    10030    2    1    2    0    0  0.00000000000E+00  0.00000000000E+00  0.18124000983E+04  0.32521118798E+04  0.27002662021E+04 0.  0.
        1    1    3    3  502    0  0.10809479423E+04 -0.38552139783E+03  0.49672134285E+02  0.11487134208E+04  0.50400001928E-02 0.  1.
       -1    1    3    3    0  502 -0.10809479423E+04  0.38552139783E+03  0.17627279641E+04  0.21033984590E+04  0.50400001928E-02 0. -1.
</event>
<event>
 5   0  0.1888149E-07  0.2699734E+04  0.7818609E-02  0.8335091E-01
        1   -1    0    0  501    0  0.00000000000E+00  0.00000000000E+00  0.19914760655E+04  0.19914760655E+04  0.50400001928E-02 0.  1.
       -1   -1    0    0    0  501  0.00000000000E+00  0.00000000000E+00 -0.91497031903E+03  0.91497031904E+03  0.50400001928E-02 0. -1.
    10030    2    1    2    0    0  0.00000000000E+00  0.00000000000E+00  0.10765057465E+04  0.29064463846E+04  0.26997344248E+04 0.  0.
        1    1    3    3  502    0  0.10404751350E+04 -0.18215168943E+03 -0.36655953230E+03  0.11180937506E+04  0.50400001928E-02 0. -1.
       -1    1    3    3    0  502 -0.10404751350E+04  0.18215168943E+03  0.14430652788E+04  0.17883526340E+04  0.50400001928E-02 0.  1.
</event>
<event>
 5   0  0.5043890E-07  0.2703941E+04  0.7818609E-02  0.8333728E-01
       -2   -1    0    0    0  501  0.00000000000E+00  0.00000000000E+00  0.13606640024E+04  0.13606640024E+04  0.25500000920E-02 0.  1.
        2   -1    0    0  501    0  0.00000000000E+00  0.00000000000E+00 -0.13433321716E+04  0.13433321716E+04  0.25500000920E-02 0. -1.
    10030    2    1    2    0    0  0.00000000000E+00  0.00000000000E+00  0.17331830769E+02  0.27039961740E+04  0.27039406274E+04 0.  0.
        3    1    3    3  502    0  0.33784167385E+03 -0.28523801137E+03 -0.12689854710E+04  0.13438087124E+04  0.10100000352E+00 0. -1.
       -3    1    3    3    0  502 -0.33784167385E+03  0.28523801137E+03  0.12863173017E+04  0.13601874616E+04  0.10100000352E+00 0.  1.
</event>
<event>
 5   0  0.1965415E-07  0.2698946E+04  0.7818609E-02  0.8335347E-01
        1   -1    0    0  501    0  0.00000000000E+00  0.00000000000E+00  0.20385053212E+04  0.20385053212E+04  0.50400001928E-02 0.  1.
       -1   -1    0    0    0  501  0.00000000000E+00  0.00000000000E+00 -0.89333923589E+03  0.89333923591E+03  0.50400001928E-02 0. -1.
    10030    2    1    2    0    0  0.00000000000E+00  0.00000000000E+00  0.11451660853E+04  0.29318445571E+04  0.26989455615E+04 0.  0.
        4    1    3    3  502    0 -0.12674895304E+04 -0.56356714240E+02  0.10720052583E+04  0.16609944839E+04  0.12699999809E+01 0. -1.
       -4    1    3    3    0  502  0.12674895304E+04  0.56356714240E+02  0.73160827033E+02  0.12708500732E+04  0.12699999809E+01 0.  1.
</event>
<event>
 5   0  0.1888149E-07  0.2700284E+04  0.7818609E-02  0.8334913E-01
        1   -1    0    0  501    0  0.00000000000E+00  0.00000000000E+00  0.22443668967E+04  0.22443668967E+04  0.50400001928E-02 0. -1.
       -1   -1    0    0    0  501  0.00000000000E+00  0.00000000000E+00 -0.81220373927E+03  0.81220373928E+03  0.50400001928E-02 0.  1.
    10030    2    1    2    0    0  0.00000000000E+00  0.00000000000E+00  0.14321631574E+04  0.30565706360E+04  0.27002838264E+04 0.  0.
        1    1    3    3  502    0 -0.37670104795E+03 -0.10076458917E+04 -0.20742761815E+03  0.10955729731E+04  0.50400001928E-02 0.  1.
       -1    1    3    3    0  502  0.37670104795E+03  0.10076458917E+04  0.16395907756E+04  0.19609976629E+04  0.50400001928E-02 0. -1.
</event>
<event>
 5   0  0.4843887E-07  0.2701258E+04  0.7818609E-02  0.8334597E-01
        2   -1    0    0  501    0  0.00000000000E+00  0.00000000000E+00  0.25178663825E+04  0.25178663825E+04  0.25500000920E-02 0.  1.
       -2   -1    0    0    0  501  0.00000000000E+00  0.00000000000E+00 -0.72450204445E+03  0.72450204446E+03  0.25500000920E-02 0. -1.
    10030    2    1    2    0    0  0.00000000000E+00  0.00000000000E+00  0.17933643380E+04  0.32423684269E+04  0.27012584784E+04 0.  0.
        5    1    3    3  502    0  0.76328349288E+03  0.10961178141E+04  0.11370494986E+04  0.17541321516E+04  0.46999998093E+01 0.  1.
       -5    1    3    3    0  502 -0.76328349288E+03 -0.10961178141E+04  0.65631483944E+03  0.14882362754E+04  0.46999998093E+01 0. -1.
</event>
<event>
 5   0  0.1971600E-07  0.2700782E+04  0.7818609E-02  0.8334751E-01
       -1   -1    0    0    0  501  0.00000000000E+00  0.00000000000E+00  0.66434689152E+03  0.66434689154E+03  0.50400001928E-02 0. -1.
        1   -1    0    0  501    0  0.00000000000E+00  0.00000000000E+00 -0.27448859719E+04  0.27448859719E+04  0.50400001928E-02 0.  1.
    10030    2    1    2    0    0  0.00000000000E+00  0.00000000000E+00 -0.20805390803E+04  0.34092328634E+04  0.27007824518E+04 0.  0.
        5    1    3    3  502    0  0.10111341108E+04  0.67924028692E+03 -0.30446467386E+03  0.12555797008E+04  0.46999998093E+01 0. -1.
       -5    1    3    3    0  502 -0.10111341108E+04 -0.67924028692E+03 -0.17760744065E+04  0.21536531626E+04  0.46999998093E+01 0.  1.
</event>
<event>
 5   0  0.5043890E-07  0.2700244E+04  0.7818609E-02  0.8334926E-01
       -2   -1    0    0    0  501  0.00000000000E+00  0.00000000000E+00  0.14381915624E+04  0.14381915624E+04  0.25500000920E-02 0. -1.
        2   -1    0    0  501    0  0.00000000000E+00  0.00000000000E+00 -0.12674456466E+04  0.12674456466E+04  0.25500000920E-02 0.  1.
    10030    2    1    2    0    0  0.00000000000E+00  0.00000000000E+00  0.17074591577E+03  0.27056372090E+04  0.27002441628E+04 0.  0.
        3    1    3    3  502    0  0.69282876651E+02  0.29766406139E+03  0.14030757629E+04  0.14359754932E+04  0.10100000352E+00 0. -1.
       -3    1    3    3    0  502 -0.69282876651E+02 -0.29766406139E+03 -0.12323298471E+04  0.12696617158E+04  0.10100000352E+00 0.  1.
</event>
<event>
 5   0  0.1964242E-07  0.2700299E+04  0.7818609E-02  0.8334908E-01
       -1   -1    0    0    0  501  0.00000000000E+00  0.00000000000E+00  0.13145386931E+04  0.13145386932E+04  0.50400001928E-02 0.  1.
        1   -1    0    0  501    0  0.00000000000E+00  0.00000000000E+00 -0.13867248166E+04  0.13867248166E+04  0.50400001928E-02 0. -1.
    10030    2    1    2    0    0  0.00000000000E+00  0.00000000000E+00 -0.72186123435E+02  0.27012635098E+04  0.27002988191E+04 0.  0.
        2    1    3    3  502    0  0.35463669006E+03 -0.70494601971E+03  0.10598289476E+04  0.13213453261E+04  0.25500000920E-02 0.  1.
       -2    1    3    3    0  502 -0.35463669006E+03  0.70494601971E+03 -0.11320150710E+04  0.13799181837E+04  0.25500000920E-02 0. -1.
</event>
<event>
 5   0  0.1965415E-07  0.2696884E+04  0.7818609E-02  0.8336017E-01
       -1   -1    0    0    0  501  0.00000000000E+00  0.00000000000E+00  0.11346187660E+04  0.11346187660E+04  0.50400001928E-02 0. -1.
        1   -1    0    0  501    0  0.00000000000E+00  0.00000000000E+00 -0.16025607047E+04  0.16025607047E+04  0.50400001928E-02 0.  1.
    10030    2    1    2    0    0  0.00000000000E+00  0.00000000000E+00 -0.46794193866E+03  0.27371794707E+04  0.26968837195E+04 0.  0.
        4    1    3    3  502    0  0.99965696031E+03 -0.71696445649E+03 -0.79443727432E+03  0.14644057723E+04  0.12699999809E+01 0.  1.
       -4    1    3    3    0  502 -0.99965696031E+03  0.71696445649E+03  0.32649533566E+03  0.12727736984E+04  0.12699999809E+01 0. -1.
</event>
<event>
 5   0  0.1888149E-07  0.2701310E+04  0.7818609E-02  0.8334580E-01
       -1   -1    0    0    0  501  0.00000000000E+00  0.00000000000E+00  0.10377545319E+04  0.10377545319E+04  0.50400001928E-02 0. -1.
        1   -1    0    0  501    0  0.00000000000E+00  0.00000000000E+00 -0.17579005751E+04  0.17579005751E+04  0.50400001928E-02 0.  1.
    10030    2    1    2    0    0  0.00000000000E+00  0.00000000000E+00 -0.72014604321E+03  0.27956551070E+04  0.27013102661E+04 0.  0.
        1    1    3    3  502    0 -0.87107241074E+02  0.69505674293E+03  0.83506563130E+03  0.10899661260E+04  0.50400001928E-02 0. -1.
       -1    1    3    3    0  502  0.87107241074E+02 -0.69505674293E+03 -0.15552116745E+04  0.17056889810E+04  0.50400001928E-02 0.  1.
</event>
<event>
 5   0  0.1965415E-07  0.2700599E+04  0.7818609E-02  0.8334811E-01
       -1   -1    0    0    0  501  0.00000000000E+00  0.00000000000E+00  0.16646015689E+04  0.16646015689E+04  0.50400001928E-02 0.  1.
        1   -1    0    0  501    0  0.00000000000E+00  0.00000000000E+00 -0.10953427578E+04  0.10953427579E+04  0.50400001928E-02 0. -1.
    10030    2    1    2    0    0  0.00000000000E+00  0.00000000000E+00  0.56925881108E+03  0.27599443268E+04  0.27005993951E+04 0.  0.
        4    1    3    3  502    0  0.84994483490E+03  0.10201645544E+04  0.53530653572E+03  0.14316761647E+04  0.12699999809E+01 0.  1.
       -4    1    3    3    0  502 -0.84994483490E+03 -0.10201645544E+04  0.33952275369E+02  0.13282681621E+04  0.12699999809E+01 0. -1.
</event>
<event>
 5   0  0.4735120E-07  0.2699861E+04  0.7818609E-02  0.8335050E-01
       -2   -1    0    0    0  501  0.00000000000E+00  0.00000000000E+00  0.10826622313E+04  0.10826622313E+04  0.25500000920E-02 0.  1.
        2   -1    0    0  501    0  0.00000000000E+00  0.00000000000E+00 -0.16831766011E+04  0.16831766011E+04  0.25500000920E-02 0. -1.
    10030    2    1    2    0    0  0.00000000000E+00  0.00000000000E+00 -0.60051436979E+03  0.27658388323E+04  0.26998605405E+04 0.  0.
        2    1    3    3  502    0  0.78523793341E+03 -0.61479423368E+02  0.82286172807E+03  0.11390696884E+04  0.25500000920E-02 0.  1.
       -2    1    3    3    0  502 -0.78523793341E+03  0.61479423368E+02 -0.14233760979E+04  0.16267691439E+04  0.25500000920E-02 0. -1.
</event>
<event>
 5   0  0.4992668E-07  0.2717084E+04  0.7818609E-02  0.8329483E-01
       -2   -1    0    0    0  501  0.00000000000E+00  0.00000000000E+00  0.98487696266E+03  0.98487696266E+03  0.25500000920E-02 0. -1.
        2   -1    0    0  501    0  0.00000000000E+00  0.00000000000E+00 -0.18739765568E+04  0.18739765568E+04  0.25500000920E-02 0.  1.
    10030    2    1    2    0    0  0.00000000000E+00  0.00000000000E+00 -0.88909959413E+03  0.28588535195E+04  0.27170839806E+04 0.  0.
        1    1    3    3  502    0 -0.56713672298E+03 -0.26406265057E+03  0.82430039004E+03  0.10348160605E+04  0.50400001928E-02 0. -1.
       -1    1    3    3    0  502  0.56713672298E+03  0.26406265057E+03 -0.17133999842E+04  0.18240374590E+04  0.50400001928E-02 0.  1.
</event>
<event>
 5   0  0.5043890E-07  0.2700409E+04  0.7818609E-02  0.8334872E-01
       -2   -1    0    0    0  501  0.00000000000E+00  0.00000000000E+00  0.13873776254E+04  0.13873776254E+04  0.25500000920E-02 0. -1.
        2   -1    0    0  501    0  0.00000000000E+00  0.00000000000E+00 -0.13140273898E+04  0.13140273898E+04  0.25500000920E-02 0.  1.
    10030    2    1    2    0    0  0.00000000000E+00  0.00000000000E+00  0.73350235579E+02  0.27014050151E+04  0.27004090058E+04 0.  0.
        3    1    3    3  502    0  0.71662690454E+03  0.32392184677E+02  0.11809714958E+04  0.13817731573E+04  0.10100000352E+00 0. -1.
       -3    1    3    3    0  502 -0.71662690454E+03 -0.32392184677E+02 -0.11076212603E+04  0.13196318579E+04  0.10100000352E+00 0.  1.
</event>
<event>
 5   0  0.4992668E-07  0.2706185E+04  0.7818609E-02  0.8333001E-01
       -2   -1    0    0    0  501  0.00000000000E+00  0.00000000000E+00  0.97050365700E+03  0.97050365700E+03  0.25500000920E-02 0. -1.
        2   -1    0    0  501    0  0.00000000000E+00  0.00000000000E+00 -0.18865048073E+04  0.18865048073E+04  0.25500000920E-02 0.  1.
    10030    2    1    2    0    0  0.00000000000E+00  0.00000000000E+00 -0.91600115035E+03  0.28570084644E+04  0.27061853702E+04 0.  0.
        1    1    3    3  502    0  0.39964077043E+03  0.12918516660E+04 -0.40774124119E+03  0.14123903115E+04  0.50400001928E-02 0. -1.
       -1    1    3    3    0  502 -0.39964077043E+03 -0.12918516660E+04 -0.50825990915E+03  0.14446181528E+04  0.50400001928E-02 0.  1.
</event>
<event>
 5   0  0.4983208E-07  0.2700671E+04  0.7818609E-02  0.8334787E-01
       -2   -1    0    0    0  501  0.00000000000E+00  0.00000000000E+00  0.93100611837E+03  0.93100611838E+03  0.25500000920E-02 0. -1.
        2   -1    0    0  501    0  0.00000000000E+00  0.00000000000E+00 -0.19585325152E+04  0.19585325152E+04  0.25500000920E-02 0.  1.
    10030    2    1    2    0    0  0.00000000000E+00  0.00000000000E+00 -0.10275263968E+04  0.28895386336E+04  0.27006708461E+04 0.  0.
        4    1    3    3  502    0  0.34738176917E+03 -0.10839028639E+04 -0.12911306590E+04  0.17212029233E+04  0.12699999809E+01 0.  1.
       -4    1    3    3    0  502 -0.34738176917E+03  0.10839028639E+04  0.26360426215E+03  0.11683357102E+04  0.12699999809E+01 0. -1.
</event>
<event>
 5   0  0.1937896E-07  0.2701515E+04  0.7818609E-02  0.8334514E-01
        1   -1    0    0  501    0  0.00000000000E+00  0.00000000000E+00  0.17083613677E+04  0.17083613677E+04  0.50400001928E-02 0. -1.
       -1   -1    0    0    0  501  0.00000000000E+00  0.00000000000E+00 -0.10680093607E+04  0.10680093607E+04  0.50400001928E-02 0.  1.
    10030    2    1    2    0    0  0.00000000000E+00  0.00000000000E+00  0.64035200705E+03  0.27763707284E+04  0.27015150802E+04 0.  0.
        3    1    3    3  502    0 -0.31927123943E+03  0.40301052394E+03 -0.96351177459E+03  0.10921110551E+04  0.10100000352E+00 0.  1.
       -3    1    3    3    0  502  0.31927123943E+03 -0.40301052394E+03  0.16038637816E+04  0.16842596733E+04  0.10100000352E+00 0. -1.
</event>
<event>
 5   0  0.1888149E-07  0.2700943E+04  0.7818609E-02  0.8334699E-01
        1   -1    0    0  501    0  0.00000000000E+00  0.00000000000E+00  0.17227508407E+04  0.17227508407E+04  0.50400001928E-02 0.  1.
       -1   -1    0    0    0  501  0.00000000000E+00  0.00000000000E+00 -0.10586398377E+04  0.10586398377E+04  0.50400001928E-02 0. -1.
    10030    2    1    2    0    0  0.00000000000E+00  0.00000000000E+00  0.66411100293E+03  0.27813906784E+04  0.27009425543E+04 0.  0.
        1    1    3    3  502    0  0.66706531501E+03 -0.84332039192E+03 -0.50935353214E+03  0.11897926032E+04  0.50400001928E-02 0. -1.
       -1    1    3    3    0  502 -0.66706531501E+03  0.84332039192E+03  0.11734645351E+04  0.15915980752E+04  0.50400001928E-02 0.  1.
</event>
<event>
 5   0  0.1641625E-07  0.2686843E+04  0.7818609E-02  0.8339286E-01
        3   -1    0    0  501    0  0.00000000000E+00  0.00000000000E+00  0.92770112403E+03  0.92770112953E+03  0.10100000352E+00 0.  1.
       -3   -1    0    0    0  501  0.00000000000E+00  0.00000000000E+00 -0.19454346265E+04  0.19454346291E+04  0.10100000352E+00 0. -1.
    10030    2    1    2    0    0  0.00000000000E+00  0.00000000000E+00 -0.10177335024E+04  0.28731357586E+04  0.26868434278E+04 0.  0.
        3    1    3    3  502    0 -0.46320766212E+03  0.10901696344E+04 -0.11866520123E+04  0.16766556530E+04  0.10100000352E+00 0. -1.
       -3    1    3    3    0  502  0.46320766212E+03 -0.10901696344E+04  0.16891850987E+03  0.11964801057E+04  0.10100000352E+00 0.  1.
</event>
<event>
 5   0  0.1888149E-07  0.2700282E+04  0.7818609E-02  0.8334913E-01
       -1   -1    0    0    0  501  0.00000000000E+00  0.00000000000E+00  0.11209667114E+04  0.11209667115E+04  0.50400001928E-02 0. -1.
        1   -1    0    0  501    0  0.00000000000E+00  0.00000000000E+00 -0.16261689277E+04  0.16261689277E+04  0.50400001928E-02 0.  1.
    10030    2    1    2    0    0  0.00000000000E+00  0.00000000000E+00 -0.50520221626E+03  0.27471356392E+04  0.27002823817E+04 0.  0.
        1    1    3    3  502    0 -0.12890476085E+04  0.11899161206E+03  0.13756137647E+03  0.13018163745E+04  0.50400001928E-02 0. -1.
       -1    1    3    3    0  502  0.12890476085E+04 -0.11899161206E+03 -0.64276359272E+03  0.14453192647E+04  0.50400001928E-02 0.  1.
</event>
<event>
 5   0  0.1965415E-07  0.2699584E+04  0.7818609E-02  0.8335140E-01
        1   -1    0    0  501    0  0.00000000000E+00  0.00000000000E+00  0.15393455010E+04  0.15393455010E+04  0.50400001928E-02 0.  1.
       -1   -1    0    0    0  501  0.00000000000E+00  0.00000000000E+00 -0.11835800844E+04  0.11835800844E+04  0.50400001928E-02 0. -1.
    10030    2    1    2    0    0  0.00000000000E+00  0.00000000000E+00  0.35576541663E+03  0.27229255854E+04  0.26995841739E+04 0.  0.
        4    1    3    3  502    0 -0.90234397153E+03  0.10038487858E+04  0.17768767440E+03  0.13614373104E+04  0.12699999809E+01 0.  1.
       -4    1    3    3    0  502  0.90234397153E+03 -0.10038487858E+04  0.17807774223E+03  0.13614882750E+04  0.12699999809E+01 0. -1.
</event>
<event>
 5   0  0.1937896E-07  0.2699867E+04  0.7818609E-02  0.8335048E-01
        1   -1    0    0  501    0  0.00000000000E+00  0.00000000000E+00  0.18599963613E+04  0.18599963613E+04  0.50400001928E-02 0. -1.
       -1   -1    0    0    0  501  0.00000000000E+00  0.00000000000E+00 -0.97974401281E+03  0.97974401282E+03  0.50400001928E-02 0.  1.
    10030    2    1    2    0    0  0.00000000000E+00  0.00000000000E+00  0.88025234850E+03  0.28397403741E+04  0.26998668848E+04 0.  0.
        3    1    3    3  502    0 -0.10637958175E+04 -0.81923302601E+03  0.29318901179E+03  0.13743231422E+04  0.10100000352E+00 0.  1.
       -3    1    3    3    0  502  0.10637958175E+04  0.81923302601E+03  0.58706333671E+03  0.14654172320E+04  0.10100000352E+00 0. -1.
</event>
<event>
 5   0  0.4983208E-07  0.2701676E+04  0.7818609E-02  0.8334461E-01
       -2   -1    0    0    0  501  0.00000000000E+00  0.00000000000E+00  0.12935835078E+04  0.12935835078E+04  0.25500000920E-02 0.  1.
        2   -1    0    0  501    0  0.00000000000E+00  0.00000000000E+00 -0.14106262149E+04  0.14106262149E+04  0.25500000920E-02 0. -1.
    10030    2    1    2    0    0  0.00000000000E+00  0.00000000000E+00 -0.11704270707E+03  0.27042097227E+04  0.27016756336E+04 0.  0.
        4    1    3    3  502    0 -0.13338670610E+04 -0.96478378246E+02  0.13205623811E+03  0.13438563453E+04  0.12699999809E+01 0.  1.
       -4    1    3    3    0  502  0.13338670610E+04  0.96478378246E+02 -0.24909894518E+03  0.13603533774E+04  0.12699999809E+01 0. -1.
</event>
<event>
 5   0  0.1964242E-07  0.2699846E+04  0.7818609E-02  0.8335055E-01
        1   -1    0    0  501    0  0.00000000000E+00  0.00000000000E+00  0.56617545243E+03  0.56617545245E+03  0.50400001928E-02 0.  1.
       -1   -1    0    0    0  501  0.00000000000E+00  0.00000000000E+00 -0.32185990610E+04  0.32185990610E+04  0.50400001928E-02 0. -1.
    10030    2    1    2    0    0  0.00000000000E+00  0.00000000000E+00 -0.26524236086E+04  0.37847745135E+04  0.26998457583E+04 0.  0.
        2    1    3    3  502    0 -0.10345427528E+04 -0.62676785109E+03 -0.48606691964E+03  0.13036018169E+04  0.25500000920E-02 0.  1.
       -2    1    3    3    0  502  0.10345427528E+04  0.62676785109E+03 -0.21663566890E+04  0.24811726966E+04  0.25500000920E-02 0. -1.
</event>
<event>
 5   0  0.1937896E-07  0.2712383E+04  0.7818609E-02  0.8330998E-01
       -1   -1    0    0    0  501  0.00000000000E+00  0.00000000000E+00  0.13398368437E+04  0.13398368437E+04  0.50400001928E-02 0. -1.
        1   -1    0    0  501    0  0.00000000000E+00  0.00000000000E+00 -0.13727457352E+04  0.13727457352E+04  0.50400001928E-02 0.  1.
    10030    2    1    2    0    0  0.00000000000E+00  0.00000000000E+00 -0.32908891490E+02  0.27125825789E+04  0.27123829472E+04 0.  0.
        3    1    3    3  502    0 -0.13423172523E+04  0.80240448395E+02  0.15962999748E+03  0.13541550434E+04  0.10100000352E+00 0. -1.
       -3    1    3    3    0  502  0.13423172523E+04 -0.80240448395E+02 -0.19253888897E+03  0.13584275355E+04  0.10100000352E+00 0.  1.
</event>
<event>
 5   0  0.4843887E-07  0.2700372E+04  0.7818609E-02  0.8334884E-01
       -2   -1    0    0    0  501  0.00000000000E+00  0.00000000000E+00  0.12467366357E+04  0.12467366357E+04  0.25500000920E-02 0.  1.
        2   -1    0    0  501    0  0.00000000000E+00  0.00000000000E+00 -0.14622195302E+04  0.14622195302E+04  0.25500000920E-02 0. -1.
    10030    2    1    2    0    0  0.00000000000E+00  0.00000000000E+00 -0.21548289458E+03  0.27089561659E+04  0.27003723134E+04 0.  0.
        5    1    3    3  502    0  0.54423679950E+03 -0.34768996945E+03  0.10817335675E+04  0.12598617424E+04  0.46999998093E+01 0.  1.
       -5    1    3    3    0  502 -0.54423679950E+03  0.34768996945E+03 -0.12972164621E+04  0.14490944235E+04  0.46999998093E+01 0. -1.
</event>
<event>
 5   0  0.1964242E-07  0.2700849E+04  0.7818609E-02  0.8334730E-01
       -1   -1    0    0    0  501  0.00000000000E+00  0.00000000000E+00  0.10155106637E+04  0.10155106637E+04  0.50400001928E-02 0. -1.
        1   -1    0    0  501    0  0.00000000000E+00  0.00000000000E+00 -0.17957917446E+04  0.17957917446E+04  0.50400001928E-02 0.  1.
    10030    2    1    2    0    0  0.00000000000E+00  0.00000000000E+00 -0.78028108084E+03  0.28113024083E+04  0.27008485085E+04 0.  0.
        2    1    3    3  502    0  0.12073637896E+04 -0.13832361724E+03 -0.10031080330E+04  0.15757812251E+04  0.25500000920E-02 0. -1.
       -2    1    3    3    0  502 -0.12073637896E+04  0.13832361724E+03  0.22282695214E+03  0.12355211832E+04  0.25500000920E-02 0.  1.
</event>
<event>
 5   0  0.1971600E-07  0.2698679E+04  0.7818609E-02  0.8335434E-01
       -1   -1    0    0    0  501  0.00000000000E+00  0.00000000000E+00  0.90298290511E+03  0.90298290512E+03  0.50400001928E-02 0. -1.
        1   -1    0    0  501    0  0.00000000000E+00  0.00000000000E+00 -0.20163354474E+04  0.20163354474E+04  0.50400001928E-02 0.  1.
    10030    2    1    2    0    0  0.00000000000E+00  0.00000000000E+00 -0.11133525423E+04  0.29193183525E+04  0.26986785210E+04 0.  0.
        5    1    3    3  502    0  0.37830956628E+03  0.54038311059E+03  0.71666066362E+03  0.97404139077E+03  0.46999998093E+01 0. -1.
       -5    1    3    3    0  502 -0.37830956628E+03 -0.54038311059E+03 -0.18300132059E+04  0.19452769617E+04  0.46999998093E+01 0.  1.
</event>
<event>
 5   0  0.1971600E-07  0.2701178E+04  0.7818609E-02  0.8334623E-01
       -1   -1    0    0    0  501  0.00000000000E+00  0.00000000000E+00  0.14698361082E+04  0.14698361082E+04  0.50400001928E-02 0. -1.
        1   -1    0    0  501    0  0.00000000000E+00  0.00000000000E+00 -0.12410160400E+04  0.12410160401E+04  0.50400001928E-02 0.  1.
    10030    2    1    2    0    0  0.00000000000E+00  0.00000000000E+00  0.22882006817E+03  0.27108521483E+04  0.27011776591E+04 0.  0.
        5    1    3    3  502    0  0.94935085638E+03  0.50560942760E+03 -0.70531412101E+03  0.12862340538E+04  0.46999998093E+01 0.  1.
       -5    1    3    3    0  502 -0.94935085638E+03 -0.50560942760E+03  0.93413418918E+03  0.14246180945E+04  0.46999998093E+01 0. -1.
</event>
<event>
 5   0  0.4735120E-07  0.2699214E+04  0.7818609E-02  0.8335260E-01
       -2   -1    0    0    0  501  0.00000000000E+00  0.00000000000E+00  0.13989896139E+04  0.13989896139E+04  0.25500000920E-02 0.  1.
        2   -1    0    0  501    0  0.00000000000E+00  0.00000000000E+00 -0.13019673362E+04  0.13019673362E+04  0.25500000920E-02 0. -1.
    10030    2    1    2    0    0  0.00000000000E+00  0.00000000000E+00  0.97022277698E+02  0.27009569501E+04  0.26992137974E+04 0.  0.
        2    1    3    3  502    0 -0.32047659675E+03 -0.54725742848E+03  0.12406002820E+04  0.13933000401E+04  0.25500000920E-02 0.  1.
       -2    1    3    3    0  502  0.32047659675E+03  0.54725742848E+03 -0.11435780043E+04  0.13076569099E+04  0.25500000920E-02 0. -1.
</event>
<event>
 5   0  0.4735120E-07  0.2700996E+04  0.7818609E-02  0.8334682E-01
       -2   -1    0    0    0  501  0.00000000000E+00  0.00000000000E+00  0.11608621716E+04  0.11608621716E+04  0.25500000920E-02 0. -1.
        2   -1    0    0  501    0  0.00000000000E+00  0.00000000000E+00 -0.15711126262E+04  0.15711126262E+04  0.25500000920E-02 0.  1.
    10030    2    1    2    0    0  0.00000000000E+00  0.00000000000E+00 -0.41025045453E+03  0.27319747978E+04  0.27009962718E+04 0.  0.
        2    1    3    3  502    0  0.11204016546E+04 -0.21628682364E+03  0.52549269996E+03  0.12562732328E+04  0.25500000920E-02 0. -1.
       -2    1    3    3    0  502 -0.11204016546E+04  0.21628682364E+03 -0.93574315449E+03  0.14757015650E+04  0.25500000920E-02 0.  1.
</event>
<event>
 5   0  0.4843887E-07  0.2700323E+04  0.7818609E-02  0.8334900E-01
       -2   -1    0    0    0  501  0.00000000000E+00  0.00000000000E+00  0.10301249383E+04  0.10301249383E+04  0.25500000920E-02 0. -1.
        2   -1    0    0  501    0  0.00000000000E+00  0.00000000000E+00 -0.17696255558E+04  0.17696255558E+04  0.25500000920E-02 0.  1.
    10030    2    1    2    0    0  0.00000000000E+00  0.00000000000E+00 -0.73950061754E+03  0.27997504941E+04  0.27003225115E+04 0.  0.
        5    1    3    3  502    0  0.68493895307E+03  0.68193090450E+03  0.60769303557E+03  0.11417022569E+04  0.46999998093E+01 0. -1.
       -5    1    3    3    0  502 -0.68493895307E+03 -0.68193090450E+03 -0.13471936531E+04  0.16580482372E+04  0.46999998093E+01 0.  1.
</event>
<event>
 5   0  0.4983208E-07  0.2699674E+04  0.7818609E-02  0.8335111E-01
        2   -1    0    0  501    0  0.00000000000E+00  0.00000000000E+00  0.12058767560E+04  0.12058767560E+04  0.25500000920E-02 0. -1.
       -2   -1    0    0    0  501  0.00000000000E+00  0.00000000000E+00 -0.15109836186E+04  0.15109836186E+04  0.25500000920E-02 0.  1.
    10030    2    1    2    0    0  0.00000000000E+00  0.00000000000E+00 -0.30510686255E+03  0.27168603746E+04  0.26996740724E+04 0.  0.
        4    1    3    3  502    0  0.12646159660E+04 -0.42202114285E+03 -0.36533031304E+03  0.13823253007E+04  0.12699999809E+01 0. -1.
       -4    1    3    3    0  502 -0.12646159660E+04  0.42202114285E+03  0.60223450487E+02  0.13345350739E+04  0.12699999809E+01 0.  1.
</event>
<event>
 5   0  0.1888149E-07  0.2699947E+04  0.7818609E-02  0.8335022E-01
       -1   -1    0    0    0  501  0.00000000000E+00  0.00000000000E+00  0.66249093616E+03  0.66249093618E+03  0.50400001928E-02 0.  1.
        1   -1    0    0  501    0  0.00000000000E+00  0.00000000000E+00 -0.27508724502E+04  0.27508724502E+04  0.50400001928E-02 0. -1.
    10030    2    1    2    0    0  0.00000000000E+00  0.00000000000E+00 -0.20883815140E+04  0.34133633863E+04  0.26999467142E+04 0.  0.
        1    1    3    3  502    0  0.68191617570E+03  0.75960564070E+02  0.42561247437E+03  0.80741913300E+03  0.50400001928E-02 0.  1.
       -1    1    3    3    0  502 -0.68191617570E+03 -0.75960564070E+02 -0.25139939884E+04  0.26059442533E+04  0.50400001928E-02 0. -1.
</event>
<event>
 5   0  0.4983208E-07  0.2705458E+04  0.7818609E-02  0.8333236E-01
        2   -1    0    0  501    0  0.00000000000E+00  0.00000000000E+00  0.23685850877E+04  0.23685850877E+04  0.25500000920E-02 0. -1.
       -2   -1    0    0    0  501  0.00000000000E+00  0.00000000000E+00 -0.77256082410E+03  0.77256082411E+03  0.25500000920E-02 0.  1.
    10030    2    1    2    0    0  0.00000000000E+00  0.00000000000E+00  0.15960242636E+04  0.31411459118E+04  0.27054582217E+04 0.  0.
        4    1    3    3  502    0 -0.81952455059E+03 -0.57891501075E+03  0.18513715324E+04  0.21057875587E+04  0.12699999809E+01 0. -1.
       -4    1    3    3    0  502  0.81952455059E+03  0.57891501075E+03 -0.25534726880E+03  0.10353583531E+04  0.12699999809E+01 0.  1.
</event>
<event>
 5   0  0.1965415E-07  0.2700077E+04  0.7818609E-02  0.8334980E-01
        1   -1    0    0  501    0  0.00000000000E+00  0.00000000000E+00  0.12998164317E+04  0.12998164317E+04  0.50400001928E-02 0.  1.
       -1   -1    0    0    0  501  0.00000000000E+00  0.00000000000E+00 -0.14022006605E+04  0.14022006605E+04  0.50400001928E-02 0. -1.
    10030    2    1    2    0    0  0.00000000000E+00  0.00000000000E+00 -0.10238422880E+03  0.27020170921E+04  0.27000766352E+04 0.  0.
        4    1    3    3  502    0 -0.80171005792E+03  0.10568048442E+04  0.20003880092E+03  0.13414889603E+04  0.12699999809E+01 0.  1.
       -4    1    3    3    0  502  0.80171005792E+03 -0.10568048442E+04 -0.30242302972E+03  0.13605281319E+04  0.12699999809E+01 0. -1.
</event>
<event>
 5   0  0.4992668E-07  0.2700293E+04  0.7818609E-02  0.8334910E-01
        2   -1    0    0  501    0  0.00000000000E+00  0.00000000000E+00  0.16248837066E+04  0.16248837067E+04  0.25500000920E-02 0. -1.
       -2   -1    0    0    0  501  0.00000000000E+00  0.00000000000E+00 -0.11218625161E+04  0.11218625161E+04  0.25500000920E-02 0.  1.
    10030    2    1    2    0    0  0.00000000000E+00  0.00000000000E+00  0.50302119060E+03  0.27467462227E+04  0.27002934088E+04 0.  0.
        1    1    3    3  502    0 -0.12888949511E+03 -0.70490251644E+03 -0.91246291063E+03  0.11602105942E+04  0.50400001928E-02 0.  1.
       -1    1    3    3    0  502  0.12888949511E+03  0.70490251644E+03  0.14154841012E+04  0.15865356285E+04  0.50400001928E-02 0. -1.
</event>
<event>
 5   0  0.1937896E-07  0.2701786E+04  0.7818609E-02  0.8334426E-01
       -1   -1    0    0    0  501  0.00000000000E+00  0.00000000000E+00  0.97138463317E+03  0.97138463318E+03  0.50400001928E-02 0.  1.
        1   -1    0    0  501    0  0.00000000000E+00  0.00000000000E+00 -0.18786705404E+04  0.18786705404E+04  0.50400001928E-02 0. -1.
    10030    2    1    2    0    0  0.00000000000E+00  0.00000000000E+00 -0.90728590723E+03  0.28500551736E+04  0.27017858492E+04 0.  0.
        3    1    3    3  502    0 -0.12750170035E+04  0.44248785871E+03 -0.51558343588E+03  0.14447457056E+04  0.10100000352E+00 0. -1.
       -3    1    3    3    0  502  0.12750170035E+04 -0.44248785871E+03 -0.39170247136E+03  0.14053094679E+04  0.10100000352E+00 0.  1.
</event>
<event>
 5   0  0.5043890E-07  0.2699928E+04  0.7818609E-02  0.8335028E-01
       -2   -1    0    0    0  501  0.00000000000E+00  0.00000000000E+00  0.67888000664E+03  0.67888000665E+03  0.25500000920E-02 0. -1.
        2   -1    0    0  501    0  0.00000000000E+00  0.00000000000E+00 -0.26844256042E+04  0.26844256042E+04  0.25500000920E-02 0.  1.
    10030    2    1    2    0    0  0.00000000000E+00  0.00000000000E+00 -0.20055455976E+04  0.33633056109E+04  0.26999280524E+04 0.  0.
        3    1    3    3  502    0 -0.72417848089E+03 -0.64880861023E+03 -0.21693617089E+04  0.23772920139E+04  0.10100000352E+00 0.  1.
       -3    1    3    3    0  502  0.72417848089E+03  0.64880861023E+03  0.16381611135E+03  0.98601359698E+03  0.10100000352E+00 0. -1.
</event>
<event>
 5   0  0.1971600E-07  0.2703636E+04  0.7818609E-02  0.8333826E-01
       -1   -1    0    0    0  501  0.00000000000E+00  0.00000000000E+00  0.11782727222E+04  0.11782727222E+04  0.50400001928E-02 0. -1.
        1   -1    0    0  501    0  0.00000000000E+00  0.00000000000E+00 -0.15509245123E+04  0.15509245124E+04  0.50400001928E-02 0.  1.
    10030    2    1    2    0    0  0.00000000000E+00  0.00000000000E+00 -0.37265179016E+03  0.27291972345E+04  0.27036361050E+04 0.  0.
        5    1    3    3  502    0 -0.34559944779E+03  0.12972017423E+04 -0.26020797760E+02  0.13427101364E+04  0.46999998093E+01 0.  1.
       -5    1    3    3    0  502  0.34559944779E+03 -0.12972017423E+04 -0.34663099240E+03  0.13864870982E+04  0.46999998093E+01 0. -1.
</event>
<event>
 5   0  0.4992668E-07  0.2701756E+04  0.7818609E-02  0.8334436E-01
        2   -1    0    0  501    0  0.00000000000E+00  0.00000000000E+00  0.18081382087E+04  0.18081382087E+04  0.25500000920E-02 0.  1.
       -2   -1    0    0    0  501  0.00000000000E+00  0.00000000000E+00 -0.10092540198E+04  0.10092540198E+04  0.25500000920E-02 0. -1.
    10030    2    1    2    0    0  0.00000000000E+00  0.00000000000E+00  0.79888418896E+03  0.28173922285E+04  0.27017555444E+04 0.  0.
        1    1    3    3  502    0 -0.13254970427E+04 -0.25905990999E+03  0.42923606377E+03  0.14171443277E+04  0.50400001928E-02 0. -1.
       -1    1    3    3    0  502  0.13254970427E+04  0.25905990999E+03  0.36964812518E+03  0.14002479008E+04  0.50400001928E-02 0.  1.
</event>
<event>
 5   0  0.5043890E-07  0.2701295E+04  0.7818609E-02  0.8334585E-01
        2   -1    0    0  501    0  0.00000000000E+00  0.00000000000E+00  0.91757702501E+03  0.91757702502E+03  0.25500000920E-02 0. -1.
       -2   -1    0    0    0  501  0.00000000000E+00  0.00000000000E+00 -0.19881150167E+04  0.19881150167E+04  0.25500000920E-02 0.  1.
    10030    2    1    2    0    0  0.00000000000E+00  0.00000000000E+00 -0.10705379917E+04  0.29056920417E+04  0.27012949949E+04 0.  0.
        3    1    3    3  502    0  0.54380570877E+03 -0.10959660824E+04 -0.11507366034E+04  0.16796014537E+04  0.10100000352E+00 0.  1.
       -3    1    3    3    0  502 -0.54380570877E+03  0.10959660824E+04  0.80198611726E+02  0.12260905880E+04  0.10100000352E+00 0. -1.
</event>
<event>
 5   0  0.1641625E-07  0.2702488E+04  0.7818609E-02  0.8334198E-01
        3   -1    0    0  501    0  0.00000000000E+00  0.00000000000E+00  0.81809629581E+03  0.81809630204E+03  0.10100000352E+00 0. -1.
       -3   -1    0    0    0  501  0.00000000000E+00  0.00000000000E+00 -0.22318409260E+04  0.22318409283E+04  0.10100000352E+00 0.  1.
    10030    2    1    2    0    0  0.00000000000E+00  0.00000000000E+00 -0.14137446302E+04  0.30499372303E+04  0.27024883403E+04 0.  0.
        3    1    3    3  502    0 -0.10210660827E+04 -0.64864835888E+03 -0.13863968352E+04  0.18399502259E+04  0.10100000352E+00 0.  1.
       -3    1    3    3    0  502  0.10210660827E+04  0.64864835888E+03 -0.27347794947E+02  0.12099870044E+04  0.10100000352E+00 0. -1.
</event>
<event>
 5   0  0.1965415E-07  0.2699649E+04  0.7818609E-02  0.8335119E-01
        1   -1    0    0  501    0  0.00000000000E+00  0.00000000000E+00  0.11596308508E+04  0.11596308508E+04  0.50400001928E-02 0.  1.
       -1   -1    0    0    0  501  0.00000000000E+00  0.00000000000E+00 -0.15712119459E+04  0.15712119460E+04  0.50400001928E-02 0. -1.
    10030    2    1    2    0    0  0.00000000000E+00  0.00000000000E+00 -0.41158109518E+03  0.27308427967E+04  0.26996487517E+04 0.  0.
        4    1    3    3  502    0 -0.33821809100E+03 -0.48403032093E+03 -0.14336312308E+04  0.15504763615E+04  0.12699999809E+01 0. -1.
       -4    1    3    3    0  502  0.33821809100E+03  0.48403032093E+03  0.10220501357E+04  0.11803664352E+04  0.12699999809E+01 0.  1.
</event>
<event>
 5   0  0.1964242E-07  0.2699192E+04  0.7818609E-02  0.8335267E-01
       -1   -1    0    0    0  501  0.00000000000E+00  0.00000000000E+00  0.72877223383E+03  0.72877223385E+03  0.50400001928E-02 0.  1.
        1   -1    0    0  501    0  0.00000000000E+00  0.00000000000E+00 -0.24992852487E+04  0.24992852487E+04  0.50400001928E-02 0. -1.
    10030    2    1    2    0    0  0.00000000000E+00  0.00000000000E+00 -0.17705130148E+04  0.32280574825E+04  0.26991922449E+04 0.  0.
        2    1    3    3  502    0 -0.32793911364E+03  0.12478975908E+04 -0.41196662827E+03  0.13544404609E+04  0.25500000920E-02 0.  1.
       -2    1    3    3    0  502  0.32793911364E+03 -0.12478975908E+04 -0.13585463866E+04  0.18736170216E+04  0.25500000920E-02 0. -1.
</event>
<event>
 5   0  0.4983208E-07  0.2701012E+04  0.7818609E-02  0.8334677E-01
        2   -1    0    0  501    0  0.00000000000E+00  0.00000000000E+00  0.10784704178E+04  0.10784704178E+04  0.25500000920E-02 0. -1.
       -2   -1    0    0    0  501  0.00000000000E+00  0.00000000000E+00 -0.16911599871E+04  0.16911599871E+04  0.25500000920E-02 0.  1.
    10030    2    1    2    0    0  0.00000000000E+00  0.00000000000E+00 -0.61268956932E+03  0.27696304049E+04  0.27010116755E+04 0.  0.
        4    1    3    3  502    0 -0.71499221942E+03 -0.95498753073E+03 -0.95539392118E+03  0.15283959615E+04  0.12699999809E+01 0.  1.
       -4    1    3    3    0  502  0.71499221942E+03  0.95498753073E+03  0.34270435185E+03  0.12412344434E+04  0.12699999809E+01 0. -1.
</event>
<event>
 5   0  0.4992668E-07  0.2699799E+04  0.7818609E-02  0.8335070E-01
       -2   -1    0    0    0  501  0.00000000000E+00  0.00000000000E+00  0.13717366651E+04  0.13717366651E+04  0.25500000920E-02 0. -1.
        2   -1    0    0  501    0  0.00000000000E+00  0.00000000000E+00 -0.13284095286E+04  0.13284095286E+04  0.25500000920E-02 0.  1.
    10030    2    1    2    0    0  0.00000000000E+00  0.00000000000E+00  0.43327136449E+02  0.27001461937E+04  0.26997985530E+04 0.  0.
        1    1    3    3  502    0 -0.32024682430E+03  0.12309257644E+04 -0.43060234575E+03  0.13428159391E+04  0.50400001928E-02 0.  1.
       -1    1    3    3    0  502  0.32024682430E+03 -0.12309257644E+04  0.47392948220E+03  0.13573302546E+04  0.50400001928E-02 0. -1.
</event>
<event>
 5   0  0.1888149E-07  0.2703547E+04  0.7818609E-02  0.8333855E-01
       -1   -1    0    0    0  501  0.00000000000E+00  0.00000000000E+00  0.12401730957E+04  0.12401730957E+04  0.50400001928E-02 0. -1.
        1   -1    0    0  501    0  0.00000000000E+00  0.00000000000E+00 -0.14734170989E+04  0.14734170989E+04  0.50400001928E-02 0.  1.
    10030    2    1    2    0    0  0.00000000000E+00  0.00000000000E+00 -0.23324400317E+03  0.27135901947E+04  0.27035474805E+04 0.  0.
        1    1    3    3  502    0  0.51241058827E+03 -0.74837310372E+02 -0.13699103665E+04  0.14645202785E+04  0.50400001928E-02 0.  1.
       -1    1    3    3    0  502 -0.51241058827E+03  0.74837310372E+02  0.11366663633E+04  0.12490699162E+04  0.50400001928E-02 0. -1.
</event>
<event>
 5   0  0.4843887E-07  0.2699764E+04  0.7818609E-02  0.8335081E-01
       -2   -1    0    0    0  501  0.00000000000E+00  0.00000000000E+00  0.10854291876E+04  0.10854291876E+04  0.25500000920E-02 0. -1.
        2   -1    0    0  501    0  0.00000000000E+00  0.00000000000E+00 -0.16787664167E+04  0.16787664167E+04  0.25500000920E-02 0.  1.
    10030    2    1    2    0    0  0.00000000000E+00  0.00000000000E+00 -0.59333722912E+03  0.27641956043E+04  0.26997644845E+04 0.  0.
        5    1    3    3  502    0 -0.88993970383E+03  0.13829355209E+03 -0.13261714156E+04  0.16030815626E+04  0.46999998093E+01 0.  1.
       -5    1    3    3    0  502  0.88993970383E+03 -0.13829355209E+03  0.73283418644E+03  0.11611140417E+04  0.46999998093E+01 0. -1.
</event>
<event>
 5   0  0.1965415E-07  0.2699586E+04  0.7818609E-02  0.8335139E-01
        1   -1    0    0  501    0  0.00000000000E+00  0.00000000000E+00  0.12863932700E+04  0.12863932700E+04  0.50400001928E-02 0. -1.
       -1   -1    0    0    0  501  0.00000000000E+00  0.00000000000E+00 -0.14163170230E+04  0.14163170230E+04  0.50400001928E-02 0.  1.
    10030    2    1    2    0    0  0.00000000000E+00  0.00000000000E+00 -0.12992375304E+03  0.27027102930E+04  0.26995856620E+04 0.  0.
        4    1    3    3  502    0 -0.32214301773E+03 -0.11272865174E+04 -0.73460679285E+03  0.13835460850E+04  0.12699999809E+01 0.  1.
       -4    1    3    3    0  502  0.32214301773E+03  0.11272865174E+04  0.60468303981E+03  0.13191642080E+04  0.12699999809E+01 0. -1.
</event>
<event>
 5   0  0.1971600E-07  0.2700565E+04  0.7818609E-02  0.8334822E-01
        1   -1    0    0  501    0  0.00000000000E+00  0.00000000000E+00  0.28659576839E+04  0.28659576839E+04  0.50400001928E-02 0.  1.
       -1   -1    0    0    0  501  0.00000000000E+00  0.00000000000E+00 -0.63617915089E+03  0.63617915091E+03  0.50400001928E-02 0. -1.
    10030    2    1    2    0    0  0.00000000000E+00  0.00000000000E+00  0.22297785330E+04  0.35021368348E+04  0.27005647749E+04 0.  0.
        5    1    3    3  502    0  0.36289623838E+03 -0.49236407956E+03  0.26759914892E+04  0.27450079429E+04  0.46999998093E+01 0.  1.
       -5    1    3    3    0  502 -0.36289623838E+03  0.49236407956E+03 -0.44621295617E+03  0.75712889188E+03  0.46999998093E+01 0. -1.
</event>
<event>
 5   0  0.1964242E-07  0.2699821E+04  0.7818609E-02  0.8335063E-01
        1   -1    0    0  501    0  0.00000000000E+00  0.00000000000E+00  0.17386213546E+04  0.17386213546E+04  0.50400001928E-02 0. -1.
       -1   -1    0    0    0  501  0.00000000000E+00  0.00000000000E+00 -0.10481054875E+04  0.10481054875E+04  0.50400001928E-02 0.  1.
    10030    2    1    2    0    0  0.00000000000E+00  0.00000000000E+00  0.69051586711E+03  0.27867268422E+04  0.26998211663E+04 0.  0.
        2    1    3    3  502    0  0.29709594313E+03 -0.10276622259E+04  0.11951096567E+04  0.16039459908E+04  0.25500000920E-02 0. -1.
       -2    1    3    3    0  502 -0.29709594313E+03  0.10276622259E+04 -0.50459378958E+03  0.11827808514E+04  0.25500000920E-02 0.  1.
</event>
<event>
 5   0  0.4983208E-07  0.2700055E+04  0.7818609E-02  0.8334987E-01
       -2   -1    0    0    0  501  0.00000000000E+00  0.00000000000E+00  0.98123655358E+03  0.98123655358E+03  0.25500000920E-02 0.  1.
        2   -1    0    0  501    0  0.00000000000E+00  0.00000000000E+00 -0.18574256048E+04  0.18574256048E+04  0.25500000920E-02 0. -1.
    10030    2    1    2    0    0  0.00000000000E+00  0.00000000000E+00 -0.87618905123E+03  0.28386621584E+04  0.27000547394E+04 0.  0.
        4    1    3    3  502    0  0.29749874272E+03 -0.87275055688E+03 -0.14748053684E+04  0.17393250197E+04  0.12699999809E+01 0. -1.
       -4    1    3    3    0  502 -0.29749874272E+03  0.87275055688E+03  0.59861631718E+03  0.10993371387E+04  0.12699999809E+01 0.  1.
</event>
<event>
 5   0  0.1888149E-07  0.2699288E+04  0.7818609E-02  0.8335236E-01
        1   -1    0    0  501    0  0.00000000000E+00  0.00000000000E+00  0.22159707729E+04  0.22159707729E+04  0.50400001928E-02 0. -1.
       -1   -1    0    0    0  501  0.00000000000E+00  0.00000000000E+00 -0.82200506749E+03  0.82200506751E+03  0.50400001928E-02 0.  1.
    10030    2    1    2    0    0  0.00000000000E+00  0.00000000000E+00  0.13939657054E+04  0.30379758404E+04  0.26992882060E+04 0.  0.
        1    1    3    3  502    0 -0.13381288874E+04 -0.17427634314E+03  0.66992367025E+03  0.15065718990E+04  0.50400001928E-02 0.  1.
       -1    1    3    3    0  502  0.13381288874E+04  0.17427634314E+03  0.72404203517E+03  0.15314039414E+04  0.50400001928E-02 0. -1.
</event>
<event>
 5   0  0.1937896E-07  0.2701961E+04  0.7818609E-02  0.8334369E-01
        1   -1    0    0  501    0  0.00000000000E+00  0.00000000000E+00  0.12942006003E+04  0.12942006003E+04  0.50400001928E-02 0.  1.
       -1   -1    0    0    0  501  0.00000000000E+00  0.00000000000E+00 -0.14102513998E+04  0.14102513998E+04  0.50400001928E-02 0. -1.
    10030    2    1    2    0    0  0.00000000000E+00  0.00000000000E+00 -0.11605079956E+03  0.27044520001E+04  0.27019609236E+04 0.  0.
        3    1    3    3  502    0 -0.88474833544E+03  0.82673847218E+03  0.54158623266E+03  0.13264960520E+04  0.10100000352E+00 0.  1.
       -3    1    3    3    0  502  0.88474833544E+03 -0.82673847218E+03 -0.65763703222E+03  0.13779559481E+04  0.10100000352E+00 0. -1.
</event>
<event>
 5   0  0.4735120E-07  0.2697369E+04  0.7818609E-02  0.8335859E-01
       -2   -1    0    0    0  501  0.00000000000E+00  0.00000000000E+00  0.17565308698E+04  0.17565308698E+04  0.25500000920E-02 0.  1.
        2   -1    0    0  501    0  0.00000000000E+00  0.00000000000E+00 -0.10355351307E+04  0.10355351307E+04  0.25500000920E-02 0. -1.
    10030    2    1    2    0    0  0.00000000000E+00  0.00000000000E+00  0.72099573919E+03  0.27920660005E+04  0.26973686614E+04 0.  0.
        2    1    3    3  502    0  0.28270331351E+03  0.15958959698E+03 -0.99448859592E+03  0.10461345852E+04  0.25500000920E-02 0. -1.
       -2    1    3    3    0  502 -0.28270331351E+03 -0.15958959698E+03  0.17154843351E+04  0.17459314153E+04  0.25500000920E-02 0.  1.
</event>
<event>
 5   0  0.4983208E-07  0.2697387E+04  0.7818609E-02  0.8335853E-01
       -2   -1    0    0    0  501  0.00000000000E+00  0.00000000000E+00  0.11955448562E+04  0.11955448562E+04  0.25500000920E-02 0. -1.
        2   -1    0    0  501    0  0.00000000000E+00  0.00000000000E+00 -0.15214599348E+04  0.15214599348E+04  0.25500000920E-02 0.  1.
    10030    2    1    2    0    0  0.00000000000E+00  0.00000000000E+00 -0.32591507860E+03  0.27170047909E+04  0.26973865862E+04 0.  0.
        4    1    3    3  502    0 -0.99526025593E+03  0.58268654613E+03 -0.86726068293E+03  0.14429862415E+04  0.12699999809E+01 0.  1.
       -4    1    3    3    0  502  0.99526025593E+03 -0.58268654613E+03  0.54134560433E+03  0.12740185494E+04  0.12699999809E+01 0. -1.
</event>
<event>
 5   0  0.1971600E-07  0.2699846E+04  0.7818609E-02  0.8335055E-01
        1   -1    0    0  501    0  0.00000000000E+00  0.00000000000E+00  0.20083147241E+04  0.20083147241E+04  0.50400001928E-02 0. -1.
       -1   -1    0    0    0  501  0.00000000000E+00  0.00000000000E+00 -0.90737361392E+03  0.90737361394E+03  0.50400001928E-02 0.  1.
    10030    2    1    2    0    0  0.00000000000E+00  0.00000000000E+00  0.11009411102E+04  0.29156883381E+04  0.26998457653E+04 0.  0.
        5    1    3    3  502    0  0.12428719775E+04 -0.52262325713E+03  0.62213764554E+03  0.14849051018E+04  0.46999998093E+01 0. -1.
       -5    1    3    3    0  502 -0.12428719775E+04  0.52262325713E+03  0.47880346468E+03  0.14307832363E+04  0.46999998093E+01 0.  1.
</event>
<event>
 5   0  0.4983208E-07  0.2700323E+04  0.7818609E-02  0.8334900E-01
       -2   -1    0    0    0  501  0.00000000000E+00  0.00000000000E+00  0.21339431047E+04  0.21339431047E+04  0.25500000920E-02 0. -1.
        2   -1    0    0  501    0  0.00000000000E+00  0.00000000000E+00 -0.85425709648E+03  0.85425709648E+03  0.25500000920E-02 0.  1.
    10030    2    1    2    0    0  0.00000000000E+00  0.00000000000E+00  0.12796860082E+04  0.29882002012E+04  0.27003229738E+04 0.  0.
        4    1    3    3  502    0 -0.36125526238E+03 -0.12501290204E+04  0.24145398137E+03  0.13234914319E+04  0.12699999809E+01 0.  1.
       -4    1    3    3    0  502  0.36125526238E+03  0.12501290204E+04  0.10382320269E+04  0.16647087693E+04  0.12699999809E+01 0. -1.
</event>
<event>
 5   0  0.1964242E-07  0.2699568E+04  0.7818609E-02  0.8335145E-01
        1   -1    0    0  501    0  0.00000000000E+00  0.00000000000E+00  0.10818332576E+04  0.10818332577E+04  0.50400001928E-02 0. -1.
       -1   -1    0    0    0  501  0.00000000000E+00  0.00000000000E+00 -0.16841016528E+04  0.16841016528E+04  0.50400001928E-02 0.  1.
    10030    2    1    2    0    0  0.00000000000E+00  0.00000000000E+00 -0.60226839518E+03  0.27659349105E+04  0.26995682450E+04 0.  0.
        2    1    3    3  502    0 -0.19526545956E+03  0.13347310913E+04 -0.25219497534E+03  0.13723111861E+04  0.25500000920E-02 0. -1.
       -2    1    3    3    0  502  0.19526545956E+03 -0.13347310913E+04 -0.35007341984E+03  0.13936237244E+04  0.25500000920E-02 0.  1.
</event>
<event>
 5   0  0.4843887E-07  0.2700318E+04  0.7818609E-02  0.8334902E-01
        2   -1    0    0  501    0  0.00000000000E+00  0.00000000000E+00  0.21338104986E+04  0.21338104986E+04  0.25500000920E-02 0. -1.
       -2   -1    0    0    0  501  0.00000000000E+00  0.00000000000E+00 -0.85430727979E+03  0.85430727980E+03  0.25500000920E-02 0.  1.
    10030    2    1    2    0    0  0.00000000000E+00  0.00000000000E+00  0.12795032188E+04  0.29881177784E+04  0.27003183832E+04 0.  0.
        5    1    3    3  502    0  0.12679944922E+04  0.46354635632E+03  0.65625768931E+03  0.15011267439E+04  0.46999998093E+01 0.  1.
       -5    1    3    3    0  502 -0.12679944922E+04 -0.46354635632E+03  0.62324552952E+03  0.14869910345E+04  0.46999998093E+01 0. -1.
</event>
<event>
 5   0  0.1965415E-07  0.2699008E+04  0.7818609E-02  0.8335327E-01
        1   -1    0    0  501    0  0.00000000000E+00  0.00000000000E+00  0.11768045677E+04  0.11768045677E+04  0.50400001928E-02 0. -1.
       -1   -1    0    0    0  501  0.00000000000E+00  0.00000000000E+00 -0.15475474066E+04  0.15475474066E+04  0.50400001928E-02 0.  1.
    10030    2    1    2    0    0  0.00000000000E+00  0.00000000000E+00 -0.37074283892E+03  0.27243519744E+04  0.26990078599E+04 0.  0.
        4    1    3    3  502    0 -0.85874672062E+03 -0.50266474904E+03 -0.11055463838E+04  0.14873977947E+04  0.12699999809E+01 0. -1.
       -4    1    3    3    0  502  0.85874672062E+03  0.50266474904E+03  0.73480354488E+03  0.12369541797E+04  0.12699999809E+01 0.  1.
</event>
<event>
 5   0  0.5043890E-07  0.2699955E+04  0.7818609E-02  0.8335020E-01
        2   -1    0    0  501    0  0.00000000000E+00  0.00000000000E+00  0.16794874621E+04  0.16794874621E+04  0.25500000920E-02 0. -1.
       -2   -1    0    0    0  501  0.00000000000E+00  0.00000000000E+00 -0.10851160823E+04  0.10851160823E+04  0.25500000920E-02 0.  1.
    10030    2    1    2    0    0  0.00000000000E+00  0.00000000000E+00  0.59437137986E+03  0.27646035444E+04  0.26999547071E+04 0.  0.
        3    1    3    3  502    0  0.77874763484E+03 -0.40070391599E+03  0.13491246771E+04  0.16084616600E+04  0.10100000352E+00 0. -1.
       -3    1    3    3    0  502 -0.77874763484E+03  0.40070391599E+03 -0.75475329723E+03  0.11561418844E+04  0.10100000352E+00 0.  1.
</event>
<event>
 5   0  0.1964242E-07  0.2700534E+04  0.7818609E-02  0.8334832E-01
        1   -1    0    0  501    0  0.00000000000E+00  0.00000000000E+00  0.11154552516E+04  0.11154552516E+04  0.50400001928E-02 0. -1.
       -1   -1    0    0    0  501  0.00000000000E+00  0.00000000000E+00 -0.16345089762E+04  0.16345089762E+04  0.50400001928E-02 0.  1.
    10030    2    1    2    0    0  0.00000000000E+00  0.00000000000E+00 -0.51905372456E+03  0.27499642278E+04  0.27005344814E+04 0.  0.
        2    1    3    3  502    0  0.64528491085E+03 -0.80030269628E+03 -0.11509612190E+04  0.15432396928E+04  0.25500000920E-02 0.  1.
       -2    1    3    3    0  502 -0.64528491085E+03  0.80030269628E+03  0.63190749443E+03  0.12067245350E+04  0.25500000920E-02 0. -1.
</event>
<event>
 5   0  0.4735120E-07  0.2700674E+04  0.7818609E-02  0.8334786E-01
        2   -1    0    0  501    0  0.00000000000E+00  0.00000000000E+00  0.28731831223E+04  0.28731831223E+04  0.25500000920E-02 0.  1.
       -2   -1    0    0    0  501  0.00000000000E+00  0.00000000000E+00 -0.63463045164E+03  0.63463045164E+03  0.25500000920E-02 0. -1.
    10030    2    1    2    0    0  0.00000000000E+00  0.00000000000E+00  0.22385526706E+04  0.35078135739E+04  0.27006736215E+04 0.  0.
        2    1    3    3  502    0 -0.85014446566E+03 -0.58315630718E+02 -0.24129026116E+03  0.88564514079E+03  0.25500000920E-02 0. -1.
       -2    1    3    3    0  502  0.85014446566E+03  0.58315630718E+02  0.24798429318E+04  0.26221684331E+04  0.25500000920E-02 0.  1.
</event>
<event>
 5   0  0.4983208E-07  0.2707618E+04  0.7818609E-02  0.8332537E-01
       -2   -1    0    0    0  501  0.00000000000E+00  0.00000000000E+00  0.14251079203E+04  0.14251079203E+04  0.25500000920E-02 0.  1.
        2   -1    0    0  501    0  0.00000000000E+00  0.00000000000E+00 -0.12860772821E+04  0.12860772821E+04  0.25500000920E-02 0. -1.
    10030    2    1    2    0    0  0.00000000000E+00  0.00000000000E+00  0.13903063824E+03  0.27111852024E+04  0.27076180830E+04 0.  0.
        4    1    3    3  502    0 -0.29635924660E+03  0.12946388678E+04 -0.19327797069E+03  0.13421164584E+04  0.12699999809E+01 0.  1.
       -4    1    3    3    0  502  0.29635924660E+03 -0.12946388678E+04  0.33230860893E+03  0.13690687439E+04  0.12699999809E+01 0. -1.
</event>
<event>
 5   0  0.4843887E-07  0.2700146E+04  0.7818609E-02  0.8334957E-01
       -2   -1    0    0    0  501  0.00000000000E+00  0.00000000000E+00  0.20966521910E+04  0.20966521910E+04  0.25500000920E-02 0.  1.
        2   -1    0    0  501    0  0.00000000000E+00  0.00000000000E+00 -0.86933710356E+03  0.86933710356E+03  0.25500000920E-02 0. -1.
    10030    2    1    2    0    0  0.00000000000E+00  0.00000000000E+00  0.12273150874E+04  0.29659892945E+04  0.27001463241E+04 0.  0.
        5    1    3    3  502    0 -0.82726074366E+03 -0.12674360248E+03 -0.55000569207E+03  0.10014752269E+04  0.46999998093E+01 0. -1.
       -5    1    3    3    0  502  0.82726074366E+03  0.12674360248E+03  0.17773207795E+04  0.19645140676E+04  0.46999998093E+01 0.  1.
</event>
<event>
 5   0  0.1888149E-07  0.2700284E+04  0.7818609E-02  0.8334913E-01
        1   -1    0    0  501    0  0.00000000000E+00  0.00000000000E+00  0.21408894226E+04  0.21408894226E+04  0.50400001928E-02 0.  1.
       -1   -1    0    0    0  501  0.00000000000E+00  0.00000000000E+00 -0.85146075961E+03  0.85146075962E+03  0.50400001928E-02 0. -1.
    10030    2    1    2    0    0  0.00000000000E+00  0.00000000000E+00  0.12894286630E+04  0.29923501822E+04  0.27002839362E+04 0.  0.
        1    1    3    3  502    0  0.10502144356E+04 -0.13611758386E+03 -0.28336992254E+03  0.10962558417E+04  0.50400001928E-02 0. -1.
       -1    1    3    3    0  502 -0.10502144356E+04  0.13611758386E+03  0.15727985855E+04  0.18960943405E+04  0.50400001928E-02 0.  1.
</event>
<event>
 5   0  0.1964242E-07  0.2702084E+04  0.7818609E-02  0.8334329E-01
       -1   -1    0    0    0  501  0.00000000000E+00  0.00000000000E+00  0.69411476001E+03  0.69411476003E+03  0.50400001928E-02 0.  1.
        1   -1    0    0  501    0  0.00000000000E+00  0.00000000000E+00 -0.26297017580E+04  0.26297017580E+04  0.50400001928E-02 0. -1.
    10030    2    1    2    0    0  0.00000000000E+00  0.00000000000E+00 -0.19355869980E+04  0.33238165180E+04  0.27020842360E+04 0.  0.
        2    1    3    3  502    0 -0.49510882420E+03  0.32372774929E+03  0.52634362772E+03  0.79181438350E+03  0.25500000920E-02 0.  1.
       -2    1    3    3    0  502  0.49510882420E+03 -0.32372774929E+03 -0.24619306257E+04  0.25320021345E+04  0.25500000920E-02 0. -1.
</event>
<event>
 5   0  0.4843887E-07  0.2698012E+04  0.7818609E-02  0.8335650E-01
        2   -1    0    0  501    0  0.00000000000E+00  0.00000000000E+00  0.16887567221E+04  0.16887567221E+04  0.25500000920E-02 0. -1.
       -2   -1    0    0    0  501  0.00000000000E+00  0.00000000000E+00 -0.10776080471E+04  0.10776080471E+04  0.25500000920E-02 0.  1.
    10030    2    1    2    0    0  0.00000000000E+00  0.00000000000E+00  0.61114867505E+03  0.27663647692E+04  0.26980124784E+04 0.  0.
        5    1    3    3  502    0 -0.67411522029E+03 -0.11234723772E+04  0.63491936517E+03  0.14559416894E+04  0.46999998093E+01 0. -1.
       -5    1    3    3    0  502  0.67411522029E+03  0.11234723772E+04 -0.23770690120E+02  0.13104230799E+04  0.46999998093E+01 0.  1.
</event>
<event>
 5   0  0.1937896E-07  0.2701799E+04  0.7818609E-02  0.8334421E-01
       -1   -1    0    0    0  501  0.00000000000E+00  0.00000000000E+00  0.11581516767E+04  0.11581516768E+04  0.50400001928E-02 0. -1.
        1   -1    0    0  501    0  0.00000000000E+00  0.00000000000E+00 -0.15757260699E+04  0.15757260699E+04  0.50400001928E-02 0.  1.
    10030    2    1    2    0    0  0.00000000000E+00  0.00000000000E+00 -0.41757439313E+03  0.27338777466E+04  0.27017992449E+04 0.  0.
        3    1    3    3  502    0 -0.75474965022E+03 -0.11197770763E+04 -0.24640444831E+03  0.13726845586E+04  0.10100000352E+00 0. -1.
       -3    1    3    3    0  502  0.75474965022E+03  0.11197770763E+04 -0.17116994482E+03  0.13611931881E+04  0.10100000352E+00 0.  1.
</event>
<event>
 5   0  0.4992668E-07  0.2700779E+04  0.7818609E-02  0.8334752E-01
       -2   -1    0    0    0  501  0.00000000000E+00  0.00000000000E+00  0.10005728878E+04  0.10005728878E+04  0.25500000920E-02 0.  1.
        2   -1    0    0  501    0  0.00000000000E+00  0.00000000000E+00 -0.18225081677E+04  0.18225081677E+04  0.25500000920E-02 0. -1.
    10030    2    1    2    0    0  0.00000000000E+00  0.00000000000E+00 -0.82193527986E+03  0.28230810555E+04  0.27007793396E+04 0.  0.
        1    1    3    3  502    0  0.13234936630E+04  0.26412430832E+03 -0.36244198509E+03  0.13974123653E+04  0.50400001928E-02 0.  1.
       -1    1    3    3    0  502 -0.13234936630E+04 -0.26412430832E+03 -0.45949329476E+03  0.14256686902E+04  0.50400001928E-02 0. -1.
</event>
<event>
 5   0  0.1888149E-07  0.2699638E+04  0.7818609E-02  0.8335122E-01
        1   -1    0    0  501    0  0.00000000000E+00  0.00000000000E+00  0.15827825978E+04  0.15827825978E+04  0.50400001928E-02 0. -1.
       -1   -1    0    0    0  501  0.00000000000E+00  0.00000000000E+00 -0.11511443773E+04  0.11511443773E+04  0.50400001928E-02 0.  1.
    10030    2    1    2    0    0  0.00000000000E+00  0.00000000000E+00  0.43163822055E+03  0.27339269751E+04  0.26996379668E+04 0.  0.
        1    1    3    3  502    0  0.78013655326E+03 -0.10681373957E+04 -0.56822866845E+02  0.13239181908E+04  0.50400001928E-02 0.  1.
       -1    1    3    3    0  502 -0.78013655326E+03  0.10681373957E+04  0.48846108740E+03  0.14100087843E+04  0.50400001928E-02 0. -1.
</event>
<event>
 5   0  0.4992668E-07  0.2699659E+04  0.7818609E-02  0.8335116E-01
        2   -1    0    0  501    0  0.00000000000E+00  0.00000000000E+00  0.76368161598E+03  0.76368161599E+03  0.25500000920E-02 0. -1.
       -2   -1    0    0    0  501  0.00000000000E+00  0.00000000000E+00 -0.23858629662E+04  0.23858629662E+04  0.25500000920E-02 0.  1.
    10030    2    1    2    0    0  0.00000000000E+00  0.00000000000E+00 -0.16221813502E+04  0.31495445822E+04  0.26996590048E+04 0.  0.
        1    1    3    3  502    0 -0.66460454355E+03  0.11104694091E+04 -0.12586906622E+04  0.18053098601E+04  0.50400001928E-02 0. -1.
       -1    1    3    3    0  502  0.66460454355E+03 -0.11104694091E+04 -0.36349068799E+03  0.13442347221E+04  0.50400001928E-02 0.  1.
</event>
<event>
 5   0  0.4992668E-07  0.2699728E+04  0.7818609E-02  0.8335093E-01
       -2   -1    0    0    0  501  0.00000000000E+00  0.00000000000E+00  0.99481105534E+03  0.99481105534E+03  0.25500000920E-02 0. -1.
        2   -1    0    0  501    0  0.00000000000E+00  0.00000000000E+00 -0.18316365732E+04  0.18316365732E+04  0.25500000920E-02 0.  1.
    10030    2    1    2    0    0  0.00000000000E+00  0.00000000000E+00 -0.83682551788E+03  0.28264476286E+04  0.26997276251E+04 0.  0.
        1    1    3    3  502    0 -0.51762271699E+03 -0.12325647919E+04 -0.22259596037E+03  0.13552483923E+04  0.50400001928E-02 0. -1.
       -1    1    3    3    0  502  0.51762271699E+03  0.12325647919E+04 -0.61422955751E+03  0.14711992362E+04  0.50400001928E-02 0.  1.
</event>
<event>
 5   0  0.4843887E-07  0.2702835E+04  0.7818609E-02  0.8334086E-01
       -2   -1    0    0    0  501  0.00000000000E+00  0.00000000000E+00  0.10379078237E+04  0.10379078237E+04  0.25500000920E-02 0.  1.
        2   -1    0    0  501    0  0.00000000000E+00  0.00000000000E+00 -0.17596257277E+04  0.17596257277E+04  0.25500000920E-02 0. -1.
    10030    2    1    2    0    0  0.00000000000E+00  0.00000000000E+00 -0.72171790403E+03  0.27975335514E+04  0.27028350372E+04 0.  0.
        5    1    3    3  502    0 -0.12617398416E+03  0.68056217076E+03 -0.15622251925E+04  0.17086996180E+04  0.46999998093E+01 0. -1.
       -5    1    3    3    0  502  0.12617398416E+03 -0.68056217076E+03  0.84050728846E+03  0.10888339334E+04  0.46999998093E+01 0.  1.
</event>
<event>
 5   0  0.5043890E-07  0.2701386E+04  0.7818609E-02  0.8334556E-01
       -2   -1    0    0    0  501  0.00000000000E+00  0.00000000000E+00  0.11693547278E+04  0.11693547278E+04  0.25500000920E-02 0. -1.
        2   -1    0    0  501    0  0.00000000000E+00  0.00000000000E+00 -0.15601519775E+04  0.15601519775E+04  0.25500000920E-02 0.  1.
    10030    2    1    2    0    0  0.00000000000E+00  0.00000000000E+00 -0.39079724967E+03  0.27295067053E+04  0.27013856377E+04 0.  0.
        3    1    3    3  502    0 -0.74142445211E+03  0.92816656008E+03 -0.84487111436E+03  0.14577416066E+04  0.10100000352E+00 0.  1.
       -3    1    3    3    0  502  0.74142445211E+03 -0.92816656008E+03  0.45407386469E+03  0.12717650987E+04  0.10100000352E+00 0. -1.
</event>
<event>
 5   0  0.1965415E-07  0.2700176E+04  0.7818609E-02  0.8334948E-01
        1   -1    0    0  501    0  0.00000000000E+00  0.00000000000E+00  0.16560774508E+04  0.16560774509E+04  0.50400001928E-02 0. -1.
       -1   -1    0    0    0  501  0.00000000000E+00  0.00000000000E+00 -0.11006356290E+04  0.11006356290E+04  0.50400001928E-02 0.  1.
    10030    2    1    2    0    0  0.00000000000E+00  0.00000000000E+00  0.55544182188E+03  0.27567130798E+04  0.27001761770E+04 0.  0.
        4    1    3    3  502    0  0.87380136772E+03  0.78089255605E+03  0.96214119205E+03  0.15162583225E+04  0.12699999809E+01 0. -1.
       -4    1    3    3    0  502 -0.87380136772E+03 -0.78089255605E+03 -0.40669937017E+03  0.12404547573E+04  0.12699999809E+01 0.  1.
</event>
<event>
 5   0  0.1937896E-07  0.2699998E+04  0.7818609E-02  0.8335006E-01
       -1   -1    0    0    0  501  0.00000000000E+00  0.00000000000E+00  0.11771406342E+04  0.11771406342E+04  0.50400001928E-02 0.  1.
        1   -1    0    0  501    0  0.00000000000E+00  0.00000000000E+00 -0.15482410209E+04  0.15482410209E+04  0.50400001928E-02 0. -1.
    10030    2    1    2    0    0  0.00000000000E+00  0.00000000000E+00 -0.37110038677E+03  0.27253816551E+04  0.26999980869E+04 0.  0.
        3    1    3    3  502    0  0.77872142099E+03 -0.41982108665E+03  0.84376233585E+03  0.12225349426E+04  0.10100000352E+00 0.  1.
       -3    1    3    3    0  502 -0.77872142099E+03  0.41982108665E+03 -0.12148627226E+04  0.15028467125E+04  0.10100000352E+00 0. -1.
</event>
<event>
 5   0  0.1964242E-07  0.2701855E+04  0.7818609E-02  0.8334403E-01
        1   -1    0    0  501    0  0.00000000000E+00  0.00000000000E+00  0.11071304132E+04  0.11071304132E+04  0.50400001928E-02 0. -1.
       -1   -1    0    0    0  501  0.00000000000E+00  0.00000000000E+00 -0.16484105041E+04  0.16484105041E+04  0.50400001928E-02 0.  1.
    10030    2    1    2    0    0  0.00000000000E+00  0.00000000000E+00 -0.54128009091E+03  0.27555409173E+04  0.27018552163E+04 0.  0.
        2    1    3    3  502    0  0.83123335873E+03 -0.52307931372E+03 -0.12166729286E+04  0.15636028525E+04  0.25500000920E-02 0.  1.
       -2    1    3    3    0  502 -0.83123335873E+03  0.52307931372E+03  0.67539283770E+03  0.11919380648E+04  0.25500000920E-02 0. -1.
</event>
<event>
 5   0  0.1888149E-07  0.2697914E+04  0.7818609E-02  0.8335682E-01
        1   -1    0    0  501    0  0.00000000000E+00  0.00000000000E+00  0.20447088167E+04  0.20447088167E+04  0.50400001928E-02 0. -1.
       -1   -1    0    0    0  501  0.00000000000E+00  0.00000000000E+00 -0.88994797595E+03  0.88994797597E+03  0.50400001928E-02 0.  1.
    10030    2    1    2    0    0  0.00000000000E+00  0.00000000000E+00  0.11547608407E+04  0.29346567927E+04  0.26979136182E+04 0.  0.
        1    1    3    3  502    0  0.43160434351E+03 -0.97909114624E+03 -0.31615391280E+03  0.11157307375E+04  0.50400001928E-02 0.  1.
       -1    1    3    3    0  502 -0.43160434351E+03  0.97909114624E+03  0.14709147535E+04  0.18189260552E+04  0.50400001928E-02 0. -1.
</event>
<event>
 5   0  0.4992668E-07  0.2698521E+04  0.7818609E-02  0.8335485E-01
        2   -1    0    0  501    0  0.00000000000E+00  0.00000000000E+00  0.19734462244E+04  0.19734462244E+04  0.25500000920E-02 0. -1.
       -2   -1    0    0    0  501  0.00000000000E+00  0.00000000000E+00 -0.92249967538E+03  0.92249967539E+03  0.25500000920E-02 0.  1.
    10030    2    1    2    0    0  0.00000000000E+00  0.00000000000E+00  0.10509465490E+04  0.28959458998E+04  0.26985207069E+04 0.  0.
        1    1    3    3  502    0  0.88027543647E+03  0.10108907936E+04  0.69074856894E+03  0.15079517984E+04  0.50400001928E-02 0.  1.
       -1    1    3    3    0  502 -0.88027543647E+03 -0.10108907936E+04  0.36019798004E+03  0.13879941014E+04  0.50400001928E-02 0. -1.
</event>
<event>
 5   0  0.1937896E-07  0.2700418E+04  0.7818609E-02  0.8334869E-01
       -1   -1    0    0    0  501  0.00000000000E+00  0.00000000000E+00  0.12899642007E+04  0.12899642007E+04  0.50400001928E-02 0.  1.
        1   -1    0    0  501    0  0.00000000000E+00  0.00000000000E+00 -0.14132670041E+04  0.14132670041E+04  0.50400001928E-02 0. -1.
    10030    2    1    2    0    0  0.00000000000E+00  0.00000000000E+00 -0.12330280339E+03  0.27032312049E+04  0.27004176280E+04 0.  0.
        3    1    3    3  502    0  0.51824068711E+03  0.10602529592E+04  0.59504588533E+03  0.13216615917E+04  0.10100000352E+00 0.  1.
       -3    1    3    3    0  502 -0.51824068711E+03 -0.10602529592E+04 -0.71834868872E+03  0.13815696131E+04  0.10100000352E+00 0. -1.
</event>
<event>
 5   0  0.4735120E-07  0.2698956E+04  0.7818609E-02  0.8335344E-01
        2   -1    0    0  501    0  0.00000000000E+00  0.00000000000E+00  0.16688825446E+04  0.16688825446E+04  0.25500000920E-02 0. -1.
       -2   -1    0    0    0  501  0.00000000000E+00  0.00000000000E+00 -0.10912038837E+04  0.10912038837E+04  0.25500000920E-02 0.  1.
    10030    2    1    2    0    0  0.00000000000E+00  0.00000000000E+00  0.57767866088E+03  0.27600864283E+04  0.26989561790E+04 0.  0.
        2    1    3    3  502    0  0.80354948300E+03  0.28313097931E+02  0.13971752885E+04  0.16120149471E+04  0.25500000920E-02 0. -1.
       -2    1    3    3    0  502 -0.80354948300E+03 -0.28313097931E+02 -0.81949662758E+03  0.11480714811E+04  0.25500000920E-02 0.  1.
</event>
<event>
 5   0  0.1971600E-07  0.2699772E+04  0.7818609E-02  0.8335079E-01
       -1   -1    0    0    0  501  0.00000000000E+00  0.00000000000E+00  0.11364567674E+04  0.11364567674E+04  0.50400001928E-02 0. -1.
        1   -1    0    0  501    0  0.00000000000E+00  0.00000000000E+00 -0.16033973645E+04  0.16033973645E+04  0.50400001928E-02 0.  1.
    10030    2    1    2    0    0  0.00000000000E+00  0.00000000000E+00 -0.46694059708E+03  0.27398541319E+04  0.26997716835E+04 0.  0.
        5    1    3    3  502    0  0.56946801862E+03  0.79815621828E+03 -0.11750502758E+04  0.15303961623E+04  0.46999998093E+01 0.  1.
       -5    1    3    3    0  502 -0.56946801862E+03 -0.79815621828E+03  0.70810967874E+03  0.12094579696E+04  0.46999998093E+01 0. -1.
</event>
<event>
 5   0  0.4983208E-07  0.2699420E+04  0.7818609E-02  0.8335193E-01
        2   -1    0    0  501    0  0.00000000000E+00  0.00000000000E+00  0.19066515890E+04  0.19066515890E+04  0.25500000920E-02 0. -1.
       -2   -1    0    0    0  501  0.00000000000E+00  0.00000000000E+00 -0.95545376630E+03  0.95545376630E+03  0.25500000920E-02 0.  1.
    10030    2    1    2    0    0  0.00000000000E+00  0.00000000000E+00  0.95119782274E+03  0.28621053553E+04  0.26994202650E+04 0.  0.
        4    1    3    3  502    0  0.30150775492E+03 -0.32355044657E+03  0.18276463934E+04  0.18803948442E+04  0.12699999809E+01 0. -1.
       -4    1    3    3    0  502 -0.30150775492E+03  0.32355044657E+03 -0.87644857068E+03  0.98171051115E+03  0.12699999809E+01 0.  1.
</event>
<event>
 5   0  0.4992668E-07  0.2701270E+04  0.7818609E-02  0.8334593E-01
       -2   -1    0    0    0  501  0.00000000000E+00  0.00000000000E+00  0.19889406305E+04  0.19889406305E+04  0.25500000920E-02 0.  1.
        2   -1    0    0  501    0  0.00000000000E+00  0.00000000000E+00 -0.91717900440E+03  0.91717900440E+03  0.25500000920E-02 0. -1.
    10030    2    1    2    0    0  0.00000000000E+00  0.00000000000E+00  0.10717616261E+04  0.29061196349E+04  0.27012697661E+04 0.  0.
        1    1    3    3  502    0  0.67085415843E+03  0.72748667015E+03  0.15247902487E+04  0.18177644126E+04  0.50400001928E-02 0.  1.
       -1    1    3    3    0  502 -0.67085415843E+03 -0.72748667015E+03 -0.45302862256E+03  0.10883552223E+04  0.50400001928E-02 0. -1.
</event>
<event>
 5   0  0.4992668E-07  0.2700508E+04  0.7818609E-02  0.8334840E-01
        2   -1    0    0  501    0  0.00000000000E+00  0.00000000000E+00  0.12478706905E+04  0.12478706905E+04  0.25500000920E-02 0. -1.
       -2   -1    0    0    0  501  0.00000000000E+00  0.00000000000E+00 -0.14610373266E+04  0.14610373266E+04  0.25500000920E-02 0.  1.
    10030    2    1    2    0    0  0.00000000000E+00  0.00000000000E+00 -0.21316663611E+03  0.27089080172E+04  0.27005078468E+04 0.  0.
        1    1    3    3  502    0  0.11478212217E+04 -0.58395212119E+03 -0.51366831268E+03  0.13864879272E+04  0.50400001928E-02 0.  1.
       -1    1    3    3    0  502 -0.11478212217E+04  0.58395212119E+03  0.30050167657E+03  0.13224200900E+04  0.50400001928E-02 0. -1.
</event>
<event>
 5   0  0.1965415E-07  0.2698639E+04  0.7818609E-02  0.8335447E-01
       -1   -1    0    0    0  501  0.00000000000E+00  0.00000000000E+00  0.10533549567E+04  0.10533549567E+04  0.50400001928E-02 0. -1.
        1   -1    0    0  501    0  0.00000000000E+00  0.00000000000E+00 -0.17284416991E+04  0.17284416991E+04  0.50400001928E-02 0.  1.
    10030    2    1    2    0    0  0.00000000000E+00  0.00000000000E+00 -0.67508674243E+03  0.27817966559E+04  0.26986386429E+04 0.  0.
        4    1    3    3  502    0 -0.58279108551E+03  0.12092539034E+04 -0.19650407438E+03  0.13566708946E+04  0.12699999809E+01 0. -1.
       -4    1    3    3    0  502  0.58279108551E+03 -0.12092539034E+04 -0.47858266804E+03  0.14251257612E+04  0.12699999809E+01 0.  1.
</event>
<event>
 5   0  0.4983208E-07  0.2700276E+04  0.7818609E-02  0.8334915E-01
        2   -1    0    0  501    0  0.00000000000E+00  0.00000000000E+00  0.15505160858E+04  0.15505160858E+04  0.25500000920E-02 0. -1.
       -2   -1    0    0    0  501  0.00000000000E+00  0.00000000000E+00 -0.11756556599E+04  0.11756556599E+04  0.25500000920E-02 0.  1.
    10030    2    1    2    0    0  0.00000000000E+00  0.00000000000E+00  0.37486042587E+03  0.27261717457E+04  0.27002762911E+04 0.  0.
        4    1    3    3  502    0 -0.45186588354E+03  0.12588502946E+04  0.37354711838E+03  0.13886777537E+04  0.12699999809E+01 0.  1.
       -4    1    3    3    0  502  0.45186588354E+03 -0.12588502946E+04  0.13133074964E+01  0.13374939920E+04  0.12699999809E+01 0. -1.
</event>
<event>
 5   0  0.4983208E-07  0.2699860E+04  0.7818609E-02  0.8335050E-01
       -2   -1    0    0    0  501  0.00000000000E+00  0.00000000000E+00  0.16084791444E+04  0.16084791444E+04  0.25500000920E-02 0.  1.
        2   -1    0    0  501    0  0.00000000000E+00  0.00000000000E+00 -0.11329406847E+04  0.11329406847E+04  0.25500000920E-02 0. -1.
    10030    2    1    2    0    0  0.00000000000E+00  0.00000000000E+00  0.47553845962E+03  0.27414198291E+04  0.26998603395E+04 0.  0.
        4    1    3    3  502    0  0.63873847111E+03  0.11815958916E+04  0.10095779816E+03  0.13469780159E+04  0.12699999809E+01 0.  1.
       -4    1    3    3    0  502 -0.63873847111E+03 -0.11815958916E+04  0.37458066146E+03  0.13944418132E+04  0.12699999809E+01 0. -1.
</event>
<event>
 5   0  0.1964242E-07  0.2699690E+04  0.7818609E-02  0.8335106E-01
       -1   -1    0    0    0  501  0.00000000000E+00  0.00000000000E+00  0.82881175707E+03  0.82881175708E+03  0.50400001928E-02 0.  1.
        1   -1    0    0  501    0  0.00000000000E+00  0.00000000000E+00 -0.21984263145E+04  0.21984263145E+04  0.50400001928E-02 0. -1.
    10030    2    1    2    0    0  0.00000000000E+00  0.00000000000E+00 -0.13696145574E+04  0.30272380716E+04  0.26996900389E+04 0.  0.
        2    1    3    3  502    0  0.91977856822E+03  0.58982975921E+03 -0.15735542191E+04  0.19157151771E+04  0.25500000920E-02 0. -1.
       -2    1    3    3    0  502 -0.91977856822E+03 -0.58982975921E+03  0.20393966163E+03  0.11115228945E+04  0.25500000920E-02 0.  1.
</event>
<event>
 5   0  0.4992668E-07  0.2700469E+04  0.7818609E-02  0.8334853E-01
        2   -1    0    0  501    0  0.00000000000E+00  0.00000000000E+00  0.20667394429E+04  0.20667394429E+04  0.25500000920E-02 0. -1.
       -2   -1    0    0    0  501  0.00000000000E+00  0.00000000000E+00 -0.88212990247E+03  0.88212990247E+03  0.25500000920E-02 0.  1.
    10030    2    1    2    0    0  0.00000000000E+00  0.00000000000E+00  0.11846095404E+04  0.29488693454E+04  0.27004685987E+04 0.  0.
        1    1    3    3  502    0  0.44407717786E+03  0.11979869952E+04  0.11537472114E+03  0.12828439916E+04  0.50400001928E-02 0.  1.
       -1    1    3    3    0  502 -0.44407717786E+03 -0.11979869952E+04  0.10692348193E+04  0.16660253537E+04  0.50400001928E-02 0. -1.
</event>
<event>
 5   0  0.1971600E-07  0.2701071E+04  0.7818609E-02  0.8334658E-01
        1   -1    0    0  501    0  0.00000000000E+00  0.00000000000E+00  0.16242241291E+04  0.16242241291E+04  0.50400001928E-02 0. -1.
       -1   -1    0    0    0  501  0.00000000000E+00  0.00000000000E+00 -0.11229642345E+04  0.11229642345E+04  0.50400001928E-02 0.  1.
    10030    2    1    2    0    0  0.00000000000E+00  0.00000000000E+00  0.50125989460E+03  0.27471883637E+04  0.27010706069E+04 0.  0.
        5    1    3    3  502    0  0.68328919647E+03 -0.96997055945E+03 -0.40551791024E+03  0.12538715555E+04  0.46999998093E+01 0.  1.
       -5    1    3    3    0  502 -0.68328919647E+03  0.96997055945E+03  0.90677780485E+03  0.14933168082E+04  0.46999998093E+01 0. -1.
</event>
<event>
 5   0  0.1971600E-07  0.2698902E+04  0.7818609E-02  0.8335361E-01
       -1   -1    0    0    0  501  0.00000000000E+00  0.00000000000E+00  0.12039632003E+04  0.12039632003E+04  0.50400001928E-02 0. -1.
        1   -1    0    0  501    0  0.00000000000E+00  0.00000000000E+00 -0.15125192009E+04  0.15125192009E+04  0.50400001928E-02 0.  1.
    10030    2    1    2    0    0  0.00000000000E+00  0.00000000000E+00 -0.30855600062E+03  0.27164824011E+04  0.26989015970E+04 0.  0.
        5    1    3    3  502    0  0.53502488375E+03  0.19700211072E+03  0.10767730100E+04  0.12184103016E+04  0.46999998093E+01 0. -1.
       -5    1    3    3    0  502 -0.53502488375E+03 -0.19700211072E+03 -0.13853290106E+04  0.14980720996E+04  0.46999998093E+01 0.  1.
</event>
<event>
 5   0  0.1971600E-07  0.2701201E+04  0.7818609E-02  0.8334615E-01
       -1   -1    0    0    0  501  0.00000000000E+00  0.00000000000E+00  0.19958856084E+04  0.19958856084E+04  0.50400001928E-02 0.  1.
        1   -1    0    0  501    0  0.00000000000E+00  0.00000000000E+00 -0.91394113041E+03  0.91394113042E+03  0.50400001928E-02 0. -1.
    10030    2    1    2    0    0  0.00000000000E+00  0.00000000000E+00  0.10819444780E+04  0.29098267388E+04  0.27012011766E+04 0.  0.
        5    1    3    3  502    0  0.87435526863E+03  0.33701747171E+03  0.15887298061E+04  0.18444951609E+04  0.46999998093E+01 0.  1.
       -5    1    3    3    0  502 -0.87435526863E+03 -0.33701747171E+03 -0.50678532810E+03  0.10653315779E+04  0.46999998093E+01 0. -1.
</event>
<event>
 5   0  0.1964242E-07  0.2698540E+04  0.7818609E-02  0.8335479E-01
        1   -1    0    0  501    0  0.00000000000E+00  0.00000000000E+00  0.20051833802E+04  0.20051833802E+04  0.50400001928E-02 0. -1.
       -1   -1    0    0    0  501  0.00000000000E+00  0.00000000000E+00 -0.90791204358E+03  0.90791204360E+03  0.50400001928E-02 0.  1.
    10030    2    1    2    0    0  0.00000000000E+00  0.00000000000E+00  0.10972713366E+04  0.29130954238E+04  0.26985404503E+04 0.  0.
        2    1    3    3  502    0  0.33687427921E+02 -0.62923695391E+02  0.20031440860E+04  0.20044152423E+04  0.25500000920E-02 0. -1.
       -2    1    3    3    0  502 -0.33687427921E+02  0.62923695391E+02 -0.90587274937E+03  0.90868018153E+03  0.25500000920E-02 0.  1.
</event>
<event>
 5   0  0.5043890E-07  0.2700041E+04  0.7818609E-02  0.8334992E-01
        2   -1    0    0  501    0  0.00000000000E+00  0.00000000000E+00  0.20352465157E+04  0.20352465157E+04  0.25500000920E-02 0. -1.
       -2   -1    0    0    0  501  0.00000000000E+00  0.00000000000E+00 -0.89549594078E+03  0.89549594078E+03  0.25500000920E-02 0.  1.
    10030    2    1    2    0    0  0.00000000000E+00  0.00000000000E+00  0.11397505749E+04  0.29307424565E+04  0.27000407355E+04 0.  0.
        3    1    3    3  502    0  0.21048878951E+03  0.13277093549E+04  0.70473844187E+03  0.15178188111E+04  0.10100000352E+00 0. -1.
       -3    1    3    3    0  502 -0.21048878951E+03 -0.13277093549E+04  0.43501213304E+03  0.14129236454E+04  0.10100000352E+00 0.  1.
</event>
<event>
 5   0  0.4843887E-07  0.2697489E+04  0.7818609E-02  0.8335820E-01
        2   -1    0    0  501    0  0.00000000000E+00  0.00000000000E+00  0.15162553888E+04  0.15162553888E+04  0.25500000920E-02 0.  1.
       -2   -1    0    0    0  501  0.00000000000E+00  0.00000000000E+00 -0.11997394642E+04  0.11997394642E+04  0.25500000920E-02 0. -1.
    10030    2    1    2    0    0  0.00000000000E+00  0.00000000000E+00  0.31651592452E+03  0.27159948530E+04  0.26974887787E+04 0.  0.
        5    1    3    3  502    0 -0.48460188813E+03  0.12586698903E+04  0.15893710820E+03  0.13580765726E+04  0.46999998093E+01 0. -1.
       -5    1    3    3    0  502  0.48460188813E+03 -0.12586698903E+04  0.15757881632E+03  0.13579182804E+04  0.46999998093E+01 0.  1.
</event>
<event>
 5   0  0.4735120E-07  0.2699670E+04  0.7818609E-02  0.8335112E-01
       -2   -1    0    0    0  501  0.00000000000E+00  0.00000000000E+00  0.11275107875E+04  0.11275107875E+04  0.25500000920E-02 0. -1.
        2   -1    0    0  501    0  0.00000000000E+00  0.00000000000E+00 -0.16159978928E+04  0.16159978928E+04  0.25500000920E-02 0.  1.
    10030    2    1    2    0    0  0.00000000000E+00  0.00000000000E+00 -0.48848710527E+03  0.27435086802E+04  0.26996703922E+04 0.  0.
        2    1    3    3  502    0 -0.71733709552E+03  0.11209192047E+04 -0.14693578591E+02  0.13308825167E+04  0.25500000920E-02 0.  1.
       -2    1    3    3    0  502  0.71733709552E+03 -0.11209192047E+04 -0.47379352668E+03  0.14126261635E+04  0.25500000920E-02 0. -1.
</event>
<event>
 5   0  0.1965415E-07  0.2697463E+04  0.7818609E-02  0.8335828E-01
       -1   -1    0    0    0  501  0.00000000000E+00  0.00000000000E+00  0.11059621858E+04  0.11059621858E+04  0.50400001928E-02 0. -1.
        1   -1    0    0  501    0  0.00000000000E+00  0.00000000000E+00 -0.16447914188E+04  0.16447914188E+04  0.50400001928E-02 0.  1.
    10030    2    1    2    0    0  0.00000000000E+00  0.00000000000E+00 -0.53882923305E+03  0.27507536046E+04  0.26974633363E+04 0.  0.
        4    1    3    3  502    0 -0.11064729184E+04  0.57698307050E+02 -0.10536750947E+04  0.15290010569E+04  0.12699999809E+01 0.  1.
       -4    1    3    3    0  502  0.11064729184E+04 -0.57698307050E+02  0.51484586168E+03  0.12217525477E+04  0.12699999809E+01 0. -1.
</event>
<event>
 5   0  0.4992668E-07  0.2701090E+04  0.7818609E-02  0.8334651E-01
       -2   -1    0    0    0  501  0.00000000000E+00  0.00000000000E+00  0.10997760359E+04  0.10997760359E+04  0.25500000920E-02 0.  1.
        2   -1    0    0  501    0  0.00000000000E+00  0.00000000000E+00 -0.16584944377E+04  0.16584944377E+04  0.25500000920E-02 0. -1.
    10030    2    1    2    0    0  0.00000000000E+00  0.00000000000E+00 -0.55871840174E+03  0.27582704736E+04  0.27010904748E+04 0.  0.
        1    1    3    3  502    0  0.98150489462E+03  0.35515866399E+03 -0.11545214277E+04  0.15564090920E+04  0.50400001928E-02 0. -1.
       -1    1    3    3    0  502 -0.98150489462E+03 -0.35515866399E+03  0.59580302591E+03  0.12018613816E+04  0.50400001928E-02 0.  1.
</event>
<event>
 5   0  0.1964242E-07  0.2700052E+04  0.7818609E-02  0.8334988E-01
       -1   -1    0    0    0  501  0.00000000000E+00  0.00000000000E+00  0.10264375557E+04  0.10264375557E+04  0.50400001928E-02 0. -1.
        1   -1    0    0  501    0  0.00000000000E+00  0.00000000000E+00 -0.17756264354E+04  0.17756264354E+04  0.50400001928E-02 0.  1.
    10030    2    1    2    0    0  0.00000000000E+00  0.00000000000E+00 -0.74918887968E+03  0.28020639911E+04  0.27000515981E+04 0.  0.
        2    1    3    3  502    0  0.39822633757E+03 -0.74960430780E+03  0.71486813077E+03  0.11097419874E+04  0.25500000920E-02 0. -1.
       -2    1    3    3    0  502 -0.39822633757E+03  0.74960430780E+03 -0.14640570105E+04  0.16923220037E+04  0.25500000920E-02 0.  1.
</event>
<event>
 5   0  0.1888149E-07  0.2690283E+04  0.7818609E-02  0.8338165E-01
       -1   -1    0    0    0  501  0.00000000000E+00  0.00000000000E+00  0.82499463341E+03  0.82499463342E+03  0.50400001928E-02 0. -1.
        1   -1    0    0  501    0  0.00000000000E+00  0.00000000000E+00 -0.21932328328E+04  0.21932328328E+04  0.50400001928E-02 0.  1.
    10030    2    1    2    0    0  0.00000000000E+00  0.00000000000E+00 -0.13682381994E+04  0.30182274662E+04  0.26902827486E+04 0.  0.
        1    1    3    3  502    0 -0.55827417987E+03  0.41701133093E+03 -0.19749556856E+04  0.20942823282E+04  0.50400001928E-02 0.  1.
       -1    1    3    3    0  502  0.55827417987E+03 -0.41701133093E+03  0.60671748621E+03  0.92394513805E+03  0.50400001928E-02 0. -1.
</event>
<event>
 5   0  0.1937896E-07  0.2699920E+04  0.7818609E-02  0.8335031E-01
       -1   -1    0    0    0  501  0.00000000000E+00  0.00000000000E+00  0.89494270599E+03  0.89494270600E+03  0.50400001928E-02 0. -1.
        1   -1    0    0  501    0  0.00000000000E+00  0.00000000000E+00 -0.20363232100E+04  0.20363232100E+04  0.50400001928E-02 0.  1.
    10030    2    1    2    0    0  0.00000000000E+00  0.00000000000E+00 -0.11413805040E+04  0.29312659160E+04  0.26999204461E+04 0.  0.
        3    1    3    3  502    0  0.90768787318E+03  0.99023744568E+03 -0.42533347589E+03  0.14090337291E+04  0.10100000352E+00 0. -1.
       -3    1    3    3    0  502 -0.90768787318E+03 -0.99023744568E+03 -0.71604702808E+03  0.15222321868E+04  0.10100000352E+00 0.  1.
</event>
<event>
 5   0  0.1964242E-07  0.2700436E+04  0.7818609E-02  0.8334864E-01
       -1   -1    0    0    0  501  0.00000000000E+00  0.00000000000E+00  0.73174233340E+03  0.73174233342E+03  0.50400001928E-02 0.  1.
        1   -1    0    0  501    0  0.00000000000E+00  0.00000000000E+00 -0.24914346208E+04  0.24914346208E+04  0.50400001928E-02 0. -1.
    10030    2    1    2    0    0  0.00000000000E+00  0.00000000000E+00 -0.17596922874E+04  0.32231769543E+04  0.27004356560E+04 0.  0.
        2    1    3    3  502    0 -0.79957034202E+03  0.12596574235E+03  0.41004971242E+03  0.90737030299E+03  0.25500000920E-02 0.  1.
       -2    1    3    3    0  502  0.79957034202E+03 -0.12596574235E+03 -0.21697419999E+04  0.23158066513E+04  0.25500000920E-02 0. -1.
</event>
<event>
 5   0  0.1937896E-07  0.2699852E+04  0.7818609E-02  0.8335053E-01
       -1   -1    0    0    0  501  0.00000000000E+00  0.00000000000E+00  0.10803428851E+04  0.10803428852E+04  0.50400001928E-02 0.  1.
        1   -1    0    0  501    0  0.00000000000E+00  0.00000000000E+00 -0.16867800097E+04  0.16867800097E+04  0.50400001928E-02 0. -1.
    10030    2    1    2    0    0  0.00000000000E+00  0.00000000000E+00 -0.60643712456E+03  0.27671228949E+04  0.26998524273E+04 0.  0.
        3    1    3    3  502    0 -0.62416215093E+03  0.10771816736E+04 -0.83814441281E+03  0.15007947280E+04  0.10100000352E+00 0. -1.
       -3    1    3    3    0  502  0.62416215093E+03 -0.10771816736E+04  0.23170728825E+03  0.12663281669E+04  0.10100000352E+00 0.  1.
</event>
<event>
 5   0  0.1888149E-07  0.2699148E+04  0.7818609E-02  0.8335282E-01
        1   -1    0    0  501    0  0.00000000000E+00  0.00000000000E+00  0.85489857571E+03  0.85489857573E+03  0.50400001928E-02 0.  1.
       -1   -1    0    0    0  501  0.00000000000E+00  0.00000000000E+00 -0.21304860671E+04  0.21304860671E+04  0.50400001928E-02 0. -1.
    10030    2    1    2    0    0  0.00000000000E+00  0.00000000000E+00 -0.12755874914E+04  0.29853846428E+04  0.26991476465E+04 0.  0.
        1    1    3    3  502    0 -0.11723489955E+04 -0.66748538437E+03 -0.67933459924E+03  0.15104417908E+04  0.50400001928E-02 0.  1.
       -1    1    3    3    0  502  0.11723489955E+04  0.66748538437E+03 -0.59625289216E+03  0.14749428521E+04  0.50400001928E-02 0. -1.
</event>
<event>
 5   0  0.1964242E-07  0.2693518E+04  0.7818609E-02  0.8337111E-01
        1   -1    0    0  501    0  0.00000000000E+00  0.00000000000E+00  0.18531016952E+04  0.18531016952E+04  0.50400001928E-02 0.  1.
       -1   -1    0    0    0  501  0.00000000000E+00  0.00000000000E+00 -0.97876947317E+03  0.97876947318E+03  0.50400001928E-02 0. -1.
    10030    2    1    2    0    0  0.00000000000E+00  0.00000000000E+00  0.87433222205E+03  0.28318711684E+04  0.26935176777E+04 0.  0.
        2    1    3    3  502    0 -0.37858712382E+03 -0.12586391182E+04  0.74595039685E+03  0.15112718600E+04  0.25500000920E-02 0.  1.
       -2    1    3    3    0  502  0.37858712382E+03  0.12586391182E+04  0.12838182520E+03  0.13205993084E+04  0.25500000920E-02 0. -1.
</event>
<event>
 5   0  0.4735120E-07  0.2701907E+04  0.7818609E-02  0.8334387E-01
        2   -1    0    0  501    0  0.00000000000E+00  0.00000000000E+00  0.20102467856E+04  0.20102467856E+04  0.25500000920E-02 0.  1.
       -2   -1    0    0    0  501  0.00000000000E+00  0.00000000000E+00 -0.90788613726E+03  0.90788613727E+03  0.25500000920E-02 0. -1.
    10030    2    1    2    0    0  0.00000000000E+00  0.00000000000E+00  0.11023606484E+04  0.29181329229E+04  0.27019068742E+04 0.  0.
        2    1    3    3  502    0  0.57987853909E+03  0.41277154354E+03 -0.68894099853E+03  0.99059535973E+03  0.25500000920E-02 0. -1.
       -2    1    3    3    0  502 -0.57987853909E+03 -0.41277154354E+03  0.17913016469E+04  0.19275375632E+04  0.25500000920E-02 0.  1.
</event>
<event>
 5   0  0.1964242E-07  0.2698022E+04  0.7818609E-02  0.8335647E-01
       -1   -1    0    0    0  501  0.00000000000E+00  0.00000000000E+00  0.13470154763E+04  0.13470154763E+04  0.50400001928E-02 0. -1.
        1   -1    0    0  501    0  0.00000000000E+00  0.00000000000E+00 -0.13510099328E+04  0.13510099328E+04  0.50400001928E-02 0.  1.
    10030    2    1    2    0    0  0.00000000000E+00  0.00000000000E+00 -0.39944564786E+01  0.26980254091E+04  0.26980224522E+04 0.  0.
        2    1    3    3  502    0  0.56571256051E+03 -0.48485462266E+03 -0.11265946469E+04  0.13506776835E+04  0.25500000920E-02 0.  1.
       -2    1    3    3    0  502 -0.56571256051E+03  0.48485462266E+03  0.11226001904E+04  0.13473477256E+04  0.25500000920E-02 0. -1.
</event>
<event>
 5   0  0.1971600E-07  0.2700151E+04  0.7818609E-02  0.8334956E-01
        1   -1    0    0  501    0  0.00000000000E+00  0.00000000000E+00  0.22219118023E+04  0.22219118023E+04  0.50400001928E-02 0. -1.
       -1   -1    0    0    0  501  0.00000000000E+00  0.00000000000E+00 -0.82033126688E+03  0.82033126690E+03  0.50400001928E-02 0.  1.
    10030    2    1    2    0    0  0.00000000000E+00  0.00000000000E+00  0.14015805354E+04  0.30422430692E+04  0.27001509022E+04 0.  0.
        5    1    3    3  502    0 -0.10789674946E+04 -0.80412420230E+03  0.82367245885E+03  0.15777341337E+04  0.46999998093E+01 0. -1.
       -5    1    3    3    0  502  0.10789674946E+04  0.80412420230E+03  0.57790807654E+03  0.14645089355E+04  0.46999998093E+01 0.  1.
</event>
<event>
 5   0  0.5043890E-07  0.2699557E+04  0.7818609E-02  0.8335149E-01
       -2   -1    0    0    0  501  0.00000000000E+00  0.00000000000E+00  0.10139445990E+04  0.10139445990E+04  0.25500000920E-02 0. -1.
        2   -1    0    0  501    0  0.00000000000E+00  0.00000000000E+00 -0.17968450947E+04  0.17968450947E+04  0.25500000920E-02 0.  1.
    10030    2    1    2    0    0  0.00000000000E+00  0.00000000000E+00 -0.78290049564E+03  0.28107896937E+04  0.26995565406E+04 0.  0.
        3    1    3    3  502    0  0.16880903595E+03  0.69288809422E+03 -0.15846680110E+04  0.17377465629E+04  0.10100000352E+00 0.  1.
       -3    1    3    3    0  502 -0.16880903595E+03 -0.69288809422E+03  0.80176751532E+03  0.10730431308E+04  0.10100000352E+00 0. -1.
</event>
<event>
 5   0  0.5043890E-07  0.2700089E+04  0.7818609E-02  0.8334976E-01
       -2   -1    0    0    0  501  0.00000000000E+00  0.00000000000E+00  0.13967006576E+04  0.13967006576E+04  0.25500000920E-02 0.  1.
        2   -1    0    0  501    0  0.00000000000E+00  0.00000000000E+00 -0.13049466519E+04  0.13049466519E+04  0.25500000920E-02 0. -1.
    10030    2    1    2    0    0  0.00000000000E+00  0.00000000000E+00  0.91754005689E+02  0.27016473095E+04  0.27000887739E+04 0.  0.
        3    1    3    3  502    0 -0.54126744701E+03 -0.28763108543E+03  0.12494502650E+04  0.13916997038E+04  0.10100000352E+00 0.  1.
       -3    1    3    3    0  502  0.54126744701E+03  0.28763108543E+03 -0.11576962594E+04  0.13099476057E+04  0.10100000352E+00 0. -1.
</event>
<event>
 5   0  0.4983208E-07  0.2700408E+04  0.7818609E-02  0.8334873E-01
       -2   -1    0    0    0  501  0.00000000000E+00  0.00000000000E+00  0.12656611988E+04  0.12656611988E+04  0.25500000920E-02 0.  1.
        2   -1    0    0  501    0  0.00000000000E+00  0.00000000000E+00 -0.14403939002E+04  0.14403939002E+04  0.25500000920E-02 0. -1.
    10030    2    1    2    0    0  0.00000000000E+00  0.00000000000E+00 -0.17473270144E+03  0.27060550991E+04  0.27004078733E+04 0.  0.
        4    1    3    3  502    0  0.46510353082E+02  0.43863865490E+03  0.11914222245E+04  0.12704548841E+04  0.12699999809E+01 0.  1.
       -4    1    3    3    0  502 -0.46510353082E+02 -0.43863865490E+03 -0.13661549260E+04  0.14356002150E+04  0.12699999809E+01 0. -1.
</event>
<event>
 5   0  0.5043890E-07  0.2699141E+04  0.7818609E-02  0.8335284E-01
       -2   -1    0    0    0  501  0.00000000000E+00  0.00000000000E+00  0.84612386776E+03  0.84612386776E+03  0.25500000920E-02 0. -1.
        2   -1    0    0  501    0  0.00000000000E+00  0.00000000000E+00 -0.21525692554E+04  0.21525692554E+04  0.25500000920E-02 0.  1.
    10030    2    1    2    0    0  0.00000000000E+00  0.00000000000E+00 -0.13064453876E+04  0.29986931231E+04  0.26991407699E+04 0.  0.
        3    1    3    3  502    0  0.40135459394E+03 -0.70913304275E+03  0.54199061157E+03  0.97862608571E+03  0.10100000352E+00 0. -1.
       -3    1    3    3    0  502 -0.40135459394E+03  0.70913304275E+03 -0.18484359992E+04  0.20200670374E+04  0.10100000352E+00 0.  1.
</event>
<event>
 5   0  0.4992668E-07  0.2699448E+04  0.7818609E-02  0.8335184E-01
        2   -1    0    0  501    0  0.00000000000E+00  0.00000000000E+00  0.23450996234E+04  0.23450996234E+04  0.25500000920E-02 0. -1.
       -2   -1    0    0    0  501  0.00000000000E+00  0.00000000000E+00 -0.77683484563E+03  0.77683484564E+03  0.25500000920E-02 0.  1.
    10030    2    1    2    0    0  0.00000000000E+00  0.00000000000E+00  0.15682647778E+04  0.31219344690E+04  0.26994481687E+04 0.  0.
        1    1    3    3  502    0  0.70932344932E+03  0.11070911494E+04  0.11367527943E+04  0.17381016898E+04  0.50400001928E-02 0. -1.
       -1    1    3    3    0  502 -0.70932344932E+03 -0.11070911494E+04  0.43151198350E+03  0.13838327792E+04  0.50400001928E-02 0.  1.
</event>
<event>
 5   0  0.4843887E-07  0.2699887E+04  0.7818609E-02  0.8335042E-01
        2   -1    0    0  501    0  0.00000000000E+00  0.00000000000E+00  0.11673114186E+04  0.11673114186E+04  0.25500000920E-02 0.  1.
       -2   -1    0    0    0  501  0.00000000000E+00  0.00000000000E+00 -0.15611493299E+04  0.15611493299E+04  0.25500000920E-02 0. -1.
    10030    2    1    2    0    0  0.00000000000E+00  0.00000000000E+00 -0.39383791128E+03  0.27284607484E+04  0.26998869894E+04 0.  0.
        5    1    3    3  502    0  0.13402323127E+04 -0.12673663562E+03 -0.29818183407E+03  0.13788470993E+04  0.46999998093E+01 0.  1.
       -5    1    3    3    0  502 -0.13402323127E+04  0.12673663562E+03 -0.95656077206E+02  0.13496136492E+04  0.46999998093E+01 0. -1.
</event>
<event>
 5   0  0.4843887E-07  0.2701104E+04  0.7818609E-02  0.8334647E-01
        2   -1    0    0  501    0  0.00000000000E+00  0.00000000000E+00  0.11992505733E+04  0.11992505733E+04  0.25500000920E-02 0.  1.
       -2   -1    0    0    0  501  0.00000000000E+00  0.00000000000E+00 -0.15209419624E+04  0.15209419624E+04  0.25500000920E-02 0. -1.
    10030    2    1    2    0    0  0.00000000000E+00  0.00000000000E+00 -0.32169138904E+03  0.27201925357E+04  0.27011038635E+04 0.  0.
        5    1    3    3  502    0  0.24531654127E+03 -0.13202475459E+04 -0.30585859388E+03  0.13772455690E+04  0.46999998093E+01 0. -1.
       -5    1    3    3    0  502 -0.24531654127E+03  0.13202475459E+04 -0.15832795159E+02  0.13429469667E+04  0.46999998093E+01 0.  1.
</event>
<event>
 5   0  0.1937896E-07  0.2700113E+04  0.7818609E-02  0.8334968E-01
        1   -1    0    0  501    0  0.00000000000E+00  0.00000000000E+00  0.18645403116E+04  0.18645403116E+04  0.50400001928E-02 0.  1.
       -1   -1    0    0    0  501  0.00000000000E+00  0.00000000000E+00 -0.97753484487E+03  0.97753484488E+03  0.50400001928E-02 0. -1.
    10030    2    1    2    0    0  0.00000000000E+00  0.00000000000E+00  0.88700546669E+03  0.28420751565E+04  0.27001134230E+04 0.  0.
        3    1    3    3  502    0 -0.52164243858E+03 -0.10453858111E+04  0.11556160774E+04  0.16432866020E+04  0.10100000352E+00 0.  1.
       -3    1    3    3    0  502  0.52164243858E+03  0.10453858111E+04 -0.26861061071E+03  0.11987885544E+04  0.10100000352E+00 0. -1.
</event>
<event>
 5   0  0.1888149E-07  0.2700102E+04  0.7818609E-02  0.8334972E-01
       -1   -1    0    0    0  501  0.00000000000E+00  0.00000000000E+00  0.94456086311E+03  0.94456086312E+03  0.50400001928E-02 0.  1.
        1   -1    0    0  501    0  0.00000000000E+00  0.00000000000E+00 -0.19296141895E+04  0.19296141895E+04  0.50400001928E-02 0. -1.
    10030    2    1    2    0    0  0.00000000000E+00  0.00000000000E+00 -0.98505332638E+03  0.28741750526E+04  0.27001022531E+04 0.  0.
        1    1    3    3  502    0 -0.25523743648E+03  0.26064877575E+03 -0.18761537546E+04  0.19112919307E+04  0.50400001928E-02 0. -1.
       -1    1    3    3    0  502  0.25523743648E+03 -0.26064877575E+03  0.89110042824E+03  0.96288312194E+03  0.50400001928E-02 0.  1.
</event>
<event>
 5   0  0.1937896E-07  0.2697448E+04  0.7818609E-02  0.8335833E-01
       -1   -1    0    0    0  501  0.00000000000E+00  0.00000000000E+00  0.12362589941E+04  0.12362589941E+04  0.50400001928E-02 0. -1.
        1   -1    0    0  501    0  0.00000000000E+00  0.00000000000E+00 -0.14714203794E+04  0.14714203794E+04  0.50400001928E-02 0.  1.
    10030    2    1    2    0    0  0.00000000000E+00  0.00000000000E+00 -0.23516138534E+03  0.27076793735E+04  0.26974481853E+04 0.  0.
        3    1    3    3  502    0 -0.37685811547E+02  0.21626257133E+03 -0.14533673204E+04  0.14698524750E+04  0.10100000352E+00 0.  1.
       -3    1    3    3    0  502  0.37685811547E+02 -0.21626257133E+03  0.12182059351E+04  0.12378268985E+04  0.10100000352E+00 0. -1.
</event>
<event>
 5   0  0.1888149E-07  0.2699294E+04  0.7818609E-02  0.8335234E-01
        1   -1    0    0  501    0  0.00000000000E+00  0.00000000000E+00  0.14046338565E+04  0.14046338565E+04  0.50400001928E-02 0. -1.
       -1   -1    0    0    0  501  0.00000000000E+00  0.00000000000E+00 -0.12968128100E+04  0.12968128100E+04  0.50400001928E-02 0.  1.
    10030    2    1    2    0    0  0.00000000000E+00  0.00000000000E+00  0.10782104646E+03  0.27014466665E+04  0.26992941140E+04 0.  0.
        1    1    3    3  502    0 -0.52750969735E+03 -0.10738100189E+04 -0.57125772574E+03  0.13257714082E+04  0.50400001928E-02 0.  1.
       -1    1    3    3    0  502  0.52750969735E+03  0.10738100189E+04  0.67907877220E+03  0.13756752583E+04  0.50400001928E-02 0. -1.
</event>
<event>
 5   0  0.1965415E-07  0.2699292E+04  0.7818609E-02  0.8335235E-01
       -1   -1    0    0    0  501  0.00000000000E+00  0.00000000000E+00  0.94741201802E+03  0.94741201804E+03  0.50400001928E-02 0.  1.
        1   -1    0    0  501    0  0.00000000000E+00  0.00000000000E+00 -0.19226533315E+04  0.19226533315E+04  0.50400001928E-02 0. -1.
    10030    2    1    2    0    0  0.00000000000E+00  0.00000000000E+00 -0.97524131345E+03  0.28700653495E+04  0.26992924056E+04 0.  0.
        4    1    3    3  502    0 -0.70962186693E+02  0.12912757610E+04 -0.77036823713E+02  0.12955172743E+04  0.12699999809E+01 0. -1.
       -4    1    3    3    0  502  0.70962186693E+02 -0.12912757610E+04 -0.89820448973E+03  0.15745480752E+04  0.12699999809E+01 0.  1.
</event>
<event>
 5   0  0.4983208E-07  0.2702788E+04  0.7818609E-02  0.8334101E-01
       -2   -1    0    0    0  501  0.00000000000E+00  0.00000000000E+00  0.17800476541E+04  0.17800476541E+04  0.25500000920E-02 0.  1.
        2   -1    0    0  501    0  0.00000000000E+00  0.00000000000E+00 -0.10259641472E+04  0.10259641472E+04  0.25500000920E-02 0. -1.
    10030    2    1    2    0    0  0.00000000000E+00  0.00000000000E+00  0.75408350689E+03  0.28060118013E+04  0.27027875043E+04 0.  0.
        4    1    3    3  502    0 -0.81888038080E+03  0.50804403964E+03  0.13606371909E+04  0.16673358997E+04  0.12699999809E+01 0.  1.
       -4    1    3    3    0  502  0.81888038080E+03 -0.50804403964E+03 -0.60655368402E+03  0.11386759016E+04  0.12699999809E+01 0. -1.
</event>
<event>
 5   0  0.4843887E-07  0.2701705E+04  0.7818609E-02  0.8334452E-01
        2   -1    0    0  501    0  0.00000000000E+00  0.00000000000E+00  0.14122529440E+04  0.14122529440E+04  0.25500000920E-02 0. -1.
       -2   -1    0    0    0  501  0.00000000000E+00  0.00000000000E+00 -0.12921216654E+04  0.12921216654E+04  0.25500000920E-02 0.  1.
    10030    2    1    2    0    0  0.00000000000E+00  0.00000000000E+00  0.12013127867E+03  0.27043746094E+04  0.27017051105E+04 0.  0.
        5    1    3    3  502    0  0.70116739135E+03 -0.11013819867E+04  0.40696620670E+03  0.13675970074E+04  0.46999998093E+01 0. -1.
       -5    1    3    3    0  502 -0.70116739135E+03  0.11013819867E+04 -0.28683492803E+03  0.13367776020E+04  0.46999998093E+01 0.  1.
</event>
<event>
 5   0  0.1888149E-07  0.2700567E+04  0.7818609E-02  0.8334821E-01
       -1   -1    0    0    0  501  0.00000000000E+00  0.00000000000E+00  0.70066922372E+03  0.70066922374E+03  0.50400001928E-02 0.  1.
        1   -1    0    0  501    0  0.00000000000E+00  0.00000000000E+00 -0.26021771482E+04  0.26021771482E+04  0.50400001928E-02 0. -1.
    10030    2    1    2    0    0  0.00000000000E+00  0.00000000000E+00 -0.19015079244E+04  0.33028463719E+04  0.27005669349E+04 0.  0.
        1    1    3    3  502    0  0.68066971299E+03  0.42459634918E+02  0.47455007243E+03  0.83085007675E+03  0.50400001928E-02 0.  1.
       -1    1    3    3    0  502 -0.68066971299E+03 -0.42459634918E+02 -0.23760579969E+04  0.24719962952E+04  0.50400001928E-02 0. -1.
</event>
<event>
 5   0  0.5043890E-07  0.2700987E+04  0.7818609E-02  0.8334685E-01
        2   -1    0    0  501    0  0.00000000000E+00  0.00000000000E+00  0.20819066305E+04  0.20819066305E+04  0.25500000920E-02 0.  1.
       -2   -1    0    0    0  501  0.00000000000E+00  0.00000000000E+00 -0.87603972188E+03  0.87603972189E+03  0.25500000920E-02 0. -1.
    10030    2    1    2    0    0  0.00000000000E+00  0.00000000000E+00  0.12058669086E+04  0.29579463524E+04  0.27009871570E+04 0.  0.
        3    1    3    3  502    0  0.15479690034E+03  0.13410788042E+04  0.56227374880E+03  0.14623974214E+04  0.10100000352E+00 0.  1.
       -3    1    3    3    0  502 -0.15479690034E+03 -0.13410788042E+04  0.64359315981E+03  0.14955489310E+04  0.10100000352E+00 0. -1.
</event>
<event>
 5   0  0.4992668E-07  0.2701262E+04  0.7818609E-02  0.8334596E-01
        2   -1    0    0  501    0  0.00000000000E+00  0.00000000000E+00  0.60595025316E+03  0.60595025317E+03  0.25500000920E-02 0. -1.
       -2   -1    0    0    0  501  0.00000000000E+00  0.00000000000E+00 -0.30104851731E+04  0.30104851731E+04  0.25500000920E-02 0.  1.
    10030    2    1    2    0    0  0.00000000000E+00  0.00000000000E+00 -0.24045349199E+04  0.36164354262E+04  0.27012621145E+04 0.  0.
        1    1    3    3  502    0 -0.92119830728E+03  0.98708864764E+03 -0.11548595103E+04  0.17766966000E+04  0.50400001928E-02 0. -1.
       -1    1    3    3    0  502  0.92119830728E+03 -0.98708864764E+03 -0.12496754095E+04  0.18397388263E+04  0.50400001928E-02 0.  1.
</event>
<event>
 5   0  0.4735120E-07  0.2700599E+04  0.7818609E-02  0.8334811E-01
        2   -1    0    0  501    0  0.00000000000E+00  0.00000000000E+00  0.19669531196E+04  0.19669531196E+04  0.25500000920E-02 0.  1.
       -2   -1    0    0    0  501  0.00000000000E+00  0.00000000000E+00 -0.92697120601E+03  0.92697120601E+03  0.25500000920E-02 0. -1.
    10030    2    1    2    0    0  0.00000000000E+00  0.00000000000E+00  0.10399819136E+04  0.28939243256E+04  0.27005991228E+04 0.  0.
        2    1    3    3  502    0 -0.11453240107E+03 -0.13233052629E+04  0.25958360768E+03  0.13533802641E+04  0.25500000920E-02 0.  1.
       -2    1    3    3    0  502  0.11453240107E+03  0.13233052629E+04  0.78039830595E+03  0.15405440616E+04  0.25500000920E-02 0. -1.
</event>
<event>
 5   0  0.1964242E-07  0.2698711E+04  0.7818609E-02  0.8335423E-01
       -1   -1    0    0    0  501  0.00000000000E+00  0.00000000000E+00  0.12396765857E+04  0.12396765857E+04  0.50400001928E-02 0. -1.
        1   -1    0    0  501    0  0.00000000000E+00  0.00000000000E+00 -0.14687385641E+04  0.14687385641E+04  0.50400001928E-02 0.  1.
    10030    2    1    2    0    0  0.00000000000E+00  0.00000000000E+00 -0.22906197838E+03  0.27084151498E+04  0.26987114025E+04 0.  0.
        2    1    3    3  502    0 -0.54893754418E+03  0.12194101672E+04 -0.29536552581E+03  0.13695015068E+04  0.25500000920E-02 0.  1.
       -2    1    3    3    0  502  0.54893754418E+03 -0.12194101672E+04  0.66303547435E+02  0.13389136431E+04  0.25500000920E-02 0. -1.
</event>
<event>
 5   0  0.1965415E-07  0.2702262E+04  0.7818609E-02  0.8334271E-01
       -1   -1    0    0    0  501  0.00000000000E+00  0.00000000000E+00  0.87682157538E+03  0.87682157539E+03  0.50400001928E-02 0. -1.
        1   -1    0    0  501    0  0.00000000000E+00  0.00000000000E+00 -0.20820139230E+04  0.20820139230E+04  0.50400001928E-02 0.  1.
    10030    2    1    2    0    0  0.00000000000E+00  0.00000000000E+00 -0.12051923476E+04  0.29588354984E+04  0.27022618141E+04 0.  0.
        4    1    3    3  502    0 -0.27891892066E+03 -0.73708738749E+03 -0.18042780276E+04  0.19688865876E+04  0.12699999809E+01 0.  1.
       -4    1    3    3    0  502  0.27891892066E+03  0.73708738749E+03  0.59908567998E+03  0.98994891078E+03  0.12699999809E+01 0. -1.
</event>
<event>
 5   0  0.4843887E-07  0.2695830E+04  0.7818609E-02  0.8336359E-01
        2   -1    0    0  501    0  0.00000000000E+00  0.00000000000E+00  0.79116098805E+03  0.79116098805E+03  0.25500000920E-02 0. -1.
       -2   -1    0    0    0  501  0.00000000000E+00  0.00000000000E+00 -0.22964659941E+04  0.22964659941E+04  0.25500000920E-02 0.  1.
    10030    2    1    2    0    0  0.00000000000E+00  0.00000000000E+00 -0.15053050061E+04  0.30876269822E+04  0.26958295977E+04 0.  0.
        5    1    3    3  502    0 -0.90867763886E+03 -0.95323577154E+03 -0.42368271495E+03  0.13834314658E+04  0.46999998093E+01 0. -1.
       -5    1    3    3    0  502  0.90867763886E+03  0.95323577154E+03 -0.10816222911E+04  0.17041955164E+04  0.46999998093E+01 0.  1.
</event>
<event>
 5   0  0.1964242E-07  0.2704091E+04  0.7818609E-02  0.8333679E-01
        1   -1    0    0  501    0  0.00000000000E+00  0.00000000000E+00  0.23294422421E+04  0.23294422421E+04  0.50400001928E-02 0. -1.
       -1   -1    0    0    0  501  0.00000000000E+00  0.00000000000E+00 -0.78474873374E+03  0.78474873375E+03  0.50400001928E-02 0.  1.
    10030    2    1    2    0    0  0.00000000000E+00  0.00000000000E+00  0.15446935084E+04  0.31141909759E+04  0.27040908638E+04 0.  0.
        2    1    3    3  502    0 -0.65097745564E+03  0.11816976950E+04  0.87435645224E+03  0.16076940927E+04  0.25500000920E-02 0. -1.
       -2    1    3    3    0  502  0.65097745564E+03 -0.11816976950E+04  0.67033705615E+03  0.15064968832E+04  0.25500000920E-02 0.  1.
</event>
<event>
 5   0  0.1971600E-07  0.2699030E+04  0.7818609E-02  0.8335320E-01
       -1   -1    0    0    0  501  0.00000000000E+00  0.00000000000E+00  0.14959099197E+04  0.14959099197E+04  0.50400001928E-02 0. -1.
        1   -1    0    0  501    0  0.00000000000E+00  0.00000000000E+00 -0.12174467722E+04  0.12174467722E+04  0.50400001928E-02 0.  1.
    10030    2    1    2    0    0  0.00000000000E+00  0.00000000000E+00  0.27846314751E+03  0.27133566919E+04  0.26990299763E+04 0.  0.
        5    1    3    3  502    0  0.50218637825E+03 -0.10163712403E+04 -0.59675211371E+03  0.12811466863E+04  0.46999998093E+01 0.  1.
       -5    1    3    3    0  502 -0.50218637825E+03  0.10163712403E+04  0.87521526122E+03  0.14322100056E+04  0.46999998093E+01 0. -1.
</event>
<event>
 5   0  0.1965415E-07  0.2700951E+04  0.7818609E-02  0.8334697E-01
       -1   -1    0    0    0  501  0.00000000000E+00  0.00000000000E+00  0.79824489888E+03  0.79824489889E+03  0.50400001928E-02 0.  1.
        1   -1    0    0  501    0  0.00000000000E+00  0.00000000000E+00 -0.22847421979E+04  0.22847421979E+04  0.50400001928E-02 0. -1.
    10030    2    1    2    0    0  0.00000000000E+00  0.00000000000E+00 -0.14864972990E+04  0.30829870968E+04  0.27009507991E+04 0.  0.
        4    1    3    3  502    0 -0.50889804697E+03 -0.12507097021E+04 -0.76953191530E+03  0.15541663240E+04  0.12699999809E+01 0. -1.
       -4    1    3    3    0  502  0.50889804697E+03  0.12507097021E+04 -0.71696538373E+03  0.15288207728E+04  0.12699999809E+01 0.  1.
</event>
<event>
 5   0  0.1937896E-07  0.2696774E+04  0.7818609E-02  0.8336053E-01
       -1   -1    0    0    0  501  0.00000000000E+00  0.00000000000E+00  0.15781432368E+04  0.15781432368E+04  0.50400001928E-02 0.  1.
        1   -1    0    0  501    0  0.00000000000E+00  0.00000000000E+00 -0.11520798298E+04  0.11520798298E+04  0.50400001928E-02 0. -1.
    10030    2    1    2    0    0  0.00000000000E+00  0.00000000000E+00  0.42606340701E+03  0.27302230665E+04  0.26967736216E+04 0.  0.
        3    1    3    3  502    0 -0.12408045640E+04 -0.41620334321E+03  0.54159648305E+03  0.14163855230E+04  0.10100000352E+00 0.  1.
       -3    1    3    3    0  502  0.12408045640E+04  0.41620334321E+03 -0.11553307604E+03  0.13138375436E+04  0.10100000352E+00 0. -1.
</event>
<event>
 5   0  0.1971600E-07  0.2699635E+04  0.7818609E-02  0.8335123E-01
       -1   -1    0    0    0  501  0.00000000000E+00  0.00000000000E+00  0.14276415512E+04  0.14276415512E+04  0.50400001928E-02 0.  1.
        1   -1    0    0  501    0  0.00000000000E+00  0.00000000000E+00 -0.12762356505E+04  0.12762356505E+04  0.50400001928E-02 0. -1.
    10030    2    1    2    0    0  0.00000000000E+00  0.00000000000E+00  0.15140590075E+03  0.27038772017E+04  0.26996348226E+04 0.  0.
        5    1    3    3  502    0 -0.16809841367E+03 -0.89898977568E+03  0.10700093378E+04  0.14076156317E+04  0.46999998093E+01 0.  1.
       -5    1    3    3    0  502  0.16809841367E+03  0.89898977568E+03 -0.91860343708E+03  0.12962615701E+04  0.46999998093E+01 0. -1.
</event>
<event>
 5   0  0.1888149E-07  0.2699231E+04  0.7818609E-02  0.8335255E-01
       -1   -1    0    0    0  501  0.00000000000E+00  0.00000000000E+00  0.77549054428E+03  0.77549054430E+03  0.50400001928E-02 0. -1.
        1   -1    0    0  501    0  0.00000000000E+00  0.00000000000E+00 -0.23487868748E+04  0.23487868748E+04  0.50400001928E-02 0.  1.
    10030    2    1    2    0    0  0.00000000000E+00  0.00000000000E+00 -0.15732963305E+04  0.31242774191E+04  0.26992310105E+04 0.  0.
        1    1    3    3  502    0 -0.56689251517E+03  0.11756514534E+04 -0.38914789871E+03  0.13619689977E+04  0.50400001928E-02 0. -1.
       -1    1    3    3    0  502  0.56689251517E+03 -0.11756514534E+04 -0.11841484318E+04  0.17623084214E+04  0.50400001928E-02 0.  1.
</event>
<event>
 5   0  0.4992668E-07  0.2699084E+04  0.7818609E-02  0.8335302E-01
       -2   -1    0    0    0  501  0.00000000000E+00  0.00000000000E+00  0.92929486938E+03  0.92929486939E+03  0.25500000920E-02 0. -1.
        2   -1    0    0  501    0  0.00000000000E+00  0.00000000000E+00 -0.19598340154E+04  0.19598340154E+04  0.25500000920E-02 0.  1.
    10030    2    1    2    0    0  0.00000000000E+00  0.00000000000E+00 -0.10305391461E+04  0.28891288848E+04  0.26990840635E+04 0.  0.
        1    1    3    3  502    0 -0.72738561827E+03 -0.58110461177E+03 -0.15610403210E+04  0.18175861166E+04  0.50400001928E-02 0.  1.
       -1    1    3    3    0  502  0.72738561827E+03  0.58110461177E+03  0.53050117494E+03  0.10715427682E+04  0.50400001928E-02 0. -1.
</event>
<event>
 5   0  0.1888149E-07  0.2711661E+04  0.7818609E-02  0.8331231E-01
        1   -1    0    0  501    0  0.00000000000E+00  0.00000000000E+00  0.22544791227E+04  0.22544791227E+04  0.50400001928E-02 0.  1.
       -1   -1    0    0    0  501  0.00000000000E+00  0.00000000000E+00 -0.81538875122E+03  0.81538875124E+03  0.50400001928E-02 0. -1.
    10030    2    1    2    0    0  0.00000000000E+00  0.00000000000E+00  0.14390903715E+04  0.30698678740E+04  0.27116614218E+04 0.  0.
        1    1    3    3  502    0  0.10724216032E+04  0.66664670747E+01 -0.21958111867E+03  0.10946910087E+04  0.50400001928E-02 0. -1.
       -1    1    3    3    0  502 -0.10724216032E+04 -0.66664670747E+01  0.16586714902E+04  0.19751768653E+04  0.50400001928E-02 0.  1.
</event>
<event>
 5   0  0.4983208E-07  0.2700640E+04  0.7818609E-02  0.8334797E-01
       -2   -1    0    0    0  501  0.00000000000E+00  0.00000000000E+00  0.14507030957E+04  0.14507030957E+04  0.25500000920E-02 0. -1.
        2   -1    0    0  501    0  0.00000000000E+00  0.00000000000E+00 -0.12568834937E+04  0.12568834937E+04  0.25500000920E-02 0.  1.
    10030    2    1    2    0    0  0.00000000000E+00  0.00000000000E+00  0.19381960208E+03  0.27075865894E+04  0.27006404983E+04 0.  0.
        4    1    3    3  502    0 -0.11308873664E+04 -0.24886586171E+03 -0.59951536663E+03  0.13039404666E+04  0.12699999809E+01 0.  1.
       -4    1    3    3    0  502  0.11308873664E+04  0.24886586171E+03  0.79333496870E+03  0.14036461228E+04  0.12699999809E+01 0. -1.
</event>
<event>
 5   0  0.4843887E-07  0.2699053E+04  0.7818609E-02  0.8335312E-01
        2   -1    0    0  501    0  0.00000000000E+00  0.00000000000E+00  0.17170264908E+04  0.17170264908E+04  0.25500000920E-02 0. -1.
       -2   -1    0    0    0  501  0.00000000000E+00  0.00000000000E+00 -0.10606835569E+04  0.10606835569E+04  0.25500000920E-02 0.  1.
    10030    2    1    2    0    0  0.00000000000E+00  0.00000000000E+00  0.65634293389E+03  0.27777100476E+04  0.26990529935E+04 0.  0.
        5    1    3    3  502    0 -0.59865562806E+03  0.10211852984E+03 -0.91209803523E+03  0.10957927135E+04  0.46999998093E+01 0.  1.
       -5    1    3    3    0  502  0.59865562806E+03 -0.10211852984E+03  0.15684409691E+04  0.16819173341E+04  0.46999998093E+01 0. -1.
</event>
<event>
 5   0  0.1964242E-07  0.2699549E+04  0.7818609E-02  0.8335151E-01
        1   -1    0    0  501    0  0.00000000000E+00  0.00000000000E+00  0.18814541176E+04  0.18814541176E+04  0.50400001928E-02 0. -1.
       -1   -1    0    0    0  501  0.00000000000E+00  0.00000000000E+00 -0.96834183402E+03  0.96834183403E+03  0.50400001928E-02 0.  1.
    10030    2    1    2    0    0  0.00000000000E+00  0.00000000000E+00  0.91311228355E+03  0.28497959516E+04  0.26995486518E+04 0.  0.
        2    1    3    3  502    0 -0.74789015381E+03  0.32888892144E+03 -0.67766461632E+03  0.10614786559E+04  0.25500000920E-02 0.  1.
       -2    1    3    3    0  502  0.74789015381E+03 -0.32888892144E+03  0.15907768999E+04  0.17883172957E+04  0.25500000920E-02 0. -1.
</event>
<event>
 5   0  0.1888149E-07  0.2704022E+04  0.7818609E-02  0.8333701E-01
       -1   -1    0    0    0  501  0.00000000000E+00  0.00000000000E+00  0.12003286596E+04  0.12003286596E+04  0.50400001928E-02 0. -1.
        1   -1    0    0  501    0  0.00000000000E+00  0.00000000000E+00 -0.15228606940E+04  0.15228606940E+04  0.50400001928E-02 0.  1.
    10030    2    1    2    0    0  0.00000000000E+00  0.00000000000E+00 -0.32253203440E+03  0.27231893537E+04  0.27040216979E+04 0.  0.
        1    1    3    3  502    0  0.76622105596E+03 -0.83201383073E+03 -0.90718601542E+03  0.14499407532E+04  0.50400001928E-02 0.  1.
       -1    1    3    3    0  502 -0.76622105596E+03  0.83201383073E+03  0.58465398103E+03  0.12732486005E+04  0.50400001928E-02 0. -1.
</event>
<event>
 5   0  0.4735120E-07  0.2710068E+04  0.7818609E-02  0.8331746E-01
        2   -1    0    0  501    0  0.00000000000E+00  0.00000000000E+00  0.15148605525E+04  0.15148605525E+04  0.25500000920E-02 0.  1.
       -2   -1    0    0    0  501  0.00000000000E+00  0.00000000000E+00 -0.12120703899E+04  0.12120703899E+04  0.25500000920E-02 0. -1.
    10030    2    1    2    0    0  0.00000000000E+00  0.00000000000E+00  0.30279016265E+03  0.27269309424E+04  0.27100683538E+04 0.  0.
        2    1    3    3  502    0 -0.11882667877E+04 -0.38389772577E+03  0.68075039931E+03  0.14222434844E+04  0.25500000920E-02 0. -1.
       -2    1    3    3    0  502  0.11882667877E+04  0.38389772577E+03 -0.37796023666E+03  0.13046874580E+04  0.25500000920E-02 0.  1.
</event>
<event>
 5   0  0.1937896E-07  0.2700007E+04  0.7818609E-02  0.8335003E-01
       -1   -1    0    0    0  501  0.00000000000E+00  0.00000000000E+00  0.90519082330E+03  0.90519082332E+03  0.50400001928E-02 0.  1.
        1   -1    0    0  501    0  0.00000000000E+00  0.00000000000E+00 -0.20133975134E+04  0.20133975134E+04  0.50400001928E-02 0. -1.
    10030    2    1    2    0    0  0.00000000000E+00  0.00000000000E+00 -0.11082066901E+04  0.29185883367E+04  0.27000066317E+04 0.  0.
        3    1    3    3  502    0  0.19145723183E+03 -0.84395137174E+03  0.56592520161E+03  0.10340121535E+04  0.10100000352E+00 0.  1.
       -3    1    3    3    0  502 -0.19145723183E+03  0.84395137174E+03 -0.16741318917E+04  0.18845761832E+04  0.10100000352E+00 0. -1.
</event>
<event>
 5   0  0.1937896E-07  0.2698149E+04  0.7818609E-02  0.8335606E-01
        1   -1    0    0  501    0  0.00000000000E+00  0.00000000000E+00  0.13067953866E+04  0.13067953866E+04  0.50400001928E-02 0. -1.
       -1   -1    0    0    0  501  0.00000000000E+00  0.00000000000E+00 -0.13927218644E+04  0.13927218644E+04  0.50400001928E-02 0.  1.
    10030    2    1    2    0    0  0.00000000000E+00  0.00000000000E+00 -0.85926477813E+02  0.26995172509E+04  0.26981493711E+04 0.  0.
        3    1    3    3  502    0  0.21171916289E+03  0.12833200572E+04  0.31536232809E+03  0.13383530107E+04  0.10100000352E+00 0. -1.
       -3    1    3    3    0  502 -0.21171916289E+03 -0.12833200572E+04 -0.40128880590E+03  0.13611642403E+04  0.10100000352E+00 0.  1.
</event>
<event>
 5   0  0.4735120E-07  0.2700382E+04  0.7818609E-02  0.8334881E-01
       -2   -1    0    0    0  501  0.00000000000E+00  0.00000000000E+00  0.82416951943E+03  0.82416951944E+03  0.25500000920E-02 0.  1.
        2   -1    0    0  501    0  0.00000000000E+00  0.00000000000E+00 -0.22119419317E+04  0.22119419317E+04  0.25500000920E-02 0. -1.
    10030    2    1    2    0    0  0.00000000000E+00  0.00000000000E+00 -0.13877724123E+04  0.30361114512E+04  0.27003815426E+04 0.  0.
        2    1    3    3  502    0 -0.13204304012E+04  0.72019796356E+02 -0.10003386492E+04  0.16581316922E+04  0.25500000920E-02 0. -1.
       -2    1    3    3    0  502  0.13204304012E+04 -0.72019796356E+02 -0.38743376308E+03  0.13779797590E+04  0.25500000920E-02 0.  1.
</event>
<event>
 5   0  0.1971600E-07  0.2700649E+04  0.7818609E-02  0.8334794E-01
       -1   -1    0    0    0  501  0.00000000000E+00  0.00000000000E+00  0.17206272019E+04  0.17206272019E+04  0.50400001928E-02 0.  1.
        1   -1    0    0  501    0  0.00000000000E+00  0.00000000000E+00 -0.10597163478E+04  0.10597163478E+04  0.50400001928E-02 0. -1.
    10030    2    1    2    0    0  0.00000000000E+00  0.00000000000E+00  0.66091085408E+03  0.27803435497E+04  0.27006493844E+04 0.  0.
        5    1    3    3  502    0  0.46920830454E+03 -0.24181415475E+03  0.16100009091E+04  0.16943304093E+04  0.46999998093E+01 0.  1.
       -5    1    3    3    0  502 -0.46920830454E+03  0.24181415475E+03 -0.94909005505E+03  0.10860131404E+04  0.46999998093E+01 0. -1.
</event>
<event>
 5   0  0.5043890E-07  0.2699988E+04  0.7818609E-02  0.8335009E-01
        2   -1    0    0  501    0  0.00000000000E+00  0.00000000000E+00  0.16349245675E+04  0.16349245675E+04  0.25500000920E-02 0.  1.
       -2   -1    0    0    0  501  0.00000000000E+00  0.00000000000E+00 -0.11147205746E+04  0.11147205746E+04  0.25500000920E-02 0. -1.
    10030    2    1    2    0    0  0.00000000000E+00  0.00000000000E+00  0.52020399292E+03  0.27496451420E+04  0.26999881875E+04 0.  0.
        3    1    3    3  502    0  0.11145472145E+04 -0.41874093203E+03  0.90814206014E+03  0.14974249474E+04  0.10100000352E+00 0.  1.
       -3    1    3    3    0  502 -0.11145472145E+04  0.41874093203E+03 -0.38793806722E+03  0.12522201946E+04  0.10100000352E+00 0. -1.
</event>
<event>
 5   0  0.5043890E-07  0.2693655E+04  0.7818609E-02  0.8337067E-01
        2   -1    0    0  501    0  0.00000000000E+00  0.00000000000E+00  0.20230305488E+04  0.20230305488E+04  0.25500000920E-02 0. -1.
       -2   -1    0    0    0  501  0.00000000000E+00  0.00000000000E+00 -0.89664714645E+03  0.89664714645E+03  0.25500000920E-02 0.  1.
    10030    2    1    2    0    0  0.00000000000E+00  0.00000000000E+00  0.11263834023E+04  0.29196776952E+04  0.26936551886E+04 0.  0.
        3    1    3    3  502    0 -0.79222078705E+03 -0.92246200878E+03  0.11909189195E+04  0.17020099342E+04  0.10100000352E+00 0. -1.
       -3    1    3    3    0  502  0.79222078705E+03  0.92246200878E+03 -0.64535517181E+02  0.12176677610E+04  0.10100000352E+00 0.  1.
</event>
<event>
 5   0  0.4735120E-07  0.2700796E+04  0.7818609E-02  0.8334747E-01
        2   -1    0    0  501    0  0.00000000000E+00  0.00000000000E+00  0.14776864164E+04  0.14776864164E+04  0.25500000920E-02 0.  1.
       -2   -1    0    0    0  501  0.00000000000E+00  0.00000000000E+00 -0.12340742926E+04  0.12340742926E+04  0.25500000920E-02 0. -1.
    10030    2    1    2    0    0  0.00000000000E+00  0.00000000000E+00  0.24361212382E+03  0.27117607090E+04  0.27007960449E+04 0.  0.
        2    1    3    3  502    0  0.11041368007E+04  0.41800480098E+02 -0.65768938096E+03  0.12858540650E+04  0.25500000920E-02 0. -1.
       -2    1    3    3    0  502 -0.11041368007E+04 -0.41800480098E+02  0.90130150479E+03  0.14259066439E+04  0.25500000920E-02 0.  1.
</event>
<event>
 5   0  0.1965415E-07  0.2699948E+04  0.7818609E-02  0.8335022E-01
       -1   -1    0    0    0  501  0.00000000000E+00  0.00000000000E+00  0.67549029305E+03  0.67549029307E+03  0.50400001928E-02 0. -1.
        1   -1    0    0  501    0  0.00000000000E+00  0.00000000000E+00 -0.26979362656E+04  0.26979362656E+04  0.50400001928E-02 0.  1.
    10030    2    1    2    0    0  0.00000000000E+00  0.00000000000E+00 -0.20224459725E+04  0.33734265587E+04  0.26999479689E+04 0.  0.
        4    1    3    3  502    0 -0.81125050399E+03  0.10179968470E+04 -0.14582073405E+04  0.19546905693E+04  0.12699999809E+01 0.  1.
       -4    1    3    3    0  502  0.81125050399E+03 -0.10179968470E+04 -0.56423863200E+03  0.14187359894E+04  0.12699999809E+01 0. -1.
</event>
<event>
 5   0  0.4992668E-07  0.2698891E+04  0.7818609E-02  0.8335365E-01
        2   -1    0    0  501    0  0.00000000000E+00  0.00000000000E+00  0.15692830391E+04  0.15692830391E+04  0.25500000920E-02 0.  1.
       -2   -1    0    0    0  501  0.00000000000E+00  0.00000000000E+00 -0.11604044895E+04  0.11604044895E+04  0.25500000920E-02 0. -1.
    10030    2    1    2    0    0  0.00000000000E+00  0.00000000000E+00  0.40887854957E+03  0.27296875286E+04  0.26988909455E+04 0.  0.
        1    1    3    3  502    0  0.45867416657E+03  0.93039874032E+03 -0.66853148109E+03  0.12340819050E+04  0.50400001928E-02 0. -1.
       -1    1    3    3    0  502 -0.45867416657E+03 -0.93039874032E+03  0.10774100307E+04  0.14956056236E+04  0.50400001928E-02 0.  1.
</event>
<event>
 5   0  0.4735120E-07  0.2705723E+04  0.7818609E-02  0.8333150E-01
        2   -1    0    0  501    0  0.00000000000E+00  0.00000000000E+00  0.16763258182E+04  0.16763258182E+04  0.25500000920E-02 0. -1.
       -2   -1    0    0    0  501  0.00000000000E+00  0.00000000000E+00 -0.10918130464E+04  0.10918130464E+04  0.25500000920E-02 0.  1.
    10030    2    1    2    0    0  0.00000000000E+00  0.00000000000E+00  0.58451277178E+03  0.27681388647E+04  0.27057231185E+04 0.  0.
        2    1    3    3  502    0 -0.35498294845E+01 -0.99982733487E+03 -0.64012132286E+03  0.11871910583E+04  0.25500000920E-02 0.  1.
       -2    1    3    3    0  502  0.35498294845E+01  0.99982733487E+03  0.12246340946E+04  0.15809478064E+04  0.25500000920E-02 0. -1.
</event>
<event>
 5   0  0.4992668E-07  0.2700056E+04  0.7818609E-02  0.8334987E-01
        2   -1    0    0  501    0  0.00000000000E+00  0.00000000000E+00  0.18513318917E+04  0.18513318917E+04  0.25500000920E-02 0. -1.
       -2   -1    0    0    0  501  0.00000000000E+00  0.00000000000E+00 -0.98446712485E+03  0.98446712485E+03  0.25500000920E-02 0.  1.
    10030    2    1    2    0    0  0.00000000000E+00  0.00000000000E+00  0.86686476684E+03  0.28357990165E+04  0.27000558398E+04 0.  0.
        1    1    3    3  502    0  0.95108361765E+03  0.31736183674E+03 -0.51606243988E+03  0.11276519964E+04  0.50400001928E-02 0.  1.
       -1    1    3    3    0  502 -0.95108361765E+03 -0.31736183674E+03  0.13829272067E+04  0.17081470201E+04  0.50400001928E-02 0. -1.
</event>
<event>
 5   0  0.5043890E-07  0.2699077E+04  0.7818609E-02  0.8335305E-01
       -2   -1    0    0    0  501  0.00000000000E+00  0.00000000000E+00  0.81232748432E+03  0.81232748433E+03  0.25500000920E-02 0. -1.
        2   -1    0    0  501    0  0.00000000000E+00  0.00000000000E+00 -0.22420191476E+04  0.22420191476E+04  0.25500000920E-02 0.  1.
    10030    2    1    2    0    0  0.00000000000E+00  0.00000000000E+00 -0.14296916632E+04  0.30543466319E+04  0.26990767117E+04 0.  0.
        3    1    3    3  502    0 -0.10859206977E+04 -0.77966807627E+03 -0.92396015362E+03  0.16250564441E+04  0.10100000352E+00 0.  1.
       -3    1    3    3    0  502  0.10859206977E+04  0.77966807627E+03 -0.50573150962E+03  0.14292901878E+04  0.10100000352E+00 0. -1.
</event>
<event>
 5   0  0.1964242E-07  0.2699833E+04  0.7818609E-02  0.8335059E-01
        1   -1    0    0  501    0  0.00000000000E+00  0.00000000000E+00  0.22035096541E+04  0.22035096541E+04  0.50400001928E-02 0.  1.
       -1   -1    0    0    0  501  0.00000000000E+00  0.00000000000E+00 -0.82698757302E+03  0.82698757304E+03  0.50400001928E-02 0. -1.
    10030    2    1    2    0    0  0.00000000000E+00  0.00000000000E+00  0.13765220811E+04  0.30304972272E+04  0.26998334030E+04 0.  0.
        2    1    3    3  502    0 -0.90248550004E+03 -0.99817016522E+03  0.80837823082E+03  0.15698086255E+04  0.25500000920E-02 0. -1.
       -2    1    3    3    0  502  0.90248550004E+03  0.99817016522E+03  0.56814385027E+03  0.14606886017E+04  0.25500000920E-02 0.  1.
</event>
<event>
 5   0  0.4992668E-07  0.2703219E+04  0.7818609E-02  0.8333961E-01
       -2   -1    0    0    0  501  0.00000000000E+00  0.00000000000E+00  0.12140244559E+04  0.12140244559E+04  0.25500000920E-02 0. -1.
        2   -1    0    0  501    0  0.00000000000E+00  0.00000000000E+00 -0.15047870719E+04  0.15047870719E+04  0.25500000920E-02 0.  1.
    10030    2    1    2    0    0  0.00000000000E+00  0.00000000000E+00 -0.29076261596E+03  0.27188115278E+04  0.27032190487E+04 0.  0.
        1    1    3    3  502    0 -0.33118839283E+03 -0.10799906862E+04 -0.89180943815E+03  0.14392323328E+04  0.50400001928E-02 0.  1.
       -1    1    3    3    0  502  0.33118839283E+03  0.10799906862E+04  0.60104682219E+03  0.12795791950E+04  0.50400001928E-02 0. -1.
</event>
<event>
 5   0  0.4983208E-07  0.2701184E+04  0.7818609E-02  0.8334621E-01
       -2   -1    0    0    0  501  0.00000000000E+00  0.00000000000E+00  0.89323251695E+03  0.89323251695E+03  0.25500000920E-02 0. -1.
        2   -1    0    0  501    0  0.00000000000E+00  0.00000000000E+00 -0.20421315325E+04  0.20421315325E+04  0.25500000920E-02 0.  1.
    10030    2    1    2    0    0  0.00000000000E+00  0.00000000000E+00 -0.11488990155E+04  0.29353640494E+04  0.27011836581E+04 0.  0.
        4    1    3    3  502    0  0.12210172798E+04 -0.57631452953E+03 -0.53881913105E+03  0.14537363253E+04  0.12699999809E+01 0. -1.
       -4    1    3    3    0  502 -0.12210172798E+04  0.57631452953E+03 -0.61007988446E+03  0.14816277241E+04  0.12699999809E+01 0.  1.
</event>
<event>
 5   0  0.1888149E-07  0.2700167E+04  0.7818609E-02  0.8334951E-01
       -1   -1    0    0    0  501  0.00000000000E+00  0.00000000000E+00  0.88547749084E+03  0.88547749085E+03  0.50400001928E-02 0.  1.
        1   -1    0    0  501    0  0.00000000000E+00  0.00000000000E+00 -0.20584659363E+04  0.20584659363E+04  0.50400001928E-02 0. -1.
    10030    2    1    2    0    0  0.00000000000E+00  0.00000000000E+00 -0.11729884454E+04  0.29439434271E+04  0.27001668484E+04 0.  0.
        1    1    3    3  502    0 -0.54065795174E+03  0.15586024343E+03 -0.19245336440E+04  0.20051017888E+04  0.50400001928E-02 0. -1.
       -1    1    3    3    0  502  0.54065795174E+03 -0.15586024343E+03  0.75154519863E+03  0.93884163834E+03  0.50400001928E-02 0.  1.
</event>
<event>
 5   0  0.1964242E-07  0.2699468E+04  0.7818609E-02  0.8335178E-01
       -1   -1    0    0    0  501  0.00000000000E+00  0.00000000000E+00  0.24003035913E+04  0.24003035914E+04  0.50400001928E-02 0.  1.
        1   -1    0    0  501    0  0.00000000000E+00  0.00000000000E+00 -0.75897953417E+03  0.75897953418E+03  0.50400001928E-02 0. -1.
    10030    2    1    2    0    0  0.00000000000E+00  0.00000000000E+00  0.16413240572E+04  0.31592831255E+04  0.26994675784E+04 0.  0.
        2    1    3    3  502    0  0.27627826355E+03 -0.12427299945E+04  0.13454551779E+04  0.18522843069E+04  0.25500000920E-02 0.  1.
       -2    1    3    3    0  502 -0.27627826355E+03  0.12427299945E+04  0.29586887930E+03  0.13069988186E+04  0.25500000920E-02 0. -1.
</event>
<event>
 5   0  0.1971600E-07  0.2699619E+04  0.7818609E-02  0.8335129E-01
        1   -1    0    0  501    0  0.00000000000E+00  0.00000000000E+00  0.65314575491E+03  0.65314575493E+03  0.50400001928E-02 0.  1.
       -1   -1    0    0    0  501  0.00000000000E+00  0.00000000000E+00 -0.27895542490E+04  0.27895542490E+04  0.50400001928E-02 0. -1.
    10030    2    1    2    0    0  0.00000000000E+00  0.00000000000E+00 -0.21364084941E+04  0.34427000039E+04  0.26996188737E+04 0.  0.
        5    1    3    3  502    0  0.10437606155E+04  0.13831878951E+03  0.89100489988E+01  0.10529338958E+04  0.46999998093E+01 0.  1.
       -5    1    3    3    0  502 -0.10437606155E+04 -0.13831878951E+03 -0.21453185431E+04  0.23897661081E+04  0.46999998093E+01 0. -1.
</event>
<event>
 5   0  0.1937896E-07  0.2699543E+04  0.7818609E-02  0.8335153E-01
       -1   -1    0    0    0  501  0.00000000000E+00  0.00000000000E+00  0.11301076606E+04  0.11301076606E+04  0.50400001928E-02 0.  1.
        1   -1    0    0  501    0  0.00000000000E+00  0.00000000000E+00 -0.16121328806E+04  0.16121328806E+04  0.50400001928E-02 0. -1.
    10030    2    1    2    0    0  0.00000000000E+00  0.00000000000E+00 -0.48202522004E+03  0.27422405412E+04  0.26995434564E+04 0.  0.
        3    1    3    3  502    0  0.95691339478E+03 -0.34250490485E+03 -0.11432559490E+04  0.15297146891E+04  0.10100000352E+00 0. -1.
       -3    1    3    3    0  502 -0.95691339478E+03  0.34250490485E+03  0.66123072894E+03  0.12125258521E+04  0.10100000352E+00 0.  1.
</event>
<event>
 5   0  0.4983208E-07  0.2699726E+04  0.7818609E-02  0.8335094E-01
       -2   -1    0    0    0  501  0.00000000000E+00  0.00000000000E+00  0.67764791347E+03  0.67764791347E+03  0.25500000920E-02 0. -1.
        2   -1    0    0  501    0  0.00000000000E+00  0.00000000000E+00 -0.26889040150E+04  0.26889040150E+04  0.25500000920E-02 0.  1.
    10030    2    1    2    0    0  0.00000000000E+00  0.00000000000E+00 -0.20112561015E+04  0.33665519285E+04  0.26997260567E+04 0.  0.
        4    1    3    3  502    0 -0.10991417314E+04  0.76357064553E+03 -0.78615680512E+03  0.15521587585E+04  0.12699999809E+01 0. -1.
       -4    1    3    3    0  502  0.10991417314E+04 -0.76357064553E+03 -0.12250992964E+04  0.18143931700E+04  0.12699999809E+01 0.  1.
</event>
<event>
 5   0  0.1888149E-07  0.2696620E+04  0.7818609E-02  0.8336103E-01
        1   -1    0    0  501    0  0.00000000000E+00  0.00000000000E+00  0.16462879622E+04  0.16462879622E+04  0.50400001928E-02 0.  1.
       -1   -1    0    0    0  501  0.00000000000E+00  0.00000000000E+00 -0.11042656335E+04  0.11042656335E+04  0.50400001928E-02 0. -1.
    10030    2    1    2    0    0  0.00000000000E+00  0.00000000000E+00  0.54202232864E+03  0.27505535957E+04  0.26966195279E+04 0.  0.
        1    1    3    3  502    0  0.68215688807E+03  0.56492864955E+03 -0.76591206687E+03  0.11709413705E+04  0.50400001928E-02 0. -1.
       -1    1    3    3    0  502 -0.68215688807E+03 -0.56492864955E+03  0.13079343955E+04  0.15796122252E+04  0.50400001928E-02 0.  1.
</event>
<event>
 5   0  0.4843887E-07  0.2699342E+04  0.7818609E-02  0.8335218E-01
       -2   -1    0    0    0  501  0.00000000000E+00  0.00000000000E+00  0.86010389672E+03  0.86010389672E+03  0.25500000920E-02 0. -1.
        2   -1    0    0  501    0  0.00000000000E+00  0.00000000000E+00 -0.21178981199E+04  0.21178981199E+04  0.25500000920E-02 0.  1.
    10030    2    1    2    0    0  0.00000000000E+00  0.00000000000E+00 -0.12577942231E+04  0.29780020166E+04  0.26993424575E+04 0.  0.
        5    1    3    3  502    0 -0.67727135751E+03  0.10702902619E+04 -0.11432597331E+04  0.17062481191E+04  0.46999998093E+01 0.  1.
       -5    1    3    3    0  502  0.67727135751E+03 -0.10702902619E+04 -0.11453449002E+03  0.12717538975E+04  0.46999998093E+01 0. -1.
</event>
<event>
 5   0  0.4843887E-07  0.2700907E+04  0.7818609E-02  0.8334711E-01
       -2   -1    0    0    0  501  0.00000000000E+00  0.00000000000E+00  0.82450987599E+03  0.82450987600E+03  0.25500000920E-02 0. -1.
        2   -1    0    0  501    0  0.00000000000E+00  0.00000000000E+00 -0.22118887747E+04  0.22118887747E+04  0.25500000920E-02 0.  1.
    10030    2    1    2    0    0  0.00000000000E+00  0.00000000000E+00 -0.13873788987E+04  0.30363986507E+04  0.27009066177E+04 0.  0.
        5    1    3    3  502    0  0.86803706788E+02 -0.52666746261E+03  0.70087533382E+03  0.88100046722E+03  0.46999998093E+01 0. -1.
       -5    1    3    3    0  502 -0.86803706788E+02  0.52666746261E+03 -0.20882542325E+04  0.21553981835E+04  0.46999998093E+01 0.  1.
</event>
<event>
 5   0  0.4843887E-07  0.2700419E+04  0.7818609E-02  0.8334869E-01
       -2   -1    0    0    0  501  0.00000000000E+00  0.00000000000E+00  0.12218860803E+04  0.12218860803E+04  0.25500000920E-02 0.  1.
        2   -1    0    0  501    0  0.00000000000E+00  0.00000000000E+00 -0.14920098487E+04  0.14920098487E+04  0.25500000920E-02 0. -1.
    10030    2    1    2    0    0  0.00000000000E+00  0.00000000000E+00 -0.27012376840E+03  0.27138959289E+04  0.27004192754E+04 0.  0.
        5    1    3    3  502    0  0.74296947023E+03  0.10298531946E+04  0.32596787919E+03  0.13110600232E+04  0.46999998093E+01 0. -1.
       -5    1    3    3    0  502 -0.74296947023E+03 -0.10298531946E+04 -0.59609164759E+03  0.14028359058E+04  0.46999998093E+01 0.  1.
</event>
<event>
 5   0  0.4735120E-07  0.2699771E+04  0.7818609E-02  0.8335079E-01
       -2   -1    0    0    0  501  0.00000000000E+00  0.00000000000E+00  0.72787679632E+03  0.72787679632E+03  0.25500000920E-02 0. -1.
        2   -1    0    0  501    0  0.00000000000E+00  0.00000000000E+00 -0.25034329783E+04  0.25034329783E+04  0.25500000920E-02 0.  1.
    10030    2    1    2    0    0  0.00000000000E+00  0.00000000000E+00 -0.17755561819E+04  0.32313097746E+04  0.26997709355E+04 0.  0.
        2    1    3    3  502    0  0.59453747700E+03  0.62794841100E+03 -0.21283845023E+04  0.22973494745E+04  0.25500000920E-02 0.  1.
       -2    1    3    3    0  502 -0.59453747700E+03 -0.62794841100E+03  0.35282832036E+03  0.93396030006E+03  0.25500000920E-02 0. -1.
</event>
<event>
 5   0  0.1965415E-07  0.2700017E+04  0.7818609E-02  0.8334999E-01
        1   -1    0    0  501    0  0.00000000000E+00  0.00000000000E+00  0.21316356625E+04  0.21316356625E+04  0.50400001928E-02 0. -1.
       -1   -1    0    0    0  501  0.00000000000E+00  0.00000000000E+00 -0.85498807666E+03  0.85498807668E+03  0.50400001928E-02 0.  1.
    10030    2    1    2    0    0  0.00000000000E+00  0.00000000000E+00  0.12766475859E+04  0.29866237392E+04  0.27000170927E+04 0.  0.
        4    1    3    3  502    0  0.56888573230E+03 -0.56536311083E+03  0.18395308350E+04  0.20067739607E+04  0.12699999809E+01 0. -1.
       -4    1    3    3    0  502 -0.56888573230E+03  0.56536311083E+03 -0.56288324910E+03  0.97984977855E+03  0.12699999809E+01 0.  1.
</event>
<event>
 5   0  0.4992668E-07  0.2699207E+04  0.7818609E-02  0.8335262E-01
       -2   -1    0    0    0  501  0.00000000000E+00  0.00000000000E+00  0.10925456065E+04  0.10925456065E+04  0.25500000920E-02 0. -1.
        2   -1    0    0  501    0  0.00000000000E+00  0.00000000000E+00 -0.16671433019E+04  0.16671433020E+04  0.25500000920E-02 0.  1.
    10030    2    1    2    0    0  0.00000000000E+00  0.00000000000E+00 -0.57459769542E+03  0.27596889085E+04  0.26992073577E+04 0.  0.
        1    1    3    3  502    0  0.51899894592E+03  0.19999938917E+03 -0.15445148175E+04  0.16416106978E+04  0.50400001928E-02 0.  1.
       -1    1    3    3    0  502 -0.51899894592E+03 -0.19999938917E+03  0.96991712208E+03  0.11180782107E+04  0.50400001928E-02 0. -1.
</event>
<event>
 5   0  0.4843887E-07  0.2700885E+04  0.7818609E-02  0.8334718E-01
       -2   -1    0    0    0  501  0.00000000000E+00  0.00000000000E+00  0.90216206018E+03  0.90216206018E+03  0.25500000920E-02 0. -1.
        2   -1    0    0  501    0  0.00000000000E+00  0.00000000000E+00 -0.20214712937E+04  0.20214712937E+04  0.25500000920E-02 0.  1.
    10030    2    1    2    0    0  0.00000000000E+00  0.00000000000E+00 -0.11193092335E+04  0.29236333539E+04  0.27008848231E+04 0.  0.
        5    1    3    3  502    0  0.92467183508E+03  0.38255539877E+03  0.42194316426E+03  0.10860132410E+04  0.46999998093E+01 0. -1.
       -5    1    3    3    0  502 -0.92467183508E+03 -0.38255539877E+03 -0.15412523978E+04  0.18376201129E+04  0.46999998093E+01 0.  1.
</event>
<event>
 5   0  0.4983208E-07  0.2700261E+04  0.7818609E-02  0.8334920E-01
        2   -1    0    0  501    0  0.00000000000E+00  0.00000000000E+00  0.15621379379E+04  0.15621379379E+04  0.25500000920E-02 0.  1.
       -2   -1    0    0    0  501  0.00000000000E+00  0.00000000000E+00 -0.11668962371E+04  0.11668962371E+04  0.25500000920E-02 0. -1.
    10030    2    1    2    0    0  0.00000000000E+00  0.00000000000E+00  0.39524170089E+03  0.27290341750E+04  0.27002613811E+04 0.  0.
        4    1    3    3  502    0 -0.53919374652E+03 -0.11578658753E+04 -0.24461225927E+03  0.13004691661E+04  0.12699999809E+01 0. -1.
       -4    1    3    3    0  502  0.53919374652E+03  0.11578658753E+04  0.63985396016E+03  0.14285650090E+04  0.12699999809E+01 0.  1.
</event>
<event>
 5   0  0.5043890E-07  0.2700011E+04  0.7818609E-02  0.8335001E-01
       -2   -1    0    0    0  501  0.00000000000E+00  0.00000000000E+00  0.10275065323E+04  0.10275065323E+04  0.25500000920E-02 0.  1.
        2   -1    0    0  501    0  0.00000000000E+00  0.00000000000E+00 -0.17737263798E+04  0.17737263798E+04  0.25500000920E-02 0. -1.
    10030    2    1    2    0    0  0.00000000000E+00  0.00000000000E+00 -0.74621984746E+03  0.28012329122E+04  0.27000114384E+04 0.  0.
        3    1    3    3  502    0 -0.44354601288E+03 -0.70820375897E+03  0.72693687909E+03  0.11075752192E+04  0.10100000352E+00 0.  1.
       -3    1    3    3    0  502  0.44354601288E+03  0.70820375897E+03 -0.14731567266E+04  0.16936576930E+04  0.10100000352E+00 0. -1.
</event>
<event>
 5   0  0.4843887E-07  0.2698888E+04  0.7818609E-02  0.8335366E-01
       -2   -1    0    0    0  501  0.00000000000E+00  0.00000000000E+00  0.83609167175E+03  0.83609167175E+03  0.25500000920E-02 0. -1.
        2   -1    0    0  501    0  0.00000000000E+00  0.00000000000E+00 -0.21779895359E+04  0.21779895359E+04  0.25500000920E-02 0.  1.
    10030    2    1    2    0    0  0.00000000000E+00  0.00000000000E+00 -0.13418978641E+04  0.30140812076E+04  0.26988878540E+04 0.  0.
        5    1    3    3  502    0 -0.13025343781E+04 -0.31758491923E+03 -0.84222491855E+03  0.15832943158E+04  0.46999998093E+01 0.  1.
       -5    1    3    3    0  502  0.13025343781E+04  0.31758491923E+03 -0.49967294556E+03  0.14307868918E+04  0.46999998093E+01 0. -1.
</event>
<event>
 5   0  0.1965415E-07  0.2701000E+04  0.7818609E-02  0.8334680E-01
        1   -1    0    0  501    0  0.00000000000E+00  0.00000000000E+00  0.16542147610E+04  0.16542147610E+04  0.50400001928E-02 0. -1.
       -1   -1    0    0    0  501  0.00000000000E+00  0.00000000000E+00 -0.11025477470E+04  0.11025477470E+04  0.50400001928E-02 0.  1.
    10030    2    1    2    0    0  0.00000000000E+00  0.00000000000E+00  0.55166701404E+03  0.27567625080E+04  0.27010003760E+04 0.  0.
        4    1    3    3  502    0  0.88856502206E+03 -0.68356144780E+03  0.10444036471E+04  0.15321829663E+04  0.12699999809E+01 0. -1.
       -4    1    3    3    0  502 -0.88856502206E+03  0.68356144780E+03 -0.49273663307E+03  0.12245795416E+04  0.12699999809E+01 0.  1.
</event>
<event>
 5   0  0.1937896E-07  0.2699903E+04  0.7818609E-02  0.8335036E-01
        1   -1    0    0  501    0  0.00000000000E+00  0.00000000000E+00  0.14529718417E+04  0.14529718417E+04  0.50400001928E-02 0. -1.
       -1   -1    0    0    0  501  0.00000000000E+00  0.00000000000E+00 -0.12542354895E+04  0.12542354895E+04  0.50400001928E-02 0.  1.
    10030    2    1    2    0    0  0.00000000000E+00  0.00000000000E+00  0.19873635228E+03  0.27072073312E+04  0.26999028494E+04 0.  0.
        3    1    3    3  502    0  0.13308725719E+04  0.17779532883E+03 -0.40780699073E+02  0.13433153231E+04  0.10100000352E+00 0.  1.
       -3    1    3    3    0  502 -0.13308725719E+04 -0.17779532883E+03  0.23951705135E+03  0.13638920081E+04  0.10100000352E+00 0. -1.
</event>
<event>
 5   0  0.1971600E-07  0.2698804E+04  0.7818609E-02  0.8335393E-01
       -1   -1    0    0    0  501  0.00000000000E+00  0.00000000000E+00  0.93575510671E+03  0.93575510672E+03  0.50400001928E-02 0.  1.
        1   -1    0    0  501    0  0.00000000000E+00  0.00000000000E+00 -0.19459001574E+04  0.19459001574E+04  0.50400001928E-02 0. -1.
    10030    2    1    2    0    0  0.00000000000E+00  0.00000000000E+00 -0.10101450507E+04  0.28816552641E+04  0.26988041866E+04 0.  0.
        5    1    3    3  502    0  0.16008202511E+03  0.44914774060E+03 -0.18529400958E+04  0.19133136273E+04  0.46999998093E+01 0. -1.
       -5    1    3    3    0  502 -0.16008202511E+03 -0.44914774060E+03  0.84279504510E+03  0.96834163687E+03  0.46999998093E+01 0.  1.
</event>
<event>
 5   0  0.4992668E-07  0.2700871E+04  0.7818609E-02  0.8334723E-01
        2   -1    0    0  501    0  0.00000000000E+00  0.00000000000E+00  0.22827763451E+04  0.22827763451E+04  0.25500000920E-02 0.  1.
       -2   -1    0    0    0  501  0.00000000000E+00  0.00000000000E+00 -0.79888490798E+03  0.79888490798E+03  0.25500000920E-02 0. -1.
    10030    2    1    2    0    0  0.00000000000E+00  0.00000000000E+00  0.14838914371E+04  0.30816612530E+04  0.27008706525E+04 0.  0.
        1    1    3    3  502    0 -0.16212502206E+03  0.10270222596E+04 -0.24130293031E+03  0.10673735750E+04  0.50400001928E-02 0. -1.
       -1    1    3    3    0  502  0.16212502206E+03 -0.10270222596E+04  0.17251943674E+04  0.20142876780E+04  0.50400001928E-02 0.  1.
</event>
<event>
 5   0  0.4843887E-07  0.2712075E+04  0.7818609E-02  0.8331098E-01
        2   -1    0    0  501    0  0.00000000000E+00  0.00000000000E+00  0.11651461145E+04  0.11651461145E+04  0.25500000920E-02 0. -1.
       -2   -1    0    0    0  501  0.00000000000E+00  0.00000000000E+00 -0.15782040300E+04  0.15782040300E+04  0.25500000920E-02 0.  1.
    10030    2    1    2    0    0  0.00000000000E+00  0.00000000000E+00 -0.41305791551E+03  0.27433501446E+04  0.27120754367E+04 0.  0.
        5    1    3    3  502    0 -0.13346254317E+03 -0.27330728506E+03  0.11301890048E+04  0.11704095006E+04  0.46999998093E+01 0. -1.
       -5    1    3    3    0  502  0.13346254317E+03  0.27330728506E+03 -0.15432469203E+04  0.15729406440E+04  0.46999998093E+01 0.  1.
</event>
<event>
 5   0  0.1971600E-07  0.2702042E+04  0.7818609E-02  0.8334343E-01
        1   -1    0    0  501    0  0.00000000000E+00  0.00000000000E+00  0.12427056541E+04  0.12427056541E+04  0.50400001928E-02 0.  1.
       -1   -1    0    0    0  501  0.00000000000E+00  0.00000000000E+00 -0.14687771376E+04  0.14687771376E+04  0.50400001928E-02 0. -1.
    10030    2    1    2    0    0  0.00000000000E+00  0.00000000000E+00 -0.22607148352E+03  0.27114827917E+04  0.27020419342E+04 0.  0.
        5    1    3    3  502    0  0.24957354032E+03 -0.12757110776E+04  0.25636708369E+03  0.13249422165E+04  0.46999998093E+01 0. -1.
       -5    1    3    3    0  502 -0.24957354032E+03  0.12757110776E+04 -0.48243856722E+03  0.13865405752E+04  0.46999998093E+01 0.  1.
</event>
<event>
 5   0  0.1888149E-07  0.2700514E+04  0.7818609E-02  0.8334838E-01
        1   -1    0    0  501    0  0.00000000000E+00  0.00000000000E+00  0.14846068402E+04  0.14846068402E+04  0.50400001928E-02 0. -1.
       -1   -1    0    0    0  501  0.00000000000E+00  0.00000000000E+00 -0.12280648133E+04  0.12280648133E+04  0.50400001928E-02 0.  1.
    10030    2    1    2    0    0  0.00000000000E+00  0.00000000000E+00  0.25654202689E+03  0.27126716535E+04  0.27005135971E+04 0.  0.
        1    1    3    3  502    0  0.12156784260E+04 -0.15088663450E+02  0.71836084337E+03  0.14121416375E+04  0.50400001928E-02 0.  1.
       -1    1    3    3    0  502 -0.12156784260E+04  0.15088663450E+02 -0.46181881648E+03  0.13005300160E+04  0.50400001928E-02 0. -1.
</event>
<event>
 5   0  0.4735120E-07  0.2701559E+04  0.7818609E-02  0.8334499E-01
       -2   -1    0    0    0  501  0.00000000000E+00  0.00000000000E+00  0.14274825609E+04  0.14274825609E+04  0.25500000920E-02 0.  1.
        2   -1    0    0  501    0  0.00000000000E+00  0.00000000000E+00 -0.12781977955E+04  0.12781977955E+04  0.25500000920E-02 0. -1.
    10030    2    1    2    0    0  0.00000000000E+00  0.00000000000E+00  0.14928476539E+03  0.27056803564E+04  0.27015588555E+04 0.  0.
        2    1    3    3  502    0  0.11897290000E+04 -0.62076413330E+02  0.71224262795E+03  0.13880195011E+04  0.25500000920E-02 0.  1.
       -2    1    3    3    0  502 -0.11897290000E+04  0.62076413330E+02 -0.56295786256E+03  0.13176608553E+04  0.25500000920E-02 0. -1.
</event>
<event>
 5   0  0.1888149E-07  0.2703117E+04  0.7818609E-02  0.8333994E-01
       -1   -1    0    0    0  501  0.00000000000E+00  0.00000000000E+00  0.14918003968E+04  0.14918003968E+04  0.50400001928E-02 0. -1.
        1   -1    0    0  501    0  0.00000000000E+00  0.00000000000E+00 -0.12245002856E+04  0.12245002856E+04  0.50400001928E-02 0.  1.
    10030    2    1    2    0    0  0.00000000000E+00  0.00000000000E+00  0.26730011122E+03  0.27163006823E+04  0.27031167284E+04 0.  0.
        1    1    3    3  502    0 -0.93677579079E+03 -0.40467873830E+03  0.10241983040E+04  0.14457855751E+04  0.50400001928E-02 0. -1.
       -1    1    3    3    0  502  0.93677579079E+03  0.40467873830E+03 -0.75689819273E+03  0.12705151072E+04  0.50400001928E-02 0.  1.
</event>
<event>
 5   0  0.4983208E-07  0.2699578E+04  0.7818609E-02  0.8335142E-01
        2   -1    0    0  501    0  0.00000000000E+00  0.00000000000E+00  0.92070007302E+03  0.92070007303E+03  0.25500000920E-02 0.  1.
       -2   -1    0    0    0  501  0.00000000000E+00  0.00000000000E+00 -0.19788538379E+04  0.19788538379E+04  0.25500000920E-02 0. -1.
    10030    2    1    2    0    0  0.00000000000E+00  0.00000000000E+00 -0.10581537648E+04  0.28995539109E+04  0.26995783916E+04 0.  0.
        4    1    3    3  502    0  0.11408309011E+04 -0.25567718393E+03 -0.12536315312E+04  0.17141935702E+04  0.12699999809E+01 0. -1.
       -4    1    3    3    0  502 -0.11408309011E+04  0.25567718393E+03  0.19547776638E+03  0.11853603407E+04  0.12699999809E+01 0.  1.
</event>
<event>
 5   0  0.4992668E-07  0.2700716E+04  0.7818609E-02  0.8334773E-01
       -2   -1    0    0    0  501  0.00000000000E+00  0.00000000000E+00  0.11740468370E+04  0.11740468370E+04  0.25500000920E-02 0.  1.
        2   -1    0    0  501    0  0.00000000000E+00  0.00000000000E+00 -0.15531469557E+04  0.15531469557E+04  0.25500000920E-02 0. -1.
    10030    2    1    2    0    0  0.00000000000E+00  0.00000000000E+00 -0.37910011867E+03  0.27271937927E+04  0.27007164018E+04 0.  0.
        1    1    3    3  502    0  0.59190850387E+03 -0.12123635429E+04 -0.13166236861E+03  0.13555500789E+04  0.50400001928E-02 0. -1.
       -1    1    3    3    0  502 -0.59190850387E+03  0.12123635429E+04 -0.24743775006E+03  0.13716437137E+04  0.50400001928E-02 0.  1.
</event>
<event>
 5   0  0.1964242E-07  0.2698686E+04  0.7818609E-02  0.8335431E-01
        1   -1    0    0  501    0  0.00000000000E+00  0.00000000000E+00  0.21509267817E+04  0.21509267817E+04  0.50400001928E-02 0. -1.
       -1   -1    0    0    0  501  0.00000000000E+00  0.00000000000E+00 -0.84648480148E+03  0.84648480150E+03  0.50400001928E-02 0.  1.
    10030    2    1    2    0    0  0.00000000000E+00  0.00000000000E+00  0.13044419802E+04  0.29974115832E+04  0.26986862210E+04 0.  0.
        2    1    3    3  502    0 -0.71122455336E+03 -0.66639959376E+03 -0.38423940721E+03  0.10476491330E+04  0.25500000920E-02 0.  1.
       -2    1    3    3    0  502  0.71122455336E+03  0.66639959376E+03  0.16886813874E+04  0.19497624502E+04  0.25500000920E-02 0. -1.
</event>
<event>
 5   0  0.1888149E-07  0.2699653E+04  0.7818609E-02  0.8335118E-01
       -1   -1    0    0    0  501  0.00000000000E+00  0.00000000000E+00  0.12607385532E+04  0.12607385532E+04  0.50400001928E-02 0. -1.
        1   -1    0    0  501    0  0.00000000000E+00  0.00000000000E+00 -0.14452094082E+04  0.14452094082E+04  0.50400001928E-02 0.  1.
    10030    2    1    2    0    0  0.00000000000E+00  0.00000000000E+00 -0.18447085500E+03  0.27059479615E+04  0.26996527321E+04 0.  0.
        1    1    3    3  502    0  0.32307013834E+02 -0.15200687273E+03 -0.14362131060E+04  0.14445961091E+04  0.50400001928E-02 0.  1.
       -1    1    3    3    0  502 -0.32307013834E+02  0.15200687273E+03  0.12517422510E+04  0.12613518524E+04  0.50400001928E-02 0. -1.
</event>
<event>
 5   0  0.1641625E-07  0.2698412E+04  0.7818609E-02  0.8335520E-01
        3   -1    0    0  501    0  0.00000000000E+00  0.00000000000E+00  0.10019534796E+04  0.10019534847E+04  0.10100000352E+00 0.  1.
       -3   -1    0    0    0  501  0.00000000000E+00  0.00000000000E+00 -0.18168073338E+04  0.18168073366E+04  0.10100000352E+00 0. -1.
    10030    2    1    2    0    0  0.00000000000E+00  0.00000000000E+00 -0.81485385416E+03  0.28187608213E+04  0.26984117114E+04 0.  0.
        5    1    3    3  502    0  0.95793100277E+03 -0.91792762975E+03 -0.66353807122E+03  0.14834176086E+04  0.46999998093E+01 0. -1.
       -5    1    3    3    0  502 -0.95793100277E+03  0.91792762975E+03 -0.15131578294E+03  0.13353432127E+04  0.46999998093E+01 0.  1.
</event>
<event>
 5   0  0.4983208E-07  0.2699013E+04  0.7818609E-02  0.8335325E-01
        2   -1    0    0  501    0  0.00000000000E+00  0.00000000000E+00  0.96748204413E+03  0.96748204414E+03  0.25500000920E-02 0.  1.
       -2   -1    0    0    0  501  0.00000000000E+00  0.00000000000E+00 -0.18823792032E+04  0.18823792032E+04  0.25500000920E-02 0. -1.
    10030    2    1    2    0    0  0.00000000000E+00  0.00000000000E+00 -0.91489715911E+03  0.28498612474E+04  0.26990132118E+04 0.  0.
        4    1    3    3  502    0 -0.60725629423E+03 -0.10222452462E+04  0.21652111068E+03  0.12085646671E+04  0.12699999809E+01 0.  1.
       -4    1    3    3    0  502  0.60725629423E+03  0.10222452462E+04 -0.11314182698E+04  0.16412965803E+04  0.12699999809E+01 0. -1.
</event>
<event>
 5   0  0.1965415E-07  0.2701440E+04  0.7818609E-02  0.8334538E-01
        1   -1    0    0  501    0  0.00000000000E+00  0.00000000000E+00  0.92651081143E+03  0.92651081144E+03  0.50400001928E-02 0.  1.
       -1   -1    0    0    0  501  0.00000000000E+00  0.00000000000E+00 -0.19691554949E+04  0.19691554949E+04  0.50400001928E-02 0. -1.
    10030    2    1    2    0    0  0.00000000000E+00  0.00000000000E+00 -0.10426446835E+04  0.28956663064E+04  0.27014395092E+04 0.  0.
        4    1    3    3  502    0 -0.92170039395E+03  0.70399162664E+03 -0.12634179933E+04  0.17150400769E+04  0.12699999809E+01 0. -1.
       -4    1    3    3    0  502  0.92170039395E+03 -0.70399162664E+03  0.22077330979E+03  0.11806262295E+04  0.12699999809E+01 0.  1.
</event>
<event>
 5   0  0.4983208E-07  0.2698979E+04  0.7818609E-02  0.8335336E-01
       -2   -1    0    0    0  501  0.00000000000E+00  0.00000000000E+00  0.17190087092E+04  0.17190087092E+04  0.25500000920E-02 0.  1.
        2   -1    0    0  501    0  0.00000000000E+00  0.00000000000E+00 -0.10594024258E+04  0.10594024258E+04  0.25500000920E-02 0. -1.
    10030    2    1    2    0    0  0.00000000000E+00  0.00000000000E+00  0.65960628347E+03  0.27784111350E+04  0.26989790636E+04 0.  0.
        4    1    3    3  502    0  0.79181266694E+03 -0.28650660503E+03  0.14153847613E+04  0.16469271295E+04  0.12699999809E+01 0.  1.
       -4    1    3    3    0  502 -0.79181266694E+03  0.28650660503E+03 -0.75577847787E+03  0.11314840055E+04  0.12699999809E+01 0. -1.
</event>
<event>
 5   0  0.1964242E-07  0.2699978E+04  0.7818609E-02  0.8335012E-01
       -1   -1    0    0    0  501  0.00000000000E+00  0.00000000000E+00  0.11077210224E+04  0.11077210224E+04  0.50400001928E-02 0. -1.
        1   -1    0    0  501    0  0.00000000000E+00  0.00000000000E+00 -0.16452435494E+04  0.16452435494E+04  0.50400001928E-02 0.  1.
    10030    2    1    2    0    0  0.00000000000E+00  0.00000000000E+00 -0.53752252692E+03  0.27529645718E+04  0.26999784197E+04 0.  0.
        2    1    3    3  502    0 -0.35184593195E+03 -0.87662735474E+03  0.71463475938E+03  0.11844719998E+04  0.25500000920E-02 0. -1.
       -2    1    3    3    0  502  0.35184593195E+03  0.87662735474E+03 -0.12521572863E+04  0.15684925720E+04  0.25500000920E-02 0.  1.
</event>
<event>
 5   0  0.4992668E-07  0.2700025E+04  0.7818609E-02  0.8334997E-01
        2   -1    0    0  501    0  0.00000000000E+00  0.00000000000E+00  0.16583556296E+04  0.16583556296E+04  0.25500000920E-02 0.  1.
       -2   -1    0    0    0  501  0.00000000000E+00  0.00000000000E+00 -0.10990001613E+04  0.10990001613E+04  0.25500000920E-02 0. -1.
    10030    2    1    2    0    0  0.00000000000E+00  0.00000000000E+00  0.55935546823E+03  0.27573557909E+04  0.27000245217E+04 0.  0.
        1    1    3    3  502    0 -0.10413320695E+04  0.36691474677E+03 -0.51369275143E+03  0.12177352558E+04  0.50400001928E-02 0. -1.
       -1    1    3    3    0  502  0.10413320695E+04 -0.36691474677E+03  0.10730482197E+04  0.15396205351E+04  0.50400001928E-02 0.  1.
</event>
<event>
 5   0  0.1937896E-07  0.2697740E+04  0.7818609E-02  0.8335739E-01
       -1   -1    0    0    0  501  0.00000000000E+00  0.00000000000E+00  0.53767859086E+03  0.53767859089E+03  0.50400001928E-02 0. -1.
        1   -1    0    0  501    0  0.00000000000E+00  0.00000000000E+00 -0.33838999813E+04  0.33838999813E+04  0.50400001928E-02 0.  1.
    10030    2    1    2    0    0  0.00000000000E+00  0.00000000000E+00 -0.28462213905E+04  0.39215785722E+04  0.26977402200E+04 0.  0.
        3    1    3    3  502    0 -0.10640173741E+04  0.81024273544E+03 -0.11678949816E+04  0.17755576479E+04  0.10100000352E+00 0. -1.
       -3    1    3    3    0  502  0.10640173741E+04 -0.81024273544E+03 -0.16783264089E+04  0.21460209243E+04  0.10100000352E+00 0.  1.
</event>
<event>
 5   0  0.1888149E-07  0.2700145E+04  0.7818609E-02  0.8334958E-01
       -1   -1    0    0    0  501  0.00000000000E+00  0.00000000000E+00  0.85975162487E+03  0.85975162488E+03  0.50400001928E-02 0. -1.
        1   -1    0    0  501    0  0.00000000000E+00  0.00000000000E+00 -0.21200255859E+04  0.21200255859E+04  0.50400001928E-02 0.  1.
    10030    2    1    2    0    0  0.00000000000E+00  0.00000000000E+00 -0.12602739610E+04  0.29797772107E+04  0.27001447681E+04 0.  0.
        1    1    3    3  502    0 -0.13221614922E+03 -0.67092850072E+03 -0.19147653084E+04  0.20332123228E+04  0.50400001928E-02 0.  1.
       -1    1    3    3    0  502  0.13221614922E+03  0.67092850072E+03  0.65449134744E+03  0.94656488795E+03  0.50400001928E-02 0. -1.
</event>
<event>
 5   0  0.1937896E-07  0.2701488E+04  0.7818609E-02  0.8334522E-01
       -1   -1    0    0    0  501  0.00000000000E+00  0.00000000000E+00  0.18437506748E+04  0.18437506748E+04  0.50400001928E-02 0.  1.
        1   -1    0    0  501    0  0.00000000000E+00  0.00000000000E+00 -0.98956416343E+03  0.98956416345E+03  0.50400001928E-02 0. -1.
    10030    2    1    2    0    0  0.00000000000E+00  0.00000000000E+00  0.85418651137E+03  0.28333148383E+04  0.27014881781E+04 0.  0.
        3    1    3    3  502    0 -0.59127167855E+03 -0.91404593441E+03  0.12657560777E+04  0.16694971179E+04  0.10100000352E+00 0.  1.
       -3    1    3    3    0  502  0.59127167855E+03  0.91404593441E+03 -0.41156956638E+03  0.11638177204E+04  0.10100000352E+00 0. -1.
</event>
<event>
 5   0  0.5043890E-07  0.2700872E+04  0.7818609E-02  0.8334722E-01
        2   -1    0    0  501    0  0.00000000000E+00  0.00000000000E+00  0.12619502743E+04  0.12619502743E+04  0.25500000920E-02 0.  1.
       -2   -1    0    0    0  501  0.00000000000E+00  0.00000000000E+00 -0.14451259830E+04  0.14451259830E+04  0.25500000920E-02 0. -1.
    10030    2    1    2    0    0  0.00000000000E+00  0.00000000000E+00 -0.18317570868E+03  0.27070762573E+04  0.27008718079E+04 0.  0.
        3    1    3    3  502    0  0.92198400273E+00  0.54403136906E+03 -0.13304313079E+04  0.14373651088E+04  0.10100000352E+00 0. -1.
       -3    1    3    3    0  502 -0.92198400273E+00 -0.54403136906E+03  0.11472555992E+04  0.12697111486E+04  0.10100000352E+00 0.  1.
</event>
<event>
 5   0  0.4735120E-07  0.2700149E+04  0.7818609E-02  0.8334957E-01
        2   -1    0    0  501    0  0.00000000000E+00  0.00000000000E+00  0.93121068141E+03  0.93121068142E+03  0.25500000920E-02 0.  1.
       -2   -1    0    0    0  501  0.00000000000E+00  0.00000000000E+00 -0.19573455430E+04  0.19573455430E+04  0.25500000920E-02 0. -1.
    10030    2    1    2    0    0  0.00000000000E+00  0.00000000000E+00 -0.10261348616E+04  0.28885562244E+04  0.27001489417E+04 0.  0.
        2    1    3    3  502    0  0.72470891156E+03 -0.23268877142E+03 -0.17059302539E+04  0.18680324146E+04  0.25500000920E-02 0. -1.
       -2    1    3    3    0  502 -0.72470891156E+03  0.23268877142E+03  0.67979539235E+03  0.10205238098E+04  0.25500000920E-02 0.  1.
</event>
<event>
 5   0  0.1965415E-07  0.2681494E+04  0.7818609E-02  0.8341035E-01
       -1   -1    0    0    0  501  0.00000000000E+00  0.00000000000E+00  0.10678621294E+04  0.10678621294E+04  0.50400001928E-02 0.  1.
        1   -1    0    0  501    0  0.00000000000E+00  0.00000000000E+00 -0.16833657025E+04  0.16833657025E+04  0.50400001928E-02 0. -1.
    10030    2    1    2    0    0  0.00000000000E+00  0.00000000000E+00 -0.61550357312E+03  0.27512278318E+04  0.26814939743E+04 0.  0.
        4    1    3    3  502    0 -0.10576876219E+04 -0.53768401441E+03  0.33281898656E+03  0.12323056827E+04  0.12699999809E+01 0. -1.
       -4    1    3    3    0  502  0.10576876219E+04  0.53768401441E+03 -0.94832255968E+03  0.15189221491E+04  0.12699999809E+01 0.  1.
</event>
<event>
 5   0  0.4992668E-07  0.2698843E+04  0.7818609E-02  0.8335380E-01
       -2   -1    0    0    0  501  0.00000000000E+00  0.00000000000E+00  0.10136875574E+04  0.10136875574E+04  0.25500000920E-02 0. -1.
        2   -1    0    0  501    0  0.00000000000E+00  0.00000000000E+00 -0.17963509003E+04  0.17963509003E+04  0.25500000920E-02 0.  1.
    10030    2    1    2    0    0  0.00000000000E+00  0.00000000000E+00 -0.78266334284E+03  0.28100384577E+04  0.26988431273E+04 0.  0.
        1    1    3    3  502    0 -0.10172153919E+04  0.55429203864E+03  0.32926054486E+03  0.12043169533E+04  0.50400001928E-02 0. -1.
       -1    1    3    3    0  502  0.10172153919E+04 -0.55429203864E+03 -0.11119238877E+04  0.16057215044E+04  0.50400001928E-02 0.  1.
</event>
<event>
 5   0  0.4843887E-07  0.2699957E+04  0.7818609E-02  0.8335019E-01
        2   -1    0    0  501    0  0.00000000000E+00  0.00000000000E+00  0.15221170728E+04  0.15221170728E+04  0.25500000920E-02 0.  1.
       -2   -1    0    0    0  501  0.00000000000E+00  0.00000000000E+00 -0.11973071787E+04  0.11973071787E+04  0.25500000920E-02 0. -1.
    10030    2    1    2    0    0  0.00000000000E+00  0.00000000000E+00  0.32480989412E+03  0.27194242516E+04  0.26999568131E+04 0.  0.
        5    1    3    3  502    0 -0.65687522425E+03 -0.11627036354E+04  0.36145274676E+03  0.13834865312E+04  0.46999998093E+01 0.  1.
       -5    1    3    3    0  502  0.65687522425E+03  0.11627036354E+04 -0.36642852639E+02  0.13359377203E+04  0.46999998093E+01 0. -1.
</event>
<event>
 5   0  0.1965415E-07  0.2700534E+04  0.7818609E-02  0.8334832E-01
        1   -1    0    0  501    0  0.00000000000E+00  0.00000000000E+00  0.92379261075E+03  0.92379261076E+03  0.50400001928E-02 0. -1.
       -1   -1    0    0    0  501  0.00000000000E+00  0.00000000000E+00 -0.19736251613E+04  0.19736251613E+04  0.50400001928E-02 0.  1.
    10030    2    1    2    0    0  0.00000000000E+00  0.00000000000E+00 -0.10498325506E+04  0.28974177721E+04  0.27005335328E+04 0.  0.
        4    1    3    3  502    0 -0.10962924251E+04 -0.23309289980E+03 -0.13328287489E+04  0.17414429270E+04  0.12699999809E+01 0. -1.
       -4    1    3    3    0  502  0.10962924251E+04  0.23309289980E+03  0.28299619828E+03  0.11559748451E+04  0.12699999809E+01 0.  1.
</event>
<event>
 5   0  0.4992668E-07  0.2700945E+04  0.7818609E-02  0.8334698E-01
       -2   -1    0    0    0  501  0.00000000000E+00  0.00000000000E+00  0.82651213485E+03  0.82651213485E+03  0.25500000920E-02 0. -1.
        2   -1    0    0  501    0  0.00000000000E+00  0.00000000000E+00 -0.22065928711E+04  0.22065928711E+04  0.25500000920E-02 0.  1.
    10030    2    1    2    0    0  0.00000000000E+00  0.00000000000E+00 -0.13800807363E+04  0.30331050060E+04  0.27009448604E+04 0.  0.
        1    1    3    3  502    0  0.10337972545E+04 -0.30805130981E+03 -0.16024521283E+04  0.19317052561E+04  0.50400001928E-02 0.  1.
       -1    1    3    3    0  502 -0.10337972545E+04  0.30805130981E+03  0.22237139202E+03  0.11013997499E+04  0.50400001928E-02 0. -1.
</event>
<event>
 5   0  0.1888149E-07  0.2700438E+04  0.7818609E-02  0.8334863E-01
        1   -1    0    0  501    0  0.00000000000E+00  0.00000000000E+00  0.18503034920E+04  0.18503034921E+04  0.50400001928E-02 0.  1.
       -1   -1    0    0    0  501  0.00000000000E+00  0.00000000000E+00 -0.98529319382E+03  0.98529319383E+03  0.50400001928E-02 0. -1.
    10030    2    1    2    0    0  0.00000000000E+00  0.00000000000E+00  0.86501029823E+03  0.28355966859E+04  0.27004380661E+04 0.  0.
        1    1    3    3  502    0 -0.12436964985E+04 -0.31112131395E+03 -0.12391753753E+02  0.12820807338E+04  0.50400001928E-02 0. -1.
       -1    1    3    3    0  502  0.12436964985E+04  0.31112131395E+03  0.87740205198E+03  0.15535159521E+04  0.50400001928E-02 0.  1.
</event>
<event>
 5   0  0.4992668E-07  0.2698856E+04  0.7818609E-02  0.8335376E-01
        2   -1    0    0  501    0  0.00000000000E+00  0.00000000000E+00  0.22697771836E+04  0.22697771836E+04  0.25500000920E-02 0. -1.
       -2   -1    0    0    0  501  0.00000000000E+00  0.00000000000E+00 -0.80226195484E+03  0.80226195485E+03  0.25500000920E-02 0.  1.
    10030    2    1    2    0    0  0.00000000000E+00  0.00000000000E+00  0.14675152288E+04  0.30720391385E+04  0.26988559653E+04 0.  0.
        1    1    3    3  502    0  0.10342270981E+03  0.11362871819E+04  0.15538771923E+04  0.19277912608E+04  0.50400001928E-02 0. -1.
       -1    1    3    3    0  502 -0.10342270981E+03 -0.11362871819E+04 -0.86361963481E+02  0.11442478776E+04  0.50400001928E-02 0.  1.
</event>
<event>
 5   0  0.1965415E-07  0.2700108E+04  0.7818609E-02  0.8334970E-01
       -1   -1    0    0    0  501  0.00000000000E+00  0.00000000000E+00  0.15993730838E+04  0.15993730838E+04  0.50400001928E-02 0. -1.
        1   -1    0    0  501    0  0.00000000000E+00  0.00000000000E+00 -0.11396001256E+04  0.11396001256E+04  0.50400001928E-02 0.  1.
    10030    2    1    2    0    0  0.00000000000E+00  0.00000000000E+00  0.45977295816E+03  0.27389732094E+04  0.27001079736E+04 0.  0.
        4    1    3    3  502    0 -0.11165643786E+04  0.68185765853E+03 -0.10807310770E+03  0.13127556084E+04  0.12699999809E+01 0. -1.
       -4    1    3    3    0  502  0.11165643786E+04 -0.68185765853E+03  0.56784606586E+03  0.14262176010E+04  0.12699999809E+01 0.  1.
</event>
<event>
 5   0  0.4735120E-07  0.2699918E+04  0.7818609E-02  0.8335031E-01
       -2   -1    0    0    0  501  0.00000000000E+00  0.00000000000E+00  0.15537375900E+04  0.15537375900E+04  0.25500000920E-02 0. -1.
        2   -1    0    0  501    0  0.00000000000E+00  0.00000000000E+00 -0.11729070455E+04  0.11729070455E+04  0.25500000920E-02 0.  1.
    10030    2    1    2    0    0  0.00000000000E+00  0.00000000000E+00  0.38083054450E+03  0.27266446354E+04  0.26999183440E+04 0.  0.
        2    1    3    3  502    0  0.97023661295E+03 -0.75305982590E+02  0.11352833618E+04  0.14952920744E+04  0.25500000920E-02 0. -1.
       -2    1    3    3    0  502 -0.97023661295E+03  0.75305982590E+02 -0.75445281728E+03  0.12313525611E+04  0.25500000920E-02 0.  1.
</event>
<event>
 5   0  0.4735120E-07  0.2699148E+04  0.7818609E-02  0.8335281E-01
        2   -1    0    0  501    0  0.00000000000E+00  0.00000000000E+00  0.15094589964E+04  0.15094589964E+04  0.25500000920E-02 0. -1.
       -2   -1    0    0    0  501  0.00000000000E+00  0.00000000000E+00 -0.12066242531E+04  0.12066242531E+04  0.25500000920E-02 0.  1.
    10030    2    1    2    0    0  0.00000000000E+00  0.00000000000E+00  0.30283474337E+03  0.27160832495E+04  0.26991478908E+04 0.  0.
        2    1    3    3  502    0 -0.32975792001E+02  0.94569344650E+02  0.15057142457E+04  0.15090414685E+04  0.25500000920E-02 0. -1.
       -2    1    3    3    0  502  0.32975792001E+02 -0.94569344650E+02 -0.12028795024E+04  0.12070417810E+04  0.25500000920E-02 0.  1.
</event>
<event>
 5   0  0.1965415E-07  0.2700647E+04  0.7818609E-02  0.8334795E-01
       -1   -1    0    0    0  501  0.00000000000E+00  0.00000000000E+00  0.99707265257E+03  0.99707265258E+03  0.50400001928E-02 0.  1.
        1   -1    0    0  501    0  0.00000000000E+00  0.00000000000E+00 -0.18287265460E+04  0.18287265460E+04  0.50400001928E-02 0. -1.
    10030    2    1    2    0    0  0.00000000000E+00  0.00000000000E+00 -0.83165389340E+03  0.28257991986E+04  0.27006467581E+04 0.  0.
        4    1    3    3  502    0 -0.78893173900E+03  0.10858201945E+04 -0.57085803178E+03  0.14585264101E+04  0.12699999809E+01 0. -1.
       -4    1    3    3    0  502  0.78893173900E+03 -0.10858201945E+04 -0.26079586162E+03  0.13672727884E+04  0.12699999809E+01 0.  1.
</event>
<event>
 5   0  0.1971600E-07  0.2702645E+04  0.7818609E-02  0.8334147E-01
        1   -1    0    0  501    0  0.00000000000E+00  0.00000000000E+00  0.12836995723E+04  0.12836995723E+04  0.50400001928E-02 0. -1.
       -1   -1    0    0    0  501  0.00000000000E+00  0.00000000000E+00 -0.14225074553E+04  0.14225074553E+04  0.50400001928E-02 0.  1.
    10030    2    1    2    0    0  0.00000000000E+00  0.00000000000E+00 -0.13880788294E+03  0.27062070276E+04  0.27026447876E+04 0.  0.
        5    1    3    3  502    0 -0.10558178261E+04  0.54903762196E+03  0.57164026160E+03  0.13202228111E+04  0.46999998093E+01 0. -1.
       -5    1    3    3    0  502  0.10558178261E+04 -0.54903762196E+03 -0.71044814454E+03  0.13859842165E+04  0.46999998093E+01 0.  1.
</event>
<event>
 5   0  0.1964242E-07  0.2699912E+04  0.7818609E-02  0.8335034E-01
        1   -1    0    0  501    0  0.00000000000E+00  0.00000000000E+00  0.11975996373E+04  0.11975996373E+04  0.50400001928E-02 0.  1.
       -1   -1    0    0    0  501  0.00000000000E+00  0.00000000000E+00 -0.15216944124E+04  0.15216944124E+04  0.50400001928E-02 0. -1.
    10030    2    1    2    0    0  0.00000000000E+00  0.00000000000E+00 -0.32409477509E+03  0.27192940497E+04  0.26999116106E+04 0.  0.
        2    1    3    3  502    0 -0.11881276945E+04 -0.36134689716E+03 -0.69515022082E+03  0.14231840457E+04  0.25500000920E-02 0.  1.
       -2    1    3    3    0  502  0.11881276945E+04  0.36134689716E+03  0.37105544573E+03  0.12961100039E+04  0.25500000920E-02 0. -1.
</event>
<event>
 5   0  0.5043890E-07  0.2699761E+04  0.7818609E-02  0.8335083E-01
        2   -1    0    0  501    0  0.00000000000E+00  0.00000000000E+00  0.18706816579E+04  0.18706816579E+04  0.25500000920E-02 0.  1.
       -2   -1    0    0    0  501  0.00000000000E+00  0.00000000000E+00 -0.97407107252E+03  0.97407107252E+03  0.25500000920E-02 0. -1.
    10030    2    1    2    0    0  0.00000000000E+00  0.00000000000E+00  0.89661058540E+03  0.28447527304E+04  0.26997606478E+04 0.  0.
        3    1    3    3  502    0 -0.41707081996E+02  0.12192489313E+04 -0.16054090130E+03  0.12304799179E+04  0.10100000352E+00 0.  1.
       -3    1    3    3    0  502  0.41707081996E+02 -0.12192489313E+04  0.10571514867E+04  0.16142728125E+04  0.10100000352E+00 0. -1.
</event>
<event>
 5   0  0.1964242E-07  0.2700641E+04  0.7818609E-02  0.8334797E-01
       -1   -1    0    0    0  501  0.00000000000E+00  0.00000000000E+00  0.11516503288E+04  0.11516503288E+04  0.50400001928E-02 0.  1.
        1   -1    0    0  501    0  0.00000000000E+00  0.00000000000E+00 -0.15832635576E+04  0.15832635576E+04  0.50400001928E-02 0. -1.
    10030    2    1    2    0    0  0.00000000000E+00  0.00000000000E+00 -0.43161322882E+03  0.27349138865E+04  0.27006414029E+04 0.  0.
        2    1    3    3  502    0  0.13898993195E+03  0.11866406921E+04  0.42140964981E+03  0.12668940076E+04  0.25500000920E-02 0.  1.
       -2    1    3    3    0  502 -0.13898993195E+03 -0.11866406921E+04 -0.85302287863E+03  0.14680198789E+04  0.25500000920E-02 0. -1.
</event>
<event>
 5   0  0.1888149E-07  0.2701303E+04  0.7818609E-02  0.8334582E-01
       -1   -1    0    0    0  501  0.00000000000E+00  0.00000000000E+00  0.18418184675E+04  0.18418184675E+04  0.50400001928E-02 0.  1.
        1   -1    0    0  501    0  0.00000000000E+00  0.00000000000E+00 -0.99046656015E+03  0.99046656016E+03  0.50400001928E-02 0. -1.
    10030    2    1    2    0    0  0.00000000000E+00  0.00000000000E+00  0.85135190731E+03  0.28322850276E+04  0.27013030944E+04 0.  0.
        1    1    3    3  502    0  0.35872112910E+03  0.32440166542E+03  0.17479118627E+04  0.18135912353E+04  0.50400001928E-02 0.  1.
       -1    1    3    3    0  502 -0.35872112910E+03 -0.32440166542E+03 -0.89655995536E+03  0.10186937924E+04  0.50400001928E-02 0. -1.
</event>
<event>
 5   0  0.4992668E-07  0.2699725E+04  0.7818609E-02  0.8335094E-01
        2   -1    0    0  501    0  0.00000000000E+00  0.00000000000E+00  0.17334293303E+04  0.17334293303E+04  0.25500000920E-02 0. -1.
       -2   -1    0    0    0  501  0.00000000000E+00  0.00000000000E+00 -0.10511699084E+04  0.10511699085E+04  0.25500000920E-02 0.  1.
    10030    2    1    2    0    0  0.00000000000E+00  0.00000000000E+00  0.68225942184E+03  0.27845992387E+04  0.26997249863E+04 0.  0.
        1    1    3    3  502    0 -0.59349996605E+03 -0.11939647977E+04  0.12395233397E+03  0.13390886188E+04  0.50400001928E-02 0.  1.
       -1    1    3    3    0  502  0.59349996605E+03  0.11939647977E+04  0.55830708787E+03  0.14455106199E+04  0.50400001928E-02 0. -1.
</event>
<event>
 5   0  0.1641625E-07  0.2699397E+04  0.7818609E-02  0.8335201E-01
        3   -1    0    0  501    0  0.00000000000E+00  0.00000000000E+00  0.10592720671E+04  0.10592720719E+04  0.10100000352E+00 0.  1.
       -3   -1    0    0    0  501  0.00000000000E+00  0.00000000000E+00 -0.17197524023E+04  0.17197524053E+04  0.10100000352E+00 0. -1.
    10030    2    1    2    0    0  0.00000000000E+00  0.00000000000E+00 -0.66048033519E+03  0.27790244772E+04  0.26993967422E+04 0.  0.
        4    1    3    3  502    0 -0.13451069073E+04 -0.10894471405E+03 -0.30716155337E+03  0.13840272308E+04  0.12699999809E+01 0.  1.
       -4    1    3    3    0  502  0.13451069073E+04  0.10894471405E+03 -0.35331878182E+03  0.13949972464E+04  0.12699999809E+01 0. -1.
</event>
<event>
 5   0  0.1971600E-07  0.2700676E+04  0.7818609E-02  0.8334786E-01
        1   -1    0    0  501    0  0.00000000000E+00  0.00000000000E+00  0.16131328491E+04  0.16131328491E+04  0.50400001928E-02 0.  1.
       -1   -1    0    0    0  501  0.00000000000E+00  0.00000000000E+00 -0.11303549741E+04  0.11303549741E+04  0.50400001928E-02 0. -1.
    10030    2    1    2    0    0  0.00000000000E+00  0.00000000000E+00  0.48277787497E+03  0.27434878232E+04  0.27006760190E+04 0.  0.
        5    1    3    3  502    0  0.12711499207E+04  0.99282933126E+02  0.69308513604E+03  0.14512299327E+04  0.46999998093E+01 0. -1.
       -5    1    3    3    0  502 -0.12711499207E+04 -0.99282933126E+02 -0.21030726107E+03  0.12922578906E+04  0.46999998093E+01 0.  1.
</event>
<event>
 5   0  0.4735120E-07  0.2700550E+04  0.7818609E-02  0.8334826E-01
       -2   -1    0    0    0  501  0.00000000000E+00  0.00000000000E+00  0.14960698562E+04  0.14960698562E+04  0.25500000920E-02 0.  1.
        2   -1    0    0  501    0  0.00000000000E+00  0.00000000000E+00 -0.12186884828E+04  0.12186884828E+04  0.25500000920E-02 0. -1.
    10030    2    1    2    0    0  0.00000000000E+00  0.00000000000E+00  0.27738137340E+03  0.27147583389E+04  0.27005503906E+04 0.  0.
        2    1    3    3  502    0  0.26640564853E+03  0.13173678878E+04  0.83436204165E+01  0.13440609128E+04  0.25500000920E-02 0.  1.
       -2    1    3    3    0  502 -0.26640564853E+03 -0.13173678878E+04  0.26903775298E+03  0.13706974261E+04  0.25500000920E-02 0. -1.
</event>
<event>
 5   0  0.4735120E-07  0.2700258E+04  0.7818609E-02  0.8334921E-01
       -2   -1    0    0    0  501  0.00000000000E+00  0.00000000000E+00  0.84243556770E+03  0.84243556771E+03  0.25500000920E-02 0.  1.
        2   -1    0    0  501    0  0.00000000000E+00  0.00000000000E+00 -0.21637830383E+04  0.21637830383E+04  0.25500000920E-02 0. -1.
    10030    2    1    2    0    0  0.00000000000E+00  0.00000000000E+00 -0.13213474706E+04  0.30062186060E+04  0.27002576116E+04 0.  0.
        2    1    3    3  502    0  0.13456479451E+04  0.10320269223E+03 -0.70275331250E+03  0.15216048784E+04  0.25500000920E-02 0.  1.
       -2    1    3    3    0  502 -0.13456479451E+04 -0.10320269223E+03 -0.61859415805E+03  0.14846137276E+04  0.25500000920E-02 0. -1.
</event>
<event>
 5   0  0.1937896E-07  0.2700022E+04  0.7818609E-02  0.8334998E-01
       -1   -1    0    0    0  501  0.00000000000E+00  0.00000000000E+00  0.89119260120E+03  0.89119260121E+03  0.50400001928E-02 0.  1.
        1   -1    0    0  501    0  0.00000000000E+00  0.00000000000E+00 -0.20450463779E+04  0.20450463779E+04  0.50400001928E-02 0. -1.
    10030    2    1    2    0    0  0.00000000000E+00  0.00000000000E+00 -0.11538537767E+04  0.29362389791E+04  0.27000223711E+04 0.  0.
        3    1    3    3  502    0  0.98987264865E+02 -0.36309855453E+03  0.83299103912E+03  0.91406406798E+03  0.10100000352E+00 0.  1.
       -3    1    3    3    0  502 -0.98987264865E+02  0.36309855453E+03 -0.19868448158E+04  0.20221749111E+04  0.10100000352E+00 0. -1.
</event>
<event>
 5   0  0.4843887E-07  0.2699612E+04  0.7818609E-02  0.8335131E-01
        2   -1    0    0  501    0  0.00000000000E+00  0.00000000000E+00  0.18269785078E+04  0.18269785078E+04  0.25500000920E-02 0.  1.
       -2   -1    0    0    0  501  0.00000000000E+00  0.00000000000E+00 -0.99726230122E+03  0.99726230122E+03  0.25500000920E-02 0. -1.
    10030    2    1    2    0    0  0.00000000000E+00  0.00000000000E+00  0.82971620659E+03  0.28242408090E+04  0.26996124099E+04 0.  0.
        5    1    3    3  502    0 -0.57756810926E+03 -0.41762922150E+03  0.16140554406E+04  0.17644251593E+04  0.46999998093E+01 0.  1.
       -5    1    3    3    0  502  0.57756810926E+03  0.41762922150E+03 -0.78433923398E+03  0.10598156497E+04  0.46999998093E+01 0. -1.
</event>
<event>
 5   0  0.1965415E-07  0.2700510E+04  0.7818609E-02  0.8334839E-01
       -1   -1    0    0    0  501  0.00000000000E+00  0.00000000000E+00  0.13268850770E+04  0.13268850770E+04  0.50400001928E-02 0. -1.
        1   -1    0    0  501    0  0.00000000000E+00  0.00000000000E+00 -0.13740367967E+04  0.13740367967E+04  0.50400001928E-02 0.  1.
    10030    2    1    2    0    0  0.00000000000E+00  0.00000000000E+00 -0.47151719656E+02  0.27009218737E+04  0.27005102635E+04 0.  0.
        4    1    3    3  502    0 -0.80417115742E+03 -0.10243571508E+04 -0.38026516428E+03  0.13566878900E+04  0.12699999809E+01 0.  1.
       -4    1    3    3    0  502  0.80417115742E+03  0.10243571508E+04  0.33311344463E+03  0.13442339837E+04  0.12699999809E+01 0. -1.
</event>
<event>
 5   0  0.4735120E-07  0.2699763E+04  0.7818609E-02  0.8335082E-01
        2   -1    0    0  501    0  0.00000000000E+00  0.00000000000E+00  0.23130902291E+04  0.23130902291E+04  0.25500000920E-02 0.  1.
       -2   -1    0    0    0  501  0.00000000000E+00  0.00000000000E+00 -0.78776840810E+03  0.78776840810E+03  0.25500000920E-02 0. -1.
    10030    2    1    2    0    0  0.00000000000E+00  0.00000000000E+00  0.15253218210E+04  0.31008586372E+04  0.26997625137E+04 0.  0.
        2    1    3    3  502    0 -0.98541030845E+02 -0.34064009338E+03 -0.73331573046E+03  0.81455384630E+03  0.25500000920E-02 0. -1.
       -2    1    3    3    0  502  0.98541030845E+02  0.34064009338E+03  0.22586375514E+04  0.22863047909E+04  0.25500000920E-02 0.  1.
</event>
<event>
 5   0  0.1971600E-07  0.2700785E+04  0.7818609E-02  0.8334750E-01
        1   -1    0    0  501    0  0.00000000000E+00  0.00000000000E+00  0.11872045315E+04  0.11872045315E+04  0.50400001928E-02 0. -1.
       -1   -1    0    0    0  501  0.00000000000E+00  0.00000000000E+00 -0.15360112362E+04  0.15360112362E+04  0.50400001928E-02 0.  1.
    10030    2    1    2    0    0  0.00000000000E+00  0.00000000000E+00 -0.34880670470E+03  0.27232157678E+04  0.27007847009E+04 0.  0.
        5    1    3    3  502    0  0.23701297108E+03 -0.27921130621E+03 -0.14849689344E+04  0.15294734153E+04  0.46999998093E+01 0.  1.
       -5    1    3    3    0  502 -0.23701297108E+03  0.27921130621E+03  0.11361622297E+04  0.11937423525E+04  0.46999998093E+01 0. -1.
</event>
<event>
 5   0  0.1641625E-07  0.2698583E+04  0.7818609E-02  0.8335465E-01
        3   -1    0    0  501    0  0.00000000000E+00  0.00000000000E+00  0.12182444612E+04  0.12182444654E+04  0.10100000352E+00 0. -1.
       -3   -1    0    0    0  501  0.00000000000E+00  0.00000000000E+00 -0.14944349089E+04  0.14944349123E+04  0.10100000352E+00 0.  1.
    10030    2    1    2    0    0  0.00000000000E+00  0.00000000000E+00 -0.27619044772E+03  0.27126793777E+04  0.26985826360E+04 0.  0.
        4    1    3    3  502    0  0.46716785282E+03  0.48315783617E+02  0.11334255073E+04  0.12268802758E+04  0.12699999809E+01 0. -1.
       -4    1    3    3    0  502 -0.46716785282E+03 -0.48315783617E+02 -0.14096159550E+04  0.14857991019E+04  0.12699999809E+01 0.  1.
</event>
<event>
 5   0  0.1964242E-07  0.2699981E+04  0.7818609E-02  0.8335011E-01
        1   -1    0    0  501    0  0.00000000000E+00  0.00000000000E+00  0.14400312686E+04  0.14400312686E+04  0.50400001928E-02 0.  1.
       -1   -1    0    0    0  501  0.00000000000E+00  0.00000000000E+00 -0.12655799699E+04  0.12655799700E+04  0.50400001928E-02 0. -1.
    10030    2    1    2    0    0  0.00000000000E+00  0.00000000000E+00  0.17445129865E+03  0.27056112386E+04  0.26999812812E+04 0.  0.
        2    1    3    3  502    0 -0.53695818893E+03  0.31643527187E+03 -0.11127768402E+04  0.12754323479E+04  0.25500000920E-02 0. -1.
       -2    1    3    3    0  502  0.53695818893E+03 -0.31643527187E+03  0.12872281388E+04  0.14301788907E+04  0.25500000920E-02 0.  1.
</event>
<event>
 5   0  0.1971600E-07  0.2695101E+04  0.7818609E-02  0.8336596E-01
        1   -1    0    0  501    0  0.00000000000E+00  0.00000000000E+00  0.18969563310E+04  0.18969563310E+04  0.50400001928E-02 0. -1.
       -1   -1    0    0    0  501  0.00000000000E+00  0.00000000000E+00 -0.95726659367E+03  0.95726659368E+03  0.50400001928E-02 0.  1.
    10030    2    1    2    0    0  0.00000000000E+00  0.00000000000E+00  0.93968973734E+03  0.28542229247E+04  0.26951014269E+04 0.  0.
        5    1    3    3  502    0  0.61296466073E+03  0.10574464560E+03 -0.79612480673E+03  0.10103189612E+04  0.46999998093E+01 0.  1.
       -5    1    3    3    0  502 -0.61296466073E+03 -0.10574464560E+03  0.17358145441E+04  0.18439039635E+04  0.46999998093E+01 0. -1.
</event>
<event>
 5   0  0.4735120E-07  0.2697539E+04  0.7818609E-02  0.8335804E-01
        2   -1    0    0  501    0  0.00000000000E+00  0.00000000000E+00  0.14761683699E+04  0.14761683699E+04  0.25500000920E-02 0.  1.
       -2   -1    0    0    0  501  0.00000000000E+00  0.00000000000E+00 -0.12323655000E+04  0.12323655000E+04  0.25500000920E-02 0. -1.
    10030    2    1    2    0    0  0.00000000000E+00  0.00000000000E+00  0.24380286989E+03  0.27085338700E+04  0.26975388571E+04 0.  0.
        2    1    3    3  502    0 -0.42248951093E+03 -0.54821975775E+03  0.12842626463E+04  0.14588943876E+04  0.25500000920E-02 0.  1.
       -2    1    3    3    0  502  0.42248951093E+03  0.54821975775E+03 -0.10404597764E+04  0.12496394824E+04  0.25500000920E-02 0. -1.
</event>
<event>
 5   0  0.4735120E-07  0.2699613E+04  0.7818609E-02  0.8335131E-01
        2   -1    0    0  501    0  0.00000000000E+00  0.00000000000E+00  0.10464433825E+04  0.10464433826E+04  0.25500000920E-02 0. -1.
       -2   -1    0    0    0  501  0.00000000000E+00  0.00000000000E+00 -0.17411138827E+04  0.17411138827E+04  0.25500000920E-02 0.  1.
    10030    2    1    2    0    0  0.00000000000E+00  0.00000000000E+00 -0.69467050015E+03  0.27875572653E+04  0.26996126395E+04 0.  0.
        2    1    3    3  502    0 -0.11728321996E+04 -0.30702958769E+03 -0.96011067300E+03  0.15464847366E+04  0.25500000920E-02 0.  1.
       -2    1    3    3    0  502  0.11728321996E+04  0.30702958769E+03  0.26544017285E+03  0.12410725287E+04  0.25500000920E-02 0. -1.
</event>
<event>
 5   0  0.1965415E-07  0.2698377E+04  0.7818609E-02  0.8335532E-01
        1   -1    0    0  501    0  0.00000000000E+00  0.00000000000E+00  0.11298506626E+04  0.11298506626E+04  0.50400001928E-02 0.  1.
       -1   -1    0    0    0  501  0.00000000000E+00  0.00000000000E+00 -0.16111065188E+04  0.16111065188E+04  0.50400001928E-02 0. -1.
    10030    2    1    2    0    0  0.00000000000E+00  0.00000000000E+00 -0.48125585623E+03  0.27409571814E+04  0.26983771180E+04 0.  0.
        4    1    3    3  502    0 -0.12060005389E+04  0.31523351173E+03  0.28375330862E+03  0.12784080021E+04  0.12699999809E+01 0.  1.
       -4    1    3    3    0  502  0.12060005389E+04 -0.31523351173E+03 -0.76500916484E+03  0.14625491793E+04  0.12699999809E+01 0. -1.
</event>
<event>
 5   0  0.4983208E-07  0.2700018E+04  0.7818609E-02  0.8334999E-01
        2   -1    0    0  501    0  0.00000000000E+00  0.00000000000E+00  0.21778555767E+04  0.21778555767E+04  0.25500000920E-02 0. -1.
       -2   -1    0    0    0  501  0.00000000000E+00  0.00000000000E+00 -0.83684345633E+03  0.83684345634E+03  0.25500000920E-02 0.  1.
    10030    2    1    2    0    0  0.00000000000E+00  0.00000000000E+00  0.13410121203E+04  0.30146990330E+04  0.27000179171E+04 0.  0.
        4    1    3    3  502    0  0.11063990176E+04  0.40323913542E+01  0.15342173221E+04  0.18915494841E+04  0.12699999809E+01 0. -1.
       -4    1    3    3    0  502 -0.11063990176E+04 -0.40323913542E+01 -0.19320520178E+03  0.11231495489E+04  0.12699999809E+01 0.  1.
</event>
<event>
 5   0  0.1641625E-07  0.2699095E+04  0.7818609E-02  0.8335299E-01
        3   -1    0    0  501    0  0.00000000000E+00  0.00000000000E+00  0.19996066687E+04  0.19996066712E+04  0.10100000352E+00 0.  1.
       -3   -1    0    0    0  501  0.00000000000E+00  0.00000000000E+00 -0.91081833015E+03  0.91081833575E+03  0.10100000352E+00 0. -1.
    10030    2    1    2    0    0  0.00000000000E+00  0.00000000000E+00  0.10887883385E+04  0.29104250070E+04  0.26990949733E+04 0.  0.
        4    1    3    3  502    0 -0.17664096678E+03  0.69993785207E+03  0.17739179815E+04  0.19151766618E+04  0.12699999809E+01 0.  1.
       -4    1    3    3    0  502  0.17664096678E+03 -0.69993785207E+03 -0.68512964301E+03  0.99524834515E+03  0.12699999809E+01 0. -1.
</event>
<event>
 5   0  0.1937896E-07  0.2715450E+04  0.7818609E-02  0.8330009E-01
        1   -1    0    0  501    0  0.00000000000E+00  0.00000000000E+00  0.11093566134E+04  0.11093566134E+04  0.50400001928E-02 0.  1.
       -1   -1    0    0    0  501  0.00000000000E+00  0.00000000000E+00 -0.16616992072E+04  0.16616992072E+04  0.50400001928E-02 0. -1.
    10030    2    1    2    0    0  0.00000000000E+00  0.00000000000E+00 -0.55234259375E+03  0.27710558206E+04  0.27154498743E+04 0.  0.
        3    1    3    3  502    0 -0.12197929918E+04 -0.13050175085E+03 -0.86988526737E+03  0.15038703529E+04  0.10100000352E+00 0. -1.
       -3    1    3    3    0  502  0.12197929918E+04  0.13050175085E+03  0.31754267363E+03  0.12671854677E+04  0.10100000352E+00 0.  1.
</event>
<event>
 5   0  0.4735120E-07  0.2699235E+04  0.7818609E-02  0.8335253E-01
       -2   -1    0    0    0  501  0.00000000000E+00  0.00000000000E+00  0.10936254066E+04  0.10936254066E+04  0.25500000920E-02 0. -1.
        2   -1    0    0  501    0  0.00000000000E+00  0.00000000000E+00 -0.16655312672E+04  0.16655312672E+04  0.25500000920E-02 0.  1.
    10030    2    1    2    0    0  0.00000000000E+00  0.00000000000E+00 -0.57190586058E+03  0.27591566738E+04  0.26992349356E+04 0.  0.
        2    1    3    3  502    0  0.60613180676E+03  0.70892120931E+02  0.94453324638E+03  0.11245285739E+04  0.25500000920E-02 0. -1.
       -2    1    3    3    0  502 -0.60613180676E+03 -0.70892120931E+02 -0.15164391070E+04  0.16346280999E+04  0.25500000920E-02 0.  1.
</event>
<event>
 5   0  0.1888149E-07  0.2699818E+04  0.7818609E-02  0.8335064E-01
        1   -1    0    0  501    0  0.00000000000E+00  0.00000000000E+00  0.96740307083E+03  0.96740307084E+03  0.50400001928E-02 0.  1.
       -1   -1    0    0    0  501  0.00000000000E+00  0.00000000000E+00 -0.18836554123E+04  0.18836554123E+04  0.50400001928E-02 0. -1.
    10030    2    1    2    0    0  0.00000000000E+00  0.00000000000E+00 -0.91625234148E+03  0.28510584831E+04  0.26998177941E+04 0.  0.
        1    1    3    3  502    0 -0.38542488047E+03  0.42664424868E+03  0.83163404549E+03  0.10110355281E+04  0.50400001928E-02 0.  1.
       -1    1    3    3    0  502  0.38542488047E+03 -0.42664424868E+03 -0.17478863870E+04  0.18400229551E+04  0.50400001928E-02 0. -1.
</event>
<event>
 5   0  0.4735120E-07  0.2699027E+04  0.7818609E-02  0.8335321E-01
       -2   -1    0    0    0  501  0.00000000000E+00  0.00000000000E+00  0.11217508329E+04  0.11217508329E+04  0.25500000920E-02 0.  1.
        2   -1    0    0  501    0  0.00000000000E+00  0.00000000000E+00 -0.16235217869E+04  0.16235217869E+04  0.25500000920E-02 0. -1.
    10030    2    1    2    0    0  0.00000000000E+00  0.00000000000E+00 -0.50177095401E+03  0.27452726198E+04  0.26990271704E+04 0.  0.
        2    1    3    3  502    0 -0.47444271751E+03  0.12224031513E+04 -0.57544779458E+03  0.14319586309E+04  0.25500000920E-02 0. -1.
       -2    1    3    3    0  502  0.47444271751E+03 -0.12224031513E+04  0.73676840569E+02  0.13133139888E+04  0.25500000920E-02 0.  1.
</event>
<event>
 5   0  0.4735120E-07  0.2700433E+04  0.7818609E-02  0.8334864E-01
        2   -1    0    0  501    0  0.00000000000E+00  0.00000000000E+00  0.12595141607E+04  0.12595141607E+04  0.25500000920E-02 0. -1.
       -2   -1    0    0    0  501  0.00000000000E+00  0.00000000000E+00 -0.14474507229E+04  0.14474507229E+04  0.25500000920E-02 0.  1.
    10030    2    1    2    0    0  0.00000000000E+00  0.00000000000E+00 -0.18793656222E+03  0.27069648836E+04  0.27004330633E+04 0.  0.
        2    1    3    3  502    0  0.34395981822E+03  0.12027250003E+04 -0.60335970305E+03  0.13888479810E+04  0.25500000920E-02 0.  1.
       -2    1    3    3    0  502 -0.34395981822E+03 -0.12027250003E+04  0.41542314083E+03  0.13181169026E+04  0.25500000920E-02 0. -1.
</event>
<event>
 5   0  0.1937896E-07  0.2700439E+04  0.7818609E-02  0.8334863E-01
        1   -1    0    0  501    0  0.00000000000E+00  0.00000000000E+00  0.80966506071E+03  0.80966506073E+03  0.50400001928E-02 0. -1.
       -1   -1    0    0    0  501  0.00000000000E+00  0.00000000000E+00 -0.22516625787E+04  0.22516625787E+04  0.50400001928E-02 0.  1.
    10030    2    1    2    0    0  0.00000000000E+00  0.00000000000E+00 -0.14419975180E+04  0.30613276394E+04  0.27004388669E+04 0.  0.
        3    1    3    3  502    0 -0.11422956292E+04  0.30225246466E+03 -0.14616893650E+04  0.18795562419E+04  0.10100000352E+00 0.  1.
       -3    1    3    3    0  502  0.11422956292E+04 -0.30225246466E+03  0.19691847001E+02  0.11817713975E+04  0.10100000352E+00 0. -1.
</event>
<event>
 5   0  0.1888149E-07  0.2700512E+04  0.7818609E-02  0.8334839E-01
       -1   -1    0    0    0  501  0.00000000000E+00  0.00000000000E+00  0.94299082094E+03  0.94299082095E+03  0.50400001928E-02 0. -1.
        1   -1    0    0  501    0  0.00000000000E+00  0.00000000000E+00 -0.19334139563E+04  0.19334139563E+04  0.50400001928E-02 0.  1.
    10030    2    1    2    0    0  0.00000000000E+00  0.00000000000E+00 -0.99042313539E+03  0.28764047773E+04  0.27005122580E+04 0.  0.
        1    1    3    3  502    0 -0.82754781005E+03 -0.10660234824E+04 -0.54224862899E+03  0.14543985075E+04  0.50400001928E-02 0. -1.
       -1    1    3    3    0  502  0.82754781005E+03  0.10660234824E+04 -0.44817450640E+03  0.14220062698E+04  0.50400001928E-02 0.  1.
</event>
<event>
 5   0  0.1937896E-07  0.2699401E+04  0.7818609E-02  0.8335199E-01
       -1   -1    0    0    0  501  0.00000000000E+00  0.00000000000E+00  0.92328648773E+03  0.92328648774E+03  0.50400001928E-02 0. -1.
        1   -1    0    0  501    0  0.00000000000E+00  0.00000000000E+00 -0.19730514546E+04  0.19730514546E+04  0.50400001928E-02 0.  1.
    10030    2    1    2    0    0  0.00000000000E+00  0.00000000000E+00 -0.10497649669E+04  0.28963379424E+04  0.26994012282E+04 0.  0.
        3    1    3    3  502    0 -0.94182268198E+03 -0.95843269843E+03 -0.38887276418E+03  0.13988728458E+04  0.10100000352E+00 0. -1.
       -3    1    3    3    0  502  0.94182268198E+03  0.95843269843E+03 -0.66089220272E+03  0.14974650966E+04  0.10100000352E+00 0.  1.
</event>
<event>
 5   0  0.1641625E-07  0.2698543E+04  0.7818609E-02  0.8335478E-01
       -3   -1    0    0    0  501  0.00000000000E+00  0.00000000000E+00  0.20769242169E+04  0.20769242194E+04  0.10100000352E+00 0. -1.
        3   -1    0    0  501    0  0.00000000000E+00  0.00000000000E+00 -0.87655267249E+03  0.87655267831E+03  0.10100000352E+00 0.  1.
    10030    2    1    2    0    0  0.00000000000E+00  0.00000000000E+00  0.12003715444E+04  0.29534768977E+04  0.26985429292E+04 0.  0.
        5    1    3    3  502    0 -0.92990520984E+03  0.21022214848E+03 -0.44478720010E+03  0.10520336470E+04  0.46999998093E+01 0.  1.
       -5    1    3    3    0  502  0.92990520984E+03 -0.21022214848E+03  0.16451587445E+04  0.19014432507E+04  0.46999998093E+01 0. -1.
</event>
<event>
 5   0  0.1965415E-07  0.2698633E+04  0.7818609E-02  0.8335449E-01
        1   -1    0    0  501    0  0.00000000000E+00  0.00000000000E+00  0.16761190191E+04  0.16761190191E+04  0.50400001928E-02 0.  1.
       -1   -1    0    0    0  501  0.00000000000E+00  0.00000000000E+00 -0.10862323105E+04  0.10862323105E+04  0.50400001928E-02 0. -1.
    10030    2    1    2    0    0  0.00000000000E+00  0.00000000000E+00  0.58988670855E+03  0.27623513296E+04  0.26986327166E+04 0.  0.
        4    1    3    3  502    0 -0.93682710880E+03 -0.84326727211E+03  0.78788246413E+03  0.14864404173E+04  0.12699999809E+01 0. -1.
       -4    1    3    3    0  502  0.93682710880E+03  0.84326727211E+03 -0.19799575558E+03  0.12759109123E+04  0.12699999809E+01 0.  1.
</event>
<event>
 5   0  0.1965415E-07  0.2699130E+04  0.7818609E-02  0.8335287E-01
       -1   -1    0    0    0  501  0.00000000000E+00  0.00000000000E+00  0.14502959765E+04  0.14502959765E+04  0.50400001928E-02 0.  1.
        1   -1    0    0  501    0  0.00000000000E+00  0.00000000000E+00 -0.12558303542E+04  0.12558303542E+04  0.50400001928E-02 0. -1.
    10030    2    1    2    0    0  0.00000000000E+00  0.00000000000E+00  0.19446562235E+03  0.27061263307E+04  0.26991300153E+04 0.  0.
        4    1    3    3  502    0 -0.12087829846E+04 -0.57362853524E+03  0.27409328082E+03  0.13657725799E+04  0.12699999809E+01 0.  1.
       -4    1    3    3    0  502  0.12087829846E+04  0.57362853524E+03 -0.79627658475E+02  0.13403537508E+04  0.12699999809E+01 0. -1.
</event>
<event>
 5   0  0.4992668E-07  0.2699984E+04  0.7818609E-02  0.8335010E-01
       -2   -1    0    0    0  501  0.00000000000E+00  0.00000000000E+00  0.12102821345E+04  0.12102821345E+04  0.25500000920E-02 0. -1.
        2   -1    0    0  501    0  0.00000000000E+00  0.00000000000E+00 -0.15058292980E+04  0.15058292980E+04  0.25500000920E-02 0.  1.
    10030    2    1    2    0    0  0.00000000000E+00  0.00000000000E+00 -0.29554716348E+03  0.27161114325E+04  0.26999839236E+04 0.  0.
        1    1    3    3  502    0 -0.88175756557E+03  0.38710126400E+03  0.80399322423E+03  0.12544914897E+04  0.50400001928E-02 0. -1.
       -1    1    3    3    0  502  0.88175756557E+03 -0.38710126400E+03 -0.10995403877E+04  0.14616199428E+04  0.50400001928E-02 0.  1.
</event>
<event>
 5   0  0.5043890E-07  0.2698708E+04  0.7818609E-02  0.8335424E-01
        2   -1    0    0  501    0  0.00000000000E+00  0.00000000000E+00  0.20426396703E+04  0.20426396703E+04  0.25500000920E-02 0.  1.
       -2   -1    0    0    0  501  0.00000000000E+00  0.00000000000E+00 -0.89137414977E+03  0.89137414977E+03  0.25500000920E-02 0. -1.
    10030    2    1    2    0    0  0.00000000000E+00  0.00000000000E+00  0.11512655205E+04  0.29340138201E+04  0.26987079867E+04 0.  0.
        3    1    3    3  502    0  0.10951459749E+04 -0.68172511607E+03  0.10059498340E+04  0.16358572428E+04  0.10100000352E+00 0.  1.
       -3    1    3    3    0  502 -0.10951459749E+04  0.68172511607E+03  0.14531568655E+03  0.12981565773E+04  0.10100000352E+00 0. -1.
</event>
<event>
 5   0  0.1641625E-07  0.2700091E+04  0.7818609E-02  0.8334976E-01
       -3   -1    0    0    0  501  0.00000000000E+00  0.00000000000E+00  0.17014834593E+04  0.17014834623E+04  0.10100000352E+00 0.  1.
        3   -1    0    0  501    0  0.00000000000E+00  0.00000000000E+00 -0.10711960057E+04  0.10711960105E+04  0.10100000352E+00 0. -1.
    10030    2    1    2    0    0  0.00000000000E+00  0.00000000000E+00  0.63028745365E+03  0.27726794728E+04  0.27000905882E+04 0.  0.
        1    1    3    3  502    0  0.35484386032E+03  0.50774969099E+03 -0.91664547978E+03  0.11063285450E+04  0.50400001928E-02 0. -1.
       -1    1    3    3    0  502 -0.35484386032E+03 -0.50774969099E+03  0.15469329334E+04  0.16663509278E+04  0.50400001928E-02 0.  1.
</event>
<event>
 5   0  0.4735120E-07  0.2699150E+04  0.7818609E-02  0.8335281E-01
        2   -1    0    0  501    0  0.00000000000E+00  0.00000000000E+00  0.23118343684E+04  0.23118343684E+04  0.25500000920E-02 0.  1.
       -2   -1    0    0    0  501  0.00000000000E+00  0.00000000000E+00 -0.78783872531E+03  0.78783872531E+03  0.25500000920E-02 0. -1.
    10030    2    1    2    0    0  0.00000000000E+00  0.00000000000E+00  0.15239956431E+04  0.30996730937E+04  0.26991499713E+04 0.  0.
        2    1    3    3  502    0 -0.11217351025E+03 -0.20435684667E+02  0.23062932244E+04  0.23091099910E+04  0.25500000920E-02 0.  1.
       -2    1    3    3    0  502  0.11217351025E+03  0.20435684667E+02 -0.78229758132E+03  0.79056310270E+03  0.25500000920E-02 0. -1.
</event>
<event>
 5   0  0.4983208E-07  0.2702111E+04  0.7818609E-02  0.8334320E-01
       -2   -1    0    0    0  501  0.00000000000E+00  0.00000000000E+00  0.72221050891E+03  0.72221050892E+03  0.25500000920E-02 0. -1.
        2   -1    0    0  501    0  0.00000000000E+00  0.00000000000E+00 -0.25274502898E+04  0.25274502898E+04  0.25500000920E-02 0.  1.
    10030    2    1    2    0    0  0.00000000000E+00  0.00000000000E+00 -0.18052397809E+04  0.32496607987E+04  0.27021111451E+04 0.  0.
        4    1    3    3  502    0 -0.53514479359E+03 -0.31645612586E+03 -0.23451963071E+04  0.24262052184E+04  0.12699999809E+01 0.  1.
       -4    1    3    3    0  502  0.53514479359E+03  0.31645612586E+03  0.53995652624E+03  0.82345558036E+03  0.12699999809E+01 0. -1.
</event>
<event>
 5   0  0.1965415E-07  0.2698694E+04  0.7818609E-02  0.8335429E-01
       -1   -1    0    0    0  501  0.00000000000E+00  0.00000000000E+00  0.15672438212E+04  0.15672438212E+04  0.50400001928E-02 0.  1.
        1   -1    0    0  501    0  0.00000000000E+00  0.00000000000E+00 -0.11617451430E+04  0.11617451430E+04  0.50400001928E-02 0. -1.
    10030    2    1    2    0    0  0.00000000000E+00  0.00000000000E+00  0.40549867823E+03  0.27289889642E+04  0.26986944230E+04 0.  0.
        4    1    3    3  502    0  0.46310216351E+02  0.22800213866E+03 -0.11413086328E+04  0.11647817906E+04  0.12699999809E+01 0. -1.
       -4    1    3    3    0  502 -0.46310216351E+02 -0.22800213866E+03  0.15468073111E+04  0.15642071736E+04  0.12699999809E+01 0.  1.
</event>
<event>
 5   0  0.4843887E-07  0.2700846E+04  0.7818609E-02  0.8334731E-01
       -2   -1    0    0    0  501  0.00000000000E+00  0.00000000000E+00  0.12108359374E+04  0.12108359374E+04  0.25500000920E-02 0.  1.
        2   -1    0    0  501    0  0.00000000000E+00  0.00000000000E+00 -0.15061018069E+04  0.15061018069E+04  0.25500000920E-02 0. -1.
    10030    2    1    2    0    0  0.00000000000E+00  0.00000000000E+00 -0.29526586946E+03  0.27169377443E+04  0.27008459365E+04 0.  0.
        5    1    3    3  502    0  0.45738389995E+03  0.49471763544E+03  0.10296709197E+04  0.12305242231E+04  0.46999998093E+01 0.  1.
       -5    1    3    3    0  502 -0.45738389995E+03 -0.49471763544E+03 -0.13249367891E+04  0.14864135212E+04  0.46999998093E+01 0. -1.
</event>
<event>
 5   0  0.5043890E-07  0.2700291E+04  0.7818609E-02  0.8334911E-01
       -2   -1    0    0    0  501  0.00000000000E+00  0.00000000000E+00  0.17330016655E+04  0.17330016655E+04  0.25500000920E-02 0.  1.
        2   -1    0    0  501    0  0.00000000000E+00  0.00000000000E+00 -0.10518703247E+04  0.10518703247E+04  0.25500000920E-02 0. -1.
    10030    2    1    2    0    0  0.00000000000E+00  0.00000000000E+00  0.68113134080E+03  0.27848719901E+04  0.27002911136E+04 0.  0.
        3    1    3    3  502    0 -0.80315330351E+03  0.89311517190E+03  0.97646891291E+03  0.15479668883E+04  0.10100000352E+00 0.  1.
       -3    1    3    3    0  502  0.80315330351E+03 -0.89311517190E+03 -0.29533757212E+03  0.12369051018E+04  0.10100000352E+00 0. -1.
</event>
<event>
 5   0  0.1965415E-07  0.2700954E+04  0.7818609E-02  0.8334695E-01
       -1   -1    0    0    0  501  0.00000000000E+00  0.00000000000E+00  0.80822572167E+03  0.80822572169E+03  0.50400001928E-02 0. -1.
        1   -1    0    0  501    0  0.00000000000E+00  0.00000000000E+00 -0.22565331241E+04  0.22565331241E+04  0.50400001928E-02 0.  1.
    10030    2    1    2    0    0  0.00000000000E+00  0.00000000000E+00 -0.14483074024E+04  0.30647588457E+04  0.27009539890E+04 0.  0.
        4    1    3    3  502    0  0.10690968719E+04  0.15440918527E+03  0.19556270497E+03  0.10977507470E+04  0.12699999809E+01 0. -1.
       -4    1    3    3    0  502 -0.10690968719E+04 -0.15440918527E+03 -0.16438701074E+04  0.19670080988E+04  0.12699999809E+01 0.  1.
</event>
<event>
 5   0  0.1937896E-07  0.2699861E+04  0.7818609E-02  0.8335050E-01
        1   -1    0    0  501    0  0.00000000000E+00  0.00000000000E+00  0.10833448173E+04  0.10833448173E+04  0.50400001928E-02 0.  1.
       -1   -1    0    0    0  501  0.00000000000E+00  0.00000000000E+00 -0.16821165204E+04  0.16821165204E+04  0.50400001928E-02 0. -1.
    10030    2    1    2    0    0  0.00000000000E+00  0.00000000000E+00 -0.59877170312E+03  0.27654613378E+04  0.26998608961E+04 0.  0.
        3    1    3    3  502    0 -0.93886425900E+02  0.65035513266E+03 -0.15072477480E+04  0.16442543123E+04  0.10100000352E+00 0. -1.
       -3    1    3    3    0  502  0.93886425900E+02 -0.65035513266E+03  0.90847604488E+03  0.11212070254E+04  0.10100000352E+00 0.  1.
</event>
<event>
 5   0  0.4983208E-07  0.2698909E+04  0.7818609E-02  0.8335359E-01
        2   -1    0    0  501    0  0.00000000000E+00  0.00000000000E+00  0.16067819572E+04  0.16067819572E+04  0.25500000920E-02 0.  1.
       -2   -1    0    0    0  501  0.00000000000E+00  0.00000000000E+00 -0.11333381417E+04  0.11333381417E+04  0.25500000920E-02 0. -1.
    10030    2    1    2    0    0  0.00000000000E+00  0.00000000000E+00  0.47344381548E+03  0.27401200990E+04  0.26989088740E+04 0.  0.
        4    1    3    3  502    0 -0.10086380432E+03  0.10724598689E+03  0.15986032062E+04  0.16053688151E+04  0.12699999809E+01 0.  1.
       -4    1    3    3    0  502  0.10086380432E+03 -0.10724598689E+03 -0.11251593907E+04  0.11347512838E+04  0.12699999809E+01 0. -1.
</event>
<event>
 5   0  0.5043890E-07  0.2698155E+04  0.7818609E-02  0.8335604E-01
        2   -1    0    0  501    0  0.00000000000E+00  0.00000000000E+00  0.16871498283E+04  0.16871498283E+04  0.25500000920E-02 0.  1.
       -2   -1    0    0    0  501  0.00000000000E+00  0.00000000000E+00 -0.10787483213E+04  0.10787483213E+04  0.25500000920E-02 0. -1.
    10030    2    1    2    0    0  0.00000000000E+00  0.00000000000E+00  0.60840150693E+03  0.27658981496E+04  0.26981549586E+04 0.  0.
        3    1    3    3  502    0  0.54136602369E+03  0.58556321139E+03 -0.81125939197E+03  0.11375865934E+04  0.10100000352E+00 0. -1.
       -3    1    3    3    0  502 -0.54136602369E+03 -0.58556321139E+03  0.14196608989E+04  0.16283115562E+04  0.10100000352E+00 0.  1.
</event>
<event>
 5   0  0.4735120E-07  0.2700342E+04  0.7818609E-02  0.8334894E-01
        2   -1    0    0  501    0  0.00000000000E+00  0.00000000000E+00  0.10177357127E+04  0.10177357127E+04  0.25500000920E-02 0. -1.
       -2   -1    0    0    0  501  0.00000000000E+00  0.00000000000E+00 -0.17911937083E+04  0.17911937083E+04  0.25500000920E-02 0.  1.
    10030    2    1    2    0    0  0.00000000000E+00  0.00000000000E+00 -0.77345799563E+03  0.28089294210E+04  0.27003420563E+04 0.  0.
        2    1    3    3  502    0 -0.20393230601E+03 -0.11715156919E+04  0.27845770808E+03  0.12213009854E+04  0.25500000920E-02 0.  1.
       -2    1    3    3    0  502  0.20393230601E+03  0.11715156919E+04 -0.10519157037E+04  0.15876284356E+04  0.25500000920E-02 0. -1.
</event>
<event>
 5   0  0.4735120E-07  0.2700317E+04  0.7818609E-02  0.8334902E-01
       -2   -1    0    0    0  501  0.00000000000E+00  0.00000000000E+00  0.87248445139E+03  0.87248445139E+03  0.25500000920E-02 0.  1.
        2   -1    0    0  501    0  0.00000000000E+00  0.00000000000E+00 -0.20893533562E+04  0.20893533562E+04  0.25500000920E-02 0. -1.
    10030    2    1    2    0    0  0.00000000000E+00  0.00000000000E+00 -0.12168689048E+04  0.29618378076E+04  0.27003172530E+04 0.  0.
        2    1    3    3  502    0  0.11699314272E+03  0.48543175389E+03  0.76748570008E+03  0.91562311185E+03  0.25500000920E-02 0.  1.
       -2    1    3    3    0  502 -0.11699314272E+03 -0.48543175389E+03 -0.19843546049E+04  0.20462146958E+04  0.25500000920E-02 0. -1.
</event>
<event>
 5   0  0.4983208E-07  0.2699697E+04  0.7818609E-02  0.8335103E-01
       -2   -1    0    0    0  501  0.00000000000E+00  0.00000000000E+00  0.80055134082E+03  0.80055134082E+03  0.25500000920E-02 0. -1.
        2   -1    0    0  501    0  0.00000000000E+00  0.00000000000E+00 -0.22760456596E+04  0.22760456596E+04  0.25500000920E-02 0.  1.
    10030    2    1    2    0    0  0.00000000000E+00  0.00000000000E+00 -0.14754943188E+04  0.30765970005E+04  0.26996973198E+04 0.  0.
        4    1    3    3  502    0 -0.12614679862E+04 -0.47700611817E+03 -0.80274953876E+03  0.15694727624E+04  0.12699999809E+01 0. -1.
       -4    1    3    3    0  502  0.12614679862E+04  0.47700611817E+03 -0.67274478005E+03  0.15071242381E+04  0.12699999809E+01 0.  1.
</event>
<event>
 5   0  0.4843887E-07  0.2697719E+04  0.7818609E-02  0.8335745E-01
       -2   -1    0    0    0  501  0.00000000000E+00  0.00000000000E+00  0.18300088808E+04  0.18300088808E+04  0.25500000920E-02 0.  1.
        2   -1    0    0  501    0  0.00000000000E+00  0.00000000000E+00 -0.99421477060E+03  0.99421477061E+03  0.25500000920E-02 0. -1.
    10030    2    1    2    0    0  0.00000000000E+00  0.00000000000E+00  0.83579411021E+03  0.28242236514E+04  0.26977189325E+04 0.  0.
        5    1    3    3  502    0 -0.88391824473E+02 -0.13113590149E+04  0.10048947844E+03  0.13181789734E+04  0.46999998093E+01 0.  1.
       -5    1    3    3    0  502  0.88391824473E+02  0.13113590149E+04  0.73530463177E+03  0.15060446780E+04  0.46999998093E+01 0. -1.
</event>
<event>
 5   0  0.4843887E-07  0.2700074E+04  0.7818609E-02  0.8334981E-01
       -2   -1    0    0    0  501  0.00000000000E+00  0.00000000000E+00  0.95001228287E+03  0.95001228288E+03  0.25500000920E-02 0.  1.
        2   -1    0    0  501    0  0.00000000000E+00  0.00000000000E+00 -0.19185018351E+04  0.19185018351E+04  0.25500000920E-02 0. -1.
    10030    2    1    2    0    0  0.00000000000E+00  0.00000000000E+00 -0.96848955221E+03  0.28685141180E+04  0.27000743012E+04 0.  0.
        5    1    3    3  502    0  0.34491071378E+03 -0.51681315739E+03  0.78907346386E+03  0.10043496709E+04  0.46999998093E+01 0.  1.
       -5    1    3    3    0  502 -0.34491071378E+03  0.51681315739E+03 -0.17575630161E+04  0.18641644470E+04  0.46999998093E+01 0. -1.
</event>
<event>
 5   0  0.5043890E-07  0.2699287E+04  0.7818609E-02  0.8335236E-01
        2   -1    0    0  501    0  0.00000000000E+00  0.00000000000E+00  0.18776963649E+04  0.18776963649E+04  0.25500000920E-02 0.  1.
       -2   -1    0    0    0  501  0.00000000000E+00  0.00000000000E+00 -0.97009149830E+03  0.97009149831E+03  0.25500000920E-02 0. -1.
    10030    2    1    2    0    0  0.00000000000E+00  0.00000000000E+00  0.90760486657E+03  0.28477878632E+04  0.26992867798E+04 0.  0.
        3    1    3    3  502    0 -0.26210319565E+03 -0.10736240735E+04  0.12711296135E+04  0.16843803730E+04  0.10100000352E+00 0.  1.
       -3    1    3    3    0  502  0.26210319565E+03  0.10736240735E+04 -0.36352474690E+03  0.11634074902E+04  0.10100000352E+00 0. -1.
</event>
<event>
 5   0  0.1888149E-07  0.2700222E+04  0.7818609E-02  0.8334933E-01
       -1   -1    0    0    0  501  0.00000000000E+00  0.00000000000E+00  0.13872467435E+04  0.13872467435E+04  0.50400001928E-02 0. -1.
        1   -1    0    0  501    0  0.00000000000E+00  0.00000000000E+00 -0.13139694076E+04  0.13139694076E+04  0.50400001928E-02 0.  1.
    10030    2    1    2    0    0  0.00000000000E+00  0.00000000000E+00  0.73277335947E+02  0.27012161511E+04  0.27002220514E+04 0.  0.
        1    1    3    3  502    0  0.84734128597E+03 -0.14861679247E+03  0.10775627496E+04  0.13788457801E+04  0.50400001928E-02 0. -1.
       -1    1    3    3    0  502 -0.84734128597E+03  0.14861679247E+03 -0.10042854137E+04  0.13223703710E+04  0.50400001928E-02 0.  1.
</event>
<event>
 5   0  0.1888149E-07  0.2696796E+04  0.7818609E-02  0.8336045E-01
        1   -1    0    0  501    0  0.00000000000E+00  0.00000000000E+00  0.16693855323E+04  0.16693855323E+04  0.50400001928E-02 0. -1.
       -1   -1    0    0    0  501  0.00000000000E+00  0.00000000000E+00 -0.10891292315E+04  0.10891292315E+04  0.50400001928E-02 0.  1.
    10030    2    1    2    0    0  0.00000000000E+00  0.00000000000E+00  0.58025630079E+03  0.27585147639E+04  0.26967955666E+04 0.  0.
        1    1    3    3  502    0 -0.21959998940E+03 -0.17423109297E+03  0.16392509491E+04  0.16630466930E+04  0.50400001928E-02 0. -1.
       -1    1    3    3    0  502  0.21959998940E+03  0.17423109297E+03 -0.10589946483E+04  0.10954680708E+04  0.50400001928E-02 0.  1.
</event>
<event>
 5   0  0.4735120E-07  0.2700408E+04  0.7818609E-02  0.8334873E-01
       -2   -1    0    0    0  501  0.00000000000E+00  0.00000000000E+00  0.13574777078E+04  0.13574777078E+04  0.25500000920E-02 0. -1.
        2   -1    0    0  501    0  0.00000000000E+00  0.00000000000E+00 -0.13429693514E+04  0.13429693514E+04  0.25500000920E-02 0.  1.
    10030    2    1    2    0    0  0.00000000000E+00  0.00000000000E+00  0.14508356358E+02  0.27004470592E+04  0.27004080853E+04 0.  0.
        2    1    3    3  502    0 -0.71000931454E+03  0.65044945974E+03  0.95376307379E+03  0.13553087203E+04  0.25500000920E-02 0. -1.
       -2    1    3    3    0  502  0.71000931454E+03 -0.65044945974E+03 -0.93925471743E+03  0.13451383388E+04  0.25500000920E-02 0.  1.
</event>
<event>
 5   0  0.4983208E-07  0.2699802E+04  0.7818609E-02  0.8335069E-01
       -2   -1    0    0    0  501  0.00000000000E+00  0.00000000000E+00  0.10396810653E+04  0.10396810653E+04  0.25500000920E-02 0.  1.
        2   -1    0    0  501    0  0.00000000000E+00  0.00000000000E+00 -0.17526844120E+04  0.17526844120E+04  0.25500000920E-02 0. -1.
    10030    2    1    2    0    0  0.00000000000E+00  0.00000000000E+00 -0.71300334673E+03  0.27923654773E+04  0.26998020643E+04 0.  0.
        4    1    3    3  502    0  0.30895733025E+03  0.11439664621E+04  0.31228774965E+03  0.12254138688E+04  0.12699999809E+01 0.  1.
       -4    1    3    3    0  502 -0.30895733025E+03 -0.11439664621E+04 -0.10252910964E+04  0.15669516086E+04  0.12699999809E+01 0. -1.
</event>
<event>
 5   0  0.1971600E-07  0.2700916E+04  0.7818609E-02  0.8334708E-01
       -1   -1    0    0    0  501  0.00000000000E+00  0.00000000000E+00  0.89832575286E+03  0.89832575288E+03  0.50400001928E-02 0. -1.
        1   -1    0    0  501    0  0.00000000000E+00  0.00000000000E+00 -0.20301508908E+04  0.20301508908E+04  0.50400001928E-02 0.  1.
    10030    2    1    2    0    0  0.00000000000E+00  0.00000000000E+00 -0.11318251380E+04  0.29284766437E+04  0.27009160131E+04 0.  0.
        5    1    3    3  502    0  0.11155172966E+04 -0.83195176446E+02  0.25441249939E+03  0.11471913904E+04  0.46999998093E+01 0. -1.
       -5    1    3    3    0  502 -0.11155172966E+04  0.83195176446E+02 -0.13862376373E+04  0.17812852533E+04  0.46999998093E+01 0.  1.
</event>
<event>
 5   0  0.4992668E-07  0.2707370E+04  0.7818609E-02  0.8332618E-01
       -2   -1    0    0    0  501  0.00000000000E+00  0.00000000000E+00  0.12584657025E+04  0.12584657025E+04  0.25500000920E-02 0. -1.
        2   -1    0    0  501    0  0.00000000000E+00  0.00000000000E+00 -0.14561085035E+04  0.14561085035E+04  0.25500000920E-02 0.  1.
    10030    2    1    2    0    0  0.00000000000E+00  0.00000000000E+00 -0.19764280101E+03  0.27145742060E+04  0.27073696539E+04 0.  0.
        1    1    3    3  502    0 -0.15766352124E+03  0.10523032895E+04  0.74022239630E+03  0.12961979768E+04  0.50400001928E-02 0. -1.
       -1    1    3    3    0  502  0.15766352124E+03 -0.10523032895E+04 -0.93786519730E+03  0.14183762292E+04  0.50400001928E-02 0.  1.
</event>
<event>
 5   0  0.1971600E-07  0.2700113E+04  0.7818609E-02  0.8334968E-01
        1   -1    0    0  501    0  0.00000000000E+00  0.00000000000E+00  0.11468433898E+04  0.11468433898E+04  0.50400001928E-02 0.  1.
       -1   -1    0    0    0  501  0.00000000000E+00  0.00000000000E+00 -0.15892771072E+04  0.15892771072E+04  0.50400001928E-02 0. -1.
    10030    2    1    2    0    0  0.00000000000E+00  0.00000000000E+00 -0.44243371738E+03  0.27361204970E+04  0.27001125495E+04 0.  0.
        5    1    3    3  502    0 -0.90767154314E+03  0.61102824498E+03  0.58015598245E+03  0.12384773718E+04  0.46999998093E+01 0.  1.
       -5    1    3    3    0  502  0.90767154314E+03 -0.61102824498E+03 -0.10225896998E+04  0.14976431252E+04  0.46999998093E+01 0. -1.
</event>
<event>
 5   0  0.1965415E-07  0.2710447E+04  0.7818609E-02  0.8331623E-01
        1   -1    0    0  501    0  0.00000000000E+00  0.00000000000E+00  0.14211558533E+04  0.14211558534E+04  0.50400001928E-02 0.  1.
       -1   -1    0    0    0  501  0.00000000000E+00  0.00000000000E+00 -0.12923500529E+04  0.12923500529E+04  0.50400001928E-02 0. -1.
    10030    2    1    2    0    0  0.00000000000E+00  0.00000000000E+00  0.12880580046E+03  0.27135059062E+04  0.27104470792E+04 0.  0.
        4    1    3    3  502    0  0.11776267371E+04 -0.62550589525E+03 -0.17787614592E+03  0.13452523530E+04  0.12699999809E+01 0.  1.
       -4    1    3    3    0  502 -0.11776267371E+04  0.62550589525E+03  0.30668194638E+03  0.13682535533E+04  0.12699999809E+01 0. -1.
</event>
<event>
 5   0  0.1888149E-07  0.2708144E+04  0.7818609E-02  0.8332367E-01
        1   -1    0    0  501    0  0.00000000000E+00  0.00000000000E+00  0.11469308218E+04  0.11469308218E+04  0.50400001928E-02 0. -1.
       -1   -1    0    0    0  501  0.00000000000E+00  0.00000000000E+00 -0.15986238903E+04  0.15986238903E+04  0.50400001928E-02 0.  1.
    10030    2    1    2    0    0  0.00000000000E+00  0.00000000000E+00 -0.45169306843E+03  0.27455547121E+04  0.27081440230E+04 0.  0.
        1    1    3    3  502    0  0.53399129626E+03  0.28256278003E+03 -0.14544130096E+04  0.15748986099E+04  0.50400001928E-02 0.  1.
       -1    1    3    3    0  502 -0.53399129626E+03 -0.28256278003E+03  0.10027199412E+04  0.11706561022E+04  0.50400001928E-02 0. -1.
</event>
<event>
 5   0  0.1888149E-07  0.2700004E+04  0.7818609E-02  0.8335004E-01
       -1   -1    0    0    0  501  0.00000000000E+00  0.00000000000E+00  0.62400696887E+03  0.62400696889E+03  0.50400001928E-02 0.  1.
        1   -1    0    0  501    0  0.00000000000E+00  0.00000000000E+00 -0.29206498004E+04  0.29206498004E+04  0.50400001928E-02 0. -1.
    10030    2    1    2    0    0  0.00000000000E+00  0.00000000000E+00 -0.22966428316E+04  0.35446567693E+04  0.27000043179E+04 0.  0.
        1    1    3    3  502    0 -0.12407001020E+04 -0.31022580602E+03 -0.58071393264E+03  0.14045659348E+04  0.50400001928E-02 0.  1.
       -1    1    3    3    0  502  0.12407001020E+04  0.31022580602E+03 -0.17159288989E+04  0.21400908345E+04  0.50400001928E-02 0. -1.
</event>
<event>
 5   0  0.1888149E-07  0.2701962E+04  0.7818609E-02  0.8334369E-01
        1   -1    0    0  501    0  0.00000000000E+00  0.00000000000E+00  0.12940939821E+04  0.12940939821E+04  0.50400001928E-02 0. -1.
       -1   -1    0    0    0  501  0.00000000000E+00  0.00000000000E+00 -0.14103686161E+04  0.14103686161E+04  0.50400001928E-02 0.  1.
    10030    2    1    2    0    0  0.00000000000E+00  0.00000000000E+00 -0.11627463405E+03  0.27044625982E+04  0.27019619084E+04 0.  0.
        1    1    3    3  502    0 -0.29293322994E+03  0.11302171449E+04 -0.73843455946E+03  0.13814797394E+04  0.50400001928E-02 0.  1.
       -1    1    3    3    0  502  0.29293322994E+03 -0.11302171449E+04  0.62215992540E+03  0.13229828588E+04  0.50400001928E-02 0. -1.
</event>
<event>
 5   0  0.1964242E-07  0.2700576E+04  0.7818609E-02  0.8334818E-01
        1   -1    0    0  501    0  0.00000000000E+00  0.00000000000E+00  0.21950545371E+04  0.21950545371E+04  0.50400001928E-02 0. -1.
       -1   -1    0    0    0  501  0.00000000000E+00  0.00000000000E+00 -0.83063009410E+03  0.83063009411E+03  0.50400001928E-02 0.  1.
    10030    2    1    2    0    0  0.00000000000E+00  0.00000000000E+00  0.13644244430E+04  0.30256846312E+04  0.27005764990E+04 0.  0.
        2    1    3    3  502    0 -0.77985202293E+03 -0.39893926446E+03  0.18335167648E+04  0.20320200396E+04  0.25500000920E-02 0. -1.
       -2    1    3    3    0  502  0.77985202293E+03  0.39893926446E+03 -0.46909232177E+03  0.99366459168E+03  0.25500000920E-02 0.  1.
</event>
<event>
 5   0  0.1971600E-07  0.2700242E+04  0.7818609E-02  0.8334926E-01
       -1   -1    0    0    0  501  0.00000000000E+00  0.00000000000E+00  0.13188596400E+04  0.13188596400E+04  0.50400001928E-02 0. -1.
        1   -1    0    0  501    0  0.00000000000E+00  0.00000000000E+00 -0.13821238014E+04  0.13821238014E+04  0.50400001928E-02 0.  1.
    10030    2    1    2    0    0  0.00000000000E+00  0.00000000000E+00 -0.63264161438E+02  0.27009834415E+04  0.27002424330E+04 0.  0.
        5    1    3    3  502    0  0.59812594915E+03  0.88001618985E+03  0.79963271517E+03  0.13310213051E+04  0.46999998093E+01 0. -1.
       -5    1    3    3    0  502 -0.59812594915E+03 -0.88001618985E+03 -0.86289687661E+03  0.13699621364E+04  0.46999998093E+01 0.  1.
</event>
<event>
 5   0  0.5043890E-07  0.2699887E+04  0.7818609E-02  0.8335042E-01
       -2   -1    0    0    0  501  0.00000000000E+00  0.00000000000E+00  0.77483715117E+03  0.77483715117E+03  0.25500000920E-02 0. -1.
        2   -1    0    0  501    0  0.00000000000E+00  0.00000000000E+00 -0.23519099884E+04  0.23519099884E+04  0.25500000920E-02 0.  1.
    10030    2    1    2    0    0  0.00000000000E+00  0.00000000000E+00 -0.15770728373E+04  0.31267471396E+04  0.26998868385E+04 0.  0.
        3    1    3    3  502    0 -0.54606696356E+03  0.96099651351E+03  0.10900747743E+03  0.11106691983E+04  0.10100000352E+00 0. -1.
       -3    1    3    3    0  502  0.54606696356E+03 -0.96099651351E+03 -0.16860803147E+04  0.20160779413E+04  0.10100000352E+00 0.  1.
</event>
<event>
 5   0  0.1937896E-07  0.2699983E+04  0.7818609E-02  0.8335010E-01
        1   -1    0    0  501    0  0.00000000000E+00  0.00000000000E+00  0.17884126805E+04  0.17884126805E+04  0.50400001928E-02 0.  1.
       -1   -1    0    0    0  501  0.00000000000E+00  0.00000000000E+00 -0.10190472542E+04  0.10190472542E+04  0.50400001928E-02 0. -1.
    10030    2    1    2    0    0  0.00000000000E+00  0.00000000000E+00  0.76936542630E+03  0.28074599347E+04  0.26999829862E+04 0.  0.
        3    1    3    3  502    0  0.11018998660E+04  0.45421528224E+03  0.10439415233E+04  0.15843953900E+04  0.10100000352E+00 0.  1.
       -3    1    3    3    0  502 -0.11018998660E+04 -0.45421528224E+03 -0.27457609704E+03  0.12230645448E+04  0.10100000352E+00 0. -1.
</event>
<event>
 5   0  0.1964242E-07  0.2699489E+04  0.7818609E-02  0.8335171E-01
        1   -1    0    0  501    0  0.00000000000E+00  0.00000000000E+00  0.18905911018E+04  0.18905911018E+04  0.50400001928E-02 0. -1.
       -1   -1    0    0    0  501  0.00000000000E+00  0.00000000000E+00 -0.96361945757E+03  0.96361945758E+03  0.50400001928E-02 0.  1.
    10030    2    1    2    0    0  0.00000000000E+00  0.00000000000E+00  0.92697164421E+03  0.28542105594E+04  0.26994891161E+04 0.  0.
        2    1    3    3  502    0 -0.45093066166E+02 -0.35150351435E+03  0.18405234503E+04  0.18743304608E+04  0.25500000920E-02 0. -1.
       -2    1    3    3    0  502  0.45093066166E+02  0.35150351435E+03 -0.91355180606E+03  0.97988009858E+03  0.25500000920E-02 0.  1.
</event>
<event>
 5   0  0.4843887E-07  0.2699345E+04  0.7818609E-02  0.8335217E-01
       -2   -1    0    0    0  501  0.00000000000E+00  0.00000000000E+00  0.10035188095E+04  0.10035188096E+04  0.25500000920E-02 0.  1.
        2   -1    0    0  501    0  0.00000000000E+00  0.00000000000E+00 -0.18152285912E+04  0.18152285912E+04  0.25500000920E-02 0. -1.
    10030    2    1    2    0    0  0.00000000000E+00  0.00000000000E+00 -0.81170978160E+03  0.28187474007E+04  0.26993451316E+04 0.  0.
        5    1    3    3  502    0  0.14258701853E+03 -0.13420114400E+04 -0.42295553142E+03  0.14142981421E+04  0.46999998093E+01 0.  1.
       -5    1    3    3    0  502 -0.14258701853E+03  0.13420114400E+04 -0.38875425018E+03  0.14044492586E+04  0.46999998093E+01 0. -1.
</event>
<event>
 5   0  0.5043890E-07  0.2697945E+04  0.7818609E-02  0.8335672E-01
        2   -1    0    0  501    0  0.00000000000E+00  0.00000000000E+00  0.22362349067E+04  0.22362349067E+04  0.25500000920E-02 0.  1.
       -2   -1    0    0    0  501  0.00000000000E+00  0.00000000000E+00 -0.81374570708E+03  0.81374570708E+03  0.25500000920E-02 0. -1.
    10030    2    1    2    0    0  0.00000000000E+00  0.00000000000E+00  0.14224891996E+04  0.30499806138E+04  0.26979448144E+04 0.  0.
        3    1    3    3  502    0 -0.21491352614E+03 -0.57504384162E+03 -0.64668298493E+03  0.89166256886E+03  0.10100000352E+00 0. -1.
       -3    1    3    3    0  502  0.21491352614E+03  0.57504384162E+03  0.20691721845E+04  0.21583180449E+04  0.10100000352E+00 0.  1.
</event>
<event>
 5   0  0.1888149E-07  0.2700421E+04  0.7818609E-02  0.8334868E-01
       -1   -1    0    0    0  501  0.00000000000E+00  0.00000000000E+00  0.97659156729E+03  0.97659156730E+03  0.50400001928E-02 0.  1.
        1   -1    0    0  501    0  0.00000000000E+00  0.00000000000E+00 -0.18667667640E+04  0.18667667640E+04  0.50400001928E-02 0. -1.
    10030    2    1    2    0    0  0.00000000000E+00  0.00000000000E+00 -0.89017519668E+03  0.28433583313E+04  0.27004212114E+04 0.  0.
        1    1    3    3  502    0  0.75866355263E+02  0.21442278067E+03  0.95627505684E+03  0.98295209298E+03  0.50400001928E-02 0.  1.
       -1    1    3    3    0  502 -0.75866355263E+02 -0.21442278067E+03 -0.18464502535E+04  0.18604062383E+04  0.50400001928E-02 0. -1.
</event>
<event>
 5   0  0.4983208E-07  0.2699372E+04  0.7818609E-02  0.8335209E-01
        2   -1    0    0  501    0  0.00000000000E+00  0.00000000000E+00  0.97664015423E+03  0.97664015423E+03  0.25500000920E-02 0. -1.
       -2   -1    0    0    0  501  0.00000000000E+00  0.00000000000E+00 -0.18652231708E+04  0.18652231708E+04  0.25500000920E-02 0.  1.
    10030    2    1    2    0    0  0.00000000000E+00  0.00000000000E+00 -0.88858301656E+03  0.28418633250E+04  0.26993716641E+04 0.  0.
        4    1    3    3  502    0 -0.87958287380E+03  0.74245862417E+03  0.29771002602E+03  0.11889254447E+04  0.12699999809E+01 0. -1.
       -4    1    3    3    0  502  0.87958287380E+03 -0.74245862417E+03 -0.11862930426E+04  0.16529378803E+04  0.12699999809E+01 0.  1.
</event>
<event>
 5   0  0.4992668E-07  0.2698729E+04  0.7818609E-02  0.8335418E-01
        2   -1    0    0  501    0  0.00000000000E+00  0.00000000000E+00  0.14721410892E+04  0.14721410892E+04  0.25500000920E-02 0. -1.
       -2   -1    0    0    0  501  0.00000000000E+00  0.00000000000E+00 -0.12368271488E+04  0.12368271488E+04  0.25500000920E-02 0.  1.
    10030    2    1    2    0    0  0.00000000000E+00  0.00000000000E+00  0.23531394045E+03  0.27089682380E+04  0.26987286384E+04 0.  0.
        1    1    3    3  502    0 -0.28788982651E+03 -0.20810347821E+03 -0.11890489004E+04  0.12409773960E+04  0.50400001928E-02 0.  1.
       -1    1    3    3    0  502  0.28788982651E+03  0.20810347821E+03  0.14243628408E+04  0.14679908420E+04  0.50400001928E-02 0. -1.
</event>
<event>
 5   0  0.5043890E-07  0.2699993E+04  0.7818609E-02  0.8335007E-01
        2   -1    0    0  501    0  0.00000000000E+00  0.00000000000E+00  0.15632516297E+04  0.15632516297E+04  0.25500000920E-02 0.  1.
       -2   -1    0    0    0  501  0.00000000000E+00  0.00000000000E+00 -0.11658332537E+04  0.11658332537E+04  0.25500000920E-02 0. -1.
    10030    2    1    2    0    0  0.00000000000E+00  0.00000000000E+00  0.39741837600E+03  0.27290848834E+04  0.26999931362E+04 0.  0.
        3    1    3    3  502    0 -0.77724266710E+03  0.58251328745E+03 -0.74897654420E+03  0.12265373079E+04  0.10100000352E+00 0. -1.
       -3    1    3    3    0  502  0.77724266710E+03 -0.58251328745E+03  0.11463949202E+04  0.15025475756E+04  0.10100000352E+00 0.  1.
</event>
<event>
 5   0  0.1971600E-07  0.2698754E+04  0.7818609E-02  0.8335409E-01
       -1   -1    0    0    0  501  0.00000000000E+00  0.00000000000E+00  0.16190955583E+04  0.16190955583E+04  0.50400001928E-02 0. -1.
        1   -1    0    0  501    0  0.00000000000E+00  0.00000000000E+00 -0.11245896236E+04  0.11245896237E+04  0.50400001928E-02 0.  1.
    10030    2    1    2    0    0  0.00000000000E+00  0.00000000000E+00  0.49450593468E+03  0.27436851820E+04  0.26987538343E+04 0.  0.
        5    1    3    3  502    0  0.40439605961E+03 -0.24129694561E+03  0.15328358161E+04  0.16035486017E+04  0.46999998093E+01 0. -1.
       -5    1    3    3    0  502 -0.40439605961E+03  0.24129694561E+03 -0.10383298814E+04  0.11401365803E+04  0.46999998093E+01 0.  1.
</event>
<event>
 5   0  0.1964242E-07  0.2686022E+04  0.7818609E-02  0.8339555E-01
       -1   -1    0    0    0  501  0.00000000000E+00  0.00000000000E+00  0.66312523372E+03  0.66312523374E+03  0.50400001928E-02 0. -1.
        1   -1    0    0  501    0  0.00000000000E+00  0.00000000000E+00 -0.27199661645E+04  0.27199661645E+04  0.50400001928E-02 0.  1.
    10030    2    1    2    0    0  0.00000000000E+00  0.00000000000E+00 -0.20568409308E+04  0.33830913983E+04  0.26860217412E+04 0.  0.
        2    1    3    3  502    0 -0.90787583199E+03  0.58874554290E+03 -0.26475789064E+02  0.10823866259E+04  0.25500000920E-02 0. -1.
       -2    1    3    3    0  502  0.90787583199E+03 -0.58874554290E+03 -0.20303651417E+04  0.23007047723E+04  0.25500000920E-02 0.  1.
</event>
<event>
 5   0  0.1937896E-07  0.2700312E+04  0.7818609E-02  0.8334904E-01
        1   -1    0    0  501    0  0.00000000000E+00  0.00000000000E+00  0.18280147779E+04  0.18280147779E+04  0.50400001928E-02 0. -1.
       -1   -1    0    0    0  501  0.00000000000E+00  0.00000000000E+00 -0.99721338756E+03  0.99721338757E+03  0.50400001928E-02 0.  1.
    10030    2    1    2    0    0  0.00000000000E+00  0.00000000000E+00  0.83080139032E+03  0.28252281655E+04  0.27003116925E+04 0.  0.
        3    1    3    3  502    0 -0.72319757197E+03 -0.11283729217E+04  0.58629893586E+03  0.14628693144E+04  0.10100000352E+00 0. -1.
       -3    1    3    3    0  502  0.72319757197E+03  0.11283729217E+04  0.24450245446E+03  0.13623588511E+04  0.10100000352E+00 0.  1.
</event>
<event>
 5   0  0.4735120E-07  0.2712729E+04  0.7818609E-02  0.8330886E-01
       -2   -1    0    0    0  501  0.00000000000E+00  0.00000000000E+00  0.10016676289E+04  0.10016676289E+04  0.25500000920E-02 0.  1.
        2   -1    0    0  501    0  0.00000000000E+00  0.00000000000E+00 -0.18366624479E+04  0.18366624479E+04  0.25500000920E-02 0. -1.
    10030    2    1    2    0    0  0.00000000000E+00  0.00000000000E+00 -0.83499481907E+03  0.28383300768E+04  0.27127294883E+04 0.  0.
        2    1    3    3  502    0 -0.41746583599E+03 -0.11014073386E+04  0.28621215457E+03  0.12121440703E+04  0.25500000920E-02 0.  1.
       -2    1    3    3    0  502  0.41746583599E+03  0.11014073386E+04 -0.11212069736E+04  0.16261860064E+04  0.25500000920E-02 0. -1.
</event>
<event>
 5   0  0.4983208E-07  0.2700183E+04  0.7818609E-02  0.8334946E-01
        2   -1    0    0  501    0  0.00000000000E+00  0.00000000000E+00  0.17901630626E+04  0.17901630626E+04  0.25500000920E-02 0. -1.
       -2   -1    0    0    0  501  0.00000000000E+00  0.00000000000E+00 -0.10182016194E+04  0.10182016194E+04  0.25500000920E-02 0.  1.
    10030    2    1    2    0    0  0.00000000000E+00  0.00000000000E+00  0.77196144321E+03  0.28083646820E+04  0.27001829044E+04 0.  0.
        4    1    3    3  502    0  0.42795107063E+03  0.29291148144E+03 -0.91047809376E+03  0.10478125915E+04  0.12699999809E+01 0.  1.
       -4    1    3    3    0  502 -0.42795107063E+03 -0.29291148144E+03  0.16824395370E+04  0.17605520905E+04  0.12699999809E+01 0. -1.
</event>
<event>
 5   0  0.1964242E-07  0.2702874E+04  0.7818609E-02  0.8334073E-01
       -1   -1    0    0    0  501  0.00000000000E+00  0.00000000000E+00  0.75875142800E+03  0.75875142802E+03  0.50400001928E-02 0. -1.
        1   -1    0    0  501    0  0.00000000000E+00  0.00000000000E+00 -0.24070887788E+04  0.24070887788E+04  0.50400001928E-02 0.  1.
    10030    2    1    2    0    0  0.00000000000E+00  0.00000000000E+00 -0.16483373508E+04  0.31658402068E+04  0.27028740616E+04 0.  0.
        2    1    3    3  502    0  0.80402933364E+03  0.98212602985E+03 -0.28062689058E+03  0.12999177511E+04  0.25500000920E-02 0.  1.
       -2    1    3    3    0  502 -0.80402933364E+03 -0.98212602985E+03 -0.13677104602E+04  0.18659224557E+04  0.25500000920E-02 0. -1.
</event>
<event>
 5   0  0.1971600E-07  0.2699986E+04  0.7818609E-02  0.8335009E-01
        1   -1    0    0  501    0  0.00000000000E+00  0.00000000000E+00  0.16988300005E+04  0.16988300005E+04  0.50400001928E-02 0. -1.
       -1   -1    0    0    0  501  0.00000000000E+00  0.00000000000E+00 -0.10727862563E+04  0.10727862563E+04  0.50400001928E-02 0.  1.
    10030    2    1    2    0    0  0.00000000000E+00  0.00000000000E+00  0.62604374421E+03  0.27716162568E+04  0.26999862787E+04 0.  0.
        5    1    3    3  502    0 -0.38399167690E+03  0.12678322555E+04  0.57994161944E+03  0.14460991004E+04  0.46999998093E+01 0.  1.
       -5    1    3    3    0  502  0.38399167690E+03 -0.12678322555E+04  0.46102124765E+02  0.13255171564E+04  0.46999998093E+01 0. -1.
</event>
<event>
 5   0  0.1964242E-07  0.2700013E+04  0.7818609E-02  0.8335001E-01
        1   -1    0    0  501    0  0.00000000000E+00  0.00000000000E+00  0.91133398899E+03  0.91133398900E+03  0.50400001928E-02 0. -1.
       -1   -1    0    0    0  501  0.00000000000E+00  0.00000000000E+00 -0.19998347091E+04  0.19998347091E+04  0.50400001928E-02 0.  1.
    10030    2    1    2    0    0  0.00000000000E+00  0.00000000000E+00 -0.10885007201E+04  0.29111686981E+04  0.27000128465E+04 0.  0.
        2    1    3    3  502    0 -0.40152412776E+03 -0.12716231883E+04 -0.77110998423E+03  0.15404083115E+04  0.25500000920E-02 0.  1.
       -2    1    3    3    0  502  0.40152412776E+03  0.12716231883E+04 -0.31739073586E+03  0.13707603866E+04  0.25500000920E-02 0. -1.
</event>
<event>
 5   0  0.4735120E-07  0.2699798E+04  0.7818609E-02  0.8335070E-01
       -2   -1    0    0    0  501  0.00000000000E+00  0.00000000000E+00  0.17416900416E+04  0.17416900416E+04  0.25500000920E-02 0.  1.
        2   -1    0    0  501    0  0.00000000000E+00  0.00000000000E+00 -0.10462412420E+04  0.10462412420E+04  0.25500000920E-02 0. -1.
    10030    2    1    2    0    0  0.00000000000E+00  0.00000000000E+00  0.69544879958E+03  0.27879312836E+04  0.26997984756E+04 0.  0.
        2    1    3    3  502    0  0.84806755451E+02 -0.93262402463E+02  0.17355989541E+04  0.17401706213E+04  0.25500000920E-02 0.  1.
       -2    1    3    3    0  502 -0.84806755451E+02  0.93262402463E+02 -0.10401501546E+04  0.10477606623E+04  0.25500000920E-02 0. -1.
</event>
<event>
 5   0  0.5043890E-07  0.2699485E+04  0.7818609E-02  0.8335172E-01
       -2   -1    0    0    0  501  0.00000000000E+00  0.00000000000E+00  0.10401212983E+04  0.10401212983E+04  0.25500000920E-02 0.  1.
        2   -1    0    0  501    0  0.00000000000E+00  0.00000000000E+00 -0.17515311891E+04  0.17515311891E+04  0.25500000920E-02 0. -1.
    10030    2    1    2    0    0  0.00000000000E+00  0.00000000000E+00 -0.71140989080E+03  0.27916524874E+04  0.26994850579E+04 0.  0.
        3    1    3    3  502    0  0.80650660954E+03  0.72300341435E+03  0.47716067934E+03  0.11835831920E+04  0.10100000352E+00 0.  1.
       -3    1    3    3    0  502 -0.80650660954E+03 -0.72300341435E+03 -0.11885705701E+04  0.16080692954E+04  0.10100000352E+00 0. -1.
</event>
<event>
 5   0  0.4735120E-07  0.2700587E+04  0.7818609E-02  0.8334815E-01
        2   -1    0    0  501    0  0.00000000000E+00  0.00000000000E+00  0.93393747356E+03  0.93393747356E+03  0.25500000920E-02 0. -1.
       -2   -1    0    0    0  501  0.00000000000E+00  0.00000000000E+00 -0.19522637941E+04  0.19522637941E+04  0.25500000920E-02 0.  1.
    10030    2    1    2    0    0  0.00000000000E+00  0.00000000000E+00 -0.10183263205E+04  0.28862012677E+04  0.27005868367E+04 0.  0.
        2    1    3    3  502    0  0.13280506783E+03 -0.12822620172E+04 -0.93860062503E+03  0.15946172582E+04  0.25500000920E-02 0.  1.
       -2    1    3    3    0  502 -0.13280506783E+03  0.12822620172E+04 -0.79725695503E+02  0.12915840094E+04  0.25500000920E-02 0. -1.
</event>
<event>
 5   0  0.1937896E-07  0.2700035E+04  0.7818609E-02  0.8334994E-01
        1   -1    0    0  501    0  0.00000000000E+00  0.00000000000E+00  0.11225551394E+04  0.11225551394E+04  0.50400001928E-02 0.  1.
       -1   -1    0    0    0  501  0.00000000000E+00  0.00000000000E+00 -0.16235701951E+04  0.16235701951E+04  0.50400001928E-02 0. -1.
    10030    2    1    2    0    0  0.00000000000E+00  0.00000000000E+00 -0.50101505570E+03  0.27461253345E+04  0.27000348640E+04 0.  0.
        3    1    3    3  502    0  0.10876788931E+03 -0.89083237320E+03  0.77523917501E+03  0.11859209753E+04  0.10100000352E+00 0.  1.
       -3    1    3    3    0  502 -0.10876788931E+03  0.89083237320E+03 -0.12762542307E+04  0.15602043592E+04  0.10100000352E+00 0. -1.
</event>
<event>
 5   0  0.1971600E-07  0.2700628E+04  0.7818609E-02  0.8334801E-01
       -1   -1    0    0    0  501  0.00000000000E+00  0.00000000000E+00  0.17626258115E+04  0.17626258115E+04  0.50400001928E-02 0.  1.
        1   -1    0    0  501    0  0.00000000000E+00  0.00000000000E+00 -0.10344500087E+04  0.10344500087E+04  0.50400001928E-02 0. -1.
    10030    2    1    2    0    0  0.00000000000E+00  0.00000000000E+00  0.72817580285E+03  0.27970758202E+04  0.27006282869E+04 0.  0.
        5    1    3    3  502    0 -0.70965295602E+03  0.83970496985E+03  0.11760594410E+04  0.16099222506E+04  0.46999998093E+01 0.  1.
       -5    1    3    3    0  502  0.70965295602E+03 -0.83970496985E+03 -0.44788363815E+03  0.11871535695E+04  0.46999998093E+01 0. -1.
</event>
<event>
 5   0  0.4843887E-07  0.2699033E+04  0.7818609E-02  0.8335319E-01
        2   -1    0    0  501    0  0.00000000000E+00  0.00000000000E+00  0.13788029106E+04  0.13788029106E+04  0.25500000920E-02 0. -1.
       -2   -1    0    0    0  501  0.00000000000E+00  0.00000000000E+00 -0.13208519449E+04  0.13208519449E+04  0.25500000920E-02 0.  1.
    10030    2    1    2    0    0  0.00000000000E+00  0.00000000000E+00  0.57950965668E+02  0.26996548555E+04  0.26990327943E+04 0.  0.
        5    1    3    3  502    0 -0.12626740716E+04  0.46977733345E+03  0.10732527902E+03  0.13515092895E+04  0.46999998093E+01 0.  1.
       -5    1    3    3    0  502  0.12626740716E+04 -0.46977733345E+03 -0.49374313353E+02  0.13481455660E+04  0.46999998093E+01 0. -1.
</event>
<event>
 5   0  0.1971600E-07  0.2699698E+04  0.7818609E-02  0.8335103E-01
        1   -1    0    0  501    0  0.00000000000E+00  0.00000000000E+00  0.11933397856E+04  0.11933397856E+04  0.50400001928E-02 0. -1.
       -1   -1    0    0    0  501  0.00000000000E+00  0.00000000000E+00 -0.15268852608E+04  0.15268852608E+04  0.50400001928E-02 0.  1.
    10030    2    1    2    0    0  0.00000000000E+00  0.00000000000E+00 -0.33354547524E+03  0.27202250464E+04  0.26996984496E+04 0.  0.
        5    1    3    3  502    0 -0.11382253442E+04 -0.65990083611E+03  0.13725774703E+03  0.13228332574E+04  0.46999998093E+01 0. -1.
       -5    1    3    3    0  502  0.11382253442E+04  0.65990083611E+03 -0.47080322227E+03  0.13973917890E+04  0.46999998093E+01 0.  1.
</event>
<event>
 5   0  0.1964242E-07  0.2698022E+04  0.7818609E-02  0.8335647E-01
        1   -1    0    0  501    0  0.00000000000E+00  0.00000000000E+00  0.11324549376E+04  0.11324549376E+04  0.50400001928E-02 0.  1.
       -1   -1    0    0    0  501  0.00000000000E+00  0.00000000000E+00 -0.16069781090E+04  0.16069781090E+04  0.50400001928E-02 0. -1.
    10030    2    1    2    0    0  0.00000000000E+00  0.00000000000E+00 -0.47452317143E+03  0.27394330466E+04  0.26980217153E+04 0.  0.
        2    1    3    3  502    0 -0.85203837596E+03  0.65985765851E+03  0.58664171964E+03  0.12270004201E+04  0.25500000920E-02 0.  1.
       -2    1    3    3    0  502  0.85203837596E+03 -0.65985765851E+03 -0.10611648911E+04  0.15124326265E+04  0.25500000920E-02 0. -1.
</event>
<event>
 5   0  0.4843887E-07  0.2700221E+04  0.7818609E-02  0.8334933E-01
        2   -1    0    0  501    0  0.00000000000E+00  0.00000000000E+00  0.16265397860E+04  0.16265397860E+04  0.25500000920E-02 0. -1.
       -2   -1    0    0    0  501  0.00000000000E+00  0.00000000000E+00 -0.11206599214E+04  0.11206599214E+04  0.25500000920E-02 0.  1.
    10030    2    1    2    0    0  0.00000000000E+00  0.00000000000E+00  0.50587986463E+03  0.27471997074E+04  0.27002206937E+04 0.  0.
        5    1    3    3  502    0 -0.12304686353E+03 -0.12914307346E+04  0.63340059637E+03  0.14436593360E+04  0.46999998093E+01 0.  1.
       -5    1    3    3    0  502  0.12304686353E+03  0.12914307346E+04 -0.12752073173E+03  0.13035403714E+04  0.46999998093E+01 0. -1.
</event>
<event>
 5   0  0.1888149E-07  0.2700740E+04  0.7818609E-02  0.8334765E-01
       -1   -1    0    0    0  501  0.00000000000E+00  0.00000000000E+00  0.90117529699E+03  0.90117529700E+03  0.50400001928E-02 0.  1.
        1   -1    0    0  501    0  0.00000000000E+00  0.00000000000E+00 -0.20234675038E+04  0.20234675039E+04  0.50400001928E-02 0. -1.
    10030    2    1    2    0    0  0.00000000000E+00  0.00000000000E+00 -0.11222922069E+04  0.29246428009E+04  0.27007398459E+04 0.  0.
        1    1    3    3  502    0  0.72379423505E+03 -0.11395442908E+04 -0.59639698307E+03  0.14758484498E+04  0.50400001928E-02 0. -1.
       -1    1    3    3    0  502 -0.72379423505E+03  0.11395442908E+04 -0.52589522378E+03  0.14487943511E+04  0.50400001928E-02 0.  1.
</event>
<event>
 5   0  0.5043890E-07  0.2699969E+04  0.7818609E-02  0.8335015E-01
        2   -1    0    0  501    0  0.00000000000E+00  0.00000000000E+00  0.14119458683E+04  0.14119458683E+04  0.25500000920E-02 0. -1.
       -2   -1    0    0    0  501  0.00000000000E+00  0.00000000000E+00 -0.12907420547E+04  0.12907420547E+04  0.25500000920E-02 0.  1.
    10030    2    1    2    0    0  0.00000000000E+00  0.00000000000E+00  0.12120381364E+03  0.27026879230E+04  0.26999688229E+04 0.  0.
        3    1    3    3  502    0  0.10157884936E+04 -0.85373428897E+03  0.30938670921E+03  0.13625008792E+04  0.10100000352E+00 0. -1.
       -3    1    3    3    0  502 -0.10157884936E+04  0.85373428897E+03 -0.18818289557E+03  0.13401870438E+04  0.10100000352E+00 0.  1.
</event>
<event>
 5   0  0.4992668E-07  0.2699440E+04  0.7818609E-02  0.8335187E-01
        2   -1    0    0  501    0  0.00000000000E+00  0.00000000000E+00  0.14816426691E+04  0.14816426691E+04  0.25500000920E-02 0.  1.
       -2   -1    0    0    0  501  0.00000000000E+00  0.00000000000E+00 -0.12295431658E+04  0.12295431658E+04  0.25500000920E-02 0. -1.
    10030    2    1    2    0    0  0.00000000000E+00  0.00000000000E+00  0.25209950335E+03  0.27111858349E+04  0.26994396589E+04 0.  0.
        1    1    3    3  502    0  0.51468312501E+03 -0.97291323550E+03 -0.65855677472E+03  0.12826363119E+04  0.50400001928E-02 0. -1.
       -1    1    3    3    0  502 -0.51468312501E+03  0.97291323550E+03  0.91065627807E+03  0.14285495230E+04  0.50400001928E-02 0.  1.
</event>
<event>
 5   0  0.5043890E-07  0.2701276E+04  0.7818609E-02  0.8334591E-01
       -2   -1    0    0    0  501  0.00000000000E+00  0.00000000000E+00  0.97841037856E+03  0.97841037856E+03  0.25500000920E-02 0.  1.
        2   -1    0    0  501    0  0.00000000000E+00  0.00000000000E+00 -0.18644763346E+04  0.18644763346E+04  0.25500000920E-02 0. -1.
    10030    2    1    2    0    0  0.00000000000E+00  0.00000000000E+00 -0.88606595601E+03  0.28428867131E+04  0.27012759921E+04 0.  0.
        3    1    3    3  502    0 -0.74556630462E+03  0.57253738821E+03 -0.14636966314E+04  0.17395620180E+04  0.10100000352E+00 0. -1.
       -3    1    3    3    0  502  0.74556630462E+03 -0.57253738821E+03  0.57763067541E+03  0.11033246951E+04  0.10100000352E+00 0.  1.
</event>
<event>
 5   0  0.1964242E-07  0.2700403E+04  0.7818609E-02  0.8334874E-01
       -1   -1    0    0    0  501  0.00000000000E+00  0.00000000000E+00  0.12701430498E+04  0.12701430498E+04  0.50400001928E-02 0.  1.
        1   -1    0    0  501    0  0.00000000000E+00  0.00000000000E+00 -0.14353066270E+04  0.14353066270E+04  0.50400001928E-02 0. -1.
    10030    2    1    2    0    0  0.00000000000E+00  0.00000000000E+00 -0.16516357721E+03  0.27054496768E+04  0.27004034784E+04 0.  0.
        2    1    3    3  502    0  0.62407115819E+03 -0.32895797330E+03  0.10708151883E+04  0.12823117118E+04  0.25500000920E-02 0.  1.
       -2    1    3    3    0  502 -0.62407115819E+03  0.32895797330E+03 -0.12359787655E+04  0.14231379650E+04  0.25500000920E-02 0. -1.
</event>
<event>
 5   0  0.4983208E-07  0.2700212E+04  0.7818609E-02  0.8334936E-01
        2   -1    0    0  501    0  0.00000000000E+00  0.00000000000E+00  0.17885552209E+04  0.17885552209E+04  0.25500000920E-02 0. -1.
       -2   -1    0    0    0  501  0.00000000000E+00  0.00000000000E+00 -0.10191385294E+04  0.10191385294E+04  0.25500000920E-02 0.  1.
    10030    2    1    2    0    0  0.00000000000E+00  0.00000000000E+00  0.76941669151E+03  0.28076937504E+04  0.27002115011E+04 0.  0.
        4    1    3    3  502    0  0.28702992777E+03  0.22666148841E+03 -0.96664725608E+03  0.10335231687E+04  0.12699999809E+01 0.  1.
       -4    1    3    3    0  502 -0.28702992777E+03 -0.22666148841E+03  0.17360639476E+04  0.17741705816E+04  0.12699999809E+01 0. -1.
</event>
<event>
 5   0  0.1971600E-07  0.2702370E+04  0.7818609E-02  0.8334237E-01
       -1   -1    0    0    0  501  0.00000000000E+00  0.00000000000E+00  0.10515537428E+04  0.10515537428E+04  0.50400001928E-02 0.  1.
        1   -1    0    0  501    0  0.00000000000E+00  0.00000000000E+00 -0.17361931732E+04  0.17361931732E+04  0.50400001928E-02 0. -1.
    10030    2    1    2    0    0  0.00000000000E+00  0.00000000000E+00 -0.68463943036E+03  0.27877469161E+04  0.27023696487E+04 0.  0.
        5    1    3    3  502    0 -0.60803267077E+03 -0.78880369404E+03  0.59963492125E+03  0.11625399456E+04  0.46999998093E+01 0.  1.
       -5    1    3    3    0  502  0.60803267077E+03  0.78880369404E+03 -0.12842743516E+04  0.16252069704E+04  0.46999998093E+01 0. -1.
</event>
<event>
 5   0  0.1964242E-07  0.2699747E+04  0.7818609E-02  0.8335087E-01
       -1   -1    0    0    0  501  0.00000000000E+00  0.00000000000E+00  0.15078766922E+04  0.15078766922E+04  0.50400001928E-02 0. -1.
        1   -1    0    0  501    0  0.00000000000E+00  0.00000000000E+00 -0.12084266611E+04  0.12084266612E+04  0.50400001928E-02 0.  1.
    10030    2    1    2    0    0  0.00000000000E+00  0.00000000000E+00  0.29945003102E+03  0.27163033533E+04  0.26997469486E+04 0.  0.
        2    1    3    3  502    0  0.32553694914E+03  0.90663994504E+03 -0.80168923935E+03  0.12532661057E+04  0.25500000920E-02 0.  1.
       -2    1    3    3    0  502 -0.32553694914E+03 -0.90663994504E+03  0.11011392704E+04  0.14630372476E+04  0.25500000920E-02 0. -1.
</event>
<event>
 5   0  0.1964242E-07  0.2700178E+04  0.7818609E-02  0.8334947E-01
       -1   -1    0    0    0  501  0.00000000000E+00  0.00000000000E+00  0.14154789738E+04  0.14154789738E+04  0.50400001928E-02 0. -1.
        1   -1    0    0  501    0  0.00000000000E+00  0.00000000000E+00 -0.12877201545E+04  0.12877201545E+04  0.50400001928E-02 0.  1.
    10030    2    1    2    0    0  0.00000000000E+00  0.00000000000E+00  0.12775881929E+03  0.27031991283E+04  0.27001783666E+04 0.  0.
        2    1    3    3  502    0  0.11334133388E+04  0.56098258350E+03 -0.40931579785E+03  0.13292353734E+04  0.25500000920E-02 0.  1.
       -2    1    3    3    0  502 -0.11334133388E+04 -0.56098258350E+03  0.53707461714E+03  0.13739637549E+04  0.25500000920E-02 0. -1.
</event>
<event>
 5   0  0.1937896E-07  0.2700052E+04  0.7818609E-02  0.8334988E-01
        1   -1    0    0  501    0  0.00000000000E+00  0.00000000000E+00  0.96846831412E+03  0.96846831414E+03  0.50400001928E-02 0. -1.
       -1   -1    0    0    0  501  0.00000000000E+00  0.00000000000E+00 -0.18819106796E+04  0.18819106796E+04  0.50400001928E-02 0.  1.
    10030    2    1    2    0    0  0.00000000000E+00  0.00000000000E+00 -0.91344236549E+03  0.28503789938E+04  0.27000524908E+04 0.  0.
        3    1    3    3  502    0 -0.69802427819E+03 -0.41659113961E+03  0.68115037877E+03  0.10605432189E+04  0.10100000352E+00 0. -1.
       -3    1    3    3    0  502  0.69802427819E+03  0.41659113961E+03 -0.15945927443E+04  0.17898357748E+04  0.10100000352E+00 0.  1.
</event>
<event>
 5   0  0.1971600E-07  0.2699671E+04  0.7818609E-02  0.8335112E-01
       -1   -1    0    0    0  501  0.00000000000E+00  0.00000000000E+00  0.79859594806E+03  0.79859594807E+03  0.50400001928E-02 0.  1.
        1   -1    0    0  501    0  0.00000000000E+00  0.00000000000E+00 -0.22815745694E+04  0.22815745694E+04  0.50400001928E-02 0. -1.
    10030    2    1    2    0    0  0.00000000000E+00  0.00000000000E+00 -0.14829786213E+04  0.30801705175E+04  0.26996712439E+04 0.  0.
        5    1    3    3  502    0  0.93059869863E+03  0.13674494453E+03  0.36311835373E+03  0.10082609516E+04  0.46999998093E+01 0.  1.
       -5    1    3    3    0  502 -0.93059869863E+03 -0.13674494453E+03 -0.18460969750E+04  0.20719095658E+04  0.46999998093E+01 0. -1.
</event>
<event>
 5   0  0.4843887E-07  0.2692949E+04  0.7818609E-02  0.8337296E-01
       -2   -1    0    0    0  501  0.00000000000E+00  0.00000000000E+00  0.18065165914E+04  0.18065165914E+04  0.25500000920E-02 0. -1.
        2   -1    0    0  501    0  0.00000000000E+00  0.00000000000E+00 -0.10035852495E+04  0.10035852495E+04  0.25500000920E-02 0.  1.
    10030    2    1    2    0    0  0.00000000000E+00  0.00000000000E+00  0.80293134193E+03  0.28101018410E+04  0.26929488701E+04 0.  0.
        5    1    3    3  502    0  0.12606134299E+03  0.69834874987E+03 -0.79260017185E+03  0.10638700866E+04  0.46999998093E+01 0.  1.
       -5    1    3    3    0  502 -0.12606134299E+03 -0.69834874987E+03  0.15955315138E+04  0.17462317544E+04  0.46999998093E+01 0. -1.
</event>
<event>
 5   0  0.1937896E-07  0.2700200E+04  0.7818609E-02  0.8334940E-01
       -1   -1    0    0    0  501  0.00000000000E+00  0.00000000000E+00  0.96982331043E+03  0.96982331044E+03  0.50400001928E-02 0. -1.
        1   -1    0    0  501    0  0.00000000000E+00  0.00000000000E+00 -0.18794864727E+04  0.18794864727E+04  0.50400001928E-02 0.  1.
    10030    2    1    2    0    0  0.00000000000E+00  0.00000000000E+00 -0.90966316229E+03  0.28493097832E+04  0.27001998392E+04 0.  0.
        3    1    3    3  502    0  0.32752326681E+03  0.10011788194E+04  0.43627763733E+03  0.11401617015E+04  0.10100000352E+00 0. -1.
       -3    1    3    3    0  502 -0.32752326681E+03 -0.10011788194E+04 -0.13459407996E+04  0.17091480816E+04  0.10100000352E+00 0.  1.
</event>
<event>
 5   0  0.1971600E-07  0.2700000E+04  0.7818609E-02  0.8335005E-01
       -1   -1    0    0    0  501  0.00000000000E+00  0.00000000000E+00  0.10343683245E+04  0.10343683245E+04  0.50400001928E-02 0.  1.
        1   -1    0    0  501    0  0.00000000000E+00  0.00000000000E+00 -0.17619443157E+04  0.17619443158E+04  0.50400001928E-02 0. -1.
    10030    2    1    2    0    0  0.00000000000E+00  0.00000000000E+00 -0.72757599123E+03  0.27963126403E+04  0.26999995480E+04 0.  0.
        5    1    3    3  502    0 -0.48294965205E+02  0.12922593187E+03 -0.17546164022E+04  0.17600376570E+04  0.46999998093E+01 0. -1.
       -5    1    3    3    0  502  0.48294965205E+02 -0.12922593187E+03  0.10270404110E+04  0.10362749833E+04  0.46999998093E+01 0.  1.
</event>
<event>
 5   0  0.1965415E-07  0.2700133E+04  0.7818609E-02  0.8334962E-01
       -1   -1    0    0    0  501  0.00000000000E+00  0.00000000000E+00  0.97176339389E+03  0.97176339390E+03  0.50400001928E-02 0.  1.
        1   -1    0    0  501    0  0.00000000000E+00  0.00000000000E+00 -0.18756407364E+04  0.18756407364E+04  0.50400001928E-02 0. -1.
    10030    2    1    2    0    0  0.00000000000E+00  0.00000000000E+00 -0.90387734247E+03  0.28474041303E+04  0.27001325950E+04 0.  0.
        4    1    3    3  502    0  0.11007396643E+04 -0.32308590226E+03  0.29868889298E+03  0.11854235431E+04  0.12699999809E+01 0.  1.
       -4    1    3    3    0  502 -0.11007396643E+04  0.32308590226E+03 -0.12025662354E+04  0.16619805872E+04  0.12699999809E+01 0. -1.
</event>
<event>
 5   0  0.1964242E-07  0.2700015E+04  0.7818609E-02  0.8335000E-01
       -1   -1    0    0    0  501  0.00000000000E+00  0.00000000000E+00  0.11099949757E+04  0.11099949758E+04  0.50400001928E-02 0.  1.
        1   -1    0    0  501    0  0.00000000000E+00  0.00000000000E+00 -0.16419170980E+04  0.16419170980E+04  0.50400001928E-02 0. -1.
    10030    2    1    2    0    0  0.00000000000E+00  0.00000000000E+00 -0.53192212226E+03  0.27519120738E+04  0.27000146143E+04 0.  0.
        2    1    3    3  502    0  0.15096430308E+02  0.58545924107E+03  0.97377782738E+03  0.11363246377E+04  0.25500000920E-02 0.  1.
       -2    1    3    3    0  502 -0.15096430308E+02 -0.58545924107E+03 -0.15056999496E+04  0.16155874360E+04  0.25500000920E-02 0. -1.
</event>
<event>
 5   0  0.4735120E-07  0.2698954E+04  0.7818609E-02  0.8335344E-01
       -2   -1    0    0    0  501  0.00000000000E+00  0.00000000000E+00  0.11634890617E+04  0.11634890617E+04  0.25500000920E-02 0.  1.
        2   -1    0    0  501    0  0.00000000000E+00  0.00000000000E+00 -0.15651962907E+04  0.15651962907E+04  0.25500000920E-02 0. -1.
    10030    2    1    2    0    0  0.00000000000E+00  0.00000000000E+00 -0.40170722900E+03  0.27286853525E+04  0.26989544374E+04 0.  0.
        2    1    3    3  502    0 -0.11326768037E+04 -0.66892841146E+03  0.10357260635E+03  0.13195261445E+04  0.25500000920E-02 0.  1.
       -2    1    3    3    0  502  0.11326768037E+04  0.66892841146E+03 -0.50527983534E+03  0.14091592079E+04  0.25500000920E-02 0. -1.
</event>
<event>
 5   0  0.5043890E-07  0.2700321E+04  0.7818609E-02  0.8334901E-01
       -2   -1    0    0    0  501  0.00000000000E+00  0.00000000000E+00  0.85752066213E+03  0.85752066213E+03  0.25500000920E-02 0. -1.
        2   -1    0    0  501    0  0.00000000000E+00  0.00000000000E+00 -0.21258192514E+04  0.21258192514E+04  0.25500000920E-02 0.  1.
    10030    2    1    2    0    0  0.00000000000E+00  0.00000000000E+00 -0.12682985893E+04  0.29833399135E+04  0.27003214120E+04 0.  0.
        3    1    3    3  502    0  0.60677027370E+03  0.15199431389E+03  0.68777763286E+03  0.92968302070E+03  0.10100000352E+00 0. -1.
       -3    1    3    3    0  502 -0.60677027370E+03 -0.15199431389E+03 -0.19560762221E+04  0.20536568929E+04  0.10100000352E+00 0.  1.
</event>
<event>
 5   0  0.4983208E-07  0.2700419E+04  0.7818609E-02  0.8334869E-01
        2   -1    0    0  501    0  0.00000000000E+00  0.00000000000E+00  0.11110996880E+04  0.11110996880E+04  0.25500000920E-02 0.  1.
       -2   -1    0    0    0  501  0.00000000000E+00  0.00000000000E+00 -0.16407757301E+04  0.16407757301E+04  0.25500000920E-02 0. -1.
    10030    2    1    2    0    0  0.00000000000E+00  0.00000000000E+00 -0.52967604210E+03  0.27518754181E+04  0.27004187836E+04 0.  0.
        4    1    3    3  502    0  0.95466779305E+03  0.30101081591E+03 -0.11882310655E+04  0.15536707452E+04  0.12699999809E+01 0. -1.
       -4    1    3    3    0  502 -0.95466779305E+03 -0.30101081591E+03  0.65855502341E+03  0.11982046729E+04  0.12699999809E+01 0.  1.
</event>
<event>
 5   0  0.1971600E-07  0.2699109E+04  0.7818609E-02  0.8335294E-01
       -1   -1    0    0    0  501  0.00000000000E+00  0.00000000000E+00  0.79777824058E+03  0.79777824060E+03  0.50400001928E-02 0. -1.
        1   -1    0    0  501    0  0.00000000000E+00  0.00000000000E+00 -0.22829611859E+04  0.22829611859E+04  0.50400001928E-02 0.  1.
    10030    2    1    2    0    0  0.00000000000E+00  0.00000000000E+00 -0.14851829453E+04  0.30807394265E+04  0.26991085626E+04 0.  0.
        5    1    3    3  502    0 -0.60565430530E+03 -0.11972932974E+04 -0.90778315572E+03  0.16200063967E+04  0.46999998093E+01 0.  1.
       -5    1    3    3    0  502  0.60565430530E+03  0.11972932974E+04 -0.57739978959E+03  0.14607330298E+04  0.46999998093E+01 0. -1.
</event>
<event>
 5   0  0.4992668E-07  0.2696153E+04  0.7818609E-02  0.8336254E-01
        2   -1    0    0  501    0  0.00000000000E+00  0.00000000000E+00  0.15459984572E+04  0.15459984572E+04  0.25500000920E-02 0. -1.
       -2   -1    0    0    0  501  0.00000000000E+00  0.00000000000E+00 -0.11754931630E+04  0.11754931630E+04  0.25500000920E-02 0.  1.
    10030    2    1    2    0    0  0.00000000000E+00  0.00000000000E+00  0.37050529420E+03  0.27214916202E+04  0.26961532719E+04 0.  0.
        1    1    3    3  502    0 -0.16376352490E+03 -0.11987372311E+04 -0.41491162743E+03  0.12790391315E+04  0.50400001928E-02 0.  1.
       -1    1    3    3    0  502  0.16376352490E+03  0.11987372311E+04  0.78541692163E+03  0.14424524887E+04  0.50400001928E-02 0. -1.
</event>
<event>
 5   0  0.4843887E-07  0.2699910E+04  0.7818609E-02  0.8335034E-01
       -2   -1    0    0    0  501  0.00000000000E+00  0.00000000000E+00  0.10898281432E+04  0.10898281432E+04  0.25500000920E-02 0. -1.
        2   -1    0    0  501    0  0.00000000000E+00  0.00000000000E+00 -0.16721706992E+04  0.16721706992E+04  0.25500000920E-02 0.  1.
    10030    2    1    2    0    0  0.00000000000E+00  0.00000000000E+00 -0.58234255603E+03  0.27619988424E+04  0.26999101379E+04 0.  0.
        5    1    3    3  502    0 -0.78618950116E+02  0.11663419388E+04 -0.98184334302E+03  0.15266213996E+04  0.46999998093E+01 0.  1.
       -5    1    3    3    0  502  0.78618950116E+02 -0.11663419388E+04  0.39950078699E+03  0.12353774428E+04  0.46999998093E+01 0. -1.
</event>
<event>
 5   0  0.1965415E-07  0.2699246E+04  0.7818609E-02  0.8335250E-01
       -1   -1    0    0    0  501  0.00000000000E+00  0.00000000000E+00  0.10597177036E+04  0.10597177036E+04  0.50400001928E-02 0.  1.
        1   -1    0    0  501    0  0.00000000000E+00  0.00000000000E+00 -0.17188377398E+04  0.17188377398E+04  0.50400001928E-02 0. -1.
    10030    2    1    2    0    0  0.00000000000E+00  0.00000000000E+00 -0.65912003619E+03  0.27785554434E+04  0.26992464004E+04 0.  0.
        4    1    3    3  502    0 -0.97815022434E+03 -0.65892365108E+03 -0.10049812056E+04  0.15494989757E+04  0.12699999809E+01 0. -1.
       -4    1    3    3    0  502  0.97815022434E+03  0.65892365108E+03  0.34586116938E+03  0.12290564677E+04  0.12699999809E+01 0.  1.
</event>
<event>
 5   0  0.1964242E-07  0.2701513E+04  0.7818609E-02  0.8334514E-01
        1   -1    0    0  501    0  0.00000000000E+00  0.00000000000E+00  0.16961521377E+04  0.16961521377E+04  0.50400001928E-02 0. -1.
       -1   -1    0    0    0  501  0.00000000000E+00  0.00000000000E+00 -0.10756955537E+04  0.10756955537E+04  0.50400001928E-02 0.  1.
    10030    2    1    2    0    0  0.00000000000E+00  0.00000000000E+00  0.62045658395E+03  0.27718476914E+04  0.27015131412E+04 0.  0.
        2    1    3    3  502    0  0.77941310612E+03  0.48410188818E+03  0.13273516193E+04  0.16135990052E+04  0.25500000920E-02 0. -1.
       -2    1    3    3    0  502 -0.77941310612E+03 -0.48410188818E+03 -0.70689503539E+03  0.11582486862E+04  0.25500000920E-02 0.  1.
</event>
<event>
 5   0  0.1964242E-07  0.2700058E+04  0.7818609E-02  0.8334986E-01
       -1   -1    0    0    0  501  0.00000000000E+00  0.00000000000E+00  0.10909742215E+04  0.10909742215E+04  0.50400001928E-02 0.  1.
        1   -1    0    0  501    0  0.00000000000E+00  0.00000000000E+00 -0.16705969558E+04  0.16705969558E+04  0.50400001928E-02 0. -1.
    10030    2    1    2    0    0  0.00000000000E+00  0.00000000000E+00 -0.57962273426E+03  0.27615711773E+04  0.27000579352E+04 0.  0.
        2    1    3    3  502    0  0.16718450398E+03  0.42514763733E+03  0.10095153844E+04  0.11080715154E+04  0.25500000920E-02 0.  1.
       -2    1    3    3    0  502 -0.16718450398E+03 -0.42514763733E+03 -0.15891381186E+04  0.16534996619E+04  0.25500000920E-02 0. -1.
</event>
<event>
 5   0  0.1971600E-07  0.2703538E+04  0.7818609E-02  0.8333858E-01
       -1   -1    0    0    0  501  0.00000000000E+00  0.00000000000E+00  0.14659385511E+04  0.14659385511E+04  0.50400001928E-02 0.  1.
        1   -1    0    0  501    0  0.00000000000E+00  0.00000000000E+00 -0.12464913664E+04  0.12464913664E+04  0.50400001928E-02 0. -1.
    10030    2    1    2    0    0  0.00000000000E+00  0.00000000000E+00  0.21944718462E+03  0.27124299175E+04  0.27035382355E+04 0.  0.
        5    1    3    3  502    0 -0.99091590097E+03 -0.66029787610E+03 -0.53218536146E+03  0.13042817782E+04  0.46999998093E+01 0. -1.
       -5    1    3    3    0  502  0.99091590097E+03  0.66029787610E+03  0.75163254608E+03  0.14081481393E+04  0.46999998093E+01 0.  1.
</event>
<event>
 5   0  0.1964242E-07  0.2699916E+04  0.7818609E-02  0.8335032E-01
       -1   -1    0    0    0  501  0.00000000000E+00  0.00000000000E+00  0.31549107898E+04  0.31549107898E+04  0.50400001928E-02 0. -1.
        1   -1    0    0  501    0  0.00000000000E+00  0.00000000000E+00 -0.57763505072E+03  0.57763505074E+03  0.50400001928E-02 0.  1.
    10030    2    1    2    0    0  0.00000000000E+00  0.00000000000E+00  0.25772757391E+04  0.37325458406E+04  0.26999163351E+04 0.  0.
        2    1    3    3  502    0  0.60433140882E+03 -0.22768465374E+03  0.29275061466E+04  0.29978907572E+04  0.25500000920E-02 0. -1.
       -2    1    3    3    0  502 -0.60433140882E+03  0.22768465374E+03 -0.35023040753E+03  0.73465508342E+03  0.25500000920E-02 0.  1.
</event>
<event>
 5   0  0.4735120E-07  0.2699840E+04  0.7818609E-02  0.8335057E-01
       -2   -1    0    0    0  501  0.00000000000E+00  0.00000000000E+00  0.10428537937E+04  0.10428537937E+04  0.25500000920E-02 0. -1.
        2   -1    0    0  501    0  0.00000000000E+00  0.00000000000E+00 -0.17474011888E+04  0.17474011888E+04  0.25500000920E-02 0.  1.
    10030    2    1    2    0    0  0.00000000000E+00  0.00000000000E+00 -0.70454739506E+03  0.27902549826E+04  0.26998399648E+04 0.  0.
        2    1    3    3  502    0  0.10147937389E+04 -0.10813015466E+03 -0.12654859698E+04  0.16257162122E+04  0.25500000920E-02 0.  1.
       -2    1    3    3    0  502 -0.10147937389E+04  0.10813015466E+03  0.56093857475E+03  0.11645387703E+04  0.25500000920E-02 0. -1.
</event>
<event>
 5   0  0.4735120E-07  0.2699370E+04  0.7818609E-02  0.8335210E-01
        2   -1    0    0  501    0  0.00000000000E+00  0.00000000000E+00  0.11882694453E+04  0.11882694454E+04  0.25500000920E-02 0. -1.
       -2   -1    0    0    0  501  0.00000000000E+00  0.00000000000E+00 -0.15330270030E+04  0.15330270030E+04  0.25500000920E-02 0.  1.
    10030    2    1    2    0    0  0.00000000000E+00  0.00000000000E+00 -0.34475755764E+03  0.27212964483E+04  0.26993696646E+04 0.  0.
        2    1    3    3  502    0 -0.21581269609E+03  0.12209708760E+03  0.11651106132E+04  0.11912034081E+04  0.25500000920E-02 0. -1.
       -2    1    3    3    0  502  0.21581269609E+03 -0.12209708760E+03 -0.15098681708E+04  0.15300930402E+04  0.25500000920E-02 0.  1.
</event>
<event>
 5   0  0.5043890E-07  0.2702918E+04  0.7818609E-02  0.8334059E-01
        2   -1    0    0  501    0  0.00000000000E+00  0.00000000000E+00  0.10654492985E+04  0.10654492985E+04  0.25500000920E-02 0. -1.
       -2   -1    0    0    0  501  0.00000000000E+00  0.00000000000E+00 -0.17142455584E+04  0.17142455584E+04  0.25500000920E-02 0.  1.
    10030    2    1    2    0    0  0.00000000000E+00  0.00000000000E+00 -0.64879625995E+03  0.27796948569E+04  0.27029182212E+04 0.  0.
        3    1    3    3  502    0  0.91801100694E+03  0.79807927536E+03 -0.92999425115E+03  0.15311969357E+04  0.10100000352E+00 0.  1.
       -3    1    3    3    0  502 -0.91801100694E+03 -0.79807927536E+03  0.28119799120E+03  0.12484979211E+04  0.10100000352E+00 0. -1.
</event>
<event>
 5   0  0.1888149E-07  0.2699581E+04  0.7818609E-02  0.8335141E-01
       -1   -1    0    0    0  501  0.00000000000E+00  0.00000000000E+00  0.70213673012E+03  0.70213673014E+03  0.50400001928E-02 0.  1.
        1   -1    0    0  501    0  0.00000000000E+00  0.00000000000E+00 -0.25948427997E+04  0.25948427997E+04  0.50400001928E-02 0. -1.
    10030    2    1    2    0    0  0.00000000000E+00  0.00000000000E+00 -0.18927060695E+04  0.32969795298E+04  0.26995810331E+04 0.  0.
        1    1    3    3  502    0  0.14142824426E+03  0.41937686363E+03 -0.25037078491E+04  0.25425247090E+04  0.50400001928E-02 0. -1.
       -1    1    3    3    0  502 -0.14142824426E+03 -0.41937686363E+03  0.61100177957E+03  0.75445482084E+03  0.50400001928E-02 0.  1.
</event>
<event>
 5   0  0.1964242E-07  0.2704166E+04  0.7818609E-02  0.8333654E-01
        1   -1    0    0  501    0  0.00000000000E+00  0.00000000000E+00  0.16331971222E+04  0.16331971222E+04  0.50400001928E-02 0. -1.
       -1   -1    0    0    0  501  0.00000000000E+00  0.00000000000E+00 -0.11193560643E+04  0.11193560643E+04  0.50400001928E-02 0.  1.
    10030    2    1    2    0    0  0.00000000000E+00  0.00000000000E+00  0.51384105789E+03  0.27525531865E+04  0.27041664911E+04 0.  0.
        2    1    3    3  502    0  0.65346160278E+03  0.78509658169E+03 -0.64478617103E+03  0.12079478115E+04  0.25500000920E-02 0.  1.
       -2    1    3    3    0  502 -0.65346160278E+03 -0.78509658169E+03  0.11586272289E+04  0.15446053750E+04  0.25500000920E-02 0. -1.
</event>
<event>
 5   0  0.1964242E-07  0.2700085E+04  0.7818609E-02  0.8334977E-01
        1   -1    0    0  501    0  0.00000000000E+00  0.00000000000E+00  0.21505623366E+04  0.21505623366E+04  0.50400001928E-02 0.  1.
       -1   -1    0    0    0  501  0.00000000000E+00  0.00000000000E+00 -0.84750622392E+03  0.84750622394E+03  0.50400001928E-02 0. -1.
    10030    2    1    2    0    0  0.00000000000E+00  0.00000000000E+00  0.13030561127E+04  0.29980685605E+04  0.27000851581E+04 0.  0.
        2    1    3    3  502    0  0.11350532540E+03  0.19739190126E+03 -0.82603125881E+03  0.85683992795E+03  0.25500000920E-02 0. -1.
       -2    1    3    3    0  502 -0.11350532540E+03 -0.19739190126E+03  0.21290873715E+04  0.21412286326E+04  0.25500000920E-02 0.  1.
</event>
<event>
 5   0  0.5043890E-07  0.2699889E+04  0.7818609E-02  0.8335041E-01
       -2   -1    0    0    0  501  0.00000000000E+00  0.00000000000E+00  0.11999617748E+04  0.11999617748E+04  0.25500000920E-02 0.  1.
        2   -1    0    0  501    0  0.00000000000E+00  0.00000000000E+00 -0.15186738259E+04  0.15186738259E+04  0.25500000920E-02 0. -1.
    10030    2    1    2    0    0  0.00000000000E+00  0.00000000000E+00 -0.31871205106E+03  0.27186356007E+04  0.26998892863E+04 0.  0.
        3    1    3    3  502    0 -0.63306604372E+03 -0.80814155900E+03 -0.10420756454E+04  0.14628010993E+04  0.10100000352E+00 0. -1.
       -3    1    3    3    0  502  0.63306604372E+03  0.80814155900E+03  0.72336359438E+03  0.12558345014E+04  0.10100000352E+00 0.  1.
</event>
<event>
 5   0  0.4735120E-07  0.2700453E+04  0.7818609E-02  0.8334858E-01
       -2   -1    0    0    0  501  0.00000000000E+00  0.00000000000E+00  0.18792825509E+04  0.18792825509E+04  0.25500000920E-02 0. -1.
        2   -1    0    0  501    0  0.00000000000E+00  0.00000000000E+00 -0.97011028865E+03  0.97011028865E+03  0.25500000920E-02 0.  1.
    10030    2    1    2    0    0  0.00000000000E+00  0.00000000000E+00  0.90917226226E+03  0.28493928396E+04  0.27004528049E+04 0.  0.
        2    1    3    3  502    0  0.12055938528E+03  0.12487861963E+04  0.98122286769E+03  0.15927334509E+04  0.25500000920E-02 0.  1.
       -2    1    3    3    0  502 -0.12055938528E+03 -0.12487861963E+04 -0.72050605429E+02  0.12566593887E+04  0.25500000920E-02 0. -1.
</event>
<event>
 5   0  0.4735120E-07  0.2702647E+04  0.7818609E-02  0.8334147E-01
       -2   -1    0    0    0  501  0.00000000000E+00  0.00000000000E+00  0.99538091339E+03  0.99538091340E+03  0.25500000920E-02 0. -1.
        2   -1    0    0  501    0  0.00000000000E+00  0.00000000000E+00 -0.18345485783E+04  0.18345485783E+04  0.25500000920E-02 0.  1.
    10030    2    1    2    0    0  0.00000000000E+00  0.00000000000E+00 -0.83916766488E+03  0.28299294917E+04  0.27026465840E+04 0.  0.
        2    1    3    3  502    0  0.39998507848E+03  0.11255447657E+04 -0.10811921612E+04  0.16111534911E+04  0.25500000920E-02 0.  1.
       -2    1    3    3    0  502 -0.39998507848E+03 -0.11255447657E+04  0.24202449630E+03  0.12187760005E+04  0.25500000920E-02 0. -1.
</event>
<event>
 5   0  0.1965415E-07  0.2700260E+04  0.7818609E-02  0.8334921E-01
        1   -1    0    0  501    0  0.00000000000E+00  0.00000000000E+00  0.16552252752E+04  0.16552252752E+04  0.50400001928E-02 0. -1.
       -1   -1    0    0    0  501  0.00000000000E+00  0.00000000000E+00 -0.11012707859E+04  0.11012707859E+04  0.50400001928E-02 0.  1.
    10030    2    1    2    0    0  0.00000000000E+00  0.00000000000E+00  0.55395448931E+03  0.27564960612E+04  0.27002601650E+04 0.  0.
        4    1    3    3  502    0 -0.12292233066E+04 -0.45791848331E+03 -0.49320604579E+02  0.13126741446E+04  0.12699999809E+01 0.  1.
       -4    1    3    3    0  502  0.12292233066E+04  0.45791848331E+03  0.60327509389E+03  0.14438219166E+04  0.12699999809E+01 0. -1.
</event>
<event>
 5   0  0.1641625E-07  0.2699797E+04  0.7818609E-02  0.8335071E-01
        3   -1    0    0  501    0  0.00000000000E+00  0.00000000000E+00  0.13211311899E+04  0.13211311937E+04  0.10100000352E+00 0.  1.
       -3   -1    0    0    0  501  0.00000000000E+00  0.00000000000E+00 -0.13792924053E+04  0.13792924090E+04  0.10100000352E+00 0. -1.
    10030    2    1    2    0    0  0.00000000000E+00  0.00000000000E+00 -0.58161215398E+02  0.27004236027E+04  0.26997971974E+04 0.  0.
        5    1    3    3  502    0  0.73631439241E+03  0.52354932318E+03 -0.10322795952E+04  0.13718185124E+04  0.46999998093E+01 0. -1.
       -5    1    3    3    0  502 -0.73631439241E+03 -0.52354932318E+03  0.97411837978E+03  0.13286050903E+04  0.46999998093E+01 0.  1.
</event>
<event>
 5   0  0.4992668E-07  0.2700630E+04  0.7818609E-02  0.8334801E-01
       -2   -1    0    0    0  501  0.00000000000E+00  0.00000000000E+00  0.10114687532E+04  0.10114687532E+04  0.25500000920E-02 0. -1.
        2   -1    0    0  501    0  0.00000000000E+00  0.00000000000E+00 -0.18026754934E+04  0.18026754934E+04  0.25500000920E-02 0.  1.
    10030    2    1    2    0    0  0.00000000000E+00  0.00000000000E+00 -0.79120674019E+03  0.28141442467E+04  0.27006295072E+04 0.  0.
        1    1    3    3  502    0 -0.81344841865E+03 -0.34989683267E+03  0.66666901205E+03  0.11084104362E+04  0.50400001928E-02 0. -1.
       -1    1    3    3    0  502  0.81344841865E+03  0.34989683267E+03 -0.14578757522E+04  0.17057338105E+04  0.50400001928E-02 0.  1.
</event>
<event>
 5   0  0.5043890E-07  0.2700430E+04  0.7818609E-02  0.8334865E-01
       -2   -1    0    0    0  501  0.00000000000E+00  0.00000000000E+00  0.12146277019E+04  0.12146277019E+04  0.25500000920E-02 0. -1.
        2   -1    0    0  501    0  0.00000000000E+00  0.00000000000E+00 -0.15009376498E+04  0.15009376498E+04  0.25500000920E-02 0.  1.
    10030    2    1    2    0    0  0.00000000000E+00  0.00000000000E+00 -0.28630994789E+03  0.27155653517E+04  0.27004299275E+04 0.  0.
        3    1    3    3  502    0  0.78474877123E+03 -0.10628083431E+04  0.13713331965E+03  0.13282310664E+04  0.10100000352E+00 0.  1.
       -3    1    3    3    0  502 -0.78474877123E+03  0.10628083431E+04 -0.42344326755E+03  0.13873342853E+04  0.10100000352E+00 0. -1.
</event>
<event>
 5   0  0.1964242E-07  0.2693769E+04  0.7818609E-02  0.8337030E-01
        1   -1    0    0  501    0  0.00000000000E+00  0.00000000000E+00  0.22869427298E+04  0.22869427298E+04  0.50400001928E-02 0.  1.
       -1   -1    0    0    0  501  0.00000000000E+00  0.00000000000E+00 -0.79324119534E+03  0.79324119535E+03  0.50400001928E-02 0. -1.
    10030    2    1    2    0    0  0.00000000000E+00  0.00000000000E+00  0.14937015344E+04  0.30801839251E+04  0.26937685013E+04 0.  0.
        2    1    3    3  502    0 -0.94630701125E+03  0.49183193408E+03 -0.19377088797E+03  0.10839477699E+04  0.25500000920E-02 0. -1.
       -2    1    3    3    0  502  0.94630701125E+03 -0.49183193408E+03  0.16874724224E+04  0.19962361552E+04  0.25500000920E-02 0.  1.
</event>
<event>
 5   0  0.5043890E-07  0.2700357E+04  0.7818609E-02  0.8334889E-01
        2   -1    0    0  501    0  0.00000000000E+00  0.00000000000E+00  0.12799617122E+04  0.12799617122E+04  0.25500000920E-02 0.  1.
       -2   -1    0    0    0  501  0.00000000000E+00  0.00000000000E+00 -0.14242468113E+04  0.14242468113E+04  0.25500000920E-02 0. -1.
    10030    2    1    2    0    0  0.00000000000E+00  0.00000000000E+00 -0.14428509914E+03  0.27042085235E+04  0.27003565595E+04 0.  0.
        3    1    3    3  502    0 -0.96207853746E+03  0.69310876221E+03  0.57452350813E+03  0.13176009032E+04  0.10100000352E+00 0. -1.
       -3    1    3    3    0  502  0.96207853746E+03 -0.69310876221E+03 -0.71880860727E+03  0.13866076203E+04  0.10100000352E+00 0.  1.
</event>
<event>
 5   0  0.4735120E-07  0.2701606E+04  0.7818609E-02  0.8334484E-01
        2   -1    0    0  501    0  0.00000000000E+00  0.00000000000E+00  0.13330313080E+04  0.13330313080E+04  0.25500000920E-02 0. -1.
       -2   -1    0    0    0  501  0.00000000000E+00  0.00000000000E+00 -0.13688119989E+04  0.13688119989E+04  0.25500000920E-02 0.  1.
    10030    2    1    2    0    0  0.00000000000E+00  0.00000000000E+00 -0.35780690817E+02  0.27018433069E+04  0.27016063735E+04 0.  0.
        2    1    3    3  502    0 -0.49087073159E+03  0.12356701041E+04 -0.25631127015E+03  0.13540790776E+04  0.25500000920E-02 0.  1.
       -2    1    3    3    0  502  0.49087073159E+03 -0.12356701041E+04  0.22053057934E+03  0.13477642293E+04  0.25500000920E-02 0. -1.
</event>
<event>
 5   0  0.4843887E-07  0.2695551E+04  0.7818609E-02  0.8336450E-01
       -2   -1    0    0    0  501  0.00000000000E+00  0.00000000000E+00  0.65796130522E+03  0.65796130523E+03  0.25500000920E-02 0. -1.
        2   -1    0    0  501    0  0.00000000000E+00  0.00000000000E+00 -0.27607996183E+04  0.27607996183E+04  0.25500000920E-02 0.  1.
    10030    2    1    2    0    0  0.00000000000E+00  0.00000000000E+00 -0.21028383131E+04  0.34187609236E+04  0.26955513873E+04 0.  0.
        5    1    3    3  502    0  0.47125998123E+02 -0.90269040359E+03 -0.23193401136E+04  0.24892632398E+04  0.46999998093E+01 0.  1.
       -5    1    3    3    0  502 -0.47125998123E+02  0.90269040359E+03  0.21650180053E+03  0.92949768373E+03  0.46999998093E+01 0. -1.
</event>
<event>
 5   0  0.1971600E-07  0.2699390E+04  0.7818609E-02  0.8335203E-01
       -1   -1    0    0    0  501  0.00000000000E+00  0.00000000000E+00  0.10511412621E+04  0.10511412621E+04  0.50400001928E-02 0.  1.
        1   -1    0    0  501    0  0.00000000000E+00  0.00000000000E+00 -0.17330463242E+04  0.17330463242E+04  0.50400001928E-02 0. -1.
    10030    2    1    2    0    0  0.00000000000E+00  0.00000000000E+00 -0.68190506212E+03  0.27841875864E+04  0.26993899315E+04 0.  0.
        5    1    3    3  502    0 -0.72590676414E+01 -0.71828595729E+03 -0.15195054368E+04  0.16807457491E+04  0.46999998093E+01 0. -1.
       -5    1    3    3    0  502  0.72590676414E+01  0.71828595729E+03  0.83760037472E+03  0.11034418373E+04  0.46999998093E+01 0.  1.
</event>
<event>
 5   0  0.1971600E-07  0.2697854E+04  0.7818609E-02  0.8335702E-01
        1   -1    0    0  501    0  0.00000000000E+00  0.00000000000E+00  0.13959560982E+04  0.13959560982E+04  0.50400001928E-02 0.  1.
       -1   -1    0    0    0  501  0.00000000000E+00  0.00000000000E+00 -0.13034823009E+04  0.13034823009E+04  0.50400001928E-02 0. -1.
    10030    2    1    2    0    0  0.00000000000E+00  0.00000000000E+00  0.92473797308E+02  0.26994383991E+04  0.26978540115E+04 0.  0.
        5    1    3    3  502    0  0.10648800804E+04  0.77162055457E+03 -0.25429613337E+03  0.13394239357E+04  0.46999998093E+01 0. -1.
       -5    1    3    3    0  502 -0.10648800804E+04 -0.77162055457E+03  0.34676993067E+03  0.13600144634E+04  0.46999998093E+01 0.  1.
</event>
<event>
 5   0  0.4992668E-07  0.2699873E+04  0.7818609E-02  0.8335046E-01
        2   -1    0    0  501    0  0.00000000000E+00  0.00000000000E+00  0.18962423368E+04  0.18962423368E+04  0.25500000920E-02 0.  1.
       -2   -1    0    0    0  501  0.00000000000E+00  0.00000000000E+00 -0.96102106254E+03  0.96102106254E+03  0.25500000920E-02 0. -1.
    10030    2    1    2    0    0  0.00000000000E+00  0.00000000000E+00  0.93522127431E+03  0.28572633994E+04  0.26998732010E+04 0.  0.
        1    1    3    3  502    0 -0.12241034168E+04  0.16000316487E+03 -0.11039562675E+03  0.12394423674E+04  0.50400001928E-02 0. -1.
       -1    1    3    3    0  502  0.12241034168E+04 -0.16000316487E+03  0.10456169011E+04  0.16178210320E+04  0.50400001928E-02 0.  1.
</event>
<event>
 5   0  0.1965415E-07  0.2699299E+04  0.7818609E-02  0.8335232E-01
       -1   -1    0    0    0  501  0.00000000000E+00  0.00000000000E+00  0.82414271663E+03  0.82414271665E+03  0.50400001928E-02 0.  1.
        1   -1    0    0  501    0  0.00000000000E+00  0.00000000000E+00 -0.22102410471E+04  0.22102410472E+04  0.50400001928E-02 0. -1.
    10030    2    1    2    0    0  0.00000000000E+00  0.00000000000E+00 -0.13860983305E+04  0.30343837638E+04  0.26992992135E+04 0.  0.
        4    1    3    3  502    0 -0.12920101112E+04 -0.12542097183E+03 -0.11084205224E+04  0.17069323991E+04  0.12699999809E+01 0. -1.
       -4    1    3    3    0  502  0.12920101112E+04  0.12542097183E+03 -0.27767780808E+03  0.13274513647E+04  0.12699999809E+01 0.  1.
</event>
<event>
 5   0  0.4735120E-07  0.2688648E+04  0.7818609E-02  0.8338698E-01
       -2   -1    0    0    0  501  0.00000000000E+00  0.00000000000E+00  0.11289927134E+04  0.11289927134E+04  0.25500000920E-02 0.  1.
        2   -1    0    0  501    0  0.00000000000E+00  0.00000000000E+00 -0.16007248333E+04  0.16007248333E+04  0.25500000920E-02 0. -1.
    10030    2    1    2    0    0  0.00000000000E+00  0.00000000000E+00 -0.47173211994E+03  0.27297175467E+04  0.26886477441E+04 0.  0.
        2    1    3    3  502    0  0.94342440934E+03 -0.84144236413E+03  0.22842876981E+03  0.12846223457E+04  0.25500000920E-02 0.  1.
       -2    1    3    3    0  502 -0.94342440934E+03  0.84144236413E+03 -0.70016088974E+03  0.14450952010E+04  0.25500000920E-02 0. -1.
</event>
<event>
 5   0  0.1888149E-07  0.2699489E+04  0.7818609E-02  0.8335171E-01
       -1   -1    0    0    0  501  0.00000000000E+00  0.00000000000E+00  0.84432831686E+03  0.84432831688E+03  0.50400001928E-02 0. -1.
        1   -1    0    0  501    0  0.00000000000E+00  0.00000000000E+00 -0.21577041211E+04  0.21577041211E+04  0.50400001928E-02 0.  1.
    10030    2    1    2    0    0  0.00000000000E+00  0.00000000000E+00 -0.13133758043E+04  0.30020324380E+04  0.26994893509E+04 0.  0.
        1    1    3    3  502    0  0.54744922442E+03  0.95478944470E+03  0.21221655747E+03  0.11208743927E+04  0.50400001928E-02 0. -1.
       -1    1    3    3    0  502 -0.54744922442E+03 -0.95478944470E+03 -0.15255923617E+04  0.18811580453E+04  0.50400001928E-02 0.  1.
</event>
<event>
 5   0  0.4983208E-07  0.2698703E+04  0.7818609E-02  0.8335426E-01
       -2   -1    0    0    0  501  0.00000000000E+00  0.00000000000E+00  0.77094425493E+03  0.77094425493E+03  0.25500000920E-02 0.  1.
        2   -1    0    0  501    0  0.00000000000E+00  0.00000000000E+00 -0.23617133987E+04  0.23617133987E+04  0.25500000920E-02 0. -1.
    10030    2    1    2    0    0  0.00000000000E+00  0.00000000000E+00 -0.15907691438E+04  0.31326576536E+04  0.26987029303E+04 0.  0.
        4    1    3    3  502    0 -0.72824965333E+03  0.67993045524E+03 -0.18517103540E+04  0.21027329430E+04  0.12699999809E+01 0. -1.
       -4    1    3    3    0  502  0.72824965333E+03 -0.67993045524E+03  0.26094121020E+03  0.10299247107E+04  0.12699999809E+01 0.  1.
</event>
<event>
 5   0  0.1965415E-07  0.2701402E+04  0.7818609E-02  0.8334550E-01
        1   -1    0    0  501    0  0.00000000000E+00  0.00000000000E+00  0.16947263124E+04  0.16947263124E+04  0.50400001928E-02 0.  1.
       -1   -1    0    0    0  501  0.00000000000E+00  0.00000000000E+00 -0.10765122546E+04  0.10765122546E+04  0.50400001928E-02 0. -1.
    10030    2    1    2    0    0  0.00000000000E+00  0.00000000000E+00  0.61821405778E+03  0.27712385671E+04  0.27014023348E+04 0.  0.
        4    1    3    3  502    0 -0.12009496792E+04 -0.18047034095E+03 -0.29739819702E+03  0.12503187500E+04  0.12699999809E+01 0.  1.
       -4    1    3    3    0  502  0.12009496792E+04  0.18047034095E+03  0.91561225480E+03  0.15209198171E+04  0.12699999809E+01 0. -1.
</event>
<event>
 5   0  0.4843887E-07  0.2701375E+04  0.7818609E-02  0.8334559E-01
       -2   -1    0    0    0  501  0.00000000000E+00  0.00000000000E+00  0.93687435424E+03  0.93687435424E+03  0.25500000920E-02 0.  1.
        2   -1    0    0  501    0  0.00000000000E+00  0.00000000000E+00 -0.19472797419E+04  0.19472797419E+04  0.25500000920E-02 0. -1.
    10030    2    1    2    0    0  0.00000000000E+00  0.00000000000E+00 -0.10104053877E+04  0.28841540962E+04  0.27013747987E+04 0.  0.
        5    1    3    3  502    0  0.15085211570E+03 -0.12334633435E+04 -0.10703035549E+04  0.16400487707E+04  0.46999998093E+01 0. -1.
       -5    1    3    3    0  502 -0.15085211570E+03  0.12334633435E+04  0.59898167168E+02  0.12441053255E+04  0.46999998093E+01 0.  1.
</event>
<event>
 5   0  0.1965415E-07  0.2700009E+04  0.7818609E-02  0.8335002E-01
        1   -1    0    0  501    0  0.00000000000E+00  0.00000000000E+00  0.27794235122E+04  0.27794235122E+04  0.50400001928E-02 0. -1.
       -1   -1    0    0    0  501  0.00000000000E+00  0.00000000000E+00 -0.65571568148E+03  0.65571568150E+03  0.50400001928E-02 0.  1.
    10030    2    1    2    0    0  0.00000000000E+00  0.00000000000E+00  0.21237078308E+04  0.34351391937E+04  0.27000085796E+04 0.  0.
        4    1    3    3  502    0 -0.16950239462E+03 -0.65023438879E+03 -0.42782896933E+03  0.79660219812E+03  0.12699999809E+01 0.  1.
       -4    1    3    3    0  502  0.16950239462E+03  0.65023438879E+03  0.25515368001E+04  0.26385369956E+04  0.12699999809E+01 0. -1.
</event>
<event>
 5   0  0.1971600E-07  0.2700569E+04  0.7818609E-02  0.8334821E-01
       -1   -1    0    0    0  501  0.00000000000E+00  0.00000000000E+00  0.27895502341E+04  0.27895502341E+04  0.50400001928E-02 0.  1.
        1   -1    0    0  501    0  0.00000000000E+00  0.00000000000E+00 -0.65360631138E+03  0.65360631140E+03  0.50400001928E-02 0. -1.
    10030    2    1    2    0    0  0.00000000000E+00  0.00000000000E+00  0.21359439228E+04  0.34431565455E+04  0.27005685616E+04 0.  0.
        5    1    3    3  502    0 -0.78825588090E+03 -0.95220063212E+03  0.17607094498E+04  0.21513143039E+04  0.46999998093E+01 0.  1.
       -5    1    3    3    0  502  0.78825588090E+03  0.95220063212E+03  0.37523447299E+03  0.12918422416E+04  0.46999998093E+01 0. -1.
</event>
<event>
 5   0  0.4992668E-07  0.2699590E+04  0.7818609E-02  0.8335138E-01
       -2   -1    0    0    0  501  0.00000000000E+00  0.00000000000E+00  0.13771744930E+04  0.13771744930E+04  0.25500000920E-02 0. -1.
        2   -1    0    0  501    0  0.00000000000E+00  0.00000000000E+00 -0.13229599801E+04  0.13229599801E+04  0.25500000920E-02 0.  1.
    10030    2    1    2    0    0  0.00000000000E+00  0.00000000000E+00  0.54214512900E+02  0.27001344732E+04  0.26995901466E+04 0.  0.
        1    1    3    3  502    0 -0.51223164468E+03 -0.73128394817E+03  0.10396301321E+04  0.13703971257E+04  0.50400001928E-02 0. -1.
       -1    1    3    3    0  502  0.51223164468E+03  0.73128394817E+03 -0.98541561917E+03  0.13297373474E+04  0.50400001928E-02 0.  1.
</event>
<event>
 5   0  0.1971600E-07  0.2701643E+04  0.7818609E-02  0.8334472E-01
        1   -1    0    0  501    0  0.00000000000E+00  0.00000000000E+00  0.10808087882E+04  0.10808087882E+04  0.50400001928E-02 0. -1.
       -1   -1    0    0    0  501  0.00000000000E+00  0.00000000000E+00 -0.16882897182E+04  0.16882897182E+04  0.50400001928E-02 0.  1.
    10030    2    1    2    0    0  0.00000000000E+00  0.00000000000E+00 -0.60748093002E+03  0.27690985064E+04  0.27016427332E+04 0.  0.
        5    1    3    3  502    0 -0.22374602334E+03  0.11184760592E+04 -0.10454418530E+04  0.15472626590E+04  0.46999998093E+01 0.  1.
       -5    1    3    3    0  502  0.22374602334E+03 -0.11184760592E+04  0.43796092297E+03  0.12218358474E+04  0.46999998093E+01 0. -1.
</event>
<event>
 5   0  0.4992668E-07  0.2698500E+04  0.7818609E-02  0.8335492E-01
       -2   -1    0    0    0  501  0.00000000000E+00  0.00000000000E+00  0.88118650641E+03  0.88118650641E+03  0.25500000920E-02 0.  1.
        2   -1    0    0  501    0  0.00000000000E+00  0.00000000000E+00 -0.20659373283E+04  0.20659373283E+04  0.25500000920E-02 0. -1.
    10030    2    1    2    0    0  0.00000000000E+00  0.00000000000E+00 -0.11847508219E+04  0.29471238347E+04  0.26985003960E+04 0.  0.
        1    1    3    3  502    0  0.71916477496E+03 -0.72887733921E+03  0.36722192698E+03  0.10878014951E+04  0.50400001928E-02 0.  1.
       -1    1    3    3    0  502 -0.71916477496E+03  0.72887733921E+03 -0.15519727489E+04  0.18593223396E+04  0.50400001928E-02 0. -1.
</event>
<event>
 5   0  0.1937896E-07  0.2700703E+04  0.7818609E-02  0.8334777E-01
       -1   -1    0    0    0  501  0.00000000000E+00  0.00000000000E+00  0.12339205412E+04  0.12339205412E+04  0.50400001928E-02 0.  1.
        1   -1    0    0  501    0  0.00000000000E+00  0.00000000000E+00 -0.14777687082E+04  0.14777687082E+04  0.50400001928E-02 0. -1.
    10030    2    1    2    0    0  0.00000000000E+00  0.00000000000E+00 -0.24384816704E+03  0.27116892494E+04  0.27007029931E+04 0.  0.
        3    1    3    3  502    0  0.79399608612E+03  0.66957750447E+02  0.97271076284E+03  0.12574097834E+04  0.10100000352E+00 0.  1.
       -3    1    3    3    0  502 -0.79399608612E+03 -0.66957750447E+02 -0.12165589299E+04  0.14542794660E+04  0.10100000352E+00 0. -1.
</event>
<event>
 5   0  0.1971600E-07  0.2700052E+04  0.7818609E-02  0.8334988E-01
        1   -1    0    0  501    0  0.00000000000E+00  0.00000000000E+00  0.13486562994E+04  0.13486562994E+04  0.50400001928E-02 0. -1.
       -1   -1    0    0    0  501  0.00000000000E+00  0.00000000000E+00 -0.13513970374E+04  0.13513970374E+04  0.50400001928E-02 0.  1.
    10030    2    1    2    0    0  0.00000000000E+00  0.00000000000E+00 -0.27407379535E+01  0.27000533369E+04  0.27000519458E+04 0.  0.
        5    1    3    3  502    0 -0.17045288867E+03 -0.71249688694E+03 -0.11353207035E+04  0.13511777052E+04  0.46999998093E+01 0.  1.
       -5    1    3    3    0  502  0.17045288867E+03  0.71249688694E+03  0.11325799656E+04  0.13488756316E+04  0.46999998093E+01 0. -1.
</event>
<event>
 5   0  0.4983208E-07  0.2717460E+04  0.7818609E-02  0.8329362E-01
       -2   -1    0    0    0  501  0.00000000000E+00  0.00000000000E+00  0.86859257021E+03  0.86859257021E+03  0.25500000920E-02 0. -1.
        2   -1    0    0  501    0  0.00000000000E+00  0.00000000000E+00 -0.21254459324E+04  0.21254459324E+04  0.25500000920E-02 0.  1.
    10030    2    1    2    0    0  0.00000000000E+00  0.00000000000E+00 -0.12568533622E+04  0.29940385026E+04  0.27174595087E+04 0.  0.
        4    1    3    3  502    0 -0.79660267236E+03  0.67278731550E+03  0.33140286209E+03  0.10940969150E+04  0.12699999809E+01 0. -1.
       -4    1    3    3    0  502  0.79660267236E+03 -0.67278731550E+03 -0.15882562243E+04  0.18999415876E+04  0.12699999809E+01 0.  1.
</event>
<event>
 5   0  0.4735120E-07  0.2700310E+04  0.7818609E-02  0.8334904E-01
       -2   -1    0    0    0  501  0.00000000000E+00  0.00000000000E+00  0.29935946492E+04  0.29935946492E+04  0.25500000920E-02 0. -1.
        2   -1    0    0  501    0  0.00000000000E+00  0.00000000000E+00 -0.60893983049E+03  0.60893983050E+03  0.25500000920E-02 0.  1.
    10030    2    1    2    0    0  0.00000000000E+00  0.00000000000E+00  0.23846548187E+04  0.36025344797E+04  0.27003103660E+04 0.  0.
        2    1    3    3  502    0  0.10740289721E+04  0.91084770442E+01  0.22837782208E+04  0.25237401132E+04  0.25500000920E-02 0. -1.
       -2    1    3    3    0  502 -0.10740289721E+04 -0.91084770442E+01  0.10087659792E+03  0.10787943665E+04  0.25500000920E-02 0.  1.
</event>
<event>
 5   0  0.1965415E-07  0.2699925E+04  0.7818609E-02  0.8335029E-01
        1   -1    0    0  501    0  0.00000000000E+00  0.00000000000E+00  0.12060039549E+04  0.12060039549E+04  0.50400001928E-02 0.  1.
       -1   -1    0    0    0  501  0.00000000000E+00  0.00000000000E+00 -0.15111053712E+04  0.15111053712E+04  0.50400001928E-02 0. -1.
    10030    2    1    2    0    0  0.00000000000E+00  0.00000000000E+00 -0.30510141629E+03  0.27171093261E+04  0.26999252241E+04 0.  0.
        4    1    3    3  502    0 -0.75839909255E+03  0.80664059592E+03  0.62473763196E+03  0.12712737535E+04  0.12699999809E+01 0.  1.
       -4    1    3    3    0  502  0.75839909255E+03 -0.80664059592E+03 -0.92983904825E+03  0.14458355726E+04  0.12699999809E+01 0. -1.
</event>
<event>
 5   0  0.4843887E-07  0.2699983E+04  0.7818609E-02  0.8335011E-01
        2   -1    0    0  501    0  0.00000000000E+00  0.00000000000E+00  0.16266019130E+04  0.16266019130E+04  0.25500000920E-02 0.  1.
       -2   -1    0    0    0  501  0.00000000000E+00  0.00000000000E+00 -0.11204197322E+04  0.11204197322E+04  0.25500000920E-02 0. -1.
    10030    2    1    2    0    0  0.00000000000E+00  0.00000000000E+00  0.50618218080E+03  0.27470216452E+04  0.26999828739E+04 0.  0.
        5    1    3    3  502    0  0.67337234869E+03 -0.62377709790E+02 -0.93565371667E+03  0.11544657926E+04  0.46999998093E+01 0. -1.
       -5    1    3    3    0  502 -0.67337234869E+03  0.62377709790E+02  0.14418358975E+04  0.15925558527E+04  0.46999998093E+01 0.  1.
</event>
<event>
 5   0  0.1888149E-07  0.2699714E+04  0.7818609E-02  0.8335098E-01
       -1   -1    0    0    0  501  0.00000000000E+00  0.00000000000E+00  0.13483410961E+04  0.13483410961E+04  0.50400001928E-02 0.  1.
        1   -1    0    0  501    0  0.00000000000E+00  0.00000000000E+00 -0.13513744553E+04  0.13513744553E+04  0.50400001928E-02 0. -1.
    10030    2    1    2    0    0  0.00000000000E+00  0.00000000000E+00 -0.30333592334E+01  0.26997155514E+04  0.26997138473E+04 0.  0.
        1    1    3    3  502    0  0.72904005905E+03 -0.10428903683E+04 -0.45206550331E+03  0.13503640055E+04  0.50400001928E-02 0. -1.
       -1    1    3    3    0  502 -0.72904005905E+03  0.10428903683E+04  0.44903214408E+03  0.13493515459E+04  0.50400001928E-02 0.  1.
</event>
<event>
 5   0  0.4983208E-07  0.2699306E+04  0.7818609E-02  0.8335230E-01
       -2   -1    0    0    0  501  0.00000000000E+00  0.00000000000E+00  0.15149563017E+04  0.15149563017E+04  0.25500000920E-02 0. -1.
        2   -1    0    0  501    0  0.00000000000E+00  0.00000000000E+00 -0.12023865187E+04  0.12023865188E+04  0.25500000920E-02 0.  1.
    10030    2    1    2    0    0  0.00000000000E+00  0.00000000000E+00  0.31256978294E+03  0.27173428204E+04  0.26993058616E+04 0.  0.
        4    1    3    3  502    0  0.13030748702E+04  0.14925504829E+02 -0.19725195286E+03  0.13180048687E+04  0.12699999809E+01 0.  1.
       -4    1    3    3    0  502 -0.13030748702E+04 -0.14925504829E+02  0.50982173580E+03  0.13993379518E+04  0.12699999809E+01 0. -1.
</event>
<event>
 5   0  0.1964242E-07  0.2700546E+04  0.7818609E-02  0.8334828E-01
       -1   -1    0    0    0  501  0.00000000000E+00  0.00000000000E+00  0.14292349195E+04  0.14292349195E+04  0.50400001928E-02 0.  1.
        1   -1    0    0  501    0  0.00000000000E+00  0.00000000000E+00 -0.12756733118E+04  0.12756733118E+04  0.50400001928E-02 0. -1.
    10030    2    1    2    0    0  0.00000000000E+00  0.00000000000E+00  0.15356160767E+03  0.27049082313E+04  0.27005457546E+04 0.  0.
        2    1    3    3  502    0  0.12628580929E+04 -0.34317704360E+03  0.40996782918E+03  0.13713696318E+04  0.25500000920E-02 0.  1.
       -2    1    3    3    0  502 -0.12628580929E+04  0.34317704360E+03 -0.25640622151E+03  0.13335385995E+04  0.25500000920E-02 0. -1.
</event>
<event>
 5   0  0.1964242E-07  0.2702958E+04  0.7818609E-02  0.8334046E-01
        1   -1    0    0  501    0  0.00000000000E+00  0.00000000000E+00  0.13036418348E+04  0.13036418348E+04  0.50400001928E-02 0. -1.
       -1   -1    0    0    0  501  0.00000000000E+00  0.00000000000E+00 -0.14010718432E+04  0.14010718433E+04  0.50400001928E-02 0.  1.
    10030    2    1    2    0    0  0.00000000000E+00  0.00000000000E+00 -0.97430008477E+02  0.27047136780E+04  0.27029582819E+04 0.  0.
        2    1    3    3  502    0 -0.14647232056E+03 -0.34461682445E+03  0.12506971488E+04  0.13055490242E+04  0.25500000920E-02 0. -1.
       -2    1    3    3    0  502  0.14647232056E+03  0.34461682445E+03 -0.13481271573E+04  0.13991646539E+04  0.25500000920E-02 0.  1.
</event>
<event>
 5   0  0.4735120E-07  0.2700398E+04  0.7818609E-02  0.8334876E-01
        2   -1    0    0  501    0  0.00000000000E+00  0.00000000000E+00  0.23848229993E+04  0.23848229993E+04  0.25500000920E-02 0. -1.
       -2   -1    0    0    0  501  0.00000000000E+00  0.00000000000E+00 -0.76443308267E+03  0.76443308267E+03  0.25500000920E-02 0.  1.
    10030    2    1    2    0    0  0.00000000000E+00  0.00000000000E+00  0.16203899166E+04  0.31492560819E+04  0.27003981906E+04 0.  0.
        2    1    3    3  502    0 -0.72583265243E+03 -0.13600172221E+03  0.21284395268E+04  0.22529057519E+04  0.25500000920E-02 0. -1.
       -2    1    3    3    0  502  0.72583265243E+03  0.13600172221E+03 -0.50804961017E+03  0.89635033005E+03  0.25500000920E-02 0.  1.
</event>
<event>
 5   0  0.1971600E-07  0.2699635E+04  0.7818609E-02  0.8335123E-01
        1   -1    0    0  501    0  0.00000000000E+00  0.00000000000E+00  0.19320203097E+04  0.19320203098E+04  0.50400001928E-02 0.  1.
       -1   -1    0    0    0  501  0.00000000000E+00  0.00000000000E+00 -0.94305789301E+03  0.94305789303E+03  0.50400001928E-02 0. -1.
    10030    2    1    2    0    0  0.00000000000E+00  0.00000000000E+00  0.98896241674E+03  0.28750782028E+04  0.26996347920E+04 0.  0.
        5    1    3    3  502    0  0.16049879834E+03 -0.69446659024E+03  0.17152477321E+04  0.18574554050E+04  0.46999998093E+01 0.  1.
       -5    1    3    3    0  502 -0.16049879834E+03  0.69446659024E+03 -0.72628531535E+03  0.10176227978E+04  0.46999998093E+01 0. -1.
</event>
<event>
 5   0  0.1888149E-07  0.2699348E+04  0.7818609E-02  0.8335217E-01
        1   -1    0    0  501    0  0.00000000000E+00  0.00000000000E+00  0.13916067866E+04  0.13916067866E+04  0.50400001928E-02 0.  1.
       -1   -1    0    0    0  501  0.00000000000E+00  0.00000000000E+00 -0.13090044965E+04  0.13090044965E+04  0.50400001928E-02 0. -1.
    10030    2    1    2    0    0  0.00000000000E+00  0.00000000000E+00  0.82602290035E+02  0.27006112831E+04  0.26993477294E+04 0.  0.
        1    1    3    3  502    0  0.68680188154E+03  0.44541642277E+03  0.11148956817E+04  0.13831431579E+04  0.50400001928E-02 0.  1.
       -1    1    3    3    0  502 -0.68680188154E+03 -0.44541642277E+03 -0.10322933917E+04  0.13174681251E+04  0.50400001928E-02 0. -1.
</event>
<event>
 5   0  0.1971600E-07  0.2699072E+04  0.7818609E-02  0.8335306E-01
       -1   -1    0    0    0  501  0.00000000000E+00  0.00000000000E+00  0.92537655061E+03  0.92537655062E+03  0.50400001928E-02 0. -1.
        1   -1    0    0  501    0  0.00000000000E+00  0.00000000000E+00 -0.19681151574E+04  0.19681151574E+04  0.50400001928E-02 0.  1.
    10030    2    1    2    0    0  0.00000000000E+00  0.00000000000E+00 -0.10427386068E+04  0.28934917080E+04  0.26990721484E+04 0.  0.
        5    1    3    3  502    0  0.42521071196E+03  0.11166536578E+04 -0.11938555692E+04  0.16890922861E+04  0.46999998093E+01 0. -1.
       -5    1    3    3    0  502 -0.42521071196E+03 -0.11166536578E+04  0.15111696242E+03  0.12043994219E+04  0.46999998093E+01 0.  1.
</event>
<event>
 5   0  0.4735120E-07  0.2699894E+04  0.7818609E-02  0.8335039E-01
        2   -1    0    0  501    0  0.00000000000E+00  0.00000000000E+00  0.27461040639E+04  0.27461040639E+04  0.25500000920E-02 0.  1.
       -2   -1    0    0    0  501  0.00000000000E+00  0.00000000000E+00 -0.66361525921E+03  0.66361525921E+03  0.25500000920E-02 0. -1.
    10030    2    1    2    0    0  0.00000000000E+00  0.00000000000E+00  0.20824888047E+04  0.34097193231E+04  0.26998937462E+04 0.  0.
        2    1    3    3  502    0  0.88602680143E+03  0.94286627143E+03  0.55487489097E+03  0.14078090933E+04  0.25500000920E-02 0. -1.
       -2    1    3    3    0  502 -0.88602680143E+03 -0.94286627143E+03  0.15276139137E+04  0.20019102298E+04  0.25500000920E-02 0.  1.
</event>
<event>
 5   0  0.4735120E-07  0.2700258E+04  0.7818609E-02  0.8334921E-01
       -2   -1    0    0    0  501  0.00000000000E+00  0.00000000000E+00  0.10023268910E+04  0.10023268910E+04  0.25500000920E-02 0. -1.
        2   -1    0    0  501    0  0.00000000000E+00  0.00000000000E+00 -0.18186172096E+04  0.18186172096E+04  0.25500000920E-02 0.  1.
    10030    2    1    2    0    0  0.00000000000E+00  0.00000000000E+00 -0.81629031863E+03  0.28209441006E+04  0.27002584570E+04 0.  0.
        2    1    3    3  502    0 -0.64222843549E+03  0.62921106270E+03 -0.14603782667E+04  0.17149544037E+04  0.25500000920E-02 0.  1.
       -2    1    3    3    0  502  0.64222843549E+03 -0.62921106270E+03  0.64408794811E+03  0.11059896969E+04  0.25500000920E-02 0. -1.
</event>
<event>
 5   0  0.1888149E-07  0.2704869E+04  0.7818609E-02  0.8333427E-01
       -1   -1    0    0    0  501  0.00000000000E+00  0.00000000000E+00  0.85378194044E+03  0.85378194045E+03  0.50400001928E-02 0.  1.
        1   -1    0    0  501    0  0.00000000000E+00  0.00000000000E+00 -0.21423264750E+04  0.21423264750E+04  0.50400001928E-02 0. -1.
    10030    2    1    2    0    0  0.00000000000E+00  0.00000000000E+00 -0.12885445346E+04  0.29961084155E+04  0.27048694275E+04 0.  0.
        1    1    3    3  502    0  0.77630029970E+03 -0.10991390007E+04 -0.79424205819E+03  0.15625521256E+04  0.50400001928E-02 0.  1.
       -1    1    3    3    0  502 -0.77630029970E+03  0.10991390007E+04 -0.49430247640E+03  0.14335562899E+04  0.50400001928E-02 0. -1.
</event>
<event>
 5   0  0.5043890E-07  0.2699862E+04  0.7818609E-02  0.8335050E-01
       -2   -1    0    0    0  501  0.00000000000E+00  0.00000000000E+00  0.83451413631E+03  0.83451413632E+03  0.25500000920E-02 0. -1.
        2   -1    0    0  501    0  0.00000000000E+00  0.00000000000E+00 -0.21836829956E+04  0.21836829956E+04  0.25500000920E-02 0.  1.
    10030    2    1    2    0    0  0.00000000000E+00  0.00000000000E+00 -0.13491688593E+04  0.30181971319E+04  0.26998624625E+04 0.  0.
        3    1    3    3  502    0  0.71471256590E+03 -0.36220845649E+03  0.53993128967E+03  0.96619605960E+03  0.10100000352E+00 0. -1.
       -3    1    3    3    0  502 -0.71471256590E+03  0.36220845649E+03 -0.18891001489E+04  0.20520010723E+04  0.10100000352E+00 0.  1.
</event>
<event>
 5   0  0.5043890E-07  0.2699058E+04  0.7818609E-02  0.8335311E-01
        2   -1    0    0  501    0  0.00000000000E+00  0.00000000000E+00  0.17618268078E+04  0.17618268078E+04  0.25500000920E-02 0.  1.
       -2   -1    0    0    0  501  0.00000000000E+00  0.00000000000E+00 -0.10337163452E+04  0.10337163452E+04  0.25500000920E-02 0. -1.
    10030    2    1    2    0    0  0.00000000000E+00  0.00000000000E+00  0.72811046266E+03  0.27955431530E+04  0.26990584792E+04 0.  0.
        3    1    3    3  502    0  0.42627004124E+03  0.92555563034E+03  0.12804839115E+04  0.16364591137E+04  0.10100000352E+00 0.  1.
       -3    1    3    3    0  502 -0.42627004124E+03 -0.92555563034E+03 -0.55237344887E+03  0.11590840393E+04  0.10100000352E+00 0. -1.
</event>
<event>
 5   0  0.4983208E-07  0.2700798E+04  0.7818609E-02  0.8334746E-01
       -2   -1    0    0    0  501  0.00000000000E+00  0.00000000000E+00  0.70701794534E+03  0.70701794535E+03  0.25500000920E-02 0. -1.
        2   -1    0    0  501    0  0.00000000000E+00  0.00000000000E+00 -0.25792510713E+04  0.25792510713E+04  0.25500000920E-02 0.  1.
    10030    2    1    2    0    0  0.00000000000E+00  0.00000000000E+00 -0.18722331260E+04  0.32862690167E+04  0.27007975066E+04 0.  0.
        4    1    3    3  502    0  0.11852365414E+04 -0.16556702754E+03 -0.17489902980E+03  0.12094583015E+04  0.12699999809E+01 0. -1.
       -4    1    3    3    0  502 -0.11852365414E+04  0.16556702754E+03 -0.16973340962E+04  0.20768107151E+04  0.12699999809E+01 0.  1.
</event>
<event>
 5   0  0.1965415E-07  0.2689935E+04  0.7818609E-02  0.8338278E-01
       -1   -1    0    0    0  501  0.00000000000E+00  0.00000000000E+00  0.77345764063E+03  0.77345764065E+03  0.50400001928E-02 0. -1.
        1   -1    0    0  501    0  0.00000000000E+00  0.00000000000E+00 -0.23387669887E+04  0.23387669887E+04  0.50400001928E-02 0.  1.
    10030    2    1    2    0    0  0.00000000000E+00  0.00000000000E+00 -0.15653093481E+04  0.31122246293E+04  0.26899347182E+04 0.  0.
        4    1    3    3  502    0 -0.12587983658E+04 -0.40476398984E+03 -0.49800631252E+03  0.14129469606E+04  0.12699999809E+01 0. -1.
       -4    1    3    3    0  502  0.12587983658E+04  0.40476398984E+03 -0.10673030355E+04  0.16992776688E+04  0.12699999809E+01 0.  1.
</event>
<event>
 5   0  0.1965415E-07  0.2700578E+04  0.7818609E-02  0.8334817E-01
       -1   -1    0    0    0  501  0.00000000000E+00  0.00000000000E+00  0.21838402930E+04  0.21838402930E+04  0.50400001928E-02 0. -1.
        1   -1    0    0  501    0  0.00000000000E+00  0.00000000000E+00 -0.83489669464E+03  0.83489669466E+03  0.50400001928E-02 0.  1.
    10030    2    1    2    0    0  0.00000000000E+00  0.00000000000E+00  0.13489435983E+04  0.30187369876E+04  0.27005784879E+04 0.  0.
        4    1    3    3  502    0  0.69641821641E+03 -0.10753555962E+04  0.11512041254E+04  0.17223996463E+04  0.12699999809E+01 0. -1.
       -4    1    3    3    0  502 -0.69641821641E+03  0.10753555962E+04  0.19773947289E+03  0.12963373413E+04  0.12699999809E+01 0.  1.
</event>
<event>
 5   0  0.4843887E-07  0.2701363E+04  0.7818609E-02  0.8334563E-01
        2   -1    0    0  501    0  0.00000000000E+00  0.00000000000E+00  0.21328597853E+04  0.21328597853E+04  0.25500000920E-02 0. -1.
       -2   -1    0    0    0  501  0.00000000000E+00  0.00000000000E+00 -0.85534955836E+03  0.85534955836E+03  0.25500000920E-02 0.  1.
    10030    2    1    2    0    0  0.00000000000E+00  0.00000000000E+00  0.12775102269E+04  0.29882093436E+04  0.27013631191E+04 0.  0.
        5    1    3    3  502    0 -0.11943374887E+04  0.34880768314E+03  0.12201183358E+04  0.17426473195E+04  0.46999998093E+01 0. -1.
       -5    1    3    3    0  502  0.11943374887E+04 -0.34880768314E+03  0.57391891097E+02  0.12455620241E+04  0.46999998093E+01 0.  1.
</event>
<event>
 5   0  0.1965415E-07  0.2699818E+04  0.7818609E-02  0.8335064E-01
       -1   -1    0    0    0  501  0.00000000000E+00  0.00000000000E+00  0.10088330291E+04  0.10088330291E+04  0.50400001928E-02 0.  1.
        1   -1    0    0  501    0  0.00000000000E+00  0.00000000000E+00 -0.18062990908E+04  0.18062990908E+04  0.50400001928E-02 0. -1.
    10030    2    1    2    0    0  0.00000000000E+00  0.00000000000E+00 -0.79746606170E+03  0.28151321200E+04  0.26998179074E+04 0.  0.
        4    1    3    3  502    0  0.91579418161E+03 -0.63822009631E+03 -0.11902665054E+04  0.16317903790E+04  0.12699999809E+01 0. -1.
       -4    1    3    3    0  502 -0.91579418161E+03  0.63822009631E+03  0.39280044368E+03  0.11833417409E+04  0.12699999809E+01 0.  1.
</event>
<event>
 5   0  0.5043890E-07  0.2700983E+04  0.7818609E-02  0.8334686E-01
        2   -1    0    0  501    0  0.00000000000E+00  0.00000000000E+00  0.12659972393E+04  0.12659972393E+04  0.25500000920E-02 0. -1.
       -2   -1    0    0    0  501  0.00000000000E+00  0.00000000000E+00 -0.14406248881E+04  0.14406248881E+04  0.25500000920E-02 0.  1.
    10030    2    1    2    0    0  0.00000000000E+00  0.00000000000E+00 -0.17462764881E+03  0.27066221274E+04  0.27009828812E+04 0.  0.
        3    1    3    3  502    0 -0.61420388458E+03  0.58896416826E+03  0.96354236742E+03  0.12855112241E+04  0.10100000352E+00 0. -1.
       -3    1    3    3    0  502  0.61420388458E+03 -0.58896416826E+03 -0.11381700162E+04  0.14211109033E+04  0.10100000352E+00 0.  1.
</event>
<event>
 5   0  0.4843887E-07  0.2692556E+04  0.7818609E-02  0.8337424E-01
        2   -1    0    0  501    0  0.00000000000E+00  0.00000000000E+00  0.10499900444E+04  0.10499900444E+04  0.25500000920E-02 0.  1.
       -2   -1    0    0    0  501  0.00000000000E+00  0.00000000000E+00 -0.17261726585E+04  0.17261726585E+04  0.25500000920E-02 0. -1.
    10030    2    1    2    0    0  0.00000000000E+00  0.00000000000E+00 -0.67618261408E+03  0.27761627029E+04  0.26925557423E+04 0.  0.
        5    1    3    3  502    0  0.53884923104E+03  0.91485416358E+03  0.51533345724E+03  0.11802149366E+04  0.46999998093E+01 0.  1.
       -5    1    3    3    0  502 -0.53884923104E+03 -0.91485416358E+03 -0.11915160713E+04  0.15959477663E+04  0.46999998093E+01 0. -1.
</event>
<event>
 5   0  0.1965415E-07  0.2698342E+04  0.7818609E-02  0.8335543E-01
       -1   -1    0    0    0  501  0.00000000000E+00  0.00000000000E+00  0.14185009788E+04  0.14185009789E+04  0.50400001928E-02 0. -1.
        1   -1    0    0  501    0  0.00000000000E+00  0.00000000000E+00 -0.12832298004E+04  0.12832298004E+04  0.50400001928E-02 0.  1.
    10030    2    1    2    0    0  0.00000000000E+00  0.00000000000E+00  0.13527117848E+03  0.27017307792E+04  0.26983422525E+04 0.  0.
        4    1    3    3  502    0 -0.77049791267E+03 -0.18187732988E+02 -0.10411227514E+04  0.12953516987E+04  0.12699999809E+01 0.  1.
       -4    1    3    3    0  502  0.77049791267E+03  0.18187732988E+02  0.11763939298E+04  0.14063790805E+04  0.12699999809E+01 0. -1.
</event>
<event>
 5   0  0.1937896E-07  0.2685238E+04  0.7818609E-02  0.8339811E-01
       -1   -1    0    0    0  501  0.00000000000E+00  0.00000000000E+00  0.10287700178E+04  0.10287700179E+04  0.50400001928E-02 0.  1.
        1   -1    0    0  501    0  0.00000000000E+00  0.00000000000E+00 -0.17522145431E+04  0.17522145431E+04  0.50400001928E-02 0. -1.
    10030    2    1    2    0    0  0.00000000000E+00  0.00000000000E+00 -0.72344452529E+03  0.27809845610E+04  0.26852380057E+04 0.  0.
        3    1    3    3  502    0  0.17678500886E+03 -0.11113674929E+04  0.39666918136E+03  0.11932045480E+04  0.10100000352E+00 0. -1.
       -3    1    3    3    0  502 -0.17678500886E+03  0.11113674929E+04 -0.11201137067E+04  0.15877800130E+04  0.10100000352E+00 0.  1.
</event>
<event>
 5   0  0.1965415E-07  0.2699953E+04  0.7818609E-02  0.8335020E-01
       -1   -1    0    0    0  501  0.00000000000E+00  0.00000000000E+00  0.13127721115E+04  0.13127721115E+04  0.50400001928E-02 0.  1.
        1   -1    0    0  501    0  0.00000000000E+00  0.00000000000E+00 -0.13882352043E+04  0.13882352043E+04  0.50400001928E-02 0. -1.
    10030    2    1    2    0    0  0.00000000000E+00  0.00000000000E+00 -0.75463092864E+02  0.27010073158E+04  0.26999529332E+04 0.  0.
        4    1    3    3  502    0 -0.28476146659E+03 -0.64930517000E+03  0.11115201778E+04  0.13183948631E+04  0.12699999809E+01 0.  1.
       -4    1    3    3    0  502  0.28476146659E+03  0.64930517000E+03 -0.11869832706E+04  0.13826124527E+04  0.12699999809E+01 0. -1.
</event>
<event>
 5   0  0.4843887E-07  0.2699151E+04  0.7818609E-02  0.8335280E-01
        2   -1    0    0  501    0  0.00000000000E+00  0.00000000000E+00  0.19160037703E+04  0.19160037703E+04  0.25500000920E-02 0.  1.
       -2   -1    0    0    0  501  0.00000000000E+00  0.00000000000E+00 -0.95060070856E+03  0.95060070857E+03  0.25500000920E-02 0. -1.
    10030    2    1    2    0    0  0.00000000000E+00  0.00000000000E+00  0.96540306170E+03  0.28666044788E+04  0.26991513790E+04 0.  0.
        5    1    3    3  502    0  0.13251232368E+03  0.12373329149E+04  0.10373872048E+04  0.16201069597E+04  0.46999998093E+01 0.  1.
       -5    1    3    3    0  502 -0.13251232368E+03 -0.12373329149E+04 -0.71984143076E+02  0.12464975191E+04  0.46999998093E+01 0. -1.
</event>
<event>
 5   0  0.1965415E-07  0.2700469E+04  0.7818609E-02  0.8334853E-01
       -1   -1    0    0    0  501  0.00000000000E+00  0.00000000000E+00  0.61699015334E+03  0.61699015336E+03  0.50400001928E-02 0. -1.
        1   -1    0    0  501    0  0.00000000000E+00  0.00000000000E+00 -0.29548826449E+04  0.29548826449E+04  0.50400001928E-02 0.  1.
    10030    2    1    2    0    0  0.00000000000E+00  0.00000000000E+00 -0.23378924916E+04  0.35718727983E+04  0.27004692157E+04 0.  0.
        4    1    3    3  502    0 -0.52125151341E+03 -0.80682076346E+03  0.86190765874E+02  0.96441347232E+03  0.12699999809E+01 0. -1.
       -4    1    3    3    0  502  0.52125151341E+03  0.80682076346E+03 -0.24240832574E+04  0.26074593259E+04  0.12699999809E+01 0.  1.
</event>
<event>
 5   0  0.1964242E-07  0.2700427E+04  0.7818609E-02  0.8334867E-01
       -1   -1    0    0    0  501  0.00000000000E+00  0.00000000000E+00  0.17263066794E+04  0.17263066794E+04  0.50400001928E-02 0. -1.
        1   -1    0    0  501    0  0.00000000000E+00  0.00000000000E+00 -0.10560557242E+04  0.10560557242E+04  0.50400001928E-02 0.  1.
    10030    2    1    2    0    0  0.00000000000E+00  0.00000000000E+00  0.67025095523E+03  0.27823624036E+04  0.27004266703E+04 0.  0.
        2    1    3    3  502    0  0.58697505129E+03 -0.11022078033E+04 -0.19394704489E+03  0.12637314623E+04  0.25500000920E-02 0.  1.
       -2    1    3    3    0  502 -0.58697505129E+03  0.11022078033E+04  0.86419800013E+03  0.15186309413E+04  0.25500000920E-02 0. -1.
</event>
<event>
 5   0  0.1971600E-07  0.2698412E+04  0.7818609E-02  0.8335521E-01
       -1   -1    0    0    0  501  0.00000000000E+00  0.00000000000E+00  0.16508536926E+04  0.16508536926E+04  0.50400001928E-02 0. -1.
        1   -1    0    0  501    0  0.00000000000E+00  0.00000000000E+00 -0.11026757346E+04  0.11026757346E+04  0.50400001928E-02 0.  1.
    10030    2    1    2    0    0  0.00000000000E+00  0.00000000000E+00  0.54817795795E+03  0.27535294272E+04  0.26984116129E+04 0.  0.
        5    1    3    3  502    0 -0.10654682808E+04  0.51535552658E+03  0.93502281413E+03  0.15083446984E+04  0.46999998093E+01 0. -1.
       -5    1    3    3    0  502  0.10654682808E+04 -0.51535552658E+03 -0.38684485618E+03  0.12451847288E+04  0.46999998093E+01 0.  1.
</event>
<event>
 5   0  0.4735120E-07  0.2699082E+04  0.7818609E-02  0.8335303E-01
       -2   -1    0    0    0  501  0.00000000000E+00  0.00000000000E+00  0.19854773709E+04  0.19854773709E+04  0.25500000920E-02 0.  1.
        2   -1    0    0  501    0  0.00000000000E+00  0.00000000000E+00 -0.91729094976E+03  0.91729094977E+03  0.25500000920E-02 0. -1.
    10030    2    1    2    0    0  0.00000000000E+00  0.00000000000E+00  0.10681864211E+04  0.29027683206E+04  0.26990816388E+04 0.  0.
        2    1    3    3  502    0 -0.23734263728E+02  0.34725156779E+03  0.19363750395E+04  0.19674082597E+04  0.25500000920E-02 0.  1.
       -2    1    3    3    0  502  0.23734263728E+02 -0.34725156779E+03 -0.86818861838E+03  0.93536006099E+03  0.25500000920E-02 0. -1.
</event>
<event>
 5   0  0.4983208E-07  0.2700088E+04  0.7818609E-02  0.8334976E-01
        2   -1    0    0  501    0  0.00000000000E+00  0.00000000000E+00  0.14551473387E+04  0.14551473387E+04  0.25500000920E-02 0.  1.
       -2   -1    0    0    0  501  0.00000000000E+00  0.00000000000E+00 -0.12525325413E+04  0.12525325413E+04  0.25500000920E-02 0. -1.
    10030    2    1    2    0    0  0.00000000000E+00  0.00000000000E+00  0.20261479734E+03  0.27076798800E+04  0.27000884386E+04 0.  0.
        4    1    3    3  502    0 -0.21111189060E+02  0.12481438534E+04  0.61686277587E+03  0.13924187798E+04  0.12699999809E+01 0. -1.
       -4    1    3    3    0  502  0.21111189060E+02 -0.12481438534E+04 -0.41424797853E+03  0.13152611002E+04  0.12699999809E+01 0.  1.
</event>
<event>
 5   0  0.5043890E-07  0.2700273E+04  0.7818609E-02  0.8334916E-01
       -2   -1    0    0    0  501  0.00000000000E+00  0.00000000000E+00  0.14285959112E+04  0.14285959112E+04  0.25500000920E-02 0. -1.
        2   -1    0    0  501    0  0.00000000000E+00  0.00000000000E+00 -0.12759859887E+04  0.12759859888E+04  0.25500000920E-02 0.  1.
    10030    2    1    2    0    0  0.00000000000E+00  0.00000000000E+00  0.15260992248E+03  0.27045819000E+04  0.27002728502E+04 0.  0.
        3    1    3    3  502    0  0.12429793274E+03  0.38944533644E+03  0.13651181224E+04  0.14250140857E+04  0.10100000352E+00 0. -1.
       -3    1    3    3    0  502 -0.12429793274E+03 -0.38944533644E+03 -0.12125081999E+04  0.12795678143E+04  0.10100000352E+00 0.  1.
</event>
<event>
 5   0  0.1888149E-07  0.2700408E+04  0.7818609E-02  0.8334873E-01
        1   -1    0    0  501    0  0.00000000000E+00  0.00000000000E+00  0.84624833966E+03  0.84624833967E+03  0.50400001928E-02 0.  1.
       -1   -1    0    0    0  501  0.00000000000E+00  0.00000000000E+00 -0.21542737837E+04  0.21542737838E+04  0.50400001928E-02 0. -1.
    10030    2    1    2    0    0  0.00000000000E+00  0.00000000000E+00 -0.13080254441E+04  0.30005221234E+04  0.27004078305E+04 0.  0.
        1    1    3    3  502    0 -0.10668397274E+04 -0.31174551045E+03 -0.15058410884E+04  0.18716008257E+04  0.50400001928E-02 0. -1.
       -1    1    3    3    0  502  0.10668397274E+04  0.31174551045E+03  0.19781564428E+03  0.11289212977E+04  0.50400001928E-02 0.  1.
</event>
<event>
 5   0  0.1937896E-07  0.2699492E+04  0.7818609E-02  0.8335170E-01
        1   -1    0    0  501    0  0.00000000000E+00  0.00000000000E+00  0.15404542388E+04  0.15404542388E+04  0.50400001928E-02 0.  1.
       -1   -1    0    0    0  501  0.00000000000E+00  0.00000000000E+00 -0.11826475743E+04  0.11826475743E+04  0.50400001928E-02 0. -1.
    10030    2    1    2    0    0  0.00000000000E+00  0.00000000000E+00  0.35780666451E+03  0.27231018131E+04  0.26994921514E+04 0.  0.
        3    1    3    3  502    0 -0.25451316269E+03 -0.39190541348E+03  0.14562512480E+04  0.15293902414E+04  0.10100000352E+00 0.  1.
       -3    1    3    3    0  502  0.25451316269E+03  0.39190541348E+03 -0.10984445835E+04  0.11937115717E+04  0.10100000352E+00 0. -1.
</event>
<event>
 5   0  0.1971600E-07  0.2700066E+04  0.7818609E-02  0.8334984E-01
        1   -1    0    0  501    0  0.00000000000E+00  0.00000000000E+00  0.12837767791E+04  0.12837767791E+04  0.50400001928E-02 0.  1.
       -1   -1    0    0    0  501  0.00000000000E+00  0.00000000000E+00 -0.14197085828E+04  0.14197085828E+04  0.50400001928E-02 0. -1.
    10030    2    1    2    0    0  0.00000000000E+00  0.00000000000E+00 -0.13593180368E+03  0.27034853620E+04  0.27000658598E+04 0.  0.
        5    1    3    3  502    0 -0.12253397461E+04 -0.40824810274E+03  0.32552393454E+03  0.13319579305E+04  0.46999998093E+01 0. -1.
       -5    1    3    3    0  502  0.12253397461E+04  0.40824810274E+03 -0.46145573821E+03  0.13715274314E+04  0.46999998093E+01 0.  1.
</event>
<event>
 5   0  0.1971600E-07  0.2700578E+04  0.7818609E-02  0.8334817E-01
       -1   -1    0    0    0  501  0.00000000000E+00  0.00000000000E+00  0.11810295159E+04  0.11810295159E+04  0.50400001928E-02 0.  1.
        1   -1    0    0  501    0  0.00000000000E+00  0.00000000000E+00 -0.15438062367E+04  0.15438062367E+04  0.50400001928E-02 0. -1.
    10030    2    1    2    0    0  0.00000000000E+00  0.00000000000E+00 -0.36277672076E+03  0.27248357526E+04  0.27005782583E+04 0.  0.
        5    1    3    3  502    0 -0.63363894358E+03  0.27977747647E+03  0.98811091242E+03  0.12067141386E+04  0.46999998093E+01 0.  1.
       -5    1    3    3    0  502  0.63363894358E+03 -0.27977747647E+03 -0.13508876332E+04  0.15181216139E+04  0.46999998093E+01 0. -1.
</event>
<event>
 5   0  0.4735120E-07  0.2698843E+04  0.7818609E-02  0.8335381E-01
        2   -1    0    0  501    0  0.00000000000E+00  0.00000000000E+00  0.28434353443E+04  0.28434353443E+04  0.25500000920E-02 0.  1.
       -2   -1    0    0    0  501  0.00000000000E+00  0.00000000000E+00 -0.64040067047E+03  0.64040067047E+03  0.25500000920E-02 0. -1.
    10030    2    1    2    0    0  0.00000000000E+00  0.00000000000E+00  0.22030346738E+04  0.34838360147E+04  0.26988426415E+04 0.  0.
        2    1    3    3  502    0  0.11105013990E+04  0.88515808759E+02  0.20845156258E+04  0.23635257138E+04  0.25500000920E-02 0.  1.
       -2    1    3    3    0  502 -0.11105013990E+04 -0.88515808759E+02  0.11851904800E+03  0.11203103009E+04  0.25500000920E-02 0. -1.
</event>
<event>
 5   0  0.4735120E-07  0.2699622E+04  0.7818609E-02  0.8335127E-01
       -2   -1    0    0    0  501  0.00000000000E+00  0.00000000000E+00  0.83123141091E+03  0.83123141091E+03  0.25500000920E-02 0.  1.
        2   -1    0    0  501    0  0.00000000000E+00  0.00000000000E+00 -0.21919170852E+04  0.21919170852E+04  0.25500000920E-02 0. -1.
    10030    2    1    2    0    0  0.00000000000E+00  0.00000000000E+00 -0.13606856743E+04  0.30231484961E+04  0.26996224413E+04 0.  0.
        2    1    3    3  502    0  0.90703102828E+03 -0.99951304260E+03 -0.69835532733E+03  0.15196814705E+04  0.25500000920E-02 0. -1.
       -2    1    3    3    0  502 -0.90703102828E+03  0.99951304260E+03 -0.66233034697E+03  0.15034670256E+04  0.25500000920E-02 0.  1.
</event>
<event>
 5   0  0.1937896E-07  0.2699749E+04  0.7818609E-02  0.8335086E-01
       -1   -1    0    0    0  501  0.00000000000E+00  0.00000000000E+00  0.16547664608E+04  0.16547664608E+04  0.50400001928E-02 0.  1.
        1   -1    0    0  501    0  0.00000000000E+00  0.00000000000E+00 -0.11011593946E+04  0.11011593946E+04  0.50400001928E-02 0. -1.
    10030    2    1    2    0    0  0.00000000000E+00  0.00000000000E+00  0.55360706628E+03  0.27559258554E+04  0.26997493470E+04 0.  0.
        3    1    3    3  502    0 -0.66712514419E+03 -0.11727005950E+04  0.32105271053E+03  0.13868516492E+04  0.10100000352E+00 0.  1.
       -3    1    3    3    0  502  0.66712514419E+03  0.11727005950E+04  0.23255435575E+03  0.13690742062E+04  0.10100000352E+00 0. -1.
</event>
<event>
 5   0  0.1888149E-07  0.2701483E+04  0.7818609E-02  0.8334524E-01
        1   -1    0    0  501    0  0.00000000000E+00  0.00000000000E+00  0.23471639440E+04  0.23471639440E+04  0.50400001928E-02 0. -1.
       -1   -1    0    0    0  501  0.00000000000E+00  0.00000000000E+00 -0.77732209186E+03  0.77732209188E+03  0.50400001928E-02 0.  1.
    10030    2    1    2    0    0  0.00000000000E+00  0.00000000000E+00  0.15698418522E+04  0.31244860359E+04  0.27014828424E+04 0.  0.
        1    1    3    3  502    0  0.12365957267E+04 -0.18796224704E+03  0.13746683412E+04  0.18585510071E+04  0.50400001928E-02 0.  1.
       -1    1    3    3    0  502 -0.12365957267E+04  0.18796224704E+03  0.19517351095E+03  0.12659350288E+04  0.50400001928E-02 0. -1.
</event>
<event>
 5   0  0.4992668E-07  0.2700223E+04  0.7818609E-02  0.8334932E-01
       -2   -1    0    0    0  501  0.00000000000E+00  0.00000000000E+00  0.89040476529E+03  0.89040476529E+03  0.25500000920E-02 0. -1.
        2   -1    0    0  501    0  0.00000000000E+00  0.00000000000E+00 -0.20471606727E+04  0.20471606727E+04  0.25500000920E-02 0.  1.
    10030    2    1    2    0    0  0.00000000000E+00  0.00000000000E+00 -0.11567559075E+04  0.29375654380E+04  0.27002234117E+04 0.  0.
        1    1    3    3  502    0  0.10296155445E+04  0.22400170583E+03 -0.14966796164E+04  0.18303919820E+04  0.50400001928E-02 0.  1.
       -1    1    3    3    0  502 -0.10296155445E+04 -0.22400170583E+03  0.33992370896E+03  0.11071734560E+04  0.50400001928E-02 0. -1.
</event>
<event>
 5   0  0.4843887E-07  0.2697483E+04  0.7818609E-02  0.8335822E-01
       -2   -1    0    0    0  501  0.00000000000E+00  0.00000000000E+00  0.31238671685E+04  0.31238671685E+04  0.25500000920E-02 0.  1.
        2   -1    0    0  501    0  0.00000000000E+00  0.00000000000E+00 -0.58232437254E+03  0.58232437254E+03  0.25500000920E-02 0. -1.
    10030    2    1    2    0    0  0.00000000000E+00  0.00000000000E+00  0.25415427960E+04  0.37061915411E+04  0.26974832632E+04 0.  0.
        5    1    3    3  502    0 -0.11800181526E+03 -0.92445842239E+02 -0.57083221175E+03  0.59020518985E+03  0.46999998093E+01 0. -1.
       -5    1    3    3    0  502  0.11800181526E+03  0.92445842239E+02  0.31123750078E+04  0.31159863512E+04  0.46999998093E+01 0.  1.
</event>
<event>
 5   0  0.1964242E-07  0.2699398E+04  0.7818609E-02  0.8335200E-01
       -1   -1    0    0    0  501  0.00000000000E+00  0.00000000000E+00  0.16957660542E+04  0.16957660542E+04  0.50400001928E-02 0.  1.
        1   -1    0    0  501    0  0.00000000000E+00  0.00000000000E+00 -0.10742563653E+04  0.10742563653E+04  0.50400001928E-02 0. -1.
    10030    2    1    2    0    0  0.00000000000E+00  0.00000000000E+00  0.62150968893E+03  0.27700224196E+04  0.26993980647E+04 0.  0.
        2    1    3    3  502    0  0.16325689222E+03 -0.61412430426E+03 -0.91114893947E+03  0.11108527642E+04  0.25500000920E-02 0. -1.
       -2    1    3    3    0  502 -0.16325689222E+03  0.61412430426E+03  0.15326586284E+04  0.16591696553E+04  0.25500000920E-02 0.  1.
</event>
<event>
 5   0  0.1964242E-07  0.2681380E+04  0.7818609E-02  0.8341072E-01
        1   -1    0    0  501    0  0.00000000000E+00  0.00000000000E+00  0.10598623438E+04  0.10598623438E+04  0.50400001928E-02 0.  1.
       -1   -1    0    0    0  501  0.00000000000E+00  0.00000000000E+00 -0.16959277134E+04  0.16959277134E+04  0.50400001928E-02 0. -1.
    10030    2    1    2    0    0  0.00000000000E+00  0.00000000000E+00 -0.63606536960E+03  0.27557900572E+04  0.26813801829E+04 0.  0.
        2    1    3    3  502    0  0.11793192779E+04 -0.63626868712E+03 -0.27420999869E+03  0.13677802911E+04  0.25500000920E-02 0. -1.
       -2    1    3    3    0  502 -0.11793192779E+04  0.63626868712E+03 -0.36185537091E+03  0.13880097661E+04  0.25500000920E-02 0.  1.
</event>
<event>
 5   0  0.1937896E-07  0.2698664E+04  0.7818609E-02  0.8335439E-01
        1   -1    0    0  501    0  0.00000000000E+00  0.00000000000E+00  0.14467647914E+04  0.14467647914E+04  0.50400001928E-02 0.  1.
       -1   -1    0    0    0  501  0.00000000000E+00  0.00000000000E+00 -0.12584606671E+04  0.12584606671E+04  0.50400001928E-02 0. -1.
    10030    2    1    2    0    0  0.00000000000E+00  0.00000000000E+00  0.18830412434E+03  0.27052254585E+04  0.26986638060E+04 0.  0.
        3    1    3    3  502    0  0.10844864938E+04 -0.45983939892E+03  0.75388093583E+03  0.13985348418E+04  0.10100000352E+00 0.  1.
       -3    1    3    3    0  502 -0.10844864938E+04  0.45983939892E+03 -0.56557681149E+03  0.13066906167E+04  0.10100000352E+00 0. -1.
</event>
<event>
 5   0  0.5043890E-07  0.2700822E+04  0.7818609E-02  0.8334738E-01
       -2   -1    0    0    0  501  0.00000000000E+00  0.00000000000E+00  0.13611114093E+04  0.13611114093E+04  0.25500000920E-02 0.  1.
        2   -1    0    0  501    0  0.00000000000E+00  0.00000000000E+00 -0.13397943554E+04  0.13397943554E+04  0.25500000920E-02 0. -1.
    10030    2    1    2    0    0  0.00000000000E+00  0.00000000000E+00  0.21317053879E+02  0.27009057647E+04  0.27008216404E+04 0.  0.
        3    1    3    3  502    0  0.51132131331E+03  0.17173523446E+03  0.12487063356E+04  0.13602242458E+04  0.10100000352E+00 0.  1.
       -3    1    3    3    0  502 -0.51132131331E+03 -0.17173523446E+03 -0.12273892817E+04  0.13406815189E+04  0.10100000352E+00 0. -1.
</event>
<event>
 5   0  0.1971600E-07  0.2702014E+04  0.7818609E-02  0.8334352E-01
        1   -1    0    0  501    0  0.00000000000E+00  0.00000000000E+00  0.19607549349E+04  0.19607549349E+04  0.50400001928E-02 0.  1.
       -1   -1    0    0    0  501  0.00000000000E+00  0.00000000000E+00 -0.93087643716E+03  0.93087643718E+03  0.50400001928E-02 0. -1.
    10030    2    1    2    0    0  0.00000000000E+00  0.00000000000E+00  0.10298784978E+04  0.28916313721E+04  0.27020144840E+04 0.  0.
        5    1    3    3  502    0  0.47492174784E+03 -0.11338124363E+04 -0.84853337825E+02  0.12321945813E+04  0.46999998093E+01 0. -1.
       -5    1    3    3    0  502 -0.47492174784E+03  0.11338124363E+04  0.11147318356E+04  0.16594367908E+04  0.46999998093E+01 0.  1.
</event>
<event>
 5   0  0.1965415E-07  0.2697330E+04  0.7818609E-02  0.8335872E-01
        1   -1    0    0  501    0  0.00000000000E+00  0.00000000000E+00  0.15716461015E+04  0.15716461015E+04  0.50400001928E-02 0.  1.
       -1   -1    0    0    0  501  0.00000000000E+00  0.00000000000E+00 -0.11573201232E+04  0.11573201232E+04  0.50400001928E-02 0. -1.
    10030    2    1    2    0    0  0.00000000000E+00  0.00000000000E+00  0.41432597830E+03  0.27289662247E+04  0.26973302800E+04 0.  0.
        4    1    3    3  502    0 -0.29243501414E+03 -0.12698279997E+04 -0.14464323087E+03  0.13110700452E+04  0.12699999809E+01 0.  1.
       -4    1    3    3    0  502  0.29243501414E+03  0.12698279997E+04  0.55896920917E+03  0.14178961795E+04  0.12699999809E+01 0. -1.
</event>
<event>
 5   0  0.5043890E-07  0.2701413E+04  0.7818609E-02  0.8334547E-01
        2   -1    0    0  501    0  0.00000000000E+00  0.00000000000E+00  0.12581381174E+04  0.12581381174E+04  0.25500000920E-02 0.  1.
       -2   -1    0    0    0  501  0.00000000000E+00  0.00000000000E+00 -0.14500856701E+04  0.14500856701E+04  0.25500000920E-02 0. -1.
    10030    2    1    2    0    0  0.00000000000E+00  0.00000000000E+00 -0.19194755273E+03  0.27082237876E+04  0.27014130044E+04 0.  0.
        3    1    3    3  502    0 -0.87320819197E+03 -0.60644104727E+03 -0.93122781704E+03  0.14133111999E+04  0.10100000352E+00 0. -1.
       -3    1    3    3    0  502  0.87320819197E+03  0.60644104727E+03  0.73928026430E+03  0.12949125877E+04  0.10100000352E+00 0.  1.
</event>
<event>
 5   0  0.4843887E-07  0.2700561E+04  0.7818609E-02  0.8334823E-01
        2   -1    0    0  501    0  0.00000000000E+00  0.00000000000E+00  0.14473553121E+04  0.14473553121E+04  0.25500000920E-02 0.  1.
       -2   -1    0    0    0  501  0.00000000000E+00  0.00000000000E+00 -0.12597167971E+04  0.12597167971E+04  0.25500000920E-02 0. -1.
    10030    2    1    2    0    0  0.00000000000E+00  0.00000000000E+00  0.18763851495E+03  0.27070721092E+04  0.27005612736E+04 0.  0.
        5    1    3    3  502    0 -0.36257046957E+03 -0.95962893432E+03 -0.78630133797E+03  0.12925312070E+04  0.46999998093E+01 0. -1.
       -5    1    3    3    0  502  0.36257046957E+03  0.95962893432E+03  0.97393985292E+03  0.14145409022E+04  0.46999998093E+01 0.  1.
</event>
<event>
 5   0  0.4843887E-07  0.2700133E+04  0.7818609E-02  0.8334962E-01
       -2   -1    0    0    0  501  0.00000000000E+00  0.00000000000E+00  0.11884345632E+04  0.11884345633E+04  0.25500000920E-02 0.  1.
        2   -1    0    0  501    0  0.00000000000E+00  0.00000000000E+00 -0.15336813965E+04  0.15336813965E+04  0.25500000920E-02 0. -1.
    10030    2    1    2    0    0  0.00000000000E+00  0.00000000000E+00 -0.34524683325E+03  0.27221159598E+04  0.27001333157E+04 0.  0.
        5    1    3    3  502    0 -0.11751793314E+04 -0.36946195836E+03  0.38424056818E+03  0.12904307435E+04  0.46999998093E+01 0.  1.
       -5    1    3    3    0  502  0.11751793314E+04  0.36946195836E+03 -0.72948740143E+03  0.14316852162E+04  0.46999998093E+01 0. -1.
</event>
<event>
 5   0  0.4843887E-07  0.2699695E+04  0.7818609E-02  0.8335104E-01
       -2   -1    0    0    0  501  0.00000000000E+00  0.00000000000E+00  0.22218287433E+04  0.22218287433E+04  0.25500000920E-02 0. -1.
        2   -1    0    0  501    0  0.00000000000E+00  0.00000000000E+00 -0.82008503598E+03  0.82008503599E+03  0.25500000920E-02 0.  1.
    10030    2    1    2    0    0  0.00000000000E+00  0.00000000000E+00  0.14017437073E+04  0.30419137793E+04  0.26996951716E+04 0.  0.
        5    1    3    3  502    0  0.22963284421E+03 -0.56248222092E+03  0.20590518945E+04  0.21468195747E+04  0.46999998093E+01 0. -1.
       -5    1    3    3    0  502 -0.22963284421E+03  0.56248222092E+03 -0.65730818725E+03  0.89509420455E+03  0.46999998093E+01 0.  1.
</event>
<event>
 5   0  0.4735120E-07  0.2701271E+04  0.7818609E-02  0.8334593E-01
        2   -1    0    0  501    0  0.00000000000E+00  0.00000000000E+00  0.16018640035E+04  0.16018640035E+04  0.25500000920E-02 0. -1.
       -2   -1    0    0    0  501  0.00000000000E+00  0.00000000000E+00 -0.11388088419E+04  0.11388088420E+04  0.25500000920E-02 0.  1.
    10030    2    1    2    0    0  0.00000000000E+00  0.00000000000E+00  0.46305516157E+03  0.27406728455E+04  0.27012714716E+04 0.  0.
        2    1    3    3  502    0 -0.11620572571E+04  0.38676952386E+03  0.80926220093E+03  0.14679485833E+04  0.25500000920E-02 0. -1.
       -2    1    3    3    0  502  0.11620572571E+04 -0.38676952386E+03 -0.34620703936E+03  0.12727242622E+04  0.25500000920E-02 0.  1.
</event>
<event>
 5   0  0.4983208E-07  0.2702070E+04  0.7818609E-02  0.8334334E-01
        2   -1    0    0  501    0  0.00000000000E+00  0.00000000000E+00  0.19453362642E+04  0.19453362642E+04  0.25500000920E-02 0. -1.
       -2   -1    0    0    0  501  0.00000000000E+00  0.00000000000E+00 -0.93829276986E+03  0.93829276986E+03  0.25500000920E-02 0.  1.
    10030    2    1    2    0    0  0.00000000000E+00  0.00000000000E+00  0.10070434943E+04  0.28836290341E+04  0.27020695414E+04 0.  0.
        4    1    3    3  502    0  0.70022972853E+03 -0.21889078820E+02 -0.72930185952E+03  0.10112782108E+04  0.12699999809E+01 0.  1.
       -4    1    3    3    0  502 -0.70022972853E+03  0.21889078820E+02  0.17363453539E+04  0.18723508232E+04  0.12699999809E+01 0. -1.
</event>
<event>
 5   0  0.4843887E-07  0.2701444E+04  0.7818609E-02  0.8334537E-01
        2   -1    0    0  501    0  0.00000000000E+00  0.00000000000E+00  0.21962374348E+04  0.21962374348E+04  0.25500000920E-02 0.  1.
       -2   -1    0    0    0  501  0.00000000000E+00  0.00000000000E+00 -0.83071620040E+03  0.83071620040E+03  0.25500000920E-02 0. -1.
    10030    2    1    2    0    0  0.00000000000E+00  0.00000000000E+00  0.13655212345E+04  0.30269536352E+04  0.27014440709E+04 0.  0.
        5    1    3    3  502    0  0.50501556812E+03 -0.86563822348E+01 -0.72090762247E+03  0.88025311538E+03  0.46999998093E+01 0. -1.
       -5    1    3    3    0  502 -0.50501556812E+03  0.86563822348E+01  0.20864288569E+04  0.21467005199E+04  0.46999998093E+01 0.  1.
</event>
<event>
 5   0  0.4843887E-07  0.2696253E+04  0.7818609E-02  0.8336222E-01
       -2   -1    0    0    0  501  0.00000000000E+00  0.00000000000E+00  0.19187560291E+04  0.19187560291E+04  0.25500000920E-02 0. -1.
        2   -1    0    0  501    0  0.00000000000E+00  0.00000000000E+00 -0.94719957913E+03  0.94719957914E+03  0.25500000920E-02 0.  1.
    10030    2    1    2    0    0  0.00000000000E+00  0.00000000000E+00  0.97155644998E+03  0.28659556083E+04  0.26962528837E+04 0.  0.
        5    1    3    3  502    0 -0.50760165924E+03  0.94397958076E+03 -0.38340919305E+03  0.11383240280E+04  0.46999998093E+01 0.  1.
       -5    1    3    3    0  502  0.50760165924E+03 -0.94397958076E+03  0.13549656430E+04  0.17276315803E+04  0.46999998093E+01 0. -1.
</event>
<event>
 5   0  0.4992668E-07  0.2699814E+04  0.7818609E-02  0.8335065E-01
        2   -1    0    0  501    0  0.00000000000E+00  0.00000000000E+00  0.13155771635E+04  0.13155771635E+04  0.25500000920E-02 0.  1.
       -2   -1    0    0    0  501  0.00000000000E+00  0.00000000000E+00 -0.13851323285E+04  0.13851323285E+04  0.25500000920E-02 0. -1.
    10030    2    1    2    0    0  0.00000000000E+00  0.00000000000E+00 -0.69555165007E+02  0.27007094921E+04  0.26998136676E+04 0.  0.
        1    1    3    3  502    0  0.33443318302E+03 -0.11748944684E+04 -0.60944700238E+03  0.13651550148E+04  0.50400001928E-02 0. -1.
       -1    1    3    3    0  502 -0.33443318302E+03  0.11748944684E+04  0.53989183737E+03  0.13355544773E+04  0.50400001928E-02 0.  1.
</event>
<event>
 5   0  0.4992668E-07  0.2700108E+04  0.7818609E-02  0.8334970E-01
        2   -1    0    0  501    0  0.00000000000E+00  0.00000000000E+00  0.94671184123E+03  0.94671184123E+03  0.25500000920E-02 0.  1.
       -2   -1    0    0    0  501  0.00000000000E+00  0.00000000000E+00 -0.19252385591E+04  0.19252385591E+04  0.25500000920E-02 0. -1.
    10030    2    1    2    0    0  0.00000000000E+00  0.00000000000E+00 -0.97852671791E+03  0.28719504004E+04  0.27001082505E+04 0.  0.
        1    1    3    3  502    0 -0.40369089066E+03 -0.11521759730E+04 -0.11022855279E+04  0.16448432123E+04  0.50400001928E-02 0. -1.
       -1    1    3    3    0  502  0.40369089066E+03  0.11521759730E+04  0.12375881000E+03  0.12271071881E+04  0.50400001928E-02 0.  1.
</event>
<event>
 5   0  0.1964242E-07  0.2698800E+04  0.7818609E-02  0.8335394E-01
        1   -1    0    0  501    0  0.00000000000E+00  0.00000000000E+00  0.14788338149E+04  0.14788338149E+04  0.50400001928E-02 0.  1.
       -1   -1    0    0    0  501  0.00000000000E+00  0.00000000000E+00 -0.12312950148E+04  0.12312950148E+04  0.50400001928E-02 0. -1.
    10030    2    1    2    0    0  0.00000000000E+00  0.00000000000E+00  0.24753880013E+03  0.27101288297E+04  0.26988002549E+04 0.  0.
        2    1    3    3  502    0  0.35298102648E+03  0.62409445775E+03  0.12717176106E+04  0.14599161546E+04  0.25500000920E-02 0.  1.
       -2    1    3    3    0  502 -0.35298102648E+03 -0.62409445775E+03 -0.10241788105E+04  0.12502126751E+04  0.25500000920E-02 0. -1.
</event>
<event>
 5   0  0.5043890E-07  0.2699532E+04  0.7818609E-02  0.8335157E-01
       -2   -1    0    0    0  501  0.00000000000E+00  0.00000000000E+00  0.12988211580E+04  0.12988211580E+04  0.25500000920E-02 0. -1.
        2   -1    0    0  501    0  0.00000000000E+00  0.00000000000E+00 -0.14027092543E+04  0.14027092543E+04  0.25500000920E-02 0.  1.
    10030    2    1    2    0    0  0.00000000000E+00  0.00000000000E+00 -0.10388809628E+03  0.27015304123E+04  0.26995321506E+04 0.  0.
        3    1    3    3  502    0  0.11305995587E+04 -0.68508133683E+03 -0.32468321138E+03  0.13612534658E+04  0.10100000352E+00 0.  1.
       -3    1    3    3    0  502 -0.11305995587E+04  0.68508133683E+03  0.22079511510E+03  0.13402769465E+04  0.10100000352E+00 0. -1.
</event>
<event>
 5   0  0.1965415E-07  0.2699286E+04  0.7818609E-02  0.8335237E-01
        1   -1    0    0  501    0  0.00000000000E+00  0.00000000000E+00  0.16195092817E+04  0.16195092818E+04  0.50400001928E-02 0. -1.
       -1   -1    0    0    0  501  0.00000000000E+00  0.00000000000E+00 -0.11247455298E+04  0.11247455299E+04  0.50400001928E-02 0.  1.
    10030    2    1    2    0    0  0.00000000000E+00  0.00000000000E+00  0.49476375191E+03  0.27442548116E+04  0.26992857020E+04 0.  0.
        4    1    3    3  502    0  0.80651734051E+03  0.93598191567E+03 -0.30480737254E+03  0.12725727933E+04  0.12699999809E+01 0.  1.
       -4    1    3    3    0  502 -0.80651734051E+03 -0.93598191567E+03  0.79957112445E+03  0.14716820183E+04  0.12699999809E+01 0. -1.
</event>
<event>
 5   0  0.1888149E-07  0.2700004E+04  0.7818609E-02  0.8335004E-01
       -1   -1    0    0    0  501  0.00000000000E+00  0.00000000000E+00  0.12160607894E+04  0.12160607894E+04  0.50400001928E-02 0. -1.
        1   -1    0    0  501    0  0.00000000000E+00  0.00000000000E+00 -0.14986959609E+04  0.14986959609E+04  0.50400001928E-02 0.  1.
    10030    2    1    2    0    0  0.00000000000E+00  0.00000000000E+00 -0.28263517149E+03  0.27147567503E+04  0.27000039951E+04 0.  0.
        1    1    3    3  502    0 -0.28069444906E+03 -0.12871359887E+04  0.15524650858E+03  0.13265028856E+04  0.50400001928E-02 0. -1.
       -1    1    3    3    0  502  0.28069444906E+03  0.12871359887E+04 -0.43788168007E+03  0.13882538647E+04  0.50400001928E-02 0.  1.
</event>
<event>
 5   0  0.1971600E-07  0.2701119E+04  0.7818609E-02  0.8334642E-01
       -1   -1    0    0    0  501  0.00000000000E+00  0.00000000000E+00  0.96136357243E+03  0.96136357245E+03  0.50400001928E-02 0.  1.
        1   -1    0    0  501    0  0.00000000000E+00  0.00000000000E+00 -0.18973163436E+04  0.18973163436E+04  0.50400001928E-02 0. -1.
    10030    2    1    2    0    0  0.00000000000E+00  0.00000000000E+00 -0.93595277112E+03  0.28586799160E+04  0.27011188927E+04 0.  0.
        5    1    3    3  502    0  0.32469439821E+03  0.41107956184E+03 -0.17854085198E+04  0.18606769013E+04  0.46999998093E+01 0. -1.
       -5    1    3    3    0  502 -0.32469439821E+03 -0.41107956184E+03  0.84945574869E+03  0.99800301471E+03  0.46999998093E+01 0.  1.
</event>
<event>
 5   0  0.4983208E-07  0.2699830E+04  0.7818609E-02  0.8335060E-01
       -2   -1    0    0    0  501  0.00000000000E+00  0.00000000000E+00  0.11992250239E+04  0.11992250239E+04  0.25500000920E-02 0. -1.
        2   -1    0    0  501    0  0.00000000000E+00  0.00000000000E+00 -0.15195403903E+04  0.15195403903E+04  0.25500000920E-02 0.  1.
    10030    2    1    2    0    0  0.00000000000E+00  0.00000000000E+00 -0.32031536644E+03  0.27187654142E+04  0.26998302620E+04 0.  0.
        4    1    3    3  502    0  0.94888149063E+03 -0.53773991182E+03 -0.96117910223E+03  0.14537562297E+04  0.12699999809E+01 0.  1.
       -4    1    3    3    0  502 -0.94888149063E+03  0.53773991182E+03  0.64086373579E+03  0.12650091845E+04  0.12699999809E+01 0. -1.
</event>
<event>
 5   0  0.1964242E-07  0.2700203E+04  0.7818609E-02  0.8334939E-01
        1   -1    0    0  501    0  0.00000000000E+00  0.00000000000E+00  0.19057917003E+04  0.19057917003E+04  0.50400001928E-02 0.  1.
       -1   -1    0    0    0  501  0.00000000000E+00  0.00000000000E+00 -0.95643942105E+03  0.95643942106E+03  0.50400001928E-02 0. -1.
    10030    2    1    2    0    0  0.00000000000E+00  0.00000000000E+00  0.94935227924E+03  0.28622311214E+04  0.27002031853E+04 0.  0.
        2    1    3    3  502    0 -0.11505111109E+04 -0.45650377009E+03  0.10461980219E+04  0.16206794284E+04  0.25500000920E-02 0.  1.
       -2    1    3    3    0  502  0.11505111109E+04  0.45650377009E+03 -0.96845742648E+02  0.12415516930E+04  0.25500000920E-02 0. -1.
</event>
<event>
 5   0  0.4735120E-07  0.2697528E+04  0.7818609E-02  0.8335807E-01
       -2   -1    0    0    0  501  0.00000000000E+00  0.00000000000E+00  0.73895011168E+03  0.73895011168E+03  0.25500000920E-02 0.  1.
        2   -1    0    0  501    0  0.00000000000E+00  0.00000000000E+00 -0.24618232175E+04  0.24618232175E+04  0.25500000920E-02 0. -1.
    10030    2    1    2    0    0  0.00000000000E+00  0.00000000000E+00 -0.17228731058E+04  0.32007733292E+04  0.26975281585E+04 0.  0.
        2    1    3    3  502    0 -0.17072958183E+03 -0.13110269617E+04 -0.54476948778E+03  0.14299349912E+04  0.25500000920E-02 0. -1.
       -2    1    3    3    0  502  0.17072958183E+03  0.13110269617E+04 -0.11781036180E+04  0.17708383379E+04  0.25500000920E-02 0.  1.
</event>
<event>
 5   0  0.4992668E-07  0.2699786E+04  0.7818609E-02  0.8335074E-01
        2   -1    0    0  501    0  0.00000000000E+00  0.00000000000E+00  0.13232371655E+04  0.13232371655E+04  0.25500000920E-02 0.  1.
       -2   -1    0    0    0  501  0.00000000000E+00  0.00000000000E+00 -0.13770861742E+04  0.13770861742E+04  0.25500000920E-02 0. -1.
    10030    2    1    2    0    0  0.00000000000E+00  0.00000000000E+00 -0.53849008643E+02  0.27003233397E+04  0.26997863662E+04 0.  0.
        1    1    3    3  502    0  0.28984230245E+03  0.76098601766E+03  0.10499062398E+04  0.13286878459E+04  0.50400001928E-02 0.  1.
       -1    1    3    3    0  502 -0.28984230245E+03 -0.76098601766E+03 -0.11037552485E+04  0.13716354938E+04  0.50400001928E-02 0. -1.
</event>
<event>
 5   0  0.4843887E-07  0.2700193E+04  0.7818609E-02  0.8334942E-01
        2   -1    0    0  501    0  0.00000000000E+00  0.00000000000E+00  0.20873374431E+04  0.20873374431E+04  0.25500000920E-02 0. -1.
       -2   -1    0    0    0  501  0.00000000000E+00  0.00000000000E+00 -0.87324671447E+03  0.87324671447E+03  0.25500000920E-02 0.  1.
    10030    2    1    2    0    0  0.00000000000E+00  0.00000000000E+00  0.12140907286E+04  0.29605841576E+04  0.27001930036E+04 0.  0.
        5    1    3    3  502    0  0.92746603592E+03  0.36037377506E+03 -0.39346275800E+03  0.10699988493E+04  0.46999998093E+01 0.  1.
       -5    1    3    3    0  502 -0.92746603592E+03 -0.36037377506E+03  0.16075534866E+04  0.18905853083E+04  0.46999998093E+01 0. -1.
</event>
<event>
 5   0  0.1964242E-07  0.2700256E+04  0.7818609E-02  0.8334922E-01
       -1   -1    0    0    0  501  0.00000000000E+00  0.00000000000E+00  0.22635233492E+04  0.22635233492E+04  0.50400001928E-02 0.  1.
        1   -1    0    0  501    0  0.00000000000E+00  0.00000000000E+00 -0.80531348113E+03  0.80531348114E+03  0.50400001928E-02 0. -1.
    10030    2    1    2    0    0  0.00000000000E+00  0.00000000000E+00  0.14582098681E+04  0.30688368304E+04  0.27002561864E+04 0.  0.
        2    1    3    3  502    0 -0.12063013134E+04 -0.60552165633E+03  0.69269203377E+03  0.15171162081E+04  0.25500000920E-02 0.  1.
       -2    1    3    3    0  502  0.12063013134E+04  0.60552165633E+03  0.76551783434E+03  0.15517206223E+04  0.25500000920E-02 0. -1.
</event>
<event>
 5   0  0.1965415E-07  0.2704885E+04  0.7818609E-02  0.8333422E-01
       -1   -1    0    0    0  501  0.00000000000E+00  0.00000000000E+00  0.62411945803E+03  0.62411945805E+03  0.50400001928E-02 0.  1.
        1   -1    0    0  501    0  0.00000000000E+00  0.00000000000E+00 -0.29306890790E+04  0.29306890790E+04  0.50400001928E-02 0. -1.
    10030    2    1    2    0    0  0.00000000000E+00  0.00000000000E+00 -0.23065696209E+04  0.35548085370E+04  0.27048845296E+04 0.  0.
        4    1    3    3  502    0 -0.48436302223E+03 -0.56240418210E+02  0.50457318894E+03  0.70168813432E+03  0.12699999809E+01 0.  1.
       -4    1    3    3    0  502  0.48436302223E+03  0.56240418210E+02 -0.28111428099E+04  0.28531204027E+04  0.12699999809E+01 0. -1.
</event>
<event>
 5   0  0.4983208E-07  0.2701200E+04  0.7818609E-02  0.8334616E-01
        2   -1    0    0  501    0  0.00000000000E+00  0.00000000000E+00  0.12564904308E+04  0.12564904308E+04  0.25500000920E-02 0. -1.
       -2   -1    0    0    0  501  0.00000000000E+00  0.00000000000E+00 -0.14517578965E+04  0.14517578965E+04  0.25500000920E-02 0.  1.
    10030    2    1    2    0    0  0.00000000000E+00  0.00000000000E+00 -0.19526746572E+03  0.27082483272E+04  0.27011996629E+04 0.  0.
        4    1    3    3  502    0 -0.12741628142E+03 -0.15883945329E+03  0.12410107548E+04  0.12576065312E+04  0.12699999809E+01 0. -1.
       -4    1    3    3    0  502  0.12741628142E+03  0.15883945329E+03 -0.14362782206E+04  0.14506417961E+04  0.12699999809E+01 0.  1.
</event>
<event>
 5   0  0.5043890E-07  0.2699917E+04  0.7818609E-02  0.8335032E-01
       -2   -1    0    0    0  501  0.00000000000E+00  0.00000000000E+00  0.16035428120E+04  0.16035428120E+04  0.25500000920E-02 0. -1.
        2   -1    0    0  501    0  0.00000000000E+00  0.00000000000E+00 -0.11364756583E+04  0.11364756583E+04  0.25500000920E-02 0.  1.
    10030    2    1    2    0    0  0.00000000000E+00  0.00000000000E+00  0.46706715364E+03  0.27400184703E+04  0.26999165712E+04 0.  0.
        3    1    3    3  502    0 -0.68836200701E+03 -0.70344384060E+02 -0.94281931037E+03  0.11694865742E+04  0.10100000352E+00 0.  1.
       -3    1    3    3    0  502  0.68836200701E+03  0.70344384060E+02  0.14098864640E+04  0.15705318961E+04  0.10100000352E+00 0. -1.
</event>
<event>
 5   0  0.1888149E-07  0.2697597E+04  0.7818609E-02  0.8335785E-01
        1   -1    0    0  501    0  0.00000000000E+00  0.00000000000E+00  0.12570648190E+04  0.12570648191E+04  0.50400001928E-02 0.  1.
       -1   -1    0    0    0  501  0.00000000000E+00  0.00000000000E+00 -0.14472262025E+04  0.14472262025E+04  0.50400001928E-02 0. -1.
    10030    2    1    2    0    0  0.00000000000E+00  0.00000000000E+00 -0.19016138348E+03  0.27042910216E+04  0.26975968153E+04 0.  0.
        1    1    3    3  502    0 -0.38371120038E+03  0.17067987460E+03 -0.13800146090E+04  0.14424999917E+04  0.50400001928E-02 0. -1.
       -1    1    3    3    0  502  0.38371120038E+03 -0.17067987460E+03  0.11898532255E+04  0.12617910299E+04  0.50400001928E-02 0.  1.
</event>
<event>
 5   0  0.1937896E-07  0.2701431E+04  0.7818609E-02  0.8334541E-01
       -1   -1    0    0    0  501  0.00000000000E+00  0.00000000000E+00  0.93216425314E+03  0.93216425316E+03  0.50400001928E-02 0.  1.
        1   -1    0    0  501    0  0.00000000000E+00  0.00000000000E+00 -0.19571999227E+04  0.19571999227E+04  0.50400001928E-02 0. -1.
    10030    2    1    2    0    0  0.00000000000E+00  0.00000000000E+00 -0.10250356696E+04  0.28893641759E+04  0.27014305871E+04 0.  0.
        3    1    3    3  502    0  0.29103433942E+02 -0.38554511852E+03  0.87171155258E+03  0.95361055436E+03  0.10100000352E+00 0.  1.
       -3    1    3    3    0  502 -0.29103433942E+02  0.38554511852E+03 -0.18967472222E+04  0.19357536215E+04  0.10100000352E+00 0. -1.
</event>
<event>
 5   0  0.1964242E-07  0.2701061E+04  0.7818609E-02  0.8334661E-01
       -1   -1    0    0    0  501  0.00000000000E+00  0.00000000000E+00  0.20426769857E+04  0.20426769857E+04  0.50400001928E-02 0.  1.
        1   -1    0    0  501    0  0.00000000000E+00  0.00000000000E+00 -0.89291283895E+03  0.89291283896E+03  0.50400001928E-02 0. -1.
    10030    2    1    2    0    0  0.00000000000E+00  0.00000000000E+00  0.11497641467E+04  0.29355898246E+04  0.27010609074E+04 0.  0.
        2    1    3    3  502    0  0.98558788917E+03 -0.92287457327E+03  0.54316714006E+03  0.14553733223E+04  0.25500000920E-02 0. -1.
       -2    1    3    3    0  502 -0.98558788917E+03  0.92287457327E+03  0.60659700665E+03  0.14802165023E+04  0.25500000920E-02 0.  1.
</event>
<event>
 5   0  0.1964242E-07  0.2699116E+04  0.7818609E-02  0.8335292E-01
        1   -1    0    0  501    0  0.00000000000E+00  0.00000000000E+00  0.13665414653E+04  0.13665414654E+04  0.50400001928E-02 0.  1.
       -1   -1    0    0    0  501  0.00000000000E+00  0.00000000000E+00 -0.13327856877E+04  0.13327856878E+04  0.50400001928E-02 0. -1.
    10030    2    1    2    0    0  0.00000000000E+00  0.00000000000E+00  0.33755777592E+02  0.26993271531E+04  0.26991160825E+04 0.  0.
        2    1    3    3  502    0  0.10706068166E+04 -0.84226252273E+02 -0.80050719226E+03  0.13394419667E+04  0.25500000920E-02 0. -1.
       -2    1    3    3    0  502 -0.10706068166E+04  0.84226252273E+02  0.83426296986E+03  0.13598851864E+04  0.25500000920E-02 0.  1.
</event>
<event>
 5   0  0.4843887E-07  0.2701647E+04  0.7818609E-02  0.8334471E-01
       -2   -1    0    0    0  501  0.00000000000E+00  0.00000000000E+00  0.10674662829E+04  0.10674662829E+04  0.25500000920E-02 0.  1.
        2   -1    0    0  501    0  0.00000000000E+00  0.00000000000E+00 -0.17093974879E+04  0.17093974879E+04  0.25500000920E-02 0. -1.
    10030    2    1    2    0    0  0.00000000000E+00  0.00000000000E+00 -0.64193120501E+03  0.27768637708E+04  0.27016470402E+04 0.  0.
        5    1    3    3  502    0  0.84367495333E+03 -0.96149654637E+02  0.75883997385E+03  0.11388118277E+04  0.46999998093E+01 0.  1.
       -5    1    3    3    0  502 -0.84367495333E+03  0.96149654637E+02 -0.14007711789E+04  0.16380519432E+04  0.46999998093E+01 0. -1.
</event>
<event>
 5   0  0.1971600E-07  0.2698959E+04  0.7818609E-02  0.8335343E-01
       -1   -1    0    0    0  501  0.00000000000E+00  0.00000000000E+00  0.10557431927E+04  0.10557431927E+04  0.50400001928E-02 0. -1.
        1   -1    0    0  501    0  0.00000000000E+00  0.00000000000E+00 -0.17249415059E+04  0.17249415059E+04  0.50400001928E-02 0.  1.
    10030    2    1    2    0    0  0.00000000000E+00  0.00000000000E+00 -0.66919831319E+03  0.27806846986E+04  0.26989592459E+04 0.  0.
        5    1    3    3  502    0 -0.11303086240E+04 -0.61221552120E+03 -0.75772682397E+03  0.14921720610E+04  0.46999998093E+01 0.  1.
       -5    1    3    3    0  502  0.11303086240E+04  0.61221552120E+03  0.88528510772E+02  0.12885126376E+04  0.46999998093E+01 0. -1.
</event>
<event>
 5   0  0.1937896E-07  0.2700604E+04  0.7818609E-02  0.8334809E-01
        1   -1    0    0  501    0  0.00000000000E+00  0.00000000000E+00  0.21560648437E+04  0.21560648437E+04  0.50400001928E-02 0. -1.
       -1   -1    0    0    0  501  0.00000000000E+00  0.00000000000E+00 -0.84566792584E+03  0.84566792585E+03  0.50400001928E-02 0.  1.
    10030    2    1    2    0    0  0.00000000000E+00  0.00000000000E+00  0.13103969178E+04  0.30017327695E+04  0.27006035506E+04 0.  0.
        3    1    3    3  502    0  0.11690457559E+04 -0.36472173770E+02  0.14052100411E+04  0.18282815616E+04  0.10100000352E+00 0. -1.
       -3    1    3    3    0  502 -0.11690457559E+04  0.36472173770E+02 -0.94813123283E+02  0.11734512079E+04  0.10100000352E+00 0.  1.
</event>
<event>
 5   0  0.1971600E-07  0.2684625E+04  0.7818609E-02  0.8340011E-01
        1   -1    0    0  501    0  0.00000000000E+00  0.00000000000E+00  0.16014638333E+04  0.16014638333E+04  0.50400001928E-02 0. -1.
       -1   -1    0    0    0  501  0.00000000000E+00  0.00000000000E+00 -0.11250977118E+04  0.11250977118E+04  0.50400001928E-02 0.  1.
    10030    2    1    2    0    0  0.00000000000E+00  0.00000000000E+00  0.47636612150E+03  0.27265615450E+04  0.26846253327E+04 0.  0.
        5    1    3    3  502    0  0.31265182189E+02  0.12473095805E+04  0.74091283517E+03  0.14511142686E+04  0.46999998093E+01 0. -1.
       -5    1    3    3    0  502 -0.31265182189E+02 -0.12473095805E+04 -0.26454671367E+03  0.12754472764E+04  0.46999998093E+01 0.  1.
</event>
<event>
 5   0  0.1888149E-07  0.2699807E+04  0.7818609E-02  0.8335067E-01
       -1   -1    0    0    0  501  0.00000000000E+00  0.00000000000E+00  0.10487541066E+04  0.10487541066E+04  0.50400001928E-02 0.  1.
        1   -1    0    0  501    0  0.00000000000E+00  0.00000000000E+00 -0.17375284207E+04  0.17375284207E+04  0.50400001928E-02 0. -1.
    10030    2    1    2    0    0  0.00000000000E+00  0.00000000000E+00 -0.68877431410E+03  0.27862825272E+04  0.26998074498E+04 0.  0.
        1    1    3    3  502    0  0.32322050148E+03  0.88287203427E+02  0.10051570225E+04  0.10595313883E+04  0.50400001928E-02 0.  1.
       -1    1    3    3    0  502 -0.32322050148E+03 -0.88287203427E+02 -0.16939313366E+04  0.17267511390E+04  0.50400001928E-02 0. -1.
</event>
<event>
 5   0  0.4735120E-07  0.2700763E+04  0.7818609E-02  0.8334758E-01
       -2   -1    0    0    0  501  0.00000000000E+00  0.00000000000E+00  0.81703426190E+03  0.81703426190E+03  0.25500000920E-02 0.  1.
        2   -1    0    0  501    0  0.00000000000E+00  0.00000000000E+00 -0.22318889456E+04  0.22318889456E+04  0.25500000920E-02 0. -1.
    10030    2    1    2    0    0  0.00000000000E+00  0.00000000000E+00 -0.14148546837E+04  0.30489232075E+04  0.27007626607E+04 0.  0.
        2    1    3    3  502    0 -0.84326545369E+03  0.95410074021E+03 -0.12149669769E+04  0.17599856825E+04  0.25500000920E-02 0. -1.
       -2    1    3    3    0  502  0.84326545369E+03 -0.95410074021E+03 -0.19988770680E+03  0.12889375249E+04  0.25500000920E-02 0.  1.
</event>
<event>
 5   0  0.4992668E-07  0.2699990E+04  0.7818609E-02  0.8335008E-01
       -2   -1    0    0    0  501  0.00000000000E+00  0.00000000000E+00  0.20310357446E+04  0.20310357446E+04  0.25500000920E-02 0.  1.
        2   -1    0    0  501    0  0.00000000000E+00  0.00000000000E+00 -0.89731888335E+03  0.89731888335E+03  0.25500000920E-02 0. -1.
    10030    2    1    2    0    0  0.00000000000E+00  0.00000000000E+00  0.11337168613E+04  0.29283546280E+04  0.26999901677E+04 0.  0.
        1    1    3    3  502    0  0.12481263737E+04  0.50740330861E+03  0.47477023950E+03  0.14285252335E+04  0.50400001928E-02 0. -1.
       -1    1    3    3    0  502 -0.12481263737E+04 -0.50740330861E+03  0.65894662176E+03  0.14998293945E+04  0.50400001928E-02 0.  1.
</event>
<event>
 5   0  0.1641625E-07  0.2700811E+04  0.7818609E-02  0.8334742E-01
        3   -1    0    0  501    0  0.00000000000E+00  0.00000000000E+00  0.15701457545E+04  0.15701457578E+04  0.10100000352E+00 0. -1.
       -3   -1    0    0    0  501  0.00000000000E+00  0.00000000000E+00 -0.11614177948E+04  0.11614177992E+04  0.10100000352E+00 0.  1.
    10030    2    1    2    0    0  0.00000000000E+00  0.00000000000E+00  0.40872795969E+03  0.27315635570E+04  0.27008111598E+04 0.  0.
        4    1    3    3  502    0  0.55099563003E+03  0.82956545817E+03 -0.71806173156E+03  0.12277578332E+04  0.12699999809E+01 0.  1.
       -4    1    3    3    0  502 -0.55099563003E+03 -0.82956545817E+03  0.11267896912E+04  0.15038057238E+04  0.12699999809E+01 0. -1.
</event>
<event>
 5   0  0.1964242E-07  0.2701017E+04  0.7818609E-02  0.8334675E-01
       -1   -1    0    0    0  501  0.00000000000E+00  0.00000000000E+00  0.10378375846E+04  0.10378375846E+04  0.50400001928E-02 0.  1.
        1   -1    0    0  501    0  0.00000000000E+00  0.00000000000E+00 -0.17573783675E+04  0.17573783675E+04  0.50400001928E-02 0. -1.
    10030    2    1    2    0    0  0.00000000000E+00  0.00000000000E+00 -0.71954078298E+03  0.27952159521E+04  0.27010170826E+04 0.  0.
        2    1    3    3  502    0  0.24838472151E+03 -0.98044449508E+03 -0.12859155576E+04  0.16360150363E+04  0.25500000920E-02 0. -1.
       -2    1    3    3    0  502 -0.24838472151E+03  0.98044449508E+03  0.56637477463E+03  0.11592009158E+04  0.25500000920E-02 0.  1.
</event>
<event>
 5   0  0.1937896E-07  0.2700046E+04  0.7818609E-02  0.8334990E-01
       -1   -1    0    0    0  501  0.00000000000E+00  0.00000000000E+00  0.11023557743E+04  0.11023557743E+04  0.50400001928E-02 0. -1.
        1   -1    0    0  501    0  0.00000000000E+00  0.00000000000E+00 -0.16533340418E+04  0.16533340418E+04  0.50400001928E-02 0.  1.
    10030    2    1    2    0    0  0.00000000000E+00  0.00000000000E+00 -0.55097826747E+03  0.27556898161E+04  0.27000461684E+04 0.  0.
        3    1    3    3  502    0  0.65800988770E+03 -0.72115726265E+03  0.67620700328E+03  0.11875608327E+04  0.10100000352E+00 0. -1.
       -3    1    3    3    0  502 -0.65800988770E+03  0.72115726265E+03 -0.12271852707E+04  0.15681289834E+04  0.10100000352E+00 0.  1.
</event>
<event>
 5   0  0.4735120E-07  0.2700414E+04  0.7818609E-02  0.8334871E-01
       -2   -1    0    0    0  501  0.00000000000E+00  0.00000000000E+00  0.85943763953E+03  0.85943763953E+03  0.25500000920E-02 0. -1.
        2   -1    0    0  501    0  0.00000000000E+00  0.00000000000E+00 -0.21212230747E+04  0.21212230747E+04  0.25500000920E-02 0.  1.
    10030    2    1    2    0    0  0.00000000000E+00  0.00000000000E+00 -0.12617854351E+04  0.29806607142E+04  0.27004140069E+04 0.  0.
        2    1    3    3  502    0 -0.11886946623E+04 -0.63859013263E+03 -0.68344228118E+03  0.15125758524E+04  0.25500000920E-02 0.  1.
       -2    1    3    3    0  502  0.11886946623E+04  0.63859013263E+03 -0.57834315396E+03  0.14680848618E+04  0.25500000920E-02 0. -1.
</event>
<event>
 5   0  0.4992668E-07  0.2701334E+04  0.7818609E-02  0.8334572E-01
        2   -1    0    0  501    0  0.00000000000E+00  0.00000000000E+00  0.15007951749E+04  0.15007951749E+04  0.25500000920E-02 0. -1.
       -2   -1    0    0    0  501  0.00000000000E+00  0.00000000000E+00 -0.12155564502E+04  0.12155564502E+04  0.25500000920E-02 0.  1.
    10030    2    1    2    0    0  0.00000000000E+00  0.00000000000E+00  0.28523872476E+03  0.27163516251E+04  0.27013339336E+04 0.  0.
        1    1    3    3  502    0 -0.10453299135E+04  0.68635920758E+03  0.65584652239E+03  0.14120687840E+04  0.50400001928E-02 0. -1.
       -1    1    3    3    0  502  0.10453299135E+04 -0.68635920758E+03 -0.37060779763E+03  0.13042828411E+04  0.50400001928E-02 0.  1.
</event>
<event>
 5   0  0.1888149E-07  0.2700666E+04  0.7818609E-02  0.8334789E-01
       -1   -1    0    0    0  501  0.00000000000E+00  0.00000000000E+00  0.91241507901E+03  0.91241507903E+03  0.50400001928E-02 0. -1.
        1   -1    0    0  501    0  0.00000000000E+00  0.00000000000E+00 -0.19984323713E+04  0.19984323713E+04  0.50400001928E-02 0.  1.
    10030    2    1    2    0    0  0.00000000000E+00  0.00000000000E+00 -0.10860172923E+04  0.29108474503E+04  0.27006664585E+04 0.  0.
        1    1    3    3  502    0  0.20034159556E+03  0.47486908456E+02 -0.19814144895E+04  0.19920831159E+04  0.50400001928E-02 0.  1.
       -1    1    3    3    0  502 -0.20034159556E+03 -0.47486908456E+02  0.89539719723E+03  0.91876433443E+03  0.50400001928E-02 0. -1.
</event>
<event>
 5   0  0.4735120E-07  0.2699499E+04  0.7818609E-02  0.8335168E-01
       -2   -1    0    0    0  501  0.00000000000E+00  0.00000000000E+00  0.85539754078E+03  0.85539754079E+03  0.25500000920E-02 0. -1.
        2   -1    0    0  501    0  0.00000000000E+00  0.00000000000E+00 -0.21297973892E+04  0.21297973892E+04  0.25500000920E-02 0.  1.
    10030    2    1    2    0    0  0.00000000000E+00  0.00000000000E+00 -0.12743998484E+04  0.29851949300E+04  0.26994988047E+04 0.  0.
        2    1    3    3  502    0 -0.83362479808E+03  0.98451448845E+03 -0.10762370372E+04  0.16800253695E+04  0.25500000920E-02 0.  1.
       -2    1    3    3    0  502  0.83362479808E+03 -0.98451448845E+03 -0.19816281127E+03  0.13051695605E+04  0.25500000920E-02 0. -1.
</event>
<event>
 5   0  0.1965415E-07  0.2701795E+04  0.7818609E-02  0.8334423E-01
       -1   -1    0    0    0  501  0.00000000000E+00  0.00000000000E+00  0.23745402611E+04  0.23745402611E+04  0.50400001928E-02 0. -1.
        1   -1    0    0  501    0  0.00000000000E+00  0.00000000000E+00 -0.76853770781E+03  0.76853770783E+03  0.50400001928E-02 0.  1.
    10030    2    1    2    0    0  0.00000000000E+00  0.00000000000E+00  0.16060025533E+04  0.31430779690E+04  0.27017947586E+04 0.  0.
        4    1    3    3  502    0  0.10915041024E+04  0.65907402201E+03  0.13221674821E+04  0.18368146982E+04  0.12699999809E+01 0.  1.
       -4    1    3    3    0  502 -0.10915041024E+04 -0.65907402201E+03  0.28383507122E+03  0.13062632707E+04  0.12699999809E+01 0. -1.
</event>
<event>
 5   0  0.1937896E-07  0.2700224E+04  0.7818609E-02  0.8334932E-01
       -1   -1    0    0    0  501  0.00000000000E+00  0.00000000000E+00  0.10551432664E+04  0.10551432664E+04  0.50400001928E-02 0.  1.
        1   -1    0    0  501    0  0.00000000000E+00  0.00000000000E+00 -0.17275404810E+04  0.17275404810E+04  0.50400001928E-02 0. -1.
    10030    2    1    2    0    0  0.00000000000E+00  0.00000000000E+00 -0.67239721461E+03  0.27826837475E+04  0.27002242174E+04 0.  0.
        3    1    3    3  502    0 -0.29193128901E+03  0.13176005532E+04 -0.29618504990E+03  0.13816731485E+04  0.10100000352E+00 0. -1.
       -3    1    3    3    0  502  0.29193128901E+03 -0.13176005532E+04 -0.37621216471E+03  0.14010105990E+04  0.10100000352E+00 0.  1.
</event>
<event>
 5   0  0.4843887E-07  0.2701972E+04  0.7818609E-02  0.8334365E-01
       -2   -1    0    0    0  501  0.00000000000E+00  0.00000000000E+00  0.87366302075E+03  0.87366302076E+03  0.25500000920E-02 0.  1.
        2   -1    0    0  501    0  0.00000000000E+00  0.00000000000E+00 -0.20890934828E+04  0.20890934828E+04  0.25500000920E-02 0. -1.
    10030    2    1    2    0    0  0.00000000000E+00  0.00000000000E+00 -0.12154304620E+04  0.29627565035E+04  0.27019724076E+04 0.  0.
        5    1    3    3  502    0  0.57100987572E+03  0.99092571786E+03  0.18082826930E+03  0.11578890316E+04  0.46999998093E+01 0.  1.
       -5    1    3    3    0  502 -0.57100987572E+03 -0.99092571786E+03 -0.13962587313E+04  0.18048674720E+04  0.46999998093E+01 0. -1.
</event>
<event>
 5   0  0.4735120E-07  0.2701039E+04  0.7818609E-02  0.8334668E-01
       -2   -1    0    0    0  501  0.00000000000E+00  0.00000000000E+00  0.11041306730E+04  0.11041306730E+04  0.25500000920E-02 0. -1.
        2   -1    0    0  501    0  0.00000000000E+00  0.00000000000E+00 -0.16518903688E+04  0.16518903688E+04  0.25500000920E-02 0.  1.
    10030    2    1    2    0    0  0.00000000000E+00  0.00000000000E+00 -0.54775969578E+03  0.27560210418E+04  0.27010389295E+04 0.  0.
        2    1    3    3  502    0 -0.46369698019E+03  0.30070163236E+03  0.98346465592E+03  0.11281130664E+04  0.25500000920E-02 0. -1.
       -2    1    3    3    0  502  0.46369698019E+03 -0.30070163236E+03 -0.15312243517E+04  0.16279079754E+04  0.25500000920E-02 0.  1.
</event>
<event>
 5   0  0.1641625E-07  0.2699091E+04  0.7818609E-02  0.8335300E-01
       -3   -1    0    0    0  501  0.00000000000E+00  0.00000000000E+00  0.18782811790E+04  0.18782811817E+04  0.10100000352E+00 0. -1.
        3   -1    0    0  501    0  0.00000000000E+00  0.00000000000E+00 -0.96964887762E+03  0.96964888288E+03  0.10100000352E+00 0.  1.
    10030    2    1    2    0    0  0.00000000000E+00  0.00000000000E+00  0.90863230133E+03  0.28479300645E+04  0.26990911421E+04 0.  0.
        2    1    3    3  502    0 -0.63548276336E+03 -0.44290483037E+03  0.16203674399E+04  0.17959937838E+04  0.25500000920E-02 0. -1.
       -2    1    3    3    0  502  0.63548276336E+03  0.44290483037E+03 -0.71173513854E+03  0.10519362807E+04  0.25500000920E-02 0.  1.
</event>
<event>
 5   0  0.1964242E-07  0.2699994E+04  0.7818609E-02  0.8335007E-01
       -1   -1    0    0    0  501  0.00000000000E+00  0.00000000000E+00  0.68490400469E+03  0.68490400471E+03  0.50400001928E-02 0. -1.
        1   -1    0    0  501    0  0.00000000000E+00  0.00000000000E+00 -0.26609457123E+04  0.26609457123E+04  0.50400001928E-02 0.  1.
    10030    2    1    2    0    0  0.00000000000E+00  0.00000000000E+00 -0.19760417076E+04  0.33458497170E+04  0.26999943516E+04 0.  0.
        2    1    3    3  502    0 -0.97588309233E+03  0.36169129100E+03  0.77497584626E+02  0.10436351257E+04  0.25500000920E-02 0. -1.
       -2    1    3    3    0  502  0.97588309233E+03 -0.36169129100E+03 -0.20535392922E+04  0.23022145913E+04  0.25500000920E-02 0.  1.
</event>
<event>
 5   0  0.1888149E-07  0.2699422E+04  0.7818609E-02  0.8335193E-01
       -1   -1    0    0    0  501  0.00000000000E+00  0.00000000000E+00  0.19969825013E+04  0.19969825013E+04  0.50400001928E-02 0.  1.
        1   -1    0    0  501    0  0.00000000000E+00  0.00000000000E+00 -0.91223617354E+03  0.91223617356E+03  0.50400001928E-02 0. -1.
    10030    2    1    2    0    0  0.00000000000E+00  0.00000000000E+00  0.10847463277E+04  0.29092186748E+04  0.26994219200E+04 0.  0.
        1    1    3    3  502    0 -0.54120706059E+03 -0.56365751861E+03  0.17284053047E+04  0.18968394181E+04  0.50400001928E-02 0.  1.
       -1    1    3    3    0  502  0.54120706059E+03  0.56365751861E+03 -0.64365897700E+03  0.10123792567E+04  0.50400001928E-02 0. -1.
</event>
<event>
 5   0  0.4735120E-07  0.2700095E+04  0.7818609E-02  0.8334974E-01
        2   -1    0    0  501    0  0.00000000000E+00  0.00000000000E+00  0.18881385335E+04  0.18881385335E+04  0.25500000920E-02 0.  1.
       -2   -1    0    0    0  501  0.00000000000E+00  0.00000000000E+00 -0.96530443478E+03  0.96530443479E+03  0.25500000920E-02 0. -1.
    10030    2    1    2    0    0  0.00000000000E+00  0.00000000000E+00  0.92283409870E+03  0.28534429683E+04  0.27000951834E+04 0.  0.
        2    1    3    3  502    0  0.10586660055E+04  0.12820896766E+03 -0.41350152669E+03  0.11437634210E+04  0.25500000920E-02 0. -1.
       -2    1    3    3    0  502 -0.10586660055E+04 -0.12820896766E+03  0.13363356254E+04  0.17096795473E+04  0.25500000920E-02 0.  1.
</event>
<event>
 5   0  0.1888149E-07  0.2699837E+04  0.7818609E-02  0.8335058E-01
       -1   -1    0    0    0  501  0.00000000000E+00  0.00000000000E+00  0.90289678223E+03  0.90289678225E+03  0.50400001928E-02 0. -1.
        1   -1    0    0  501    0  0.00000000000E+00  0.00000000000E+00 -0.20182596311E+04  0.20182596311E+04  0.50400001928E-02 0.  1.
    10030    2    1    2    0    0  0.00000000000E+00  0.00000000000E+00 -0.11153628488E+04  0.29211564133E+04  0.26998371259E+04 0.  0.
        1    1    3    3  502    0  0.11405185089E+04 -0.16192696477E+03  0.20376870594E+03  0.11698395174E+04  0.50400001928E-02 0. -1.
       -1    1    3    3    0  502 -0.11405185089E+04  0.16192696477E+03 -0.13191315548E+04  0.17513168959E+04  0.50400001928E-02 0.  1.
</event>
<event>
 5   0  0.4843887E-07  0.2700048E+04  0.7818609E-02  0.8334990E-01
        2   -1    0    0  501    0  0.00000000000E+00  0.00000000000E+00  0.12053459033E+04  0.12053459033E+04  0.25500000920E-02 0.  1.
       -2   -1    0    0    0  501  0.00000000000E+00  0.00000000000E+00 -0.15120673084E+04  0.15120673084E+04  0.25500000920E-02 0. -1.
    10030    2    1    2    0    0  0.00000000000E+00  0.00000000000E+00 -0.30672140514E+03  0.27174132117E+04  0.27000475075E+04 0.  0.
        5    1    3    3  502    0 -0.87812453332E+03  0.79682815145E+03  0.49616148912E+03  0.12853933687E+04  0.46999998093E+01 0.  1.
       -5    1    3    3    0  502  0.87812453332E+03 -0.79682815145E+03 -0.80288289426E+03  0.14320198430E+04  0.46999998093E+01 0. -1.
</event>
<event>
 5   0  0.1937896E-07  0.2700489E+04  0.7818609E-02  0.8334846E-01
       -1   -1    0    0    0  501  0.00000000000E+00  0.00000000000E+00  0.16747674644E+04  0.16747674644E+04  0.50400001928E-02 0. -1.
        1   -1    0    0  501    0  0.00000000000E+00  0.00000000000E+00 -0.10886052315E+04  0.10886052315E+04  0.50400001928E-02 0.  1.
    10030    2    1    2    0    0  0.00000000000E+00  0.00000000000E+00  0.58616223285E+03  0.27633726959E+04  0.27004893063E+04 0.  0.
        3    1    3    3  502    0  0.80750126576E+03  0.61439211948E+03  0.12046816538E+04  0.15750536079E+04  0.10100000352E+00 0.  1.
       -3    1    3    3    0  502 -0.80750126576E+03 -0.61439211948E+03 -0.61851942091E+03  0.11883190880E+04  0.10100000352E+00 0. -1.
</event>
<event>
 5   0  0.1641625E-07  0.2697922E+04  0.7818609E-02  0.8335680E-01
        3   -1    0    0  501    0  0.00000000000E+00  0.00000000000E+00  0.15473714988E+04  0.15473715021E+04  0.10100000352E+00 0. -1.
       -3   -1    0    0    0  501  0.00000000000E+00  0.00000000000E+00 -0.11759912907E+04  0.11759912951E+04  0.10100000352E+00 0.  1.
    10030    2    1    2    0    0  0.00000000000E+00  0.00000000000E+00  0.37138020807E+03  0.27233627972E+04  0.26979217309E+04 0.  0.
        5    1    3    3  502    0 -0.97304028489E+02  0.13246936733E+04 -0.51884154025E+02  0.13292838137E+04  0.46999998093E+01 0.  1.
       -5    1    3    3    0  502  0.97304028489E+02 -0.13246936733E+04  0.42326436209E+03  0.13940789835E+04  0.46999998093E+01 0. -1.
</event>
<event>
 5   0  0.1971600E-07  0.2704360E+04  0.7818609E-02  0.8333592E-01
       -1   -1    0    0    0  501  0.00000000000E+00  0.00000000000E+00  0.11715157904E+04  0.11715157904E+04  0.50400001928E-02 0. -1.
        1   -1    0    0  501    0  0.00000000000E+00  0.00000000000E+00 -0.15607054304E+04  0.15607054305E+04  0.50400001928E-02 0.  1.
    10030    2    1    2    0    0  0.00000000000E+00  0.00000000000E+00 -0.38918964003E+03  0.27322212209E+04  0.27043602245E+04 0.  0.
        5    1    3    3  502    0 -0.74561294641E+03  0.57208284332E+03  0.78760995030E+03  0.12262010313E+04  0.46999998093E+01 0. -1.
       -5    1    3    3    0  502  0.74561294641E+03 -0.57208284332E+03 -0.11767995903E+04  0.15060201895E+04  0.46999998093E+01 0.  1.
</event>
<event>
 5   0  0.4735120E-07  0.2700770E+04  0.7818609E-02  0.8334755E-01
        2   -1    0    0  501    0  0.00000000000E+00  0.00000000000E+00  0.15084477848E+04  0.15084477848E+04  0.25500000920E-02 0. -1.
       -2   -1    0    0    0  501  0.00000000000E+00  0.00000000000E+00 -0.12088852659E+04  0.12088852659E+04  0.25500000920E-02 0.  1.
    10030    2    1    2    0    0  0.00000000000E+00  0.00000000000E+00  0.29956251885E+03  0.27173330507E+04  0.27007704838E+04 0.  0.
        2    1    3    3  502    0 -0.11852425399E+04  0.14186146848E+03  0.78501333294E+03  0.14286953796E+04  0.25500000920E-02 0. -1.
       -2    1    3    3    0  502  0.11852425399E+04 -0.14186146848E+03 -0.48545081409E+03  0.12886376712E+04  0.25500000920E-02 0.  1.
</event>
<event>
 5   0  0.1888149E-07  0.2702510E+04  0.7818609E-02  0.8334191E-01
       -1   -1    0    0    0  501  0.00000000000E+00  0.00000000000E+00  0.82298210128E+03  0.82298210130E+03  0.50400001928E-02 0.  1.
        1   -1    0    0  501    0  0.00000000000E+00  0.00000000000E+00 -0.22186267949E+04  0.22186267949E+04  0.50400001928E-02 0. -1.
    10030    2    1    2    0    0  0.00000000000E+00  0.00000000000E+00 -0.13956446937E+04  0.30416088962E+04  0.27025100493E+04 0.  0.
        1    1    3    3  502    0 -0.12391258126E+04  0.19087576056E+03 -0.12650707236E+04  0.17810868230E+04  0.50400001928E-02 0. -1.
       -1    1    3    3    0  502  0.12391258126E+04 -0.19087576056E+03 -0.13057397007E+03  0.12605220732E+04  0.50400001928E-02 0.  1.
</event>
<event>
 5   0  0.4735120E-07  0.2700581E+04  0.7818609E-02  0.8334816E-01
        2   -1    0    0  501    0  0.00000000000E+00  0.00000000000E+00  0.15675510122E+04  0.15675510122E+04  0.25500000920E-02 0. -1.
       -2   -1    0    0    0  501  0.00000000000E+00  0.00000000000E+00 -0.11631419644E+04  0.11631419644E+04  0.25500000920E-02 0.  1.
    10030    2    1    2    0    0  0.00000000000E+00  0.00000000000E+00  0.40440904772E+03  0.27306929766E+04  0.27005809476E+04 0.  0.
        2    1    3    3  502    0 -0.13287495204E+04  0.92453858046E+00  0.44510844020E+03  0.14013199728E+04  0.25500000920E-02 0.  1.
       -2    1    3    3    0  502  0.13287495204E+04 -0.92453858046E+00 -0.40699392483E+02  0.13293730038E+04  0.25500000920E-02 0. -1.
</event>
<event>
 5   0  0.1964242E-07  0.2698216E+04  0.7818609E-02  0.8335584E-01
        1   -1    0    0  501    0  0.00000000000E+00  0.00000000000E+00  0.10409577715E+04  0.10409577715E+04  0.50400001928E-02 0.  1.
       -1   -1    0    0    0  501  0.00000000000E+00  0.00000000000E+00 -0.17484787636E+04  0.17484787636E+04  0.50400001928E-02 0. -1.
    10030    2    1    2    0    0  0.00000000000E+00  0.00000000000E+00 -0.70752099206E+03  0.27894365351E+04  0.26982161198E+04 0.  0.
        2    1    3    3  502    0 -0.47990374021E+03 -0.36735022266E+03 -0.16007051727E+04  0.17109970298E+04  0.25500000920E-02 0. -1.
       -2    1    3    3    0  502  0.47990374021E+03  0.36735022266E+03  0.89318418066E+03  0.10784395053E+04  0.25500000920E-02 0.  1.
</event>
<event>
 5   0  0.1964242E-07  0.2703409E+04  0.7818609E-02  0.8333900E-01
       -1   -1    0    0    0  501  0.00000000000E+00  0.00000000000E+00  0.77909289189E+03  0.77909289191E+03  0.50400001928E-02 0.  1.
        1   -1    0    0  501    0  0.00000000000E+00  0.00000000000E+00 -0.23451691158E+04  0.23451691158E+04  0.50400001928E-02 0. -1.
    10030    2    1    2    0    0  0.00000000000E+00  0.00000000000E+00 -0.15660762239E+04  0.31242620077E+04  0.27034086546E+04 0.  0.
        2    1    3    3  502    0  0.10215413616E+03 -0.21191532051E+02  0.77443292619E+03  0.78142875922E+03  0.25500000920E-02 0.  1.
       -2    1    3    3    0  502 -0.10215413616E+03  0.21191532051E+02 -0.23405091501E+04  0.23428332485E+04  0.25500000920E-02 0. -1.
</event>
<event>
 5   0  0.1965415E-07  0.2697316E+04  0.7818609E-02  0.8335876E-01
        1   -1    0    0  501    0  0.00000000000E+00  0.00000000000E+00  0.16739617561E+04  0.16739617561E+04  0.50400001928E-02 0.  1.
       -1   -1    0    0    0  501  0.00000000000E+00  0.00000000000E+00 -0.10865708416E+04  0.10865708416E+04  0.50400001928E-02 0. -1.
    10030    2    1    2    0    0  0.00000000000E+00  0.00000000000E+00  0.58739091452E+03  0.27605325976E+04  0.26973157279E+04 0.  0.
        4    1    3    3  502    0 -0.75405172770E+03  0.10538536628E+04 -0.88794673464E+02  0.12988793853E+04  0.12699999809E+01 0. -1.
       -4    1    3    3    0  502  0.75405172770E+03 -0.10538536628E+04  0.67618558798E+03  0.14616532123E+04  0.12699999809E+01 0.  1.
</event>
<event>
 5   0  0.1965415E-07  0.2700766E+04  0.7818609E-02  0.8334756E-01
       -1   -1    0    0    0  501  0.00000000000E+00  0.00000000000E+00  0.15415852718E+04  0.15415852718E+04  0.50400001928E-02 0. -1.
        1   -1    0    0  501    0  0.00000000000E+00  0.00000000000E+00 -0.11828954543E+04  0.11828954543E+04  0.50400001928E-02 0.  1.
    10030    2    1    2    0    0  0.00000000000E+00  0.00000000000E+00  0.35868981758E+03  0.27244807261E+04  0.27007659731E+04 0.  0.
        4    1    3    3  502    0 -0.27098469530E+03  0.30284583114E+03 -0.11197454951E+04  0.11912094229E+04  0.12699999809E+01 0.  1.
       -4    1    3    3    0  502  0.27098469530E+03 -0.30284583114E+03  0.14784353127E+04  0.15332713032E+04  0.12699999809E+01 0. -1.
</event>
<event>
 5   0  0.1971600E-07  0.2708204E+04  0.7818609E-02  0.8332348E-01
       -1   -1    0    0    0  501  0.00000000000E+00  0.00000000000E+00  0.10237567859E+04  0.10237567859E+04  0.50400001928E-02 0.  1.
        1   -1    0    0  501    0  0.00000000000E+00  0.00000000000E+00 -0.17910422751E+04  0.17910422751E+04  0.50400001928E-02 0. -1.
    10030    2    1    2    0    0  0.00000000000E+00  0.00000000000E+00 -0.76728548914E+03  0.28147990610E+04  0.27082035987E+04 0.  0.
        5    1    3    3  502    0  0.10186425071E+04 -0.79038212572E+03 -0.81373337916E+03  0.15246378469E+04  0.46999998093E+01 0. -1.
       -5    1    3    3    0  502 -0.10186425071E+04  0.79038212572E+03  0.46447890025E+02  0.12901612141E+04  0.46999998093E+01 0.  1.
</event>
<event>
 5   0  0.1937896E-07  0.2696851E+04  0.7818609E-02  0.8336027E-01
       -1   -1    0    0    0  501  0.00000000000E+00  0.00000000000E+00  0.22435458498E+04  0.22435458498E+04  0.50400001928E-02 0. -1.
        1   -1    0    0  501    0  0.00000000000E+00  0.00000000000E+00 -0.81043669217E+03  0.81043669218E+03  0.50400001928E-02 0.  1.
    10030    2    1    2    0    0  0.00000000000E+00  0.00000000000E+00  0.14331091576E+04  0.30539825420E+04  0.26968514066E+04 0.  0.
        3    1    3    3  502    0 -0.76665617790E+03 -0.10387711989E+04  0.11572478128E+04  0.17337905898E+04  0.10100000352E+00 0. -1.
       -3    1    3    3    0  502  0.76665617790E+03  0.10387711989E+04  0.27586134480E+03  0.13201919522E+04  0.10100000352E+00 0.  1.
</event>
<event>
 5   0  0.4843887E-07  0.2699781E+04  0.7818609E-02  0.8335076E-01
        2   -1    0    0  501    0  0.00000000000E+00  0.00000000000E+00  0.17447184220E+04  0.17447184220E+04  0.25500000920E-02 0.  1.
       -2   -1    0    0    0  501  0.00000000000E+00  0.00000000000E+00 -0.10444119013E+04  0.10444119013E+04  0.25500000920E-02 0. -1.
    10030    2    1    2    0    0  0.00000000000E+00  0.00000000000E+00  0.70030652075E+03  0.27891303233E+04  0.26997812388E+04 0.  0.
        5    1    3    3  502    0 -0.32688561009E+03  0.11533725531E+04  0.99122187882E+03  0.15555273548E+04  0.46999998093E+01 0.  1.
       -5    1    3    3    0  502  0.32688561009E+03 -0.11533725531E+04 -0.29091535807E+03  0.12336029685E+04  0.46999998093E+01 0. -1.
</event>
<event>
 5   0  0.1971600E-07  0.2699049E+04  0.7818609E-02  0.8335314E-01
       -1   -1    0    0    0  501  0.00000000000E+00  0.00000000000E+00  0.20276984132E+04  0.20276984132E+04  0.50400001928E-02 0. -1.
        1   -1    0    0  501    0  0.00000000000E+00  0.00000000000E+00 -0.89816941225E+03  0.89816941227E+03  0.50400001928E-02 0.  1.
    10030    2    1    2    0    0  0.00000000000E+00  0.00000000000E+00  0.11295290009E+04  0.29258678254E+04  0.26990492341E+04 0.  0.
        5    1    3    3  502    0  0.12166726156E+04 -0.28197241179E+03  0.11189965383E+04  0.16768947603E+04  0.46999998093E+01 0. -1.
       -5    1    3    3    0  502 -0.12166726156E+04  0.28197241179E+03  0.10532462623E+02  0.12489730651E+04  0.46999998093E+01 0.  1.
</event>
<event>
 5   0  0.4992668E-07  0.2701222E+04  0.7818609E-02  0.8334609E-01
        2   -1    0    0  501    0  0.00000000000E+00  0.00000000000E+00  0.16787432669E+04  0.16787432669E+04  0.25500000920E-02 0. -1.
       -2   -1    0    0    0  501  0.00000000000E+00  0.00000000000E+00 -0.10866160848E+04  0.10866160848E+04  0.25500000920E-02 0.  1.
    10030    2    1    2    0    0  0.00000000000E+00  0.00000000000E+00  0.59212718210E+03  0.27653593516E+04  0.27012215281E+04 0.  0.
        1    1    3    3  502    0 -0.13222296539E+03 -0.11580145868E+04 -0.40253855443E+03  0.12330928528E+04  0.50400001928E-02 0.  1.
       -1    1    3    3    0  502  0.13222296539E+03  0.11580145868E+04  0.99466573653E+03  0.15322664988E+04  0.50400001928E-02 0. -1.
</event>
<event>
 5   0  0.1937896E-07  0.2699976E+04  0.7818609E-02  0.8335013E-01
        1   -1    0    0  501    0  0.00000000000E+00  0.00000000000E+00  0.11247804899E+04  0.11247804899E+04  0.50400001928E-02 0. -1.
       -1   -1    0    0    0  501  0.00000000000E+00  0.00000000000E+00 -0.16202879195E+04  0.16202879196E+04  0.50400001928E-02 0.  1.
    10030    2    1    2    0    0  0.00000000000E+00  0.00000000000E+00 -0.49550742963E+03  0.27450684095E+04  0.26999764739E+04 0.  0.
        3    1    3    3  502    0 -0.29279146393E+03  0.41721623809E+02 -0.15869462456E+04  0.16142694731E+04  0.10100000352E+00 0.  1.
       -3    1    3    3    0  502  0.29279146393E+03 -0.41721623809E+02  0.10914388160E+04  0.11307989363E+04  0.10100000352E+00 0. -1.
</event>
<event>
 5   0  0.1965415E-07  0.2700106E+04  0.7818609E-02  0.8334971E-01
       -1   -1    0    0    0  501  0.00000000000E+00  0.00000000000E+00  0.11743873496E+04  0.11743873496E+04  0.50400001928E-02 0. -1.
        1   -1    0    0  501    0  0.00000000000E+00  0.00000000000E+00 -0.15519943688E+04  0.15519943688E+04  0.50400001928E-02 0.  1.
    10030    2    1    2    0    0  0.00000000000E+00  0.00000000000E+00 -0.37760701916E+03  0.27263817184E+04  0.27001055931E+04 0.  0.
        4    1    3    3  502    0 -0.77978512328E+03 -0.10271957743E+04 -0.59199493513E+03  0.14190333377E+04  0.12699999809E+01 0. -1.
       -4    1    3    3    0  502  0.77978512328E+03  0.10271957743E+04  0.21438791597E+03  0.13073483808E+04  0.12699999809E+01 0.  1.
</event>
<event>
 5   0  0.4992668E-07  0.2702942E+04  0.7818609E-02  0.8334051E-01
        2   -1    0    0  501    0  0.00000000000E+00  0.00000000000E+00  0.18529245119E+04  0.18529245119E+04  0.25500000920E-02 0.  1.
       -2   -1    0    0    0  501  0.00000000000E+00  0.00000000000E+00 -0.98572483188E+03  0.98572483189E+03  0.25500000920E-02 0. -1.
    10030    2    1    2    0    0  0.00000000000E+00  0.00000000000E+00  0.86719967997E+03  0.28386493437E+04  0.27029418810E+04 0.  0.
        1    1    3    3  502    0  0.71288572528E+03 -0.54091138731E+03  0.14972076474E+04  0.17442539740E+04  0.50400001928E-02 0.  1.
       -1    1    3    3    0  502 -0.71288572528E+03  0.54091138731E+03 -0.63000796747E+03  0.10943953697E+04  0.50400001928E-02 0. -1.
</event>
<event>
 5   0  0.5043890E-07  0.2703700E+04  0.7818609E-02  0.8333806E-01
       -2   -1    0    0    0  501  0.00000000000E+00  0.00000000000E+00  0.98625784235E+03  0.98625784235E+03  0.25500000920E-02 0.  1.
        2   -1    0    0  501    0  0.00000000000E+00  0.00000000000E+00 -0.18529614894E+04  0.18529614894E+04  0.25500000920E-02 0. -1.
    10030    2    1    2    0    0  0.00000000000E+00  0.00000000000E+00 -0.86670364703E+03  0.28392193317E+04  0.27036995399E+04 0.  0.
        3    1    3    3  502    0 -0.94692026670E+03  0.86765245363E+03 -0.87642322340E+03  0.15548621960E+04  0.10100000352E+00 0. -1.
       -3    1    3    3    0  502  0.94692026670E+03 -0.86765245363E+03  0.97195763687E+01  0.12843571357E+04  0.10100000352E+00 0.  1.
</event>
<event>
 5   0  0.4992668E-07  0.2701514E+04  0.7818609E-02  0.8334514E-01
       -2   -1    0    0    0  501  0.00000000000E+00  0.00000000000E+00  0.85593309039E+03  0.85593309039E+03  0.25500000920E-02 0.  1.
        2   -1    0    0  501    0  0.00000000000E+00  0.00000000000E+00 -0.21316444404E+04  0.21316444404E+04  0.25500000920E-02 0. -1.
    10030    2    1    2    0    0  0.00000000000E+00  0.00000000000E+00 -0.12757113500E+04  0.29875775308E+04  0.27015144001E+04 0.  0.
        1    1    3    3  502    0 -0.74743029533E+03  0.87333623229E+03 -0.14223181952E+04  0.18287583956E+04  0.50400001928E-02 0. -1.
       -1    1    3    3    0  502  0.74743029533E+03 -0.87333623229E+03  0.14660684521E+03  0.11588191352E+04  0.50400001928E-02 0.  1.
</event>
<event>
 5   0  0.5043890E-07  0.2703969E+04  0.7818609E-02  0.8333718E-01
        2   -1    0    0  501    0  0.00000000000E+00  0.00000000000E+00  0.16721394427E+04  0.16721394427E+04  0.25500000920E-02 0.  1.
       -2   -1    0    0    0  501  0.00000000000E+00  0.00000000000E+00 -0.10931274684E+04  0.10931274684E+04  0.25500000920E-02 0. -1.
    10030    2    1    2    0    0  0.00000000000E+00  0.00000000000E+00  0.57901197432E+03  0.27652669112E+04  0.27039686063E+04 0.  0.
        3    1    3    3  502    0  0.59950594772E+03  0.12042713199E+04  0.15159809915E+03  0.13537572852E+04  0.10100000352E+00 0. -1.
       -3    1    3    3    0  502 -0.59950594772E+03 -0.12042713199E+04  0.42741387517E+03  0.14115096260E+04  0.10100000352E+00 0.  1.
</event>
<event>
 5   0  0.4735120E-07  0.2701281E+04  0.7818609E-02  0.8334589E-01
        2   -1    0    0  501    0  0.00000000000E+00  0.00000000000E+00  0.18244478043E+04  0.18244478043E+04  0.25500000920E-02 0.  1.
       -2   -1    0    0    0  501  0.00000000000E+00  0.00000000000E+00 -0.99988054193E+03  0.99988054193E+03  0.25500000920E-02 0. -1.
    10030    2    1    2    0    0  0.00000000000E+00  0.00000000000E+00  0.82456726239E+03  0.28243283463E+04  0.27012810734E+04 0.  0.
        2    1    3    3  502    0  0.27648059943E+03  0.13929226298E+03  0.17868502073E+04  0.18134711246E+04  0.25500000920E-02 0.  1.
       -2    1    3    3    0  502 -0.27648059943E+03 -0.13929226298E+03 -0.96228294495E+03  0.10108572216E+04  0.25500000920E-02 0. -1.
</event>
<event>
 5   0  0.4992668E-07  0.2701985E+04  0.7818609E-02  0.8334361E-01
        2   -1    0    0  501    0  0.00000000000E+00  0.00000000000E+00  0.15666065178E+04  0.15666065178E+04  0.25500000920E-02 0. -1.
       -2   -1    0    0    0  501  0.00000000000E+00  0.00000000000E+00 -0.11650538057E+04  0.11650538057E+04  0.25500000920E-02 0.  1.
    10030    2    1    2    0    0  0.00000000000E+00  0.00000000000E+00  0.40155271204E+03  0.27316603235E+04  0.27019851114E+04 0.  0.
        1    1    3    3  502    0 -0.24211915482E+03  0.71504044627E+03 -0.93191977798E+03  0.11993243921E+04  0.50400001928E-02 0.  1.
       -1    1    3    3    0  502  0.24211915482E+03 -0.71504044627E+03  0.13334724900E+04  0.15323359314E+04  0.50400001928E-02 0. -1.
</event>
<event>
 5   0  0.1971600E-07  0.2691573E+04  0.7818609E-02  0.8337744E-01
       -1   -1    0    0    0  501  0.00000000000E+00  0.00000000000E+00  0.19181711625E+04  0.19181711625E+04  0.50400001928E-02 0. -1.
        1   -1    0    0  501    0  0.00000000000E+00  0.00000000000E+00 -0.94420224469E+03  0.94420224470E+03  0.50400001928E-02 0.  1.
    10030    2    1    2    0    0  0.00000000000E+00  0.00000000000E+00  0.97396891782E+03  0.28623734072E+04  0.26915731589E+04 0.  0.
        5    1    3    3  502    0 -0.94245962330E+03  0.44688105500E+03 -0.41738375044E+03  0.11234607710E+04  0.46999998093E+01 0.  1.
       -5    1    3    3    0  502  0.94245962330E+03 -0.44688105500E+03  0.13913526683E+04  0.17389126362E+04  0.46999998093E+01 0. -1.
</event>
<event>
 5   0  0.1971600E-07  0.2700439E+04  0.7818609E-02  0.8334863E-01
       -1   -1    0    0    0  501  0.00000000000E+00  0.00000000000E+00  0.86400865586E+03  0.86400865587E+03  0.50400001928E-02 0. -1.
        1   -1    0    0  501    0  0.00000000000E+00  0.00000000000E+00 -0.21100393763E+04  0.21100393763E+04  0.50400001928E-02 0.  1.
    10030    2    1    2    0    0  0.00000000000E+00  0.00000000000E+00 -0.12460307204E+04  0.29740480322E+04  0.27004386942E+04 0.  0.
        5    1    3    3  502    0 -0.11177046647E+04 -0.67863794756E+03 -0.99365017326E+03  0.16423081131E+04  0.46999998093E+01 0. -1.
       -5    1    3    3    0  502  0.11177046647E+04  0.67863794756E+03 -0.25238054716E+03  0.13317399191E+04  0.46999998093E+01 0.  1.
</event>
<event>
 5   0  0.4735120E-07  0.2698502E+04  0.7818609E-02  0.8335491E-01
       -2   -1    0    0    0  501  0.00000000000E+00  0.00000000000E+00  0.98386381679E+03  0.98386381680E+03  0.25500000920E-02 0.  1.
        2   -1    0    0  501    0  0.00000000000E+00  0.00000000000E+00 -0.18503359898E+04  0.18503359898E+04  0.25500000920E-02 0. -1.
    10030    2    1    2    0    0  0.00000000000E+00  0.00000000000E+00 -0.86647217304E+03  0.28341998066E+04  0.26985022730E+04 0.  0.
        2    1    3    3  502    0 -0.35998967239E+03 -0.12985525730E+04 -0.36163706268E+03  0.13952106344E+04  0.25500000920E-02 0. -1.
       -2    1    3    3    0  502  0.35998967239E+03  0.12985525730E+04 -0.50483511036E+03  0.14389891722E+04  0.25500000920E-02 0.  1.
</event>
<event>
 5   0  0.1937896E-07  0.2700400E+04  0.7818609E-02  0.8334875E-01
        1   -1    0    0  501    0  0.00000000000E+00  0.00000000000E+00  0.17294283127E+04  0.17294283127E+04  0.50400001928E-02 0. -1.
       -1   -1    0    0    0  501  0.00000000000E+00  0.00000000000E+00 -0.10541283849E+04  0.10541283849E+04  0.50400001928E-02 0.  1.
    10030    2    1    2    0    0  0.00000000000E+00  0.00000000000E+00  0.67529992779E+03  0.27835566976E+04  0.27003995809E+04 0.  0.
        3    1    3    3  502    0 -0.63662412120E+03 -0.30084466855E+03 -0.84988675032E+03  0.11036780712E+04  0.10100000352E+00 0.  1.
       -3    1    3    3    0  502  0.63662412120E+03  0.30084466855E+03  0.15251866781E+04  0.16798786264E+04  0.10100000352E+00 0. -1.
</event>
<event>
 5   0  0.1971600E-07  0.2699180E+04  0.7818609E-02  0.8335271E-01
       -1   -1    0    0    0  501  0.00000000000E+00  0.00000000000E+00  0.11573662181E+04  0.11573662181E+04  0.50400001928E-02 0. -1.
        1   -1    0    0  501    0  0.00000000000E+00  0.00000000000E+00 -0.15737392306E+04  0.15737392306E+04  0.50400001928E-02 0.  1.
    10030    2    1    2    0    0  0.00000000000E+00  0.00000000000E+00 -0.41637301247E+03  0.27311054487E+04  0.26991795950E+04 0.  0.
        5    1    3    3  502    0  0.20827704692E+03  0.44326432444E+02  0.11402527629E+04  0.11599752645E+04  0.46999998093E+01 0. -1.
       -5    1    3    3    0  502 -0.20827704692E+03 -0.44326432444E+02 -0.15566257754E+04  0.15711301842E+04  0.46999998093E+01 0.  1.
</event>
<event>
 5   0  0.1641625E-07  0.2698489E+04  0.7818609E-02  0.8335495E-01
        4   -1    0    0  501    0  0.00000000000E+00  0.00000000000E+00  0.14246080678E+04  0.14246086339E+04  0.12699999809E+01 0. -1.
       -4   -1    0    0    0  501  0.00000000000E+00  0.00000000000E+00 -0.12778668666E+04  0.12778674976E+04  0.12699999809E+01 0.  1.
    10030    2    1    2    0    0  0.00000000000E+00  0.00000000000E+00  0.14674120125E+03  0.27024761315E+04  0.26984892554E+04 0.  0.
        1    1    3    3  502    0 -0.10143659138E+04  0.11310116964E+03  0.95713174015E+03  0.13992252320E+04  0.50400001928E-02 0. -1.
       -1    1    3    3    0  502  0.10143659138E+04 -0.11310116964E+03 -0.81039053891E+03  0.13032508996E+04  0.50400001928E-02 0.  1.
</event>
<event>
 5   0  0.5043890E-07  0.2700349E+04  0.7818609E-02  0.8334892E-01
        2   -1    0    0  501    0  0.00000000000E+00  0.00000000000E+00  0.12227301516E+04  0.12227301516E+04  0.25500000920E-02 0.  1.
       -2   -1    0    0    0  501  0.00000000000E+00  0.00000000000E+00 -0.14909019841E+04  0.14909019841E+04  0.25500000920E-02 0. -1.
    10030    2    1    2    0    0  0.00000000000E+00  0.00000000000E+00 -0.26817183246E+03  0.27136321357E+04  0.27003487249E+04 0.  0.
        3    1    3    3  502    0  0.11004356887E+04  0.78007393252E+03 -0.19351015718E+03  0.13626886058E+04  0.10100000352E+00 0.  1.
       -3    1    3    3    0  502 -0.11004356887E+04 -0.78007393252E+03 -0.74661675289E+02  0.13509435299E+04  0.10100000352E+00 0. -1.
</event>
<event>
 5   0  0.1641625E-07  0.2699171E+04  0.7818609E-02  0.8335274E-01
        3   -1    0    0  501    0  0.00000000000E+00  0.00000000000E+00  0.10996468040E+04  0.10996468087E+04  0.10100000352E+00 0.  1.
       -3   -1    0    0    0  501  0.00000000000E+00  0.00000000000E+00 -0.16563323677E+04  0.16563323708E+04  0.10100000352E+00 0. -1.
    10030    2    1    2    0    0  0.00000000000E+00  0.00000000000E+00 -0.55668556368E+03  0.27559791795E+04  0.26991706913E+04 0.  0.
        4    1    3    3  502    0  0.98701489636E+03  0.18356611908E+03 -0.11992589723E+04  0.15640072318E+04  0.12699999809E+01 0.  1.
       -4    1    3    3    0  502 -0.98701489636E+03 -0.18356611908E+03  0.64257340859E+03  0.11919719477E+04  0.12699999809E+01 0. -1.
</event>
<event>
 5   0  0.4735120E-07  0.2699287E+04  0.7818609E-02  0.8335236E-01
        2   -1    0    0  501    0  0.00000000000E+00  0.00000000000E+00  0.27243020026E+04  0.27243020026E+04  0.25500000920E-02 0.  1.
       -2   -1    0    0    0  501  0.00000000000E+00  0.00000000000E+00 -0.66862554063E+03  0.66862554063E+03  0.25500000920E-02 0. -1.
    10030    2    1    2    0    0  0.00000000000E+00  0.00000000000E+00  0.20556764620E+04  0.33929275433E+04  0.26992872388E+04 0.  0.
        2    1    3    3  502    0 -0.31662821296E+02  0.12785244579E+04  0.15698110813E+04  0.20248294137E+04  0.25500000920E-02 0.  1.
       -2    1    3    3    0  502  0.31662821296E+02 -0.12785244579E+04  0.48586538073E+03  0.13680981295E+04  0.25500000920E-02 0. -1.
</event>
<event>
 5   0  0.1888149E-07  0.2699967E+04  0.7818609E-02  0.8335016E-01
        1   -1    0    0  501    0  0.00000000000E+00  0.00000000000E+00  0.11710746778E+04  0.11710746778E+04  0.50400001928E-02 0.  1.
       -1   -1    0    0    0  501  0.00000000000E+00  0.00000000000E+00 -0.15562243803E+04  0.15562243803E+04  0.50400001928E-02 0. -1.
    10030    2    1    2    0    0  0.00000000000E+00  0.00000000000E+00 -0.38514970247E+03  0.27272990581E+04  0.26999666403E+04 0.  0.
        1    1    3    3  502    0  0.27315178448E+02  0.58296083033E+03 -0.14222170538E+04  0.15372998396E+04  0.50400001928E-02 0. -1.
       -1    1    3    3    0  502 -0.27315178448E+02 -0.58296083033E+03  0.10370673514E+04  0.11899992185E+04  0.50400001928E-02 0.  1.
</event>
<event>
 5   0  0.5043890E-07  0.2701336E+04  0.7818609E-02  0.8334572E-01
       -2   -1    0    0    0  501  0.00000000000E+00  0.00000000000E+00  0.13686941503E+04  0.13686941503E+04  0.25500000920E-02 0. -1.
        2   -1    0    0  501    0  0.00000000000E+00  0.00000000000E+00 -0.13328790070E+04  0.13328790070E+04  0.25500000920E-02 0.  1.
    10030    2    1    2    0    0  0.00000000000E+00  0.00000000000E+00  0.35815143333E+02  0.27015731572E+04  0.27013357436E+04 0.  0.
        3    1    3    3  502    0 -0.42130441877E+03 -0.81238198150E+03 -0.97557884610E+03  0.13376157865E+04  0.10100000352E+00 0. -1.
       -3    1    3    3    0  502  0.42130441877E+03  0.81238198150E+03  0.10113939894E+04  0.13639573707E+04  0.10100000352E+00 0.  1.
</event>
<event>
 5   0  0.1964242E-07  0.2701828E+04  0.7818609E-02  0.8334412E-01
       -1   -1    0    0    0  501  0.00000000000E+00  0.00000000000E+00  0.12753032898E+04  0.12753032898E+04  0.50400001928E-02 0.  1.
        1   -1    0    0  501    0  0.00000000000E+00  0.00000000000E+00 -0.14310072544E+04  0.14310072544E+04  0.50400001928E-02 0. -1.
    10030    2    1    2    0    0  0.00000000000E+00  0.00000000000E+00 -0.15570396460E+03  0.27063105442E+04  0.27018277216E+04 0.  0.
        2    1    3    3  502    0  0.75228874756E+03 -0.30588116200E+03  0.10035070071E+04  0.12909407261E+04  0.25500000920E-02 0.  1.
       -2    1    3    3    0  502 -0.75228874756E+03  0.30588116200E+03 -0.11592109717E+04  0.14153698181E+04  0.25500000920E-02 0. -1.
</event>
<event>
 5   0  0.1937896E-07  0.2701853E+04  0.7818609E-02  0.8334404E-01
       -1   -1    0    0    0  501  0.00000000000E+00  0.00000000000E+00  0.81189175390E+03  0.81189175391E+03  0.50400001928E-02 0.  1.
        1   -1    0    0  501    0  0.00000000000E+00  0.00000000000E+00 -0.22478391484E+04  0.22478391484E+04  0.50400001928E-02 0. -1.
    10030    2    1    2    0    0  0.00000000000E+00  0.00000000000E+00 -0.14359473945E+04  0.30597309023E+04  0.27018527485E+04 0.  0.
        3    1    3    3  502    0 -0.32354232313E+03 -0.19723651432E+03 -0.21864254582E+04  0.22190173888E+04  0.10100000352E+00 0. -1.
       -3    1    3    3    0  502  0.32354232313E+03  0.19723651432E+03  0.75047806371E+03  0.84071351348E+03  0.10100000352E+00 0.  1.
</event>
<event>
 5   0  0.1971600E-07  0.2699155E+04  0.7818609E-02  0.8335279E-01
       -1   -1    0    0    0  501  0.00000000000E+00  0.00000000000E+00  0.10815688192E+04  0.10815688192E+04  0.50400001928E-02 0.  1.
        1   -1    0    0  501    0  0.00000000000E+00  0.00000000000E+00 -0.16839975004E+04  0.16839975004E+04  0.50400001928E-02 0. -1.
    10030    2    1    2    0    0  0.00000000000E+00  0.00000000000E+00 -0.60242868123E+03  0.27655663196E+04  0.26991548218E+04 0.  0.
        5    1    3    3  502    0 -0.73235695328E+03 -0.15079125654E+03  0.84992893753E+03  0.11320273844E+04  0.46999998093E+01 0.  1.
       -5    1    3    3    0  502  0.73235695328E+03  0.15079125654E+03 -0.14523576188E+04  0.16335389352E+04  0.46999998093E+01 0. -1.
</event>
<event>
 5   0  0.1964242E-07  0.2703198E+04  0.7818609E-02  0.8333968E-01
        1   -1    0    0  501    0  0.00000000000E+00  0.00000000000E+00  0.18879031949E+04  0.18879031949E+04  0.50400001928E-02 0.  1.
       -1   -1    0    0    0  501  0.00000000000E+00  0.00000000000E+00 -0.96764495231E+03  0.96764495232E+03  0.50400001928E-02 0. -1.
    10030    2    1    2    0    0  0.00000000000E+00  0.00000000000E+00  0.92025824263E+03  0.28555481473E+04  0.27031981038E+04 0.  0.
        2    1    3    3  502    0  0.49729927712E+03  0.12540955098E+04  0.54696851807E+03  0.14557598286E+04  0.25500000920E-02 0.  1.
       -2    1    3    3    0  502 -0.49729927712E+03 -0.12540955098E+04  0.37328972456E+03  0.13997883187E+04  0.25500000920E-02 0. -1.
</event>
<event>
 5   0  0.4983208E-07  0.2700926E+04  0.7818609E-02  0.8334705E-01
       -2   -1    0    0    0  501  0.00000000000E+00  0.00000000000E+00  0.11170424750E+04  0.11170424750E+04  0.25500000920E-02 0. -1.
        2   -1    0    0  501    0  0.00000000000E+00  0.00000000000E+00 -0.16326594264E+04  0.16326594264E+04  0.25500000920E-02 0.  1.
    10030    2    1    2    0    0  0.00000000000E+00  0.00000000000E+00 -0.51561695142E+03  0.27497019014E+04  0.27009257128E+04 0.  0.
        4    1    3    3  502    0  0.93744299284E+03 -0.82649736546E+03  0.26314643655E+03  0.12771628400E+04  0.12699999809E+01 0. -1.
       -4    1    3    3    0  502 -0.93744299284E+03  0.82649736546E+03 -0.77876338797E+03  0.14725390614E+04  0.12699999809E+01 0.  1.
</event>
<event>
 5   0  0.1965415E-07  0.2699655E+04  0.7818609E-02  0.8335117E-01
       -1   -1    0    0    0  501  0.00000000000E+00  0.00000000000E+00  0.73778596859E+03  0.73778596861E+03  0.50400001928E-02 0.  1.
        1   -1    0    0  501    0  0.00000000000E+00  0.00000000000E+00 -0.24695980843E+04  0.24695980843E+04  0.50400001928E-02 0. -1.
    10030    2    1    2    0    0  0.00000000000E+00  0.00000000000E+00 -0.17318121157E+04  0.32073840529E+04  0.26996553963E+04 0.  0.
        4    1    3    3  502    0  0.79204111321E+03 -0.79893993236E+03  0.20302273724E+02  0.11251879557E+04  0.12699999809E+01 0.  1.
       -4    1    3    3    0  502 -0.79204111321E+03  0.79893993236E+03 -0.17521143894E+04  0.20821960972E+04  0.12699999809E+01 0. -1.
</event>
<event>
 5   0  0.1971600E-07  0.2700327E+04  0.7818609E-02  0.8334899E-01
       -1   -1    0    0    0  501  0.00000000000E+00  0.00000000000E+00  0.14369422807E+04  0.14369422808E+04  0.50400001928E-02 0. -1.
        1   -1    0    0  501    0  0.00000000000E+00  0.00000000000E+00 -0.12686250815E+04  0.12686250815E+04  0.50400001928E-02 0.  1.
    10030    2    1    2    0    0  0.00000000000E+00  0.00000000000E+00  0.16831719925E+03  0.27055673623E+04  0.27003266603E+04 0.  0.
        5    1    3    3  502    0 -0.10557505310E+04 -0.76221730901E+03  0.44169076714E+03  0.13750262665E+04  0.46999998093E+01 0. -1.
       -5    1    3    3    0  502  0.10557505310E+04  0.76221730901E+03 -0.27337356789E+03  0.13305410957E+04  0.46999998093E+01 0.  1.
</event>
<event>
 5   0  0.1964242E-07  0.2700557E+04  0.7818609E-02  0.8334824E-01
        1   -1    0    0  501    0  0.00000000000E+00  0.00000000000E+00  0.19740455143E+04  0.19740455143E+04  0.50400001928E-02 0. -1.
       -1   -1    0    0    0  501  0.00000000000E+00  0.00000000000E+00 -0.92361210212E+03  0.92361210214E+03  0.50400001928E-02 0.  1.
    10030    2    1    2    0    0  0.00000000000E+00  0.00000000000E+00  0.10504334121E+04  0.28976576164E+04  0.27005572219E+04 0.  0.
        2    1    3    3  502    0 -0.28884315847E+03  0.13041115473E+04  0.31300686814E+03  0.13719003599E+04  0.25500000920E-02 0. -1.
       -2    1    3    3    0  502  0.28884315847E+03 -0.13041115473E+04  0.73742654399E+03  0.15257572565E+04  0.25500000920E-02 0.  1.
</event>
<event>
 5   0  0.4992668E-07  0.2701675E+04  0.7818609E-02  0.8334462E-01
        2   -1    0    0  501    0  0.00000000000E+00  0.00000000000E+00  0.23283338983E+04  0.23283338983E+04  0.25500000920E-02 0. -1.
       -2   -1    0    0    0  501  0.00000000000E+00  0.00000000000E+00 -0.78371996179E+03  0.78371996179E+03  0.25500000920E-02 0.  1.
    10030    2    1    2    0    0  0.00000000000E+00  0.00000000000E+00  0.15446139365E+04  0.31120538601E+04  0.27016748537E+04 0.  0.
        1    1    3    3  502    0  0.58594103117E+03 -0.43669009878E+03  0.20809850838E+04  0.22055666059E+04  0.50400001928E-02 0. -1.
       -1    1    3    3    0  502 -0.58594103117E+03  0.43669009878E+03 -0.53637114723E+03  0.90648725418E+03  0.50400001928E-02 0.  1.
</event>
<event>
 5   0  0.5043890E-07  0.2698973E+04  0.7818609E-02  0.8335338E-01
       -2   -1    0    0    0  501  0.00000000000E+00  0.00000000000E+00  0.21279267506E+04  0.21279267506E+04  0.25500000920E-02 0.  1.
        2   -1    0    0  501    0  0.00000000000E+00  0.00000000000E+00 -0.85581575616E+03  0.85581575616E+03  0.25500000920E-02 0. -1.
    10030    2    1    2    0    0  0.00000000000E+00  0.00000000000E+00  0.12721109944E+04  0.29837425068E+04  0.26989725757E+04 0.  0.
        3    1    3    3  502    0  0.44948232442E+03 -0.10357772111E+04  0.14531200777E+04  0.18402246497E+04  0.10100000352E+00 0.  1.
       -3    1    3    3    0  502 -0.44948232442E+03  0.10357772111E+04 -0.18100908330E+03  0.11435178570E+04  0.10100000352E+00 0. -1.
</event>
<event>
 5   0  0.5043890E-07  0.2699913E+04  0.7818609E-02  0.8335033E-01
        2   -1    0    0  501    0  0.00000000000E+00  0.00000000000E+00  0.13404318497E+04  0.13404318497E+04  0.25500000920E-02 0. -1.
       -2   -1    0    0    0  501  0.00000000000E+00  0.00000000000E+00 -0.13595492572E+04  0.13595492572E+04  0.25500000920E-02 0.  1.
    10030    2    1    2    0    0  0.00000000000E+00  0.00000000000E+00 -0.19117407552E+02  0.26999811069E+04  0.26999134250E+04 0.  0.
        3    1    3    3  502    0 -0.12334803690E+04 -0.36212268014E+03  0.40249101556E+03  0.13470730062E+04  0.10100000352E+00 0. -1.
       -3    1    3    3    0  502  0.12334803690E+04  0.36212268014E+03 -0.42160842311E+03  0.13529081007E+04  0.10100000352E+00 0.  1.
</event>
<event>
 5   0  0.1965415E-07  0.2699391E+04  0.7818609E-02  0.8335203E-01
       -1   -1    0    0    0  501  0.00000000000E+00  0.00000000000E+00  0.16789129239E+04  0.16789129239E+04  0.50400001928E-02 0. -1.
        1   -1    0    0  501    0  0.00000000000E+00  0.00000000000E+00 -0.10850339032E+04  0.10850339033E+04  0.50400001928E-02 0.  1.
    10030    2    1    2    0    0  0.00000000000E+00  0.00000000000E+00  0.59387902067E+03  0.27639468272E+04  0.26993906298E+04 0.  0.
        4    1    3    3  502    0  0.10050052036E+03 -0.10404263961E+04 -0.57734752639E+03  0.11941185952E+04  0.12699999809E+01 0.  1.
       -4    1    3    3    0  502 -0.10050052036E+03  0.10404263961E+04  0.11712265471E+04  0.15698282319E+04  0.12699999809E+01 0. -1.
</event>
<event>
 5   0  0.4992668E-07  0.2700173E+04  0.7818609E-02  0.8334949E-01
       -2   -1    0    0    0  501  0.00000000000E+00  0.00000000000E+00  0.99744852624E+03  0.99744852625E+03  0.25500000920E-02 0. -1.
        2   -1    0    0  501    0  0.00000000000E+00  0.00000000000E+00 -0.18273966581E+04  0.18273966581E+04  0.25500000920E-02 0.  1.
    10030    2    1    2    0    0  0.00000000000E+00  0.00000000000E+00 -0.82994813187E+03  0.28248451844E+04  0.27001734044E+04 0.  0.
        1    1    3    3  502    0 -0.31222724047E+03  0.78315372050E+03 -0.15181365262E+04  0.17365350880E+04  0.50400001928E-02 0.  1.
       -1    1    3    3    0  502  0.31222724047E+03 -0.78315372050E+03  0.68818839436E+03  0.10883100963E+04  0.50400001928E-02 0. -1.
</event>
<event>
 5   0  0.1964242E-07  0.2700469E+04  0.7818609E-02  0.8334853E-01
       -1   -1    0    0    0  501  0.00000000000E+00  0.00000000000E+00  0.86408123871E+03  0.86408123872E+03  0.50400001928E-02 0.  1.
        1   -1    0    0  501    0  0.00000000000E+00  0.00000000000E+00 -0.21099099723E+04  0.21099099723E+04  0.50400001928E-02 0. -1.
    10030    2    1    2    0    0  0.00000000000E+00  0.00000000000E+00 -0.12458287336E+04  0.29739912110E+04  0.27004693092E+04 0.  0.
        2    1    3    3  502    0 -0.11408484136E+04  0.26877574079E+03  0.11532420426E+03  0.11777415564E+04  0.25500000920E-02 0. -1.
       -2    1    3    3    0  502  0.11408484136E+04 -0.26877574079E+03 -0.13611529379E+04  0.17962496547E+04  0.25500000920E-02 0.  1.
</event>
<event>
 5   0  0.1937896E-07  0.2700662E+04  0.7818609E-02  0.8334790E-01
       -1   -1    0    0    0  501  0.00000000000E+00  0.00000000000E+00  0.10807501678E+04  0.10807501678E+04  0.50400001928E-02 0.  1.
        1   -1    0    0  501    0  0.00000000000E+00  0.00000000000E+00 -0.16871554752E+04  0.16871554752E+04  0.50400001928E-02 0. -1.
    10030    2    1    2    0    0  0.00000000000E+00  0.00000000000E+00 -0.60640530737E+03  0.27679056430E+04  0.27006618173E+04 0.  0.
        3    1    3    3  502    0 -0.12580011439E+04 -0.36696244528E+03  0.30740271146E+02  0.13107910927E+04  0.10100000352E+00 0.  1.
       -3    1    3    3    0  502  0.12580011439E+04  0.36696244528E+03 -0.63714557852E+03  0.14571145503E+04  0.10100000352E+00 0. -1.
</event>
<event>
 5   0  0.1971600E-07  0.2699566E+04  0.7818609E-02  0.8335146E-01
       -1   -1    0    0    0  501  0.00000000000E+00  0.00000000000E+00  0.13828159906E+04  0.13828159906E+04  0.50400001928E-02 0.  1.
        1   -1    0    0  501    0  0.00000000000E+00  0.00000000000E+00 -0.13175392297E+04  0.13175392297E+04  0.50400001928E-02 0. -1.
    10030    2    1    2    0    0  0.00000000000E+00  0.00000000000E+00  0.65276760903E+02  0.27003552204E+04  0.26995661245E+04 0.  0.
        5    1    3    3  502    0 -0.12101937644E+04 -0.12318494480E+03 -0.55246742169E+03  0.13360336149E+04  0.46999998093E+01 0. -1.
       -5    1    3    3    0  502  0.12101937644E+04  0.12318494480E+03  0.61774418259E+03  0.13643216055E+04  0.46999998093E+01 0.  1.
</event>
<event>
 5   0  0.4735120E-07  0.2701160E+04  0.7818609E-02  0.8334629E-01
       -2   -1    0    0    0  501  0.00000000000E+00  0.00000000000E+00  0.10772994043E+04  0.10772994043E+04  0.25500000920E-02 0. -1.
        2   -1    0    0  501    0  0.00000000000E+00  0.00000000000E+00 -0.16931838676E+04  0.16931838676E+04  0.25500000920E-02 0.  1.
    10030    2    1    2    0    0  0.00000000000E+00  0.00000000000E+00 -0.61588446325E+03  0.27704832719E+04  0.27011597302E+04 0.  0.
        2    1    3    3  502    0 -0.22344084547E+03  0.12845658141E+04  0.53276356310E+02  0.13049419574E+04  0.25500000920E-02 0. -1.
       -2    1    3    3    0  502  0.22344084547E+03 -0.12845658141E+04 -0.66916081956E+03  0.14655413145E+04  0.25500000920E-02 0.  1.
</event>
<event>
 5   0  0.4992668E-07  0.2699572E+04  0.7818609E-02  0.8335144E-01
       -2   -1    0    0    0  501  0.00000000000E+00  0.00000000000E+00  0.13856792575E+04  0.13856792575E+04  0.25500000920E-02 0.  1.
        2   -1    0    0  501    0  0.00000000000E+00  0.00000000000E+00 -0.13148221554E+04  0.13148221554E+04  0.25500000920E-02 0. -1.
    10030    2    1    2    0    0  0.00000000000E+00  0.00000000000E+00  0.70857102112E+02  0.27005014129E+04  0.26995716609E+04 0.  0.
        1    1    3    3  502    0  0.83879569280E+03  0.42349503072E+03 -0.93392300429E+03  0.13248163772E+04  0.50400001928E-02 0. -1.
       -1    1    3    3    0  502 -0.83879569280E+03 -0.42349503072E+03  0.10047801064E+04  0.13756850357E+04  0.50400001928E-02 0.  1.
</event>
<event>
 5   0  0.4843887E-07  0.2700968E+04  0.7818609E-02  0.8334691E-01
        2   -1    0    0  501    0  0.00000000000E+00  0.00000000000E+00  0.13548073691E+04  0.13548073691E+04  0.25500000920E-02 0.  1.
       -2   -1    0    0    0  501  0.00000000000E+00  0.00000000000E+00 -0.13461747078E+04  0.13461747078E+04  0.25500000920E-02 0. -1.
    10030    2    1    2    0    0  0.00000000000E+00  0.00000000000E+00  0.86326613472E+01  0.27009820769E+04  0.27009682813E+04 0.  0.
        5    1    3    3  502    0  0.12843350389E+04 -0.35695442251E+03 -0.21213886315E+03  0.13497992218E+04  0.46999998093E+01 0. -1.
       -5    1    3    3    0  502 -0.12843350389E+04  0.35695442251E+03  0.22077152450E+03  0.13511828551E+04  0.46999998093E+01 0.  1.
</event>
<event>
 5   0  0.1964242E-07  0.2705944E+04  0.7818609E-02  0.8333079E-01
        1   -1    0    0  501    0  0.00000000000E+00  0.00000000000E+00  0.14001320402E+04  0.14001320402E+04  0.50400001928E-02 0.  1.
       -1   -1    0    0    0  501  0.00000000000E+00  0.00000000000E+00 -0.13074001610E+04  0.13074001611E+04  0.50400001928E-02 0. -1.
    10030    2    1    2    0    0  0.00000000000E+00  0.00000000000E+00  0.92731879141E+02  0.27075322012E+04  0.27059437207E+04 0.  0.
        2    1    3    3  502    0 -0.65240821438E+03  0.75279213614E+03 -0.86970434663E+03  0.13223910651E+04  0.25500000920E-02 0. -1.
       -2    1    3    3    0  502  0.65240821438E+03 -0.75279213614E+03  0.96243622577E+03  0.13851411362E+04  0.25500000920E-02 0.  1.
</event>
<event>
 5   0  0.4983208E-07  0.2698963E+04  0.7818609E-02  0.8335341E-01
       -2   -1    0    0    0  501  0.00000000000E+00  0.00000000000E+00  0.16119265030E+04  0.16119265030E+04  0.25500000920E-02 0. -1.
        2   -1    0    0  501    0  0.00000000000E+00  0.00000000000E+00 -0.11297664127E+04  0.11297664127E+04  0.25500000920E-02 0.  1.
    10030    2    1    2    0    0  0.00000000000E+00  0.00000000000E+00  0.48216009026E+03  0.27416929156E+04  0.26989630770E+04 0.  0.
        4    1    3    3  502    0  0.82300470342E+03  0.94634990615E+03 -0.26498773657E+03  0.12818482750E+04  0.12699999809E+01 0.  1.
       -4    1    3    3    0  502 -0.82300470342E+03 -0.94634990615E+03  0.74714782683E+03  0.14598446406E+04  0.12699999809E+01 0. -1.
</event>
<event>
 5   0  0.4992668E-07  0.2702571E+04  0.7818609E-02  0.8334171E-01
        2   -1    0    0  501    0  0.00000000000E+00  0.00000000000E+00  0.15007481121E+04  0.15007481121E+04  0.25500000920E-02 0.  1.
       -2   -1    0    0    0  501  0.00000000000E+00  0.00000000000E+00 -0.12167077866E+04  0.12167077866E+04  0.25500000920E-02 0. -1.
    10030    2    1    2    0    0  0.00000000000E+00  0.00000000000E+00  0.28404032547E+03  0.27174558987E+04  0.27025705643E+04 0.  0.
        1    1    3    3  502    0  0.90135685543E+02  0.11275205170E+04 -0.60133850126E+03  0.12810288643E+04  0.50400001928E-02 0. -1.
       -1    1    3    3    0  502 -0.90135685543E+02 -0.11275205170E+04  0.88537882673E+03  0.14364270343E+04  0.50400001928E-02 0.  1.
</event>
<event>
 5   0  0.1888149E-07  0.2699510E+04  0.7818609E-02  0.8335164E-01
       -1   -1    0    0    0  501  0.00000000000E+00  0.00000000000E+00  0.11527975144E+04  0.11527975144E+04  0.50400001928E-02 0.  1.
        1   -1    0    0  501    0  0.00000000000E+00  0.00000000000E+00 -0.15803627994E+04  0.15803627994E+04  0.50400001928E-02 0. -1.
    10030    2    1    2    0    0  0.00000000000E+00  0.00000000000E+00 -0.42756528500E+03  0.27331603138E+04  0.26995098125E+04 0.  0.
        1    1    3    3  502    0  0.78665794367E+03  0.94228425918E+03 -0.78212481582E+03  0.14554894617E+04  0.50400001928E-02 0. -1.
       -1    1    3    3    0  502 -0.78665794367E+03 -0.94228425918E+03  0.35455953083E+03  0.12776708521E+04  0.50400001928E-02 0.  1.
</event>
<event>
 5   0  0.1971600E-07  0.2697544E+04  0.7818609E-02  0.8335802E-01
        1   -1    0    0  501    0  0.00000000000E+00  0.00000000000E+00  0.21653913257E+04  0.21653913257E+04  0.50400001928E-02 0.  1.
       -1   -1    0    0    0  501  0.00000000000E+00  0.00000000000E+00 -0.84011904720E+03  0.84011904721E+03  0.50400001928E-02 0. -1.
    10030    2    1    2    0    0  0.00000000000E+00  0.00000000000E+00  0.13252722785E+04  0.30055103729E+04  0.26975444370E+04 0.  0.
        5    1    3    3  502    0 -0.14129425749E+03  0.13217246921E+04  0.91730073732E+03  0.16150489037E+04  0.46999998093E+01 0.  1.
       -5    1    3    3    0  502  0.14129425749E+03 -0.13217246921E+04  0.40797154114E+03  0.13904614691E+04  0.46999998093E+01 0. -1.
</event>
<event>
 5   0  0.4843887E-07  0.2700231E+04  0.7818609E-02  0.8334930E-01
       -2   -1    0    0    0  501  0.00000000000E+00  0.00000000000E+00  0.14920349682E+04  0.14920349682E+04  0.25500000920E-02 0. -1.
        2   -1    0    0  501    0  0.00000000000E+00  0.00000000000E+00 -0.12216949487E+04  0.12216949487E+04  0.25500000920E-02 0.  1.
    10030    2    1    2    0    0  0.00000000000E+00  0.00000000000E+00  0.27034001949E+03  0.27137299170E+04  0.27002307931E+04 0.  0.
        5    1    3    3  502    0 -0.10965846710E+04 -0.62115842059E+03  0.62179493164E+03  0.14053422185E+04  0.46999998093E+01 0. -1.
       -5    1    3    3    0  502  0.10965846710E+04  0.62115842059E+03 -0.35145491215E+03  0.13083876984E+04  0.46999998093E+01 0.  1.
</event>
<event>
 5   0  0.4843887E-07  0.2704017E+04  0.7818609E-02  0.8333703E-01
        2   -1    0    0  501    0  0.00000000000E+00  0.00000000000E+00  0.15838685015E+04  0.15838685015E+04  0.25500000920E-02 0.  1.
       -2   -1    0    0    0  501  0.00000000000E+00  0.00000000000E+00 -0.11540905381E+04  0.11540905382E+04  0.25500000920E-02 0. -1.
    10030    2    1    2    0    0  0.00000000000E+00  0.00000000000E+00  0.42977796331E+03  0.27379590396E+04  0.27040174934E+04 0.  0.
        5    1    3    3  502    0  0.24982354260E+03  0.57544809309E+03 -0.99778905192E+03  0.11786252129E+04  0.46999998093E+01 0. -1.
       -5    1    3    3    0  502 -0.24982354260E+03 -0.57544809309E+03  0.14275670152E+04  0.15593338267E+04  0.46999998093E+01 0.  1.
</event>
<event>
 5   0  0.4843887E-07  0.2703011E+04  0.7818609E-02  0.8334029E-01
       -2   -1    0    0    0  501  0.00000000000E+00  0.00000000000E+00  0.12607933869E+04  0.12607933869E+04  0.25500000920E-02 0.  1.
        2   -1    0    0  501    0  0.00000000000E+00  0.00000000000E+00 -0.14487438358E+04  0.14487438358E+04  0.25500000920E-02 0. -1.
    10030    2    1    2    0    0  0.00000000000E+00  0.00000000000E+00 -0.18795044891E+03  0.27095372226E+04  0.27030106529E+04 0.  0.
        5    1    3    3  502    0  0.98121530257E+03 -0.37952050681E+03  0.75643944022E+03  0.12957785312E+04  0.46999998093E+01 0.  1.
       -5    1    3    3    0  502 -0.98121530257E+03  0.37952050681E+03 -0.94438988913E+03  0.14137586915E+04  0.46999998093E+01 0. -1.
</event>
<event>
 5   0  0.4983208E-07  0.2699571E+04  0.7818609E-02  0.8335144E-01
        2   -1    0    0  501    0  0.00000000000E+00  0.00000000000E+00  0.12059886475E+04  0.12059886475E+04  0.25500000920E-02 0.  1.
       -2   -1    0    0    0  501  0.00000000000E+00  0.00000000000E+00 -0.15107281469E+04  0.15107281470E+04  0.25500000920E-02 0. -1.
    10030    2    1    2    0    0  0.00000000000E+00  0.00000000000E+00 -0.30473949943E+03  0.27167167945E+04  0.26995710731E+04 0.  0.
        4    1    3    3  502    0 -0.96233948728E+03 -0.60571900457E+03  0.57952275216E+03  0.12762605668E+04  0.12699999809E+01 0. -1.
       -4    1    3    3    0  502  0.96233948728E+03  0.60571900457E+03 -0.88426225158E+03  0.14404562276E+04  0.12699999809E+01 0.  1.
</event>
<event>
 5   0  0.4983208E-07  0.2700841E+04  0.7818609E-02  0.8334732E-01
        2   -1    0    0  501    0  0.00000000000E+00  0.00000000000E+00  0.32563229324E+04  0.32563229324E+04  0.25500000920E-02 0.  1.
       -2   -1    0    0    0  501  0.00000000000E+00  0.00000000000E+00 -0.56002911304E+03  0.56002911304E+03  0.25500000920E-02 0. -1.
    10030    2    1    2    0    0  0.00000000000E+00  0.00000000000E+00  0.26962938194E+04  0.38163520455E+04  0.27008410865E+04 0.  0.
        4    1    3    3  502    0 -0.78110781154E+03 -0.64887464362E+02  0.29020194411E+04  0.30060037002E+04  0.12699999809E+01 0.  1.
       -4    1    3    3    0  502  0.78110781154E+03  0.64887464362E+02 -0.20572562173E+03  0.81034834523E+03  0.12699999809E+01 0. -1.
</event>
<event>
 5   0  0.1971600E-07  0.2698609E+04  0.7818609E-02  0.8335456E-01
        1   -1    0    0  501    0  0.00000000000E+00  0.00000000000E+00  0.21000328253E+04  0.21000328253E+04  0.50400001928E-02 0. -1.
       -1   -1    0    0    0  501  0.00000000000E+00  0.00000000000E+00 -0.86694955336E+03  0.86694955338E+03  0.50400001928E-02 0.  1.
    10030    2    1    2    0    0  0.00000000000E+00  0.00000000000E+00  0.12330832719E+04  0.29669823786E+04  0.26986089157E+04 0.  0.
        5    1    3    3  502    0 -0.75649353814E+02 -0.10892122607E+04  0.14881585969E+04  0.18457367833E+04  0.46999998093E+01 0. -1.
       -5    1    3    3    0  502  0.75649353814E+02  0.10892122607E+04 -0.25507532503E+03  0.11212455953E+04  0.46999998093E+01 0.  1.
</event>
<event>
 5   0  0.5043890E-07  0.2712080E+04  0.7818609E-02  0.8331096E-01
       -2   -1    0    0    0  501  0.00000000000E+00  0.00000000000E+00  0.11694527786E+04  0.11694527786E+04  0.25500000920E-02 0. -1.
        2   -1    0    0  501    0  0.00000000000E+00  0.00000000000E+00 -0.15723977739E+04  0.15723977739E+04  0.25500000920E-02 0.  1.
    10030    2    1    2    0    0  0.00000000000E+00  0.00000000000E+00 -0.40294499525E+03  0.27418505525E+04  0.27120803423E+04 0.  0.
        3    1    3    3  502    0 -0.10728277307E+04 -0.53545215444E+03 -0.84181011792E+03  0.14650299090E+04  0.10100000352E+00 0. -1.
       -3    1    3    3    0  502  0.10728277307E+04  0.53545215444E+03  0.43886512267E+03  0.12768206435E+04  0.10100000352E+00 0.  1.
</event>
<event>
 5   0  0.4735120E-07  0.2698717E+04  0.7818609E-02  0.8335421E-01
       -2   -1    0    0    0  501  0.00000000000E+00  0.00000000000E+00  0.11562579529E+04  0.11562579529E+04  0.25500000920E-02 0. -1.
        2   -1    0    0  501    0  0.00000000000E+00  0.00000000000E+00 -0.15747075761E+04  0.15747075761E+04  0.25500000920E-02 0.  1.
    10030    2    1    2    0    0  0.00000000000E+00  0.00000000000E+00 -0.41844962324E+03  0.27309655290E+04  0.26987168494E+04 0.  0.
        2    1    3    3  502    0 -0.26969509383E+03 -0.10615718939E+04  0.58829026756E+03  0.12432842670E+04  0.25500000920E-02 0. -1.
       -2    1    3    3    0  502  0.26969509383E+03  0.10615718939E+04 -0.10067398908E+04  0.14876812620E+04  0.25500000920E-02 0.  1.
</event>
<event>
 5   0  0.1937896E-07  0.2699368E+04  0.7818609E-02  0.8335210E-01
        1   -1    0    0  501    0  0.00000000000E+00  0.00000000000E+00  0.15478441034E+04  0.15478441034E+04  0.50400001928E-02 0. -1.
       -1   -1    0    0    0  501  0.00000000000E+00  0.00000000000E+00 -0.11768930315E+04  0.11768930315E+04  0.50400001928E-02 0.  1.
    10030    2    1    2    0    0  0.00000000000E+00  0.00000000000E+00  0.37095107188E+03  0.27247371348E+04  0.26993680291E+04 0.  0.
        3    1    3    3  502    0 -0.46699977480E+03 -0.69473652229E+03 -0.88319985945E+03  0.12168769975E+04  0.10100000352E+00 0.  1.
       -3    1    3    3    0  502  0.46699977480E+03  0.69473652229E+03  0.12541509313E+04  0.15078601374E+04  0.10100000352E+00 0. -1.
</event>
<event>
 5   0  0.4843887E-07  0.2696772E+04  0.7818609E-02  0.8336053E-01
       -2   -1    0    0    0  501  0.00000000000E+00  0.00000000000E+00  0.63481372837E+03  0.63481372837E+03  0.25500000920E-02 0. -1.
        2   -1    0    0  501    0  0.00000000000E+00  0.00000000000E+00 -0.28640593694E+04  0.28640593694E+04  0.25500000920E-02 0.  1.
    10030    2    1    2    0    0  0.00000000000E+00  0.00000000000E+00 -0.22292456410E+04  0.34988730978E+04  0.26967715562E+04 0.  0.
        5    1    3    3  502    0  0.10727790371E+04  0.33504036437E+02 -0.55690188612E+02  0.10747561910E+04  0.46999998093E+01 0. -1.
       -5    1    3    3    0  502 -0.10727790371E+04 -0.33504036437E+02 -0.21735554524E+04  0.24241169068E+04  0.46999998093E+01 0.  1.
</event>
<event>
 5   0  0.4735120E-07  0.2700595E+04  0.7818609E-02  0.8334812E-01
       -2   -1    0    0    0  501  0.00000000000E+00  0.00000000000E+00  0.77180250221E+03  0.77180250221E+03  0.25500000920E-02 0. -1.
        2   -1    0    0  501    0  0.00000000000E+00  0.00000000000E+00 -0.23623965841E+04  0.23623965841E+04  0.25500000920E-02 0.  1.
    10030    2    1    2    0    0  0.00000000000E+00  0.00000000000E+00 -0.15905940819E+04  0.31341990863E+04  0.27005951898E+04 0.  0.
        2    1    3    3  502    0 -0.27057775161E+03 -0.11699184355E+04 -0.78580777264E+02  0.12033687730E+04  0.25500000920E-02 0.  1.
       -2    1    3    3    0  502  0.27057775161E+03  0.11699184355E+04 -0.15120133046E+04  0.19308303133E+04  0.25500000920E-02 0. -1.
</event>
<event>
 5   0  0.1888149E-07  0.2703092E+04  0.7818609E-02  0.8334002E-01
       -1   -1    0    0    0  501  0.00000000000E+00  0.00000000000E+00  0.12514828665E+04  0.12514828666E+04  0.50400001928E-02 0. -1.
        1   -1    0    0  501    0  0.00000000000E+00  0.00000000000E+00 -0.14596096677E+04  0.14596096677E+04  0.50400001928E-02 0.  1.
    10030    2    1    2    0    0  0.00000000000E+00  0.00000000000E+00 -0.20812680118E+03  0.27110925343E+04  0.27030919267E+04 0.  0.
        1    1    3    3  502    0 -0.59304198853E+01  0.90873174840E+03 -0.11074483292E+04  0.14325747318E+04  0.50400001928E-02 0.  1.
       -1    1    3    3    0  502  0.59304198853E+01 -0.90873174840E+03  0.89932152801E+03  0.12785178025E+04  0.50400001928E-02 0. -1.
</event>
<event>
 5   0  0.4843887E-07  0.2697250E+04  0.7818609E-02  0.8335898E-01
       -2   -1    0    0    0  501  0.00000000000E+00  0.00000000000E+00  0.70671917089E+03  0.70671917090E+03  0.25500000920E-02 0.  1.
        2   -1    0    0  501    0  0.00000000000E+00  0.00000000000E+00 -0.25735673292E+04  0.25735673292E+04  0.25500000920E-02 0. -1.
    10030    2    1    2    0    0  0.00000000000E+00  0.00000000000E+00 -0.18668481584E+04  0.32802865001E+04  0.26972499841E+04 0.  0.
        5    1    3    3  502    0  0.34222166055E+03  0.12999951998E+04 -0.10647698512E+04  0.17148936149E+04  0.46999998093E+01 0.  1.
       -5    1    3    3    0  502 -0.34222166055E+03 -0.12999951998E+04 -0.80207830711E+03  0.15653928852E+04  0.46999998093E+01 0. -1.
</event>
<event>
 5   0  0.1641625E-07  0.2699569E+04  0.7818609E-02  0.8335145E-01
       -4   -1    0    0    0  501  0.00000000000E+00  0.00000000000E+00  0.12746421378E+04  0.12746427705E+04  0.12699999809E+01 0. -1.
        4   -1    0    0  501    0  0.00000000000E+00  0.00000000000E+00 -0.14293549317E+04  0.14293554959E+04  0.12699999809E+01 0.  1.
    10030    2    1    2    0    0  0.00000000000E+00  0.00000000000E+00 -0.15471279393E+03  0.27039982664E+04  0.26995685907E+04 0.  0.
        4    1    3    3  502    0 -0.14869906370E+03 -0.10764338994E+04  0.72464131399E+03  0.13061117862E+04  0.12699999809E+01 0. -1.
       -4    1    3    3    0  502  0.14869906370E+03  0.10764338994E+04 -0.87935410792E+03  0.13978864801E+04  0.12699999809E+01 0.  1.
</event>
<event>
 5   0  0.5043890E-07  0.2699408E+04  0.7818609E-02  0.8335197E-01
        2   -1    0    0  501    0  0.00000000000E+00  0.00000000000E+00  0.21781542555E+04  0.21781542555E+04  0.25500000920E-02 0. -1.
       -2   -1    0    0    0  501  0.00000000000E+00  0.00000000000E+00 -0.83635076936E+03  0.83635076936E+03  0.25500000920E-02 0.  1.
    10030    2    1    2    0    0  0.00000000000E+00  0.00000000000E+00  0.13418034861E+04  0.30145050249E+04  0.26994080739E+04 0.  0.
        3    1    3    3  502    0 -0.11637413703E+03 -0.13420818101E+04  0.76416327185E+03  0.15487646822E+04  0.10100000352E+00 0.  1.
       -3    1    3    3    0  502  0.11637413703E+03  0.13420818101E+04  0.57764021430E+03  0.14657403426E+04  0.10100000352E+00 0. -1.
</event>
<event>
 5   0  0.1964242E-07  0.2701767E+04  0.7818609E-02  0.8334432E-01
        1   -1    0    0  501    0  0.00000000000E+00  0.00000000000E+00  0.13442112298E+04  0.13442112298E+04  0.50400001928E-02 0.  1.
       -1   -1    0    0    0  501  0.00000000000E+00  0.00000000000E+00 -0.13575887117E+04  0.13575887117E+04  0.50400001928E-02 0. -1.
    10030    2    1    2    0    0  0.00000000000E+00  0.00000000000E+00 -0.13377481921E+02  0.27017999415E+04  0.27017668231E+04 0.  0.
        2    1    3    3  502    0 -0.76569876891E+03  0.68713817243E+03 -0.88216079017E+03  0.13552347149E+04  0.25500000920E-02 0. -1.
       -2    1    3    3    0  502  0.76569876891E+03 -0.68713817243E+03  0.86878330825E+03  0.13465652266E+04  0.25500000920E-02 0.  1.
</event>
<event>
 5   0  0.1971600E-07  0.2700168E+04  0.7818609E-02  0.8334950E-01
        1   -1    0    0  501    0  0.00000000000E+00  0.00000000000E+00  0.12433478550E+04  0.12433478550E+04  0.50400001928E-02 0. -1.
       -1   -1    0    0    0  501  0.00000000000E+00  0.00000000000E+00 -0.14659834333E+04  0.14659834333E+04  0.50400001928E-02 0.  1.
    10030    2    1    2    0    0  0.00000000000E+00  0.00000000000E+00 -0.22263557833E+03  0.27093312883E+04  0.27001684075E+04 0.  0.
        5    1    3    3  502    0 -0.91882761265E+03  0.42297343992E+03  0.78589470256E+03  0.12809384396E+04  0.46999998093E+01 0. -1.
       -5    1    3    3    0  502  0.91882761265E+03 -0.42297343992E+03 -0.10085302809E+04  0.14283928487E+04  0.46999998093E+01 0.  1.
</event>
<event>
 5   0  0.4735120E-07  0.2699992E+04  0.7818609E-02  0.8335007E-01
       -2   -1    0    0    0  501  0.00000000000E+00  0.00000000000E+00  0.11556634977E+04  0.11556634977E+04  0.25500000920E-02 0.  1.
        2   -1    0    0  501    0  0.00000000000E+00  0.00000000000E+00 -0.15770073807E+04  0.15770073807E+04  0.25500000920E-02 0. -1.
    10030    2    1    2    0    0  0.00000000000E+00  0.00000000000E+00 -0.42134388309E+03  0.27326708784E+04  0.26999924929E+04 0.  0.
        2    1    3    3  502    0  0.11369733363E+04 -0.15832828196E+02  0.52582405909E+03  0.12527769104E+04  0.25500000920E-02 0.  1.
       -2    1    3    3    0  502 -0.11369733363E+04  0.15832828196E+02 -0.94716794218E+03  0.14798939681E+04  0.25500000920E-02 0. -1.
</event>
<event>
 5   0  0.4992668E-07  0.2699454E+04  0.7818609E-02  0.8335182E-01
        2   -1    0    0  501    0  0.00000000000E+00  0.00000000000E+00  0.27525726497E+04  0.27525726498E+04  0.25500000920E-02 0. -1.
       -2   -1    0    0    0  501  0.00000000000E+00  0.00000000000E+00 -0.66184004862E+03  0.66184004863E+03  0.25500000920E-02 0.  1.
    10030    2    1    2    0    0  0.00000000000E+00  0.00000000000E+00  0.20907326011E+04  0.34144126984E+04  0.26994538828E+04 0.  0.
        1    1    3    3  502    0 -0.51304854129E+02 -0.13220786049E+04  0.70776946258E+03  0.15004871335E+04  0.50400001928E-02 0.  1.
       -1    1    3    3    0  502  0.51304854129E+02  0.13220786049E+04  0.13829631385E+04  0.19139255649E+04  0.50400001928E-02 0. -1.
</event>
<event>
 5   0  0.1965415E-07  0.2700619E+04  0.7818609E-02  0.8334804E-01
        1   -1    0    0  501    0  0.00000000000E+00  0.00000000000E+00  0.18690439056E+04  0.18690439056E+04  0.50400001928E-02 0. -1.
       -1   -1    0    0    0  501  0.00000000000E+00  0.00000000000E+00 -0.97554478665E+03  0.97554478667E+03  0.50400001928E-02 0.  1.
    10030    2    1    2    0    0  0.00000000000E+00  0.00000000000E+00  0.89349911891E+03  0.28445886922E+04  0.27006192165E+04 0.  0.
        4    1    3    3  502    0  0.98421248385E+03 -0.14198633928E+03  0.14089583495E+04  0.17245287987E+04  0.12699999809E+01 0. -1.
       -4    1    3    3    0  502 -0.98421248385E+03  0.14198633928E+03 -0.51545923059E+03  0.11200598936E+04  0.12699999809E+01 0.  1.
</event>
<event>
 5   0  0.1937896E-07  0.2699766E+04  0.7818609E-02  0.8335081E-01
        1   -1    0    0  501    0  0.00000000000E+00  0.00000000000E+00  0.22687180818E+04  0.22687180818E+04  0.50400001928E-02 0.  1.
       -1   -1    0    0    0  501  0.00000000000E+00  0.00000000000E+00 -0.80317786481E+03  0.80317786483E+03  0.50400001928E-02 0. -1.
    10030    2    1    2    0    0  0.00000000000E+00  0.00000000000E+00  0.14655402170E+04  0.30718959467E+04  0.26997660231E+04 0.  0.
        3    1    3    3  502    0 -0.64879354716E+03  0.63425288335E+03 -0.40448407122E+03  0.99338671269E+03  0.10100000352E+00 0. -1.
       -3    1    3    3    0  502  0.64879354716E+03 -0.63425288335E+03  0.18700242882E+04  0.20785092340E+04  0.10100000352E+00 0.  1.
</event>
<event>
 5   0  0.4735120E-07  0.2701298E+04  0.7818609E-02  0.8334584E-01
       -2   -1    0    0    0  501  0.00000000000E+00  0.00000000000E+00  0.97941906873E+03  0.97941906873E+03  0.25500000920E-02 0.  1.
        2   -1    0    0  501    0  0.00000000000E+00  0.00000000000E+00 -0.18625863110E+04  0.18625863110E+04  0.25500000920E-02 0. -1.
    10030    2    1    2    0    0  0.00000000000E+00  0.00000000000E+00 -0.88316724226E+03  0.28420053797E+04  0.27012978734E+04 0.  0.
        2    1    3    3  502    0 -0.36532713803E+03  0.12880649501E+04 -0.62883568426E+03  0.14791921955E+04  0.25500000920E-02 0.  1.
       -2    1    3    3    0  502  0.36532713803E+03 -0.12880649501E+04 -0.25433155800E+03  0.13628131842E+04  0.25500000920E-02 0. -1.
</event>
<event>
 5   0  0.1937896E-07  0.2703245E+04  0.7818609E-02  0.8333953E-01
       -1   -1    0    0    0  501  0.00000000000E+00  0.00000000000E+00  0.69212597562E+03  0.69212597563E+03  0.50400001928E-02 0.  1.
        1   -1    0    0  501    0  0.00000000000E+00  0.00000000000E+00 -0.26395241961E+04  0.26395241961E+04  0.50400001928E-02 0. -1.
    10030    2    1    2    0    0  0.00000000000E+00  0.00000000000E+00 -0.19473982205E+04  0.33316501717E+04  0.27032449089E+04 0.  0.
        3    1    3    3  502    0 -0.50966152442E+03  0.59087223306E+03 -0.23338821517E+04  0.24608719539E+04  0.10100000352E+00 0. -1.
       -3    1    3    3    0  502  0.50966152442E+03 -0.59087223306E+03  0.38648393126E+03  0.87077821780E+03  0.10100000352E+00 0.  1.
</event>
<event>
 5   0  0.1888149E-07  0.2700064E+04  0.7818609E-02  0.8334984E-01
        1   -1    0    0  501    0  0.00000000000E+00  0.00000000000E+00  0.11486012823E+04  0.11486012823E+04  0.50400001928E-02 0.  1.
       -1   -1    0    0    0  501  0.00000000000E+00  0.00000000000E+00 -0.15867873552E+04  0.15867873552E+04  0.50400001928E-02 0. -1.
    10030    2    1    2    0    0  0.00000000000E+00  0.00000000000E+00 -0.43818607286E+03  0.27353886376E+04  0.27000636963E+04 0.  0.
        1    1    3    3  502    0  0.91728210761E+03 -0.96114613230E+03 -0.46176318924E+03  0.14065680202E+04  0.50400001928E-02 0.  1.
       -1    1    3    3    0  502 -0.91728210761E+03  0.96114613230E+03  0.23577116374E+02  0.13288206173E+04  0.50400001928E-02 0. -1.
</event>
<event>
 5   0  0.1964242E-07  0.2699578E+04  0.7818609E-02  0.8335142E-01
        1   -1    0    0  501    0  0.00000000000E+00  0.00000000000E+00  0.93774347017E+03  0.93774347019E+03  0.50400001928E-02 0. -1.
       -1   -1    0    0    0  501  0.00000000000E+00  0.00000000000E+00 -0.19428880096E+04  0.19428880096E+04  0.50400001928E-02 0.  1.
    10030    2    1    2    0    0  0.00000000000E+00  0.00000000000E+00 -0.10051445394E+04  0.28806314798E+04  0.26995781480E+04 0.  0.
        2    1    3    3  502    0 -0.12322314911E+04  0.55086454795E+03 -0.49277229044E+03  0.14368962134E+04  0.25500000920E-02 0.  1.
       -2    1    3    3    0  502  0.12322314911E+04 -0.55086454795E+03 -0.51237224894E+03  0.14437352664E+04  0.25500000920E-02 0. -1.
</event>
<event>
 5   0  0.4983208E-07  0.2701313E+04  0.7818609E-02  0.8334579E-01
        2   -1    0    0  501    0  0.00000000000E+00  0.00000000000E+00  0.11536213589E+04  0.11536213589E+04  0.25500000920E-02 0. -1.
       -2   -1    0    0    0  501  0.00000000000E+00  0.00000000000E+00 -0.15813450577E+04  0.15813450577E+04  0.25500000920E-02 0.  1.
    10030    2    1    2    0    0  0.00000000000E+00  0.00000000000E+00 -0.42772369881E+03  0.27349664166E+04  0.27013133357E+04 0.  0.
        4    1    3    3  502    0 -0.51834588471E+03 -0.66869302533E+03 -0.12798022794E+04  0.15341865289E+04  0.12699999809E+01 0.  1.
       -4    1    3    3    0  502  0.51834588471E+03  0.66869302533E+03  0.85207858057E+03  0.12007798877E+04  0.12699999809E+01 0. -1.
</event>
<event>
 5   0  0.1641625E-07  0.2699531E+04  0.7818609E-02  0.8335157E-01
        4   -1    0    0  501    0  0.00000000000E+00  0.00000000000E+00  0.14781091891E+04  0.14781097347E+04  0.12699999809E+01 0. -1.
       -4   -1    0    0    0  501  0.00000000000E+00  0.00000000000E+00 -0.12325650652E+04  0.12325657195E+04  0.12699999809E+01 0.  1.
    10030    2    1    2    0    0  0.00000000000E+00  0.00000000000E+00  0.24554412388E+03  0.27106754542E+04  0.26995313485E+04 0.  0.
        3    1    3    3  502    0  0.10330592553E+04 -0.81767631959E+03  0.41734530261E+03  0.13820213820E+04  0.10100000352E+00 0. -1.
       -3    1    3    3    0  502 -0.10330592553E+04  0.81767631959E+03 -0.17180117873E+03  0.13286540722E+04  0.10100000352E+00 0.  1.
</event>
<event>
 5   0  0.4983208E-07  0.2698444E+04  0.7818609E-02  0.8335510E-01
        2   -1    0    0  501    0  0.00000000000E+00  0.00000000000E+00  0.12928899415E+04  0.12928899415E+04  0.25500000920E-02 0. -1.
       -2   -1    0    0    0  501  0.00000000000E+00  0.00000000000E+00 -0.14080081796E+04  0.14080081796E+04  0.25500000920E-02 0.  1.
    10030    2    1    2    0    0  0.00000000000E+00  0.00000000000E+00 -0.11511823815E+03  0.27008981211E+04  0.26984437092E+04 0.  0.
        4    1    3    3  502    0 -0.28378793856E+03 -0.13058130692E+04  0.12892898622E+03  0.13425005260E+04  0.12699999809E+01 0. -1.
       -4    1    3    3    0  502  0.28378793856E+03  0.13058130692E+04 -0.24404722437E+03  0.13583975951E+04  0.12699999809E+01 0.  1.
</event>
<event>
 5   0  0.4992668E-07  0.2699617E+04  0.7818609E-02  0.8335129E-01
        2   -1    0    0  501    0  0.00000000000E+00  0.00000000000E+00  0.24543705347E+04  0.24543705347E+04  0.25500000920E-02 0.  1.
       -2   -1    0    0    0  501  0.00000000000E+00  0.00000000000E+00 -0.74234243983E+03  0.74234243984E+03  0.25500000920E-02 0. -1.
    10030    2    1    2    0    0  0.00000000000E+00  0.00000000000E+00  0.17120280949E+04  0.31967129746E+04  0.26996173144E+04 0.  0.
        1    1    3    3  502    0 -0.63115987685E+03  0.99168457453E+03  0.70384626225E+02  0.11776056560E+04  0.50400001928E-02 0. -1.
       -1    1    3    3    0  502  0.63115987685E+03 -0.99168457453E+03  0.16416434687E+04  0.20191073185E+04  0.50400001928E-02 0.  1.
</event>
<event>
 5   0  0.4843887E-07  0.2699528E+04  0.7818609E-02  0.8335158E-01
        2   -1    0    0  501    0  0.00000000000E+00  0.00000000000E+00  0.10911382399E+04  0.10911382399E+04  0.25500000920E-02 0. -1.
       -2   -1    0    0    0  501  0.00000000000E+00  0.00000000000E+00 -0.16696907302E+04  0.16696907302E+04  0.25500000920E-02 0.  1.
    10030    2    1    2    0    0  0.00000000000E+00  0.00000000000E+00 -0.57855249028E+03  0.27608289701E+04  0.26995284066E+04 0.  0.
        5    1    3    3  502    0 -0.12275546915E+04  0.45281088716E+03 -0.62833605877E+03  0.14514670210E+04  0.46999998093E+01 0.  1.
       -5    1    3    3    0  502  0.12275546915E+04 -0.45281088716E+03  0.49783568493E+02  0.13093619491E+04  0.46999998093E+01 0. -1.
</event>
<event>
 5   0  0.5043890E-07  0.2699893E+04  0.7818609E-02  0.8335040E-01
       -2   -1    0    0    0  501  0.00000000000E+00  0.00000000000E+00  0.72140734617E+03  0.72140734618E+03  0.25500000920E-02 0. -1.
        2   -1    0    0  501    0  0.00000000000E+00  0.00000000000E+00 -0.25261121108E+04  0.25261121108E+04  0.25500000920E-02 0.  1.
    10030    2    1    2    0    0  0.00000000000E+00  0.00000000000E+00 -0.18047047647E+04  0.32475194570E+04  0.26998932083E+04 0.  0.
        3    1    3    3  502    0  0.12464361232E+04 -0.40579804491E+03 -0.12904048107E+04  0.18394074177E+04  0.10100000352E+00 0.  1.
       -3    1    3    3    0  502 -0.12464361232E+04  0.40579804491E+03 -0.51429995393E+03  0.14081120393E+04  0.10100000352E+00 0. -1.
</event>
<event>
 5   0  0.4983208E-07  0.2700666E+04  0.7818609E-02  0.8334789E-01
        2   -1    0    0  501    0  0.00000000000E+00  0.00000000000E+00  0.25156580357E+04  0.25156580357E+04  0.25500000920E-02 0.  1.
       -2   -1    0    0    0  501  0.00000000000E+00  0.00000000000E+00 -0.72481986711E+03  0.72481986712E+03  0.25500000920E-02 0. -1.
    10030    2    1    2    0    0  0.00000000000E+00  0.00000000000E+00  0.17908381686E+04  0.32404779029E+04  0.27006657869E+04 0.  0.
        4    1    3    3  502    0 -0.49245574265E+03  0.66149000687E+03  0.21784032327E+04  0.23292754119E+04  0.12699999809E+01 0.  1.
       -4    1    3    3    0  502  0.49245574265E+03 -0.66149000687E+03 -0.38756506406E+03  0.91120249091E+03  0.12699999809E+01 0. -1.
</event>
<event>
 5   0  0.1937896E-07  0.2699600E+04  0.7818609E-02  0.8335135E-01
        1   -1    0    0  501    0  0.00000000000E+00  0.00000000000E+00  0.13223463618E+04  0.13223463618E+04  0.50400001928E-02 0. -1.
       -1   -1    0    0    0  501  0.00000000000E+00  0.00000000000E+00 -0.13778236208E+04  0.13778236208E+04  0.50400001928E-02 0.  1.
    10030    2    1    2    0    0  0.00000000000E+00  0.00000000000E+00 -0.55477258983E+02  0.27001699826E+04  0.26996000090E+04 0.  0.
        3    1    3    3  502    0 -0.72748849454E+03 -0.67592873545E+03 -0.94217499175E+03  0.13688728540E+04  0.10100000352E+00 0.  1.
       -3    1    3    3    0  502  0.72748849454E+03  0.67592873545E+03  0.88669773277E+03  0.13312971286E+04  0.10100000352E+00 0. -1.
</event>
<event>
 5   0  0.1964242E-07  0.2701239E+04  0.7818609E-02  0.8334603E-01
       -1   -1    0    0    0  501  0.00000000000E+00  0.00000000000E+00  0.19367137139E+04  0.19367137139E+04  0.50400001928E-02 0.  1.
        1   -1    0    0  501    0  0.00000000000E+00  0.00000000000E+00 -0.94189099695E+03  0.94189099696E+03  0.50400001928E-02 0. -1.
    10030    2    1    2    0    0  0.00000000000E+00  0.00000000000E+00  0.99482271696E+03  0.28786047109E+04  0.27012391311E+04 0.  0.
        2    1    3    3  502    0 -0.90714626172E+02  0.13169498932E+04  0.19302190271E+03  0.13341077991E+04  0.25500000920E-02 0.  1.
       -2    1    3    3    0  502  0.90714626172E+02 -0.13169498932E+04  0.80180081425E+03  0.15444969118E+04  0.25500000920E-02 0. -1.
</event>
<event>
 5   0  0.1971600E-07  0.2700175E+04  0.7818609E-02  0.8334948E-01
        1   -1    0    0  501    0  0.00000000000E+00  0.00000000000E+00  0.14988649912E+04  0.14988649913E+04  0.50400001928E-02 0.  1.
       -1   -1    0    0    0  501  0.00000000000E+00  0.00000000000E+00 -0.12160776140E+04  0.12160776140E+04  0.50400001928E-02 0. -1.
    10030    2    1    2    0    0  0.00000000000E+00  0.00000000000E+00  0.28278737722E+03  0.27149426053E+04  0.27001749294E+04 0.  0.
        5    1    3    3  502    0  0.56504387763E+03 -0.11128010052E+04 -0.37631398392E+03  0.13035470707E+04  0.46999998093E+01 0. -1.
       -5    1    3    3    0  502 -0.56504387763E+03  0.11128010052E+04  0.65910136114E+03  0.14113955346E+04  0.46999998093E+01 0.  1.
</event>
<event>
 5   0  0.4983208E-07  0.2700367E+04  0.7818609E-02  0.8334886E-01
       -2   -1    0    0    0  501  0.00000000000E+00  0.00000000000E+00  0.14421601137E+04  0.14421601137E+04  0.25500000920E-02 0. -1.
        2   -1    0    0  501    0  0.00000000000E+00  0.00000000000E+00 -0.12640729091E+04  0.12640729091E+04  0.25500000920E-02 0.  1.
    10030    2    1    2    0    0  0.00000000000E+00  0.00000000000E+00  0.17808720458E+03  0.27062330227E+04  0.27003670345E+04 0.  0.
        4    1    3    3  502    0  0.21932153608E+03 -0.76175570147E+03 -0.10063175253E+04  0.12810348393E+04  0.12699999809E+01 0.  1.
       -4    1    3    3    0  502 -0.21932153608E+03  0.76175570147E+03  0.11844047299E+04  0.14251981834E+04  0.12699999809E+01 0. -1.
</event>
<event>
 5   0  0.1888149E-07  0.2700258E+04  0.7818609E-02  0.8334921E-01
       -1   -1    0    0    0  501  0.00000000000E+00  0.00000000000E+00  0.12158782997E+04  0.12158782997E+04  0.50400001928E-02 0.  1.
        1   -1    0    0  501    0  0.00000000000E+00  0.00000000000E+00 -0.14992027947E+04  0.14992027948E+04  0.50400001928E-02 0. -1.
    10030    2    1    2    0    0  0.00000000000E+00  0.00000000000E+00 -0.28332449510E+03  0.27150810944E+04  0.27002578728E+04 0.  0.
        1    1    3    3  502    0  0.92333265907E+03 -0.94191477958E+03 -0.43151803721E+03  0.13877876162E+04  0.50400001928E-02 0.  1.
       -1    1    3    3    0  502 -0.92333265907E+03  0.94191477958E+03  0.14819354211E+03  0.13272934782E+04  0.50400001928E-02 0. -1.
</event>
<event>
 5   0  0.1971600E-07  0.2700338E+04  0.7818609E-02  0.8334895E-01
        1   -1    0    0  501    0  0.00000000000E+00  0.00000000000E+00  0.20904617277E+04  0.20904617277E+04  0.50400001928E-02 0. -1.
       -1   -1    0    0    0  501  0.00000000000E+00  0.00000000000E+00 -0.87203501964E+03  0.87203501966E+03  0.50400001928E-02 0.  1.
    10030    2    1    2    0    0  0.00000000000E+00  0.00000000000E+00  0.12184267080E+04  0.29624967473E+04  0.27003376335E+04 0.  0.
        5    1    3    3  502    0  0.29771741187E+03 -0.12620369877E+04  0.10219862831E+04  0.16510151630E+04  0.46999998093E+01 0. -1.
       -5    1    3    3    0  502 -0.29771741187E+03  0.12620369877E+04  0.19644042491E+03  0.13114815843E+04  0.46999998093E+01 0.  1.
</event>
<event>
 5   0  0.1888149E-07  0.2699883E+04  0.7818609E-02  0.8335043E-01
       -1   -1    0    0    0  501  0.00000000000E+00  0.00000000000E+00  0.12297410181E+04  0.12297410181E+04  0.50400001928E-02 0. -1.
        1   -1    0    0  501    0  0.00000000000E+00  0.00000000000E+00 -0.14818906226E+04  0.14818906226E+04  0.50400001928E-02 0.  1.
    10030    2    1    2    0    0  0.00000000000E+00  0.00000000000E+00 -0.25214960450E+03  0.27116316407E+04  0.26998827255E+04 0.  0.
        1    1    3    3  502    0  0.41142425351E+03  0.12126257374E+04  0.30311438259E+03  0.13159063129E+04  0.50400001928E-02 0. -1.
       -1    1    3    3    0  502 -0.41142425351E+03 -0.12126257374E+04 -0.55526398709E+03  0.13957253278E+04  0.50400001928E-02 0.  1.
</event>
<event>
 5   0  0.1964242E-07  0.2702612E+04  0.7818609E-02  0.8334158E-01
       -1   -1    0    0    0  501  0.00000000000E+00  0.00000000000E+00  0.14064506476E+04  0.14064506476E+04  0.50400001928E-02 0. -1.
        1   -1    0    0  501    0  0.00000000000E+00  0.00000000000E+00 -0.12983235801E+04  0.12983235801E+04  0.50400001928E-02 0.  1.
    10030    2    1    2    0    0  0.00000000000E+00  0.00000000000E+00  0.10812706750E+03  0.27047742277E+04  0.27026120994E+04 0.  0.
        2    1    3    3  502    0  0.98293343351E+03  0.56113026455E+03 -0.68477007421E+03  0.13228512248E+04  0.25500000920E-02 0.  1.
       -2    1    3    3    0  502 -0.98293343351E+03 -0.56113026455E+03  0.79289714171E+03  0.13819230029E+04  0.25500000920E-02 0. -1.
</event>
<event>
 5   0  0.4843887E-07  0.2699441E+04  0.7818609E-02  0.8335187E-01
        2   -1    0    0  501    0  0.00000000000E+00  0.00000000000E+00  0.11621632149E+04  0.11621632149E+04  0.25500000920E-02 0. -1.
       -2   -1    0    0    0  501  0.00000000000E+00  0.00000000000E+00 -0.15675464617E+04  0.15675464617E+04  0.25500000920E-02 0.  1.
    10030    2    1    2    0    0  0.00000000000E+00  0.00000000000E+00 -0.40538324687E+03  0.27297096766E+04  0.26994405609E+04 0.  0.
        5    1    3    3  502    0 -0.18062796644E+03 -0.12865593704E+04  0.16728148636E+03  0.13099109365E+04  0.46999998093E+01 0. -1.
       -5    1    3    3    0  502  0.18062796644E+03  0.12865593704E+04 -0.57266473323E+03  0.14197987401E+04  0.46999998093E+01 0.  1.
</event>
<event>
 5   0  0.4983208E-07  0.2701389E+04  0.7818609E-02  0.8334554E-01
       -2   -1    0    0    0  501  0.00000000000E+00  0.00000000000E+00  0.12078230895E+04  0.12078230895E+04  0.25500000920E-02 0. -1.
        2   -1    0    0  501    0  0.00000000000E+00  0.00000000000E+00 -0.15104660188E+04  0.15104660188E+04  0.25500000920E-02 0.  1.
    10030    2    1    2    0    0  0.00000000000E+00  0.00000000000E+00 -0.30264292930E+03  0.27182891084E+04  0.27013890749E+04 0.  0.
        4    1    3    3  502    0  0.65532917609E+02  0.73412270586E+03  0.98763566978E+03  0.12323378350E+04  0.12699999809E+01 0. -1.
       -4    1    3    3    0  502 -0.65532917609E+02 -0.73412270586E+03 -0.12902785991E+04  0.14859512733E+04  0.12699999809E+01 0.  1.
</event>
<event>
 5   0  0.1937896E-07  0.2689991E+04  0.7818609E-02  0.8338260E-01
        1   -1    0    0  501    0  0.00000000000E+00  0.00000000000E+00  0.63994439480E+03  0.63994439482E+03  0.50400001928E-02 0. -1.
       -1   -1    0    0    0  501  0.00000000000E+00  0.00000000000E+00 -0.28268272177E+04  0.28268272177E+04  0.50400001928E-02 0.  1.
    10030    2    1    2    0    0  0.00000000000E+00  0.00000000000E+00 -0.21868828229E+04  0.34667716126E+04  0.26899905079E+04 0.  0.
        3    1    3    3  502    0 -0.28919702896E+02 -0.98189858559E+03  0.90578045496E+02  0.98649154792E+03  0.10100000352E+00 0. -1.
       -3    1    3    3    0  502  0.28919702896E+02  0.98189858559E+03 -0.22774608684E+04  0.24802800646E+04  0.10100000352E+00 0.  1.
</event>
<event>
 5   0  0.1964242E-07  0.2700675E+04  0.7818609E-02  0.8334786E-01
        1   -1    0    0  501    0  0.00000000000E+00  0.00000000000E+00  0.18858766230E+04  0.18858766230E+04  0.50400001928E-02 0.  1.
       -1   -1    0    0    0  501  0.00000000000E+00  0.00000000000E+00 -0.96687708505E+03  0.96687708507E+03  0.50400001928E-02 0. -1.
    10030    2    1    2    0    0  0.00000000000E+00  0.00000000000E+00  0.91899953790E+03  0.28527537080E+04  0.27006746505E+04 0.  0.
        2    1    3    3  502    0  0.52464155585E+03 -0.10881921048E+04  0.10967980482E+04  0.16316791283E+04  0.25500000920E-02 0.  1.
       -2    1    3    3    0  502 -0.52464155585E+03  0.10881921048E+04 -0.17779851032E+03  0.12210745798E+04  0.25500000920E-02 0. -1.
</event>
<event>
 5   0  0.4983208E-07  0.2700395E+04  0.7818609E-02  0.8334877E-01
        2   -1    0    0  501    0  0.00000000000E+00  0.00000000000E+00  0.18666766138E+04  0.18666766138E+04  0.25500000920E-02 0. -1.
       -2   -1    0    0    0  501  0.00000000000E+00  0.00000000000E+00 -0.97661966369E+03  0.97661966369E+03  0.25500000920E-02 0.  1.
    10030    2    1    2    0    0  0.00000000000E+00  0.00000000000E+00  0.89005695008E+03  0.28432962775E+04  0.27003948502E+04 0.  0.
        4    1    3    3  502    0  0.63751765920E+03 -0.10289780898E+04  0.10748523789E+04  0.16188063271E+04  0.12699999809E+01 0. -1.
       -4    1    3    3    0  502 -0.63751765920E+03  0.10289780898E+04 -0.18479542885E+03  0.12244899504E+04  0.12699999809E+01 0.  1.
</event>
<event>
 5   0  0.1888149E-07  0.2699636E+04  0.7818609E-02  0.8335123E-01
        1   -1    0    0  501    0  0.00000000000E+00  0.00000000000E+00  0.16070637568E+04  0.16070637568E+04  0.50400001928E-02 0. -1.
       -1   -1    0    0    0  501  0.00000000000E+00  0.00000000000E+00 -0.11337501967E+04  0.11337501968E+04  0.50400001928E-02 0.  1.
    10030    2    1    2    0    0  0.00000000000E+00  0.00000000000E+00  0.47331356007E+03  0.27408139536E+04  0.26996361610E+04 0.  0.
        1    1    3    3  502    0  0.81547670062E+02  0.10486246672E+04 -0.62226481583E+03  0.12220790548E+04  0.50400001928E-02 0.  1.
       -1    1    3    3    0  502 -0.81547670062E+02 -0.10486246672E+04  0.10955783759E+04  0.15187348988E+04  0.50400001928E-02 0. -1.
</event>
<event>
 5   0  0.4992668E-07  0.2700800E+04  0.7818609E-02  0.8334746E-01
        2   -1    0    0  501    0  0.00000000000E+00  0.00000000000E+00  0.12636962773E+04  0.12636962773E+04  0.25500000920E-02 0. -1.
       -2   -1    0    0    0  501  0.00000000000E+00  0.00000000000E+00 -0.14430522506E+04  0.14430522506E+04  0.25500000920E-02 0.  1.
    10030    2    1    2    0    0  0.00000000000E+00  0.00000000000E+00 -0.17935597330E+03  0.27067485280E+04  0.27007997017E+04 0.  0.
        1    1    3    3  502    0  0.10361229621E+04  0.84737083571E+03  0.89578023297E+02  0.13414963094E+04  0.50400001928E-02 0. -1.
       -1    1    3    3    0  502 -0.10361229621E+04 -0.84737083571E+03 -0.26893399659E+03  0.13652522186E+04  0.50400001928E-02 0.  1.
</event>
<event>
 5   0  0.1888149E-07  0.2698889E+04  0.7818609E-02  0.8335366E-01
       -1   -1    0    0    0  501  0.00000000000E+00  0.00000000000E+00  0.12101340228E+04  0.12101340228E+04  0.50400001928E-02 0. -1.
        1   -1    0    0  501    0  0.00000000000E+00  0.00000000000E+00 -0.15047921190E+04  0.15047921190E+04  0.50400001928E-02 0.  1.
    10030    2    1    2    0    0  0.00000000000E+00  0.00000000000E+00 -0.29465809626E+03  0.27149261418E+04  0.26988887643E+04 0.  0.
        1    1    3    3  502    0 -0.19644792949E+03 -0.10303637035E+04 -0.10013491005E+04  0.14501521201E+04  0.50400001928E-02 0.  1.
       -1    1    3    3    0  502  0.19644792949E+03  0.10303637035E+04  0.70669100424E+03  0.12647740217E+04  0.50400001928E-02 0. -1.
</event>
<event>
 5   0  0.1888149E-07  0.2699371E+04  0.7818609E-02  0.8335209E-01
       -1   -1    0    0    0  501  0.00000000000E+00  0.00000000000E+00  0.16157776656E+04  0.16157776656E+04  0.50400001928E-02 0.  1.
        1   -1    0    0  501    0  0.00000000000E+00  0.00000000000E+00 -0.11274145530E+04  0.11274145530E+04  0.50400001928E-02 0. -1.
    10030    2    1    2    0    0  0.00000000000E+00  0.00000000000E+00  0.48836311261E+03  0.27431922186E+04  0.26993712265E+04 0.  0.
        1    1    3    3  502    0 -0.75669120957E+03 -0.62950879412E+03 -0.69427517616E+03  0.12045251881E+04  0.50400001928E-02 0. -1.
       -1    1    3    3    0  502  0.75669120957E+03  0.62950879412E+03  0.11826382888E+04  0.15386670305E+04  0.50400001928E-02 0.  1.
</event>
<event>
 5   0  0.5043890E-07  0.2700212E+04  0.7818609E-02  0.8334936E-01
       -2   -1    0    0    0  501  0.00000000000E+00  0.00000000000E+00  0.10549048422E+04  0.10549048422E+04  0.25500000920E-02 0. -1.
        2   -1    0    0  501    0  0.00000000000E+00  0.00000000000E+00 -0.17279155869E+04  0.17279155869E+04  0.25500000920E-02 0.  1.
    10030    2    1    2    0    0  0.00000000000E+00  0.00000000000E+00 -0.67301074471E+03  0.27828204291E+04  0.27002122284E+04 0.  0.
        3    1    3    3  502    0  0.74395230329E+03  0.36022486133E+03 -0.14366652231E+04  0.16574781910E+04  0.10100000352E+00 0.  1.
       -3    1    3    3    0  502 -0.74395230329E+03 -0.36022486133E+03  0.76365447839E+03  0.11253422381E+04  0.10100000352E+00 0. -1.
</event>
<event>
 5   0  0.1641625E-07  0.2701589E+04  0.7818609E-02  0.8334490E-01
        3   -1    0    0  501    0  0.00000000000E+00  0.00000000000E+00  0.14674553302E+04  0.14674553337E+04  0.10100000352E+00 0.  1.
       -3   -1    0    0    0  501  0.00000000000E+00  0.00000000000E+00 -0.12434081356E+04  0.12434081397E+04  0.10100000352E+00 0. -1.
    10030    2    1    2    0    0  0.00000000000E+00  0.00000000000E+00  0.22404719463E+03  0.27108634734E+04  0.27015890927E+04 0.  0.
        4    1    3    3  502    0  0.26288578421E+03 -0.34315506897E+02  0.14410923213E+04  0.14652764862E+04  0.12699999809E+01 0.  1.
       -4    1    3    3    0  502 -0.26288578421E+03  0.34315506897E+02 -0.12170451266E+04  0.12455869872E+04  0.12699999809E+01 0. -1.
</event>
<event>
 5   0  0.5043890E-07  0.2699930E+04  0.7818609E-02  0.8335028E-01
        2   -1    0    0  501    0  0.00000000000E+00  0.00000000000E+00  0.27669471443E+04  0.27669471443E+04  0.25500000920E-02 0. -1.
       -2   -1    0    0    0  501  0.00000000000E+00  0.00000000000E+00 -0.65863410689E+03  0.65863410689E+03  0.25500000920E-02 0.  1.
    10030    2    1    2    0    0  0.00000000000E+00  0.00000000000E+00  0.21083130374E+04  0.34255812512E+04  0.26999301926E+04 0.  0.
        3    1    3    3  502    0  0.12304680270E+04 -0.39078446952E+03  0.15547033287E+04  0.20208578668E+04  0.10100000352E+00 0.  1.
       -3    1    3    3    0  502 -0.12304680270E+04  0.39078446952E+03  0.55360970870E+03  0.14047233845E+04  0.10100000352E+00 0. -1.
</event>
<event>
 5   0  0.4983208E-07  0.2699587E+04  0.7818609E-02  0.8335139E-01
       -2   -1    0    0    0  501  0.00000000000E+00  0.00000000000E+00  0.20553688520E+04  0.20553688520E+04  0.25500000920E-02 0. -1.
        2   -1    0    0  501    0  0.00000000000E+00  0.00000000000E+00 -0.88643114453E+03  0.88643114454E+03  0.25500000920E-02 0.  1.
    10030    2    1    2    0    0  0.00000000000E+00  0.00000000000E+00  0.11689377075E+04  0.29417999966E+04  0.26995873492E+04 0.  0.
        4    1    3    3  502    0  0.28323229771E+03  0.86433932427E+03 -0.50232796564E+03  0.10390563026E+04  0.12699999809E+01 0.  1.
       -4    1    3    3    0  502 -0.28323229771E+03 -0.86433932427E+03  0.16712656731E+04  0.19027436940E+04  0.12699999809E+01 0. -1.
</event>
<event>
 5   0  0.5043890E-07  0.2699936E+04  0.7818609E-02  0.8335026E-01
        2   -1    0    0  501    0  0.00000000000E+00  0.00000000000E+00  0.95860125599E+03  0.95860125599E+03  0.25500000920E-02 0.  1.
       -2   -1    0    0    0  501  0.00000000000E+00  0.00000000000E+00 -0.19011169164E+04  0.19011169164E+04  0.25500000920E-02 0. -1.
    10030    2    1    2    0    0  0.00000000000E+00  0.00000000000E+00 -0.94251566039E+03  0.28597181724E+04  0.26999356021E+04 0.  0.
        3    1    3    3  502    0 -0.73303221842E+03  0.91055588415E+03 -0.11864709772E+04  0.16655814724E+04  0.10100000352E+00 0. -1.
       -3    1    3    3    0  502  0.73303221842E+03 -0.91055588415E+03  0.24395531678E+03  0.11941367000E+04  0.10100000352E+00 0.  1.
</event>
<event>
 5   0  0.4992668E-07  0.2700721E+04  0.7818609E-02  0.8334771E-01
       -2   -1    0    0    0  501  0.00000000000E+00  0.00000000000E+00  0.82421190750E+03  0.82421190750E+03  0.25500000920E-02 0. -1.
        2   -1    0    0  501    0  0.00000000000E+00  0.00000000000E+00 -0.22123847616E+04  0.22123847616E+04  0.25500000920E-02 0.  1.
    10030    2    1    2    0    0  0.00000000000E+00  0.00000000000E+00 -0.13881728541E+04  0.30365966691E+04  0.27007212848E+04 0.  0.
        1    1    3    3  502    0 -0.56798466432E+03 -0.56228039788E+03  0.52972079558E+03  0.95883781008E+03  0.50400001928E-02 0. -1.
       -1    1    3    3    0  502  0.56798466432E+03  0.56228039788E+03 -0.19178936497E+04  0.20777588590E+04  0.50400001928E-02 0.  1.
</event>
<event>
 5   0  0.1964242E-07  0.2699752E+04  0.7818609E-02  0.8335085E-01
        1   -1    0    0  501    0  0.00000000000E+00  0.00000000000E+00  0.11205784605E+04  0.11205784605E+04  0.50400001928E-02 0.  1.
       -1   -1    0    0    0  501  0.00000000000E+00  0.00000000000E+00 -0.16260934376E+04  0.16260934376E+04  0.50400001928E-02 0. -1.
    10030    2    1    2    0    0  0.00000000000E+00  0.00000000000E+00 -0.50551497711E+03  0.27466718981E+04  0.26997520486E+04 0.  0.
        2    1    3    3  502    0  0.44114115965E+03  0.63091431023E+02 -0.15490996564E+04  0.16119230121E+04  0.25500000920E-02 0. -1.
       -2    1    3    3    0  502 -0.44114115965E+03 -0.63091431023E+02  0.10435846793E+04  0.11347488860E+04  0.25500000920E-02 0.  1.
</event>
<event>
 5   0  0.1965415E-07  0.2701138E+04  0.7818609E-02  0.8334636E-01
       -1   -1    0    0    0  501  0.00000000000E+00  0.00000000000E+00  0.12118947231E+04  0.12118947231E+04  0.50400001928E-02 0. -1.
        1   -1    0    0  501    0  0.00000000000E+00  0.00000000000E+00 -0.15051111556E+04  0.15051111556E+04  0.50400001928E-02 0.  1.
    10030    2    1    2    0    0  0.00000000000E+00  0.00000000000E+00 -0.29321643243E+03  0.27170058787E+04  0.27011377360E+04 0.  0.
        4    1    3    3  502    0 -0.38607084905E+03 -0.14442667650E+02  0.11551254280E+04  0.12180212061E+04  0.12699999809E+01 0. -1.
       -4    1    3    3    0  502  0.38607084905E+03  0.14442667650E+02 -0.14483418604E+04  0.14989846726E+04  0.12699999809E+01 0.  1.
</event>
<event>
 5   0  0.4843887E-07  0.2701155E+04  0.7818609E-02  0.8334630E-01
       -2   -1    0    0    0  501  0.00000000000E+00  0.00000000000E+00  0.89495732755E+03  0.89495732756E+03  0.25500000920E-02 0. -1.
        2   -1    0    0  501    0  0.00000000000E+00  0.00000000000E+00 -0.20381532273E+04  0.20381532273E+04  0.25500000920E-02 0.  1.
    10030    2    1    2    0    0  0.00000000000E+00  0.00000000000E+00 -0.11431958997E+04  0.29331105548E+04  0.27011554309E+04 0.  0.
        5    1    3    3  502    0  0.83533242322E+03 -0.98674844511E+03 -0.14743254932E+03  0.13012344899E+04  0.46999998093E+01 0.  1.
       -5    1    3    3    0  502 -0.83533242322E+03  0.98674844511E+03 -0.99576335042E+03  0.16318760649E+04  0.46999998093E+01 0. -1.
</event>
<event>
 5   0  0.1888149E-07  0.2697705E+04  0.7818609E-02  0.8335750E-01
       -1   -1    0    0    0  501  0.00000000000E+00  0.00000000000E+00  0.11147771396E+04  0.11147771396E+04  0.50400001928E-02 0.  1.
        1   -1    0    0  501    0  0.00000000000E+00  0.00000000000E+00 -0.16320773617E+04  0.16320773617E+04  0.50400001928E-02 0. -1.
    10030    2    1    2    0    0  0.00000000000E+00  0.00000000000E+00 -0.51730022211E+03  0.27468545014E+04  0.26977046043E+04 0.  0.
        1    1    3    3  502    0  0.61713455276E+03  0.10302181853E+04  0.36670389255E+03  0.12556577202E+04  0.50400001928E-02 0.  1.
       -1    1    3    3    0  502 -0.61713455276E+03 -0.10302181853E+04 -0.88400411467E+03  0.14911967812E+04  0.50400001928E-02 0. -1.
</event>
<event>
 5   0  0.1965415E-07  0.2699984E+04  0.7818609E-02  0.8335010E-01
       -1   -1    0    0    0  501  0.00000000000E+00  0.00000000000E+00  0.13792703654E+04  0.13792703654E+04  0.50400001928E-02 0.  1.
        1   -1    0    0  501    0  0.00000000000E+00  0.00000000000E+00 -0.13213352902E+04  0.13213352902E+04  0.50400001928E-02 0. -1.
    10030    2    1    2    0    0  0.00000000000E+00  0.00000000000E+00  0.57935075204E+02  0.27006056557E+04  0.26999841545E+04 0.  0.
        4    1    3    3  502    0  0.56709538405E+03  0.85936871568E+01 -0.11963883214E+04  0.13240157305E+04  0.12699999809E+01 0. -1.
       -4    1    3    3    0  502 -0.56709538405E+03 -0.85936871568E+01  0.12543233966E+04  0.13765899252E+04  0.12699999809E+01 0.  1.
</event>
<event>
 5   0  0.1971600E-07  0.2700425E+04  0.7818609E-02  0.8334867E-01
       -1   -1    0    0    0  501  0.00000000000E+00  0.00000000000E+00  0.82994850260E+03  0.82994850262E+03  0.50400001928E-02 0. -1.
        1   -1    0    0  501    0  0.00000000000E+00  0.00000000000E+00 -0.21966105453E+04  0.21966105453E+04  0.50400001928E-02 0.  1.
    10030    2    1    2    0    0  0.00000000000E+00  0.00000000000E+00 -0.13666620427E+04  0.30265590479E+04  0.27004248798E+04 0.  0.
        5    1    3    3  502    0  0.12901703122E+03  0.11192080465E+04  0.15070630438E+03  0.11366646497E+04  0.46999998093E+01 0. -1.
       -5    1    3    3    0  502 -0.12901703122E+03 -0.11192080465E+04 -0.15173683471E+04  0.18898943982E+04  0.46999998093E+01 0.  1.
</event>
<event>
 5   0  0.4983208E-07  0.2696087E+04  0.7818609E-02  0.8336276E-01
       -2   -1    0    0    0  501  0.00000000000E+00  0.00000000000E+00  0.73132007130E+03  0.73132007130E+03  0.25500000920E-02 0. -1.
        2   -1    0    0  501    0  0.00000000000E+00  0.00000000000E+00 -0.24848515087E+04  0.24848515087E+04  0.25500000920E-02 0.  1.
    10030    2    1    2    0    0  0.00000000000E+00  0.00000000000E+00 -0.17535314374E+04  0.32161715800E+04  0.26960873743E+04 0.  0.
        4    1    3    3  502    0  0.73886749155E+03  0.12153143097E+03  0.46041724039E+03  0.87902258613E+03  0.12699999809E+01 0. -1.
       -4    1    3    3    0  502 -0.73886749155E+03 -0.12153143097E+03 -0.22139486778E+04  0.23371489939E+04  0.12699999809E+01 0.  1.
</event>
<event>
 5   0  0.1888149E-07  0.2700367E+04  0.7818609E-02  0.8334886E-01
       -1   -1    0    0    0  501  0.00000000000E+00  0.00000000000E+00  0.10828964942E+04  0.10828964942E+04  0.50400001928E-02 0. -1.
        1   -1    0    0  501    0  0.00000000000E+00  0.00000000000E+00 -0.16834436123E+04  0.16834436123E+04  0.50400001928E-02 0.  1.
    10030    2    1    2    0    0  0.00000000000E+00  0.00000000000E+00 -0.60054711814E+03  0.27663401065E+04  0.27003667795E+04 0.  0.
        1    1    3    3  502    0  0.82496463074E+03 -0.29070444268E+03 -0.13539544934E+04  0.16119145403E+04  0.50400001928E-02 0.  1.
       -1    1    3    3    0  502 -0.82496463074E+03  0.29070444268E+03  0.75340737524E+03  0.11544255663E+04  0.50400001928E-02 0. -1.
</event>
<event>
 5   0  0.4735120E-07  0.2700519E+04  0.7818609E-02  0.8334836E-01
        2   -1    0    0  501    0  0.00000000000E+00  0.00000000000E+00  0.14579806793E+04  0.14579806793E+04  0.25500000920E-02 0. -1.
       -2   -1    0    0    0  501  0.00000000000E+00  0.00000000000E+00 -0.12504975185E+04  0.12504975185E+04  0.25500000920E-02 0.  1.
    10030    2    1    2    0    0  0.00000000000E+00  0.00000000000E+00  0.20748316079E+03  0.27084781978E+04  0.27005193734E+04 0.  0.
        2    1    3    3  502    0 -0.96129780982E+03  0.56281378770E+03  0.86910814096E+03  0.14128700575E+04  0.25500000920E-02 0. -1.
       -2    1    3    3    0  502  0.96129780982E+03 -0.56281378770E+03 -0.66162498017E+03  0.12956081403E+04  0.25500000920E-02 0.  1.
</event>
<event>
 5   0  0.4843887E-07  0.2699685E+04  0.7818609E-02  0.8335107E-01
       -2   -1    0    0    0  501  0.00000000000E+00  0.00000000000E+00  0.14220685480E+04  0.14220685480E+04  0.25500000920E-02 0. -1.
        2   -1    0    0  501    0  0.00000000000E+00  0.00000000000E+00 -0.12812844109E+04  0.12812844109E+04  0.25500000920E-02 0.  1.
    10030    2    1    2    0    0  0.00000000000E+00  0.00000000000E+00  0.14078413711E+03  0.27033529590E+04  0.26996846200E+04 0.  0.
        5    1    3    3  502    0  0.80473189999E+03  0.71283852229E+03  0.88778549114E+03  0.13942443681E+04  0.46999998093E+01 0. -1.
       -5    1    3    3    0  502 -0.80473189999E+03 -0.71283852229E+03 -0.74700135403E+03  0.13091085909E+04  0.46999998093E+01 0.  1.
</event>
<event>
 5   0  0.1937896E-07  0.2701317E+04  0.7818609E-02  0.8334578E-01
        1   -1    0    0  501    0  0.00000000000E+00  0.00000000000E+00  0.26044020185E+04  0.26044020185E+04  0.50400001928E-02 0.  1.
       -1   -1    0    0    0  501  0.00000000000E+00  0.00000000000E+00 -0.70045935808E+03  0.70045935810E+03  0.50400001928E-02 0. -1.
    10030    2    1    2    0    0  0.00000000000E+00  0.00000000000E+00  0.19039426604E+04  0.33048613766E+04  0.27013165428E+04 0.  0.
        3    1    3    3  502    0  0.86065901419E+03 -0.33430992249E+03 -0.25406919893E+03  0.95762635252E+03  0.10100000352E+00 0. -1.
       -3    1    3    3    0  502 -0.86065901419E+03  0.33430992249E+03  0.21580118593E+04  0.23472350241E+04  0.10100000352E+00 0.  1.
</event>
<event>
 5   0  0.1971600E-07  0.2700494E+04  0.7818609E-02  0.8334845E-01
       -1   -1    0    0    0  501  0.00000000000E+00  0.00000000000E+00  0.10892315376E+04  0.10892315376E+04  0.50400001928E-02 0. -1.
        1   -1    0    0  501    0  0.00000000000E+00  0.00000000000E+00 -0.16738102422E+04  0.16738102422E+04  0.50400001928E-02 0.  1.
    10030    2    1    2    0    0  0.00000000000E+00  0.00000000000E+00 -0.58457870462E+03  0.27630417798E+04  0.27004939576E+04 0.  0.
        5    1    3    3  502    0 -0.11419427441E+04 -0.67047467754E+03 -0.56217000598E+03  0.14386197308E+04  0.46999998093E+01 0.  1.
       -5    1    3    3    0  502  0.11419427441E+04  0.67047467754E+03 -0.22408698632E+02  0.13244220490E+04  0.46999998093E+01 0. -1.
</event>
<event>
 5   0  0.4735120E-07  0.2699949E+04  0.7818609E-02  0.8335022E-01
        2   -1    0    0  501    0  0.00000000000E+00  0.00000000000E+00  0.97879190895E+03  0.97879190895E+03  0.25500000920E-02 0.  1.
       -2   -1    0    0    0  501  0.00000000000E+00  0.00000000000E+00 -0.18619187392E+04  0.18619187392E+04  0.25500000920E-02 0. -1.
    10030    2    1    2    0    0  0.00000000000E+00  0.00000000000E+00 -0.88312683027E+03  0.28407106482E+04  0.26999488862E+04 0.  0.
        2    1    3    3  502    0 -0.85572305591E+03  0.70214798036E+03  0.37148389234E+03  0.11675932584E+04  0.25500000920E-02 0.  1.
       -2    1    3    3    0  502  0.85572305591E+03 -0.70214798036E+03 -0.12546107226E+04  0.16731173898E+04  0.25500000920E-02 0. -1.
</event>
<event>
 5   0  0.1965415E-07  0.2699777E+04  0.7818609E-02  0.8335077E-01
        1   -1    0    0  501    0  0.00000000000E+00  0.00000000000E+00  0.10305797411E+04  0.10305797411E+04  0.50400001928E-02 0.  1.
       -1   -1    0    0    0  501  0.00000000000E+00  0.00000000000E+00 -0.17681293503E+04  0.17681293503E+04  0.50400001928E-02 0. -1.
    10030    2    1    2    0    0  0.00000000000E+00  0.00000000000E+00 -0.73754960923E+03  0.27987090914E+04  0.26997765004E+04 0.  0.
        4    1    3    3  502    0 -0.98253045700E+03  0.79534686703E+03 -0.85968266295E+03  0.15287245114E+04  0.12699999809E+01 0. -1.
       -4    1    3    3    0  502  0.98253045700E+03 -0.79534686703E+03  0.12213305372E+03  0.12699845800E+04  0.12699999809E+01 0.  1.
</event>
<event>
 5   0  0.5043890E-07  0.2701772E+04  0.7818609E-02  0.8334430E-01
        2   -1    0    0  501    0  0.00000000000E+00  0.00000000000E+00  0.24571051592E+04  0.24571051592E+04  0.25500000920E-02 0.  1.
       -2   -1    0    0    0  501  0.00000000000E+00  0.00000000000E+00 -0.74270054180E+03  0.74270054180E+03  0.25500000920E-02 0. -1.
    10030    2    1    2    0    0  0.00000000000E+00  0.00000000000E+00  0.17144046174E+04  0.31998057010E+04  0.27017722576E+04 0.  0.
        3    1    3    3  502    0 -0.13605497298E+03 -0.90218911711E+03  0.20370511746E+04  0.22320469656E+04  0.10100000352E+00 0.  1.
       -3    1    3    3    0  502  0.13605497298E+03  0.90218911711E+03 -0.32264655723E+03  0.96775873533E+03  0.10100000352E+00 0. -1.
</event>
<event>
 5   0  0.4843887E-07  0.2696797E+04  0.7818609E-02  0.8336045E-01
        2   -1    0    0  501    0  0.00000000000E+00  0.00000000000E+00  0.32954778813E+04  0.32954778813E+04  0.25500000920E-02 0. -1.
       -2   -1    0    0    0  501  0.00000000000E+00  0.00000000000E+00 -0.55171936156E+03  0.55171936157E+03  0.25500000920E-02 0.  1.
    10030    2    1    2    0    0  0.00000000000E+00  0.00000000000E+00  0.27437585197E+04  0.38471972428E+04  0.26967973248E+04 0.  0.
        5    1    3    3  502    0 -0.96660391382E+03  0.43580057714E+03  0.25602397819E+04  0.27711180235E+04  0.46999998093E+01 0. -1.
       -5    1    3    3    0  502  0.96660391382E+03 -0.43580057714E+03  0.18351873783E+03  0.10760792194E+04  0.46999998093E+01 0.  1.
</event>
<event>
 5   0  0.4992668E-07  0.2700244E+04  0.7818609E-02  0.8334926E-01
        2   -1    0    0  501    0  0.00000000000E+00  0.00000000000E+00  0.13833712441E+04  0.13833712441E+04  0.25500000920E-02 0.  1.
       -2   -1    0    0    0  501  0.00000000000E+00  0.00000000000E+00 -0.13176720843E+04  0.13176720843E+04  0.25500000920E-02 0. -1.
    10030    2    1    2    0    0  0.00000000000E+00  0.00000000000E+00  0.65699159806E+02  0.27010433285E+04  0.27002441894E+04 0.  0.
        1    1    3    3  502    0  0.22383409541E+03 -0.11770530181E+04  0.65534730921E+03  0.13656630644E+04  0.50400001928E-02 0.  1.
       -1    1    3    3    0  502 -0.22383409541E+03  0.11770530181E+04 -0.58964814941E+03  0.13353802641E+04  0.50400001928E-02 0. -1.
</event>
<event>
 5   0  0.1888149E-07  0.2696252E+04  0.7818609E-02  0.8336222E-01
       -1   -1    0    0    0  501  0.00000000000E+00  0.00000000000E+00  0.15575326398E+04  0.15575326398E+04  0.50400001928E-02 0.  1.
        1   -1    0    0  501    0  0.00000000000E+00  0.00000000000E+00 -0.11668737611E+04  0.11668737611E+04  0.50400001928E-02 0. -1.
    10030    2    1    2    0    0  0.00000000000E+00  0.00000000000E+00  0.39065887875E+03  0.27244064009E+04  0.26962521910E+04 0.  0.
        1    1    3    3  502    0  0.12065799696E+04  0.40100176707E+03  0.64812283076E+03  0.14271302827E+04  0.50400001928E-02 0.  1.
       -1    1    3    3    0  502 -0.12065799696E+04 -0.40100176707E+03 -0.25746395201E+03  0.12972761182E+04  0.50400001928E-02 0. -1.
</event>
<event>
 5   0  0.4992668E-07  0.2707251E+04  0.7818609E-02  0.8332656E-01
       -2   -1    0    0    0  501  0.00000000000E+00  0.00000000000E+00  0.12160573137E+04  0.12160573137E+04  0.25500000920E-02 0. -1.
        2   -1    0    0  501    0  0.00000000000E+00  0.00000000000E+00 -0.15067559692E+04  0.15067559692E+04  0.25500000920E-02 0.  1.
    10030    2    1    2    0    0  0.00000000000E+00  0.00000000000E+00 -0.29069865550E+03  0.27228132829E+04  0.27072507208E+04 0.  0.
        1    1    3    3  502    0 -0.11071089427E+04  0.59861886787E+03 -0.64647742677E+03  0.14149091220E+04  0.50400001928E-02 0.  1.
       -1    1    3    3    0  502  0.11071089427E+04 -0.59861886787E+03  0.35577877127E+03  0.13079041609E+04  0.50400001928E-02 0. -1.
</event>
<event>
 5   0  0.1888149E-07  0.2699915E+04  0.7818609E-02  0.8335033E-01
        1   -1    0    0  501    0  0.00000000000E+00  0.00000000000E+00  0.11217362094E+04  0.11217362094E+04  0.50400001928E-02 0. -1.
       -1   -1    0    0    0  501  0.00000000000E+00  0.00000000000E+00 -0.16246111863E+04  0.16246111863E+04  0.50400001928E-02 0.  1.
    10030    2    1    2    0    0  0.00000000000E+00  0.00000000000E+00 -0.50287497687E+03  0.27463473957E+04  0.26999149571E+04 0.  0.
        1    1    3    3  502    0 -0.36141382236E+03 -0.13812810667E+03  0.10641283304E+04  0.11322846058E+04  0.50400001928E-02 0. -1.
       -1    1    3    3    0  502  0.36141382236E+03  0.13812810667E+03 -0.15670033073E+04  0.16140627900E+04  0.50400001928E-02 0.  1.
</event>
<event>
 5   0  0.4983208E-07  0.2699900E+04  0.7818609E-02  0.8335038E-01
        2   -1    0    0  501    0  0.00000000000E+00  0.00000000000E+00  0.15689144502E+04  0.15689144502E+04  0.25500000920E-02 0.  1.
       -2   -1    0    0    0  501  0.00000000000E+00  0.00000000000E+00 -0.11615448098E+04  0.11615448098E+04  0.25500000920E-02 0. -1.
    10030    2    1    2    0    0  0.00000000000E+00  0.00000000000E+00  0.40736964039E+03  0.27304592601E+04  0.26998995809E+04 0.  0.
        4    1    3    3  502    0  0.12115529115E+04  0.57836566448E+03  0.34669089674E+03  0.13865653573E+04  0.12699999809E+01 0. -1.
       -4    1    3    3    0  502 -0.12115529115E+04 -0.57836566448E+03  0.60678743657E+02  0.13438939028E+04  0.12699999809E+01 0.  1.
</event>
<event>
 5   0  0.1888149E-07  0.2699915E+04  0.7818609E-02  0.8335033E-01
        1   -1    0    0  501    0  0.00000000000E+00  0.00000000000E+00  0.16340852872E+04  0.16340852872E+04  0.50400001928E-02 0.  1.
       -1   -1    0    0    0  501  0.00000000000E+00  0.00000000000E+00 -0.11152325640E+04  0.11152325640E+04  0.50400001928E-02 0. -1.
    10030    2    1    2    0    0  0.00000000000E+00  0.00000000000E+00  0.51885272322E+03  0.27493178512E+04  0.26999149058E+04 0.  0.
        1    1    3    3  502    0 -0.53893889793E+03  0.34352755701E+03  0.14702673416E+04  0.16031694776E+04  0.50400001928E-02 0.  1.
       -1    1    3    3    0  502  0.53893889793E+03 -0.34352755701E+03 -0.95141461838E+03  0.11461483736E+04  0.50400001928E-02 0. -1.
</event>
<event>
 5   0  0.4843887E-07  0.2700566E+04  0.7818609E-02  0.8334821E-01
        2   -1    0    0  501    0  0.00000000000E+00  0.00000000000E+00  0.30066953754E+04  0.30066953755E+04  0.25500000920E-02 0. -1.
       -2   -1    0    0    0  501  0.00000000000E+00  0.00000000000E+00 -0.60640119513E+03  0.60640119513E+03  0.25500000920E-02 0.  1.
    10030    2    1    2    0    0  0.00000000000E+00  0.00000000000E+00  0.24002941803E+04  0.36130965706E+04  0.27005656215E+04 0.  0.
        5    1    3    3  502    0  0.60964736862E+03 -0.11938080387E+04  0.98278805268E+03  0.16621498109E+04  0.46999998093E+01 0. -1.
       -5    1    3    3    0  502 -0.60964736862E+03  0.11938080387E+04  0.14175061276E+04  0.19509467597E+04  0.46999998093E+01 0.  1.
</event>
<event>
 5   0  0.4843887E-07  0.2698918E+04  0.7818609E-02  0.8335356E-01
        2   -1    0    0  501    0  0.00000000000E+00  0.00000000000E+00  0.12048647751E+04  0.12048647751E+04  0.25500000920E-02 0. -1.
       -2   -1    0    0    0  501  0.00000000000E+00  0.00000000000E+00 -0.15114060065E+04  0.15114060065E+04  0.25500000920E-02 0.  1.
    10030    2    1    2    0    0  0.00000000000E+00  0.00000000000E+00 -0.30654123135E+03  0.27162707816E+04  0.26989181967E+04 0.  0.
        5    1    3    3  502    0 -0.86296281872E+03 -0.64593134968E+03 -0.97033120522E+03  0.14503437085E+04  0.46999998093E+01 0.  1.
       -5    1    3    3    0  502  0.86296281872E+03  0.64593134968E+03  0.66378997387E+03  0.12659270731E+04  0.46999998093E+01 0. -1.
</event>
<event>
 5   0  0.4735120E-07  0.2697010E+04  0.7818609E-02  0.8335976E-01
        2   -1    0    0  501    0  0.00000000000E+00  0.00000000000E+00  0.21087089766E+04  0.21087089766E+04  0.25500000920E-02 0. -1.
       -2   -1    0    0    0  501  0.00000000000E+00  0.00000000000E+00 -0.86235964468E+03  0.86235964468E+03  0.25500000920E-02 0.  1.
    10030    2    1    2    0    0  0.00000000000E+00  0.00000000000E+00  0.12463493319E+04  0.29710686213E+04  0.26970098434E+04 0.  0.
        2    1    3    3  502    0 -0.46199652135E+03  0.86816969227E+02 -0.76917685137E+03  0.90144938881E+03  0.25500000920E-02 0.  1.
       -2    1    3    3    0  502  0.46199652135E+03 -0.86816969227E+02  0.20155261833E+04  0.20696192325E+04  0.25500000920E-02 0. -1.
</event>
<event>
 5   0  0.4735120E-07  0.2699019E+04  0.7818609E-02  0.8335323E-01
        2   -1    0    0  501    0  0.00000000000E+00  0.00000000000E+00  0.21183922311E+04  0.21183922311E+04  0.25500000920E-02 0.  1.
       -2   -1    0    0    0  501  0.00000000000E+00  0.00000000000E+00 -0.85969709927E+03  0.85969709928E+03  0.25500000920E-02 0. -1.
    10030    2    1    2    0    0  0.00000000000E+00  0.00000000000E+00  0.12586951318E+04  0.29780893304E+04  0.26990188263E+04 0.  0.
        2    1    3    3  502    0  0.56183686346E+03 -0.22213976504E+02  0.19829875176E+04  0.20611631708E+04  0.25500000920E-02 0.  1.
       -2    1    3    3    0  502 -0.56183686346E+03  0.22213976504E+02 -0.72429238579E+03  0.91692615952E+03  0.25500000920E-02 0. -1.
</event>
<event>
 5   0  0.4992668E-07  0.2699430E+04  0.7818609E-02  0.8335190E-01
       -2   -1    0    0    0  501  0.00000000000E+00  0.00000000000E+00  0.10185338511E+04  0.10185338511E+04  0.25500000920E-02 0. -1.
        2   -1    0    0  501    0  0.00000000000E+00  0.00000000000E+00 -0.17885808047E+04  0.17885808047E+04  0.25500000920E-02 0.  1.
    10030    2    1    2    0    0  0.00000000000E+00  0.00000000000E+00 -0.77004695366E+03  0.28071146558E+04  0.26994296397E+04 0.  0.
        1    1    3    3  502    0 -0.40800714462E+02  0.10489345560E+04 -0.12672793775E+04  0.16455775344E+04  0.50400001928E-02 0.  1.
       -1    1    3    3    0  502  0.40800714462E+02 -0.10489345560E+04  0.49723242383E+03  0.11615371214E+04  0.50400001928E-02 0. -1.
</event>
<event>
 5   0  0.1971600E-07  0.2699430E+04  0.7818609E-02  0.8335190E-01
        1   -1    0    0  501    0  0.00000000000E+00  0.00000000000E+00  0.23205929886E+04  0.23205929886E+04  0.50400001928E-02 0. -1.
       -1   -1    0    0    0  501  0.00000000000E+00  0.00000000000E+00 -0.78502782310E+03  0.78502782312E+03  0.50400001928E-02 0.  1.
    10030    2    1    2    0    0  0.00000000000E+00  0.00000000000E+00  0.15355651655E+04  0.31056208117E+04  0.26994296154E+04 0.  0.
        5    1    3    3  502    0 -0.94645732492E+03 -0.95146449686E+03  0.60249114160E+03  0.14710825342E+04  0.46999998093E+01 0. -1.
       -5    1    3    3    0  502  0.94645732492E+03  0.95146449686E+03  0.93307402388E+03  0.16345382775E+04  0.46999998093E+01 0.  1.
</event>
<event>
 5   0  0.1937896E-07  0.2698703E+04  0.7818609E-02  0.8335426E-01
        1   -1    0    0  501    0  0.00000000000E+00  0.00000000000E+00  0.14191994224E+04  0.14191994224E+04  0.50400001928E-02 0.  1.
       -1   -1    0    0    0  501  0.00000000000E+00  0.00000000000E+00 -0.12829409676E+04  0.12829409676E+04  0.50400001928E-02 0. -1.
    10030    2    1    2    0    0  0.00000000000E+00  0.00000000000E+00  0.13625845482E+03  0.27021403900E+04  0.26987027107E+04 0.  0.
        3    1    3    3  502    0 -0.61731195340E+03  0.18705359427E+03  0.12548334479E+04  0.14109110841E+04  0.10100000352E+00 0.  1.
       -3    1    3    3    0  502  0.61731195340E+03 -0.18705359427E+03 -0.11185749931E+04  0.12912293059E+04  0.10100000352E+00 0. -1.
</event>
<event>
 5   0  0.5043890E-07  0.2702021E+04  0.7818609E-02  0.8334349E-01
       -2   -1    0    0    0  501  0.00000000000E+00  0.00000000000E+00  0.98094353471E+03  0.98094353471E+03  0.25500000920E-02 0. -1.
        2   -1    0    0  501    0  0.00000000000E+00  0.00000000000E+00 -0.18606877403E+04  0.18606877403E+04  0.25500000920E-02 0.  1.
    10030    2    1    2    0    0  0.00000000000E+00  0.00000000000E+00 -0.87974420558E+03  0.28416312750E+04  0.27020211761E+04 0.  0.
        3    1    3    3  502    0  0.76083141028E+03  0.95318732360E+03  0.17136289558E+03  0.12315826245E+04  0.10100000352E+00 0. -1.
       -3    1    3    3    0  502 -0.76083141028E+03 -0.95318732360E+03 -0.10511071012E+04  0.16100486505E+04  0.10100000352E+00 0.  1.
</event>
<event>
 5   0  0.1888149E-07  0.2700125E+04  0.7818609E-02  0.8334964E-01
        1   -1    0    0  501    0  0.00000000000E+00  0.00000000000E+00  0.18597424472E+04  0.18597424472E+04  0.50400001928E-02 0.  1.
       -1   -1    0    0    0  501  0.00000000000E+00  0.00000000000E+00 -0.98006532216E+03  0.98006532217E+03  0.50400001928E-02 0. -1.
    10030    2    1    2    0    0  0.00000000000E+00  0.00000000000E+00  0.87967712502E+03  0.28398077694E+04  0.27001252420E+04 0.  0.
        1    1    3    3  502    0 -0.55271758195E+00  0.13499059887E+04  0.46145917925E+03  0.14266012260E+04  0.50400001928E-02 0.  1.
       -1    1    3    3    0  502  0.55271758195E+00 -0.13499059887E+04  0.41821794577E+03  0.14132065433E+04  0.50400001928E-02 0. -1.
</event>
<event>
 5   0  0.4735120E-07  0.2699951E+04  0.7818609E-02  0.8335021E-01
        2   -1    0    0  501    0  0.00000000000E+00  0.00000000000E+00  0.13566643202E+04  0.13566643202E+04  0.25500000920E-02 0. -1.
       -2   -1    0    0    0  501  0.00000000000E+00  0.00000000000E+00 -0.13433193981E+04  0.13433193982E+04  0.25500000920E-02 0.  1.
    10030    2    1    2    0    0  0.00000000000E+00  0.00000000000E+00  0.13344922013E+02  0.26999837183E+04  0.26999507389E+04 0.  0.
        2    1    3    3  502    0 -0.14259075301E+03 -0.71059385057E+03  0.11456147089E+04  0.13556211877E+04  0.25500000920E-02 0. -1.
       -2    1    3    3    0  502  0.14259075301E+03  0.71059385057E+03 -0.11322697869E+04  0.13443625306E+04  0.25500000920E-02 0.  1.
</event>
<event>
 5   0  0.1965415E-07  0.2701047E+04  0.7818609E-02  0.8334665E-01
        1   -1    0    0  501    0  0.00000000000E+00  0.00000000000E+00  0.14587141783E+04  0.14587141783E+04  0.50400001928E-02 0. -1.
       -1   -1    0    0    0  501  0.00000000000E+00  0.00000000000E+00 -0.12503570378E+04  0.12503570378E+04  0.50400001928E-02 0.  1.
    10030    2    1    2    0    0  0.00000000000E+00  0.00000000000E+00  0.20835714052E+03  0.27090712162E+04  0.27010468630E+04 0.  0.
        4    1    3    3  502    0 -0.62872273931E+03 -0.10056334629E+04  0.75210159408E+03  0.14043679594E+04  0.12699999809E+01 0. -1.
       -4    1    3    3    0  502  0.62872273931E+03  0.10056334629E+04 -0.54374445357E+03  0.13047032568E+04  0.12699999809E+01 0.  1.
</event>
<event>
 5   0  0.1888149E-07  0.2700560E+04  0.7818609E-02  0.8334823E-01
       -1   -1    0    0    0  501  0.00000000000E+00  0.00000000000E+00  0.11791782828E+04  0.11791782828E+04  0.50400001928E-02 0.  1.
        1   -1    0    0  501    0  0.00000000000E+00  0.00000000000E+00 -0.15462090095E+04  0.15462090095E+04  0.50400001928E-02 0. -1.
    10030    2    1    2    0    0  0.00000000000E+00  0.00000000000E+00 -0.36703072667E+03  0.27253872923E+04  0.27005600046E+04 0.  0.
        1    1    3    3  502    0  0.12607804843E+04 -0.48127522304E+03 -0.22935113095E+03  0.13688663964E+04  0.50400001928E-02 0.  1.
       -1    1    3    3    0  502 -0.12607804843E+04  0.48127522304E+03 -0.13767959572E+03  0.13565208959E+04  0.50400001928E-02 0. -1.
</event>
<event>
 5   0  0.1964242E-07  0.2695984E+04  0.7818609E-02  0.8336309E-01
        1   -1    0    0  501    0  0.00000000000E+00  0.00000000000E+00  0.16241258477E+04  0.16241258477E+04  0.50400001928E-02 0. -1.
       -1   -1    0    0    0  501  0.00000000000E+00  0.00000000000E+00 -0.11188066586E+04  0.11188066586E+04  0.50400001928E-02 0.  1.
    10030    2    1    2    0    0  0.00000000000E+00  0.00000000000E+00  0.50531918910E+03  0.27429325063E+04  0.26959842824E+04 0.  0.
        2    1    3    3  502    0 -0.72139289435E+03 -0.24914689115E+03  0.13831348625E+04  0.15797290684E+04  0.25500000920E-02 0. -1.
       -2    1    3    3    0  502  0.72139289435E+03  0.24914689115E+03 -0.87781567345E+03  0.11632034379E+04  0.25500000920E-02 0.  1.
</event>
<event>
 5   0  0.1971600E-07  0.2699885E+04  0.7818609E-02  0.8335042E-01
       -1   -1    0    0    0  501  0.00000000000E+00  0.00000000000E+00  0.64195094724E+03  0.64195094726E+03  0.50400001928E-02 0.  1.
        1   -1    0    0  501    0  0.00000000000E+00  0.00000000000E+00 -0.28387603998E+04  0.28387603998E+04  0.50400001928E-02 0. -1.
    10030    2    1    2    0    0  0.00000000000E+00  0.00000000000E+00 -0.21968094525E+04  0.34807113470E+04  0.26998851291E+04 0.  0.
        5    1    3    3  502    0 -0.11299261069E+03  0.60010194974E+03  0.45370284802E+03  0.76076148986E+03  0.46999998093E+01 0.  1.
       -5    1    3    3    0  502  0.11299261069E+03 -0.60010194974E+03 -0.26505123005E+04  0.27199498572E+04  0.46999998093E+01 0. -1.
</event>
<event>
 5   0  0.4983208E-07  0.2702609E+04  0.7818609E-02  0.8334159E-01
        2   -1    0    0  501    0  0.00000000000E+00  0.00000000000E+00  0.19446777888E+04  0.19446777888E+04  0.25500000920E-02 0.  1.
       -2   -1    0    0    0  501  0.00000000000E+00  0.00000000000E+00 -0.93898540901E+03  0.93898540901E+03  0.25500000920E-02 0. -1.
    10030    2    1    2    0    0  0.00000000000E+00  0.00000000000E+00  0.10056923798E+04  0.28836631978E+04  0.27026091607E+04 0.  0.
        4    1    3    3  502    0 -0.65321354466E+03 -0.11383748831E+04  0.84600847912E+03  0.15615112132E+04  0.12699999809E+01 0.  1.
       -4    1    3    3    0  502  0.65321354466E+03  0.11383748831E+04  0.15968390064E+03  0.13221519846E+04  0.12699999809E+01 0. -1.
</event>
<event>
 5   0  0.4983208E-07  0.2700526E+04  0.7818609E-02  0.8334834E-01
        2   -1    0    0  501    0  0.00000000000E+00  0.00000000000E+00  0.15580933383E+04  0.15580933383E+04  0.25500000920E-02 0. -1.
       -2   -1    0    0    0  501  0.00000000000E+00  0.00000000000E+00 -0.11701548104E+04  0.11701548104E+04  0.25500000920E-02 0.  1.
    10030    2    1    2    0    0  0.00000000000E+00  0.00000000000E+00  0.38793852789E+03  0.27282481487E+04  0.27005261820E+04 0.  0.
        4    1    3    3  502    0 -0.39896319517E+03  0.13280865907E+03 -0.11023232945E+04  0.11797999955E+04  0.12699999809E+01 0.  1.
       -4    1    3    3    0  502  0.39896319517E+03 -0.13280865907E+03  0.14902618224E+04  0.15484481532E+04  0.12699999809E+01 0. -1.
</event>
<event>
 5   0  0.1964242E-07  0.2698609E+04  0.7818609E-02  0.8335456E-01
        1   -1    0    0  501    0  0.00000000000E+00  0.00000000000E+00  0.14492737678E+04  0.14492737678E+04  0.50400001928E-02 0.  1.
       -1   -1    0    0    0  501  0.00000000000E+00  0.00000000000E+00 -0.12562309310E+04  0.12562309311E+04  0.50400001928E-02 0. -1.
    10030    2    1    2    0    0  0.00000000000E+00  0.00000000000E+00  0.19304283672E+03  0.27055046988E+04  0.26986089266E+04 0.  0.
        2    1    3    3  502    0  0.55006433323E+03  0.91500898590E+03 -0.73069930359E+03  0.12937285988E+04  0.25500000920E-02 0. -1.
       -2    1    3    3    0  502 -0.55006433323E+03 -0.91500898590E+03  0.92374214032E+03  0.14117761001E+04  0.25500000920E-02 0.  1.
</event>
<event>
 5   0  0.4983208E-07  0.2718631E+04  0.7818609E-02  0.8328985E-01
        2   -1    0    0  501    0  0.00000000000E+00  0.00000000000E+00  0.23424301956E+04  0.23424301956E+04  0.25500000920E-02 0. -1.
       -2   -1    0    0    0  501  0.00000000000E+00  0.00000000000E+00 -0.78881285616E+03  0.78881285616E+03  0.25500000920E-02 0.  1.
    10030    2    1    2    0    0  0.00000000000E+00  0.00000000000E+00  0.15536173395E+04  0.31312430518E+04  0.27186313122E+04 0.  0.
        4    1    3    3  502    0  0.88111168688E+03 -0.88907980923E+03  0.13872659334E+04  0.18685098594E+04  0.12699999809E+01 0.  1.
       -4    1    3    3    0  502 -0.88111168688E+03  0.88907980923E+03  0.16635140611E+03  0.12627331924E+04  0.12699999809E+01 0. -1.
</event>
<event>
 5   0  0.4992668E-07  0.2699712E+04  0.7818609E-02  0.8335098E-01
       -2   -1    0    0    0  501  0.00000000000E+00  0.00000000000E+00  0.11718118282E+04  0.11718118282E+04  0.25500000920E-02 0.  1.
        2   -1    0    0  501    0  0.00000000000E+00  0.00000000000E+00 -0.15549525712E+04  0.15549525712E+04  0.25500000920E-02 0. -1.
    10030    2    1    2    0    0  0.00000000000E+00  0.00000000000E+00 -0.38314074291E+03  0.27267643994E+04  0.26997124404E+04 0.  0.
        1    1    3    3  502    0 -0.14094132021E+03  0.42236932990E+03  0.10955028779E+04  0.11825340850E+04  0.50400001928E-02 0.  1.
       -1    1    3    3    0  502  0.14094132021E+03 -0.42236932990E+03 -0.14786436208E+04  0.15442303144E+04  0.50400001928E-02 0. -1.
</event>
<event>
 5   0  0.4983208E-07  0.2701351E+04  0.7818609E-02  0.8334567E-01
        2   -1    0    0  501    0  0.00000000000E+00  0.00000000000E+00  0.11932195744E+04  0.11932195744E+04  0.25500000920E-02 0.  1.
       -2   -1    0    0    0  501  0.00000000000E+00  0.00000000000E+00 -0.15289091212E+04  0.15289091212E+04  0.25500000920E-02 0. -1.
    10030    2    1    2    0    0  0.00000000000E+00  0.00000000000E+00 -0.33568954687E+03  0.27221286956E+04  0.27013509886E+04 0.  0.
        4    1    3    3  502    0  0.30057407123E+03 -0.52093967116E+03  0.10508372003E+04  0.12107779928E+04  0.12699999809E+01 0.  1.
       -4    1    3    3    0  502 -0.30057407123E+03  0.52093967116E+03 -0.13865267472E+04  0.15113507028E+04  0.12699999809E+01 0. -1.
</event>
<event>
 5   0  0.1971600E-07  0.2702044E+04  0.7818609E-02  0.8334342E-01
        1   -1    0    0  501    0  0.00000000000E+00  0.00000000000E+00  0.15659446211E+04  0.15659446211E+04  0.50400001928E-02 0. -1.
       -1   -1    0    0    0  501  0.00000000000E+00  0.00000000000E+00 -0.11655972605E+04  0.11655972605E+04  0.50400001928E-02 0.  1.
    10030    2    1    2    0    0  0.00000000000E+00  0.00000000000E+00  0.40034736058E+03  0.27315418816E+04  0.27020442339E+04 0.  0.
        5    1    3    3  502    0 -0.87661045367E+03  0.93924276456E+03  0.62260605399E+03  0.14276845754E+04  0.46999998093E+01 0.  1.
       -5    1    3    3    0  502  0.87661045367E+03 -0.93924276456E+03 -0.22225869341E+03  0.13038573063E+04  0.46999998093E+01 0. -1.
</event>
<event>
 5   0  0.4843887E-07  0.2700113E+04  0.7818609E-02  0.8334968E-01
        2   -1    0    0  501    0  0.00000000000E+00  0.00000000000E+00  0.20392914469E+04  0.20392914469E+04  0.25500000920E-02 0.  1.
       -2   -1    0    0    0  501  0.00000000000E+00  0.00000000000E+00 -0.89376737674E+03  0.89376737674E+03  0.25500000920E-02 0. -1.
    10030    2    1    2    0    0  0.00000000000E+00  0.00000000000E+00  0.11455240702E+04  0.29330588237E+04  0.27001127139E+04 0.  0.
        5    1    3    3  502    0 -0.15246997775E+03 -0.13151428732E+04  0.28580873320E+03  0.13544580440E+04  0.46999998093E+01 0.  1.
       -5    1    3    3    0  502  0.15246997775E+03  0.13151428732E+04  0.85971533698E+03  0.15786007797E+04  0.46999998093E+01 0. -1.
</event>
<event>
 5   0  0.1971600E-07  0.2702202E+04  0.7818609E-02  0.8334291E-01
       -1   -1    0    0    0  501  0.00000000000E+00  0.00000000000E+00  0.97900302382E+03  0.97900302383E+03  0.50400001928E-02 0. -1.
        1   -1    0    0  501    0  0.00000000000E+00  0.00000000000E+00 -0.18646249387E+04  0.18646249387E+04  0.50400001928E-02 0.  1.
    10030    2    1    2    0    0  0.00000000000E+00  0.00000000000E+00 -0.88562191489E+03  0.28436279625E+04  0.27022016604E+04 0.  0.
        5    1    3    3  502    0  0.83081525978E+03 -0.99796356626E+03 -0.83552615448E+03  0.15441215368E+04  0.46999998093E+01 0.  1.
       -5    1    3    3    0  502 -0.83081525978E+03  0.99796356626E+03 -0.50095760411E+02  0.12995064258E+04  0.46999998093E+01 0. -1.
</event>
<event>
 5   0  0.1937896E-07  0.2700173E+04  0.7818609E-02  0.8334949E-01
       -1   -1    0    0    0  501  0.00000000000E+00  0.00000000000E+00  0.11377559763E+04  0.11377559763E+04  0.50400001928E-02 0. -1.
        1   -1    0    0  501    0  0.00000000000E+00  0.00000000000E+00 -0.16020431984E+04  0.16020431985E+04  0.50400001928E-02 0.  1.
    10030    2    1    2    0    0  0.00000000000E+00  0.00000000000E+00 -0.46428722214E+03  0.27397991748E+04  0.27001734932E+04 0.  0.
        3    1    3    3  502    0  0.11937411305E+04  0.14863965600E+03 -0.85401833610E+03  0.14752826721E+04  0.10100000352E+00 0.  1.
       -3    1    3    3    0  502 -0.11937411305E+04 -0.14863965600E+03  0.38973111396E+03  0.12645165026E+04  0.10100000352E+00 0. -1.
</event>
<event>
 5   0  0.4843887E-07  0.2699972E+04  0.7818609E-02  0.8335014E-01
       -2   -1    0    0    0  501  0.00000000000E+00  0.00000000000E+00  0.84176593368E+03  0.84176593368E+03  0.25500000920E-02 0.  1.
        2   -1    0    0  501    0  0.00000000000E+00  0.00000000000E+00 -0.21650469442E+04  0.21650469442E+04  0.25500000920E-02 0. -1.
    10030    2    1    2    0    0  0.00000000000E+00  0.00000000000E+00 -0.13232810105E+04  0.30068128778E+04  0.26999724165E+04 0.  0.
        5    1    3    3  502    0  0.26265738655E+03 -0.52028960461E+02  0.81188782984E+03  0.85491511490E+03  0.46999998093E+01 0.  1.
       -5    1    3    3    0  502 -0.26265738655E+03  0.52028960461E+02 -0.21351688403E+04  0.21518977629E+04  0.46999998093E+01 0. -1.
</event>
<event>
 5   0  0.1888149E-07  0.2700077E+04  0.7818609E-02  0.8334980E-01
       -1   -1    0    0    0  501  0.00000000000E+00  0.00000000000E+00  0.13392153098E+04  0.13392153098E+04  0.50400001928E-02 0.  1.
        1   -1    0    0  501    0  0.00000000000E+00  0.00000000000E+00 -0.13609489472E+04  0.13609489472E+04  0.50400001928E-02 0. -1.
    10030    2    1    2    0    0  0.00000000000E+00  0.00000000000E+00 -0.21733637365E+02  0.27001642570E+04  0.27000767885E+04 0.  0.
        1    1    3    3  502    0 -0.57400813343E+03  0.67325824908E+03  0.10088924817E+04  0.13418740801E+04  0.50400001928E-02 0.  1.
       -1    1    3    3    0  502  0.57400813343E+03 -0.67325824908E+03 -0.10306261191E+04  0.13582901769E+04  0.50400001928E-02 0. -1.
</event>
<event>
 5   0  0.1965415E-07  0.2701738E+04  0.7818609E-02  0.8334441E-01
        1   -1    0    0  501    0  0.00000000000E+00  0.00000000000E+00  0.18509026289E+04  0.18509026289E+04  0.50400001928E-02 0.  1.
       -1   -1    0    0    0  501  0.00000000000E+00  0.00000000000E+00 -0.98592260904E+03  0.98592260905E+03  0.50400001928E-02 0. -1.
    10030    2    1    2    0    0  0.00000000000E+00  0.00000000000E+00  0.86498001985E+03  0.28368252380E+04  0.27017377733E+04 0.  0.
        4    1    3    3  502    0  0.21351240414E+03  0.69556251668E+03 -0.76259769316E+03  0.10540168954E+04  0.12699999809E+01 0. -1.
       -4    1    3    3    0  502 -0.21351240414E+03 -0.69556251668E+03  0.16275777130E+04  0.17828083425E+04  0.12699999809E+01 0.  1.
</event>
<event>
 5   0  0.1971600E-07  0.2698453E+04  0.7818609E-02  0.8335507E-01
       -1   -1    0    0    0  501  0.00000000000E+00  0.00000000000E+00  0.15705290086E+04  0.15705290086E+04  0.50400001928E-02 0.  1.
        1   -1    0    0  501    0  0.00000000000E+00  0.00000000000E+00 -0.11591074277E+04  0.11591074277E+04  0.50400001928E-02 0. -1.
    10030    2    1    2    0    0  0.00000000000E+00  0.00000000000E+00  0.41142158090E+03  0.27296364362E+04  0.26984527709E+04 0.  0.
        5    1    3    3  502    0  0.30362274518E+03  0.10943814248E+04  0.94250446714E+03  0.14758706701E+04  0.46999998093E+01 0.  1.
       -5    1    3    3    0  502 -0.30362274518E+03 -0.10943814248E+04 -0.53108288624E+03  0.12537657661E+04  0.46999998093E+01 0. -1.
</event>
<event>
 5   0  0.1888149E-07  0.2700592E+04  0.7818609E-02  0.8334813E-01
        1   -1    0    0  501    0  0.00000000000E+00  0.00000000000E+00  0.12858833337E+04  0.12858833338E+04  0.50400001928E-02 0.  1.
       -1   -1    0    0    0  501  0.00000000000E+00  0.00000000000E+00 -0.14179353473E+04  0.14179353473E+04  0.50400001928E-02 0. -1.
    10030    2    1    2    0    0  0.00000000000E+00  0.00000000000E+00 -0.13205201358E+03  0.27038186811E+04  0.27005921065E+04 0.  0.
        1    1    3    3  502    0 -0.21547596769E+03 -0.13222402223E+04  0.10314431002E+03  0.13436472181E+04  0.50400001928E-02 0. -1.
       -1    1    3    3    0  502  0.21547596769E+03  0.13222402223E+04 -0.23519632361E+03  0.13601714630E+04  0.50400001928E-02 0.  1.
</event>
<event>
 5   0  0.1888149E-07  0.2699814E+04  0.7818609E-02  0.8335065E-01
       -1   -1    0    0    0  501  0.00000000000E+00  0.00000000000E+00  0.74000051914E+03  0.74000051915E+03  0.50400001928E-02 0. -1.
        1   -1    0    0  501    0  0.00000000000E+00  0.00000000000E+00 -0.24624976977E+04  0.24624976977E+04  0.50400001928E-02 0.  1.
    10030    2    1    2    0    0  0.00000000000E+00  0.00000000000E+00 -0.17224971786E+04  0.32024982169E+04  0.26998144934E+04 0.  0.
        1    1    3    3  502    0 -0.75252090230E+02 -0.13457171429E+04 -0.95026886887E+03  0.16491295974E+04  0.50400001928E-02 0. -1.
       -1    1    3    3    0  502  0.75252090230E+02  0.13457171429E+04 -0.77222830970E+03  0.15533686195E+04  0.50400001928E-02 0.  1.
</event>
<event>
 5   0  0.4983208E-07  0.2699992E+04  0.7818609E-02  0.8335008E-01
        2   -1    0    0  501    0  0.00000000000E+00  0.00000000000E+00  0.10279340430E+04  0.10279340430E+04  0.25500000920E-02 0.  1.
       -2   -1    0    0    0  501  0.00000000000E+00  0.00000000000E+00 -0.17729626809E+04  0.17729626809E+04  0.25500000920E-02 0. -1.
    10030    2    1    2    0    0  0.00000000000E+00  0.00000000000E+00 -0.74502863788E+03  0.28008967239E+04  0.26999916271E+04 0.  0.
        4    1    3    3  502    0  0.48703915277E+03 -0.11074188020E+04  0.24896052193E+03  0.12351382488E+04  0.12699999809E+01 0.  1.
       -4    1    3    3    0  502 -0.48703915277E+03  0.11074188020E+04 -0.99398915981E+03  0.15657584750E+04  0.12699999809E+01 0. -1.
</event>
<event>
 5   0  0.1965415E-07  0.2693716E+04  0.7818609E-02  0.8337047E-01
       -1   -1    0    0    0  501  0.00000000000E+00  0.00000000000E+00  0.19181402470E+04  0.19181402470E+04  0.50400001928E-02 0.  1.
        1   -1    0    0  501    0  0.00000000000E+00  0.00000000000E+00 -0.94572132938E+03  0.94572132939E+03  0.50400001928E-02 0. -1.
    10030    2    1    2    0    0  0.00000000000E+00  0.00000000000E+00  0.97241891758E+03  0.28638615764E+04  0.26937157566E+04 0.  0.
        4    1    3    3  502    0 -0.10999426670E+03 -0.51774423861E+03  0.18029313774E+04  0.18790212877E+04  0.12699999809E+01 0.  1.
       -4    1    3    3    0  502  0.10999426670E+03  0.51774423861E+03 -0.83051245980E+03  0.98484028863E+03  0.12699999809E+01 0. -1.
</event>
<event>
 5   0  0.1888149E-07  0.2702152E+04  0.7818609E-02  0.8334307E-01
       -1   -1    0    0    0  501  0.00000000000E+00  0.00000000000E+00  0.17007406370E+04  0.17007406370E+04  0.50400001928E-02 0. -1.
        1   -1    0    0  501    0  0.00000000000E+00  0.00000000000E+00 -0.10733007191E+04  0.10733007191E+04  0.50400001928E-02 0.  1.
    10030    2    1    2    0    0  0.00000000000E+00  0.00000000000E+00  0.62743991787E+03  0.27740413561E+04  0.27021518453E+04 0.  0.
        1    1    3    3  502    0  0.21272797608E+03 -0.66425006665E+03 -0.87418385033E+03  0.11183374925E+04  0.50400001928E-02 0.  1.
       -1    1    3    3    0  502 -0.21272797608E+03  0.66425006665E+03  0.15016237682E+04  0.16557038637E+04  0.50400001928E-02 0. -1.
</event>
<event>
 5   0  0.1937896E-07  0.2697753E+04  0.7818609E-02  0.8335734E-01
       -1   -1    0    0    0  501  0.00000000000E+00  0.00000000000E+00  0.17380651649E+04  0.17380651649E+04  0.50400001928E-02 0. -1.
        1   -1    0    0  501    0  0.00000000000E+00  0.00000000000E+00 -0.10468353985E+04  0.10468353985E+04  0.50400001928E-02 0.  1.
    10030    2    1    2    0    0  0.00000000000E+00  0.00000000000E+00  0.69122976646E+03  0.27849005634E+04  0.26977532426E+04 0.  0.
        3    1    3    3  502    0 -0.82067527151E+03 -0.10267649771E+04  0.65824086889E+03  0.14700460099E+04  0.10100000352E+00 0. -1.
       -3    1    3    3    0  502  0.82067527151E+03  0.10267649771E+04  0.32988897572E+02  0.13148545536E+04  0.10100000352E+00 0.  1.
</event>
<event>
 5   0  0.1971600E-07  0.2699624E+04  0.7818609E-02  0.8335127E-01
       -1   -1    0    0    0  501  0.00000000000E+00  0.00000000000E+00  0.81888033692E+03  0.81888033694E+03  0.50400001928E-02 0.  1.
        1   -1    0    0  501    0  0.00000000000E+00  0.00000000000E+00 -0.22249798602E+04  0.22249798602E+04  0.50400001928E-02 0. -1.
    10030    2    1    2    0    0  0.00000000000E+00  0.00000000000E+00 -0.14060995233E+04  0.30438601971E+04  0.26996238683E+04 0.  0.
        5    1    3    3  502    0 -0.77346734062E+01  0.70804480828E+03 -0.19987492156E+04  0.21204734831E+04  0.46999998093E+01 0. -1.
       -5    1    3    3    0  502  0.77346734062E+01 -0.70804480828E+03  0.59264969237E+03  0.92338671399E+03  0.46999998093E+01 0.  1.
</event>
<event>
 5   0  0.4983208E-07  0.2701580E+04  0.7818609E-02  0.8334492E-01
        2   -1    0    0  501    0  0.00000000000E+00  0.00000000000E+00  0.17136034031E+04  0.17136034031E+04  0.25500000920E-02 0. -1.
       -2   -1    0    0    0  501  0.00000000000E+00  0.00000000000E+00 -0.10647937310E+04  0.10647937310E+04  0.25500000920E-02 0.  1.
    10030    2    1    2    0    0  0.00000000000E+00  0.00000000000E+00  0.64880967210E+03  0.27783971341E+04  0.27015803975E+04 0.  0.
        4    1    3    3  502    0 -0.30464388253E+01  0.18994042609E+03 -0.10509870919E+04  0.10680178493E+04  0.12699999809E+01 0.  1.
       -4    1    3    3    0  502  0.30464388253E+01 -0.18994042609E+03  0.16997967640E+04  0.17103792848E+04  0.12699999809E+01 0. -1.
</event>
<event>
 5   0  0.1964242E-07  0.2699591E+04  0.7818609E-02  0.8335138E-01
        1   -1    0    0  501    0  0.00000000000E+00  0.00000000000E+00  0.21459346264E+04  0.21459346264E+04  0.50400001928E-02 0. -1.
       -1   -1    0    0    0  501  0.00000000000E+00  0.00000000000E+00 -0.84902302145E+03  0.84902302146E+03  0.50400001928E-02 0.  1.
    10030    2    1    2    0    0  0.00000000000E+00  0.00000000000E+00  0.12969116049E+04  0.29949576479E+04  0.26995910063E+04 0.  0.
        2    1    3    3  502    0  0.88020792076E+03  0.21288253558E+03 -0.46198872780E+03  0.10166211400E+04  0.25500000920E-02 0.  1.
       -2    1    3    3    0  502 -0.88020792076E+03 -0.21288253558E+03  0.17589003327E+04  0.19783365078E+04  0.25500000920E-02 0. -1.
</event>
<event>
 5   0  0.1965415E-07  0.2698851E+04  0.7818609E-02  0.8335378E-01
        1   -1    0    0  501    0  0.00000000000E+00  0.00000000000E+00  0.17667246541E+04  0.17667246541E+04  0.50400001928E-02 0.  1.
       -1   -1    0    0    0  501  0.00000000000E+00  0.00000000000E+00 -0.10306920788E+04  0.10306920788E+04  0.50400001928E-02 0. -1.
    10030    2    1    2    0    0  0.00000000000E+00  0.00000000000E+00  0.73603257528E+03  0.27974167329E+04  0.26988509454E+04 0.  0.
        4    1    3    3  502    0  0.13450122943E+04  0.74054200223E+02  0.28505962073E+03  0.13768815115E+04  0.12699999809E+01 0. -1.
       -4    1    3    3    0  502 -0.13450122943E+04 -0.74054200223E+02  0.45097295455E+03  0.14205352214E+04  0.12699999809E+01 0.  1.
</event>
<event>
 5   0  0.4983208E-07  0.2699221E+04  0.7818609E-02  0.8335258E-01
        2   -1    0    0  501    0  0.00000000000E+00  0.00000000000E+00  0.18437585318E+04  0.18437585318E+04  0.25500000920E-02 0. -1.
       -2   -1    0    0    0  501  0.00000000000E+00  0.00000000000E+00 -0.98789964840E+03  0.98789964840E+03  0.25500000920E-02 0.  1.
    10030    2    1    2    0    0  0.00000000000E+00  0.00000000000E+00  0.85585888338E+03  0.28316581802E+04  0.26992209286E+04 0.  0.
        4    1    3    3  502    0  0.65543794986E+03  0.11145842164E+04  0.22238347947E+02  0.12932103613E+04  0.12699999809E+01 0.  1.
       -4    1    3    3    0  502 -0.65543794986E+03 -0.11145842164E+04  0.83362053543E+03  0.15384478189E+04  0.12699999809E+01 0. -1.
</event>
<event>
 5   0  0.4843887E-07  0.2700719E+04  0.7818609E-02  0.8334772E-01
       -2   -1    0    0    0  501  0.00000000000E+00  0.00000000000E+00  0.10701029910E+04  0.10701029910E+04  0.25500000920E-02 0. -1.
        2   -1    0    0  501    0  0.00000000000E+00  0.00000000000E+00 -0.17040138527E+04  0.17040138527E+04  0.25500000920E-02 0.  1.
    10030    2    1    2    0    0  0.00000000000E+00  0.00000000000E+00 -0.63391086175E+03  0.27741168437E+04  0.27007186603E+04 0.  0.
        5    1    3    3  502    0  0.10713142307E+03 -0.13305539462E+04 -0.10745838834E+03  0.13391864474E+04  0.46999998093E+01 0. -1.
       -5    1    3    3    0  502 -0.10713142307E+03  0.13305539462E+04 -0.52645247342E+03  0.14349303964E+04  0.46999998093E+01 0.  1.
</event>
<event>
 5   0  0.1965415E-07  0.2693560E+04  0.7818609E-02  0.8337097E-01
       -1   -1    0    0    0  501  0.00000000000E+00  0.00000000000E+00  0.77077954151E+03  0.77077954152E+03  0.50400001928E-02 0.  1.
        1   -1    0    0  501    0  0.00000000000E+00  0.00000000000E+00 -0.23532237501E+04  0.23532237501E+04  0.50400001928E-02 0. -1.
    10030    2    1    2    0    0  0.00000000000E+00  0.00000000000E+00 -0.15824442086E+04  0.31240032916E+04  0.26935602634E+04 0.  0.
        4    1    3    3  502    0  0.88561823731E+03  0.84801221711E+03 -0.14373599264E+04  0.18892986936E+04  0.12699999809E+01 0. -1.
       -4    1    3    3    0  502 -0.88561823731E+03 -0.84801221711E+03 -0.14508428220E+03  0.12347045981E+04  0.12699999809E+01 0.  1.
</event>
<event>
 5   0  0.4983208E-07  0.2698604E+04  0.7818609E-02  0.8335458E-01
        2   -1    0    0  501    0  0.00000000000E+00  0.00000000000E+00  0.26911270177E+04  0.26911270177E+04  0.25500000920E-02 0.  1.
       -2   -1    0    0    0  501  0.00000000000E+00  0.00000000000E+00 -0.67652559075E+03  0.67652559075E+03  0.25500000920E-02 0. -1.
    10030    2    1    2    0    0  0.00000000000E+00  0.00000000000E+00  0.20146014269E+04  0.33676526084E+04  0.26986043025E+04 0.  0.
        4    1    3    3  502    0 -0.41610954091E+03  0.82425496564E+03  0.22351406237E+04  0.24183462571E+04  0.12699999809E+01 0.  1.
       -4    1    3    3    0  502  0.41610954091E+03 -0.82425496564E+03 -0.22053919683E+03  0.94930635132E+03  0.12699999809E+01 0. -1.
</event>
<event>
 5   0  0.5043890E-07  0.2689963E+04  0.7818609E-02  0.8338269E-01
        2   -1    0    0  501    0  0.00000000000E+00  0.00000000000E+00  0.13933185452E+04  0.13933185452E+04  0.25500000920E-02 0. -1.
       -2   -1    0    0    0  501  0.00000000000E+00  0.00000000000E+00 -0.12983213005E+04  0.12983213005E+04  0.25500000920E-02 0.  1.
    10030    2    1    2    0    0  0.00000000000E+00  0.00000000000E+00  0.94997244692E+02  0.26916398457E+04  0.26899629333E+04 0.  0.
        3    1    3    3  502    0  0.30209292746E+03 -0.54255545814E+03  0.12412840915E+04  0.13879527255E+04  0.10100000352E+00 0. -1.
       -3    1    3    3    0  502 -0.30209292746E+03  0.54255545814E+03 -0.11462868468E+04  0.13036871202E+04  0.10100000352E+00 0.  1.
</event>
<event>
 5   0  0.1971600E-07  0.2699914E+04  0.7818609E-02  0.8335033E-01
       -1   -1    0    0    0  501  0.00000000000E+00  0.00000000000E+00  0.14970058661E+04  0.14970058661E+04  0.50400001928E-02 0.  1.
        1   -1    0    0  501    0  0.00000000000E+00  0.00000000000E+00 -0.12173522221E+04  0.12173522221E+04  0.50400001928E-02 0. -1.
    10030    2    1    2    0    0  0.00000000000E+00  0.00000000000E+00  0.27965364402E+03  0.27143580882E+04  0.26999136413E+04 0.  0.
        5    1    3    3  502    0  0.24128927632E+03  0.15262492634E+03  0.14662970293E+04  0.14938420101E+04  0.46999998093E+01 0.  1.
       -5    1    3    3    0  502 -0.24128927632E+03 -0.15262492634E+03 -0.11866433853E+04  0.12205160781E+04  0.46999998093E+01 0. -1.
</event>
<event>
 5   0  0.4735120E-07  0.2696976E+04  0.7818609E-02  0.8335987E-01
       -2   -1    0    0    0  501  0.00000000000E+00  0.00000000000E+00  0.14496896398E+04  0.14496896398E+04  0.25500000920E-02 0.  1.
        2   -1    0    0  501    0  0.00000000000E+00  0.00000000000E+00 -0.12543512872E+04  0.12543512872E+04  0.25500000920E-02 0. -1.
    10030    2    1    2    0    0  0.00000000000E+00  0.00000000000E+00  0.19533835261E+03  0.27040409270E+04  0.26969761332E+04 0.  0.
        2    1    3    3  502    0  0.11322786555E+04  0.86241412830E+02 -0.63150997654E+03  0.12993449832E+04  0.25500000920E-02 0. -1.
       -2    1    3    3    0  502 -0.11322786555E+04 -0.86241412830E+02  0.82684832916E+03  0.14046959438E+04  0.25500000920E-02 0.  1.
</event>
<event>
 5   0  0.1641625E-07  0.2700862E+04  0.7818609E-02  0.8334725E-01
        3   -1    0    0  501    0  0.00000000000E+00  0.00000000000E+00  0.92603054668E+03  0.92603055219E+03  0.10100000352E+00 0.  1.
       -3   -1    0    0    0  501  0.00000000000E+00  0.00000000000E+00 -0.19693343105E+04  0.19693343131E+04  0.10100000352E+00 0. -1.
    10030    2    1    2    0    0  0.00000000000E+00  0.00000000000E+00 -0.10433037638E+04  0.28953648653E+04  0.27008618920E+04 0.  0.
        1    1    3    3  502    0 -0.48783376401E+03  0.93373813961E+03 -0.14273714933E+04  0.17740456799E+04  0.50400001928E-02 0. -1.
       -1    1    3    3    0  502  0.48783376401E+03 -0.93373813961E+03  0.38406772943E+03  0.11213191854E+04  0.50400001928E-02 0.  1.
</event>
<event>
 5   0  0.4735120E-07  0.2699431E+04  0.7818609E-02  0.8335190E-01
       -2   -1    0    0    0  501  0.00000000000E+00  0.00000000000E+00  0.15320191536E+04  0.15320191536E+04  0.25500000920E-02 0.  1.
        2   -1    0    0  501    0  0.00000000000E+00  0.00000000000E+00 -0.11891049393E+04  0.11891049393E+04  0.25500000920E-02 0. -1.
    10030    2    1    2    0    0  0.00000000000E+00  0.00000000000E+00  0.34291421431E+03  0.27211240929E+04  0.26994307123E+04 0.  0.
        2    1    3    3  502    0  0.87513777358E+03  0.72683684563E+03  0.90363683227E+03  0.14528308393E+04  0.25500000920E-02 0.  1.
       -2    1    3    3    0  502 -0.87513777358E+03 -0.72683684563E+03 -0.56072261796E+03  0.12682932536E+04  0.25500000920E-02 0. -1.
</event>
<event>
 5   0  0.1937896E-07  0.2699384E+04  0.7818609E-02  0.8335205E-01
       -1   -1    0    0    0  501  0.00000000000E+00  0.00000000000E+00  0.71164360346E+03  0.71164360347E+03  0.50400001928E-02 0. -1.
        1   -1    0    0  501    0  0.00000000000E+00  0.00000000000E+00 -0.25598052627E+04  0.25598052627E+04  0.50400001928E-02 0.  1.
    10030    2    1    2    0    0  0.00000000000E+00  0.00000000000E+00 -0.18481616593E+04  0.32714488662E+04  0.26993844049E+04 0.  0.
        3    1    3    3  502    0 -0.81398104171E+02  0.64708990893E+03  0.50800014422E+03  0.82668927556E+03  0.10100000352E+00 0. -1.
       -3    1    3    3    0  502  0.81398104171E+02 -0.64708990893E+03 -0.23561618035E+04  0.24447595907E+04  0.10100000352E+00 0.  1.
</event>
<event>
 5   0  0.5043890E-07  0.2699556E+04  0.7818609E-02  0.8335149E-01
       -2   -1    0    0    0  501  0.00000000000E+00  0.00000000000E+00  0.10281137883E+04  0.10281137883E+04  0.25500000920E-02 0. -1.
        2   -1    0    0  501    0  0.00000000000E+00  0.00000000000E+00 -0.17720801494E+04  0.17720801494E+04  0.25500000920E-02 0.  1.
    10030    2    1    2    0    0  0.00000000000E+00  0.00000000000E+00 -0.74396636105E+03  0.28001939377E+04  0.26995555453E+04 0.  0.
        3    1    3    3  502    0 -0.89787413330E+03  0.81873703853E+03 -0.98159279686E+03  0.15620604107E+04  0.10100000352E+00 0.  1.
       -3    1    3    3    0  502  0.89787413330E+03 -0.81873703853E+03  0.23762643581E+03  0.12381335270E+04  0.10100000352E+00 0. -1.
</event>
<event>
 5   0  0.1965415E-07  0.2700190E+04  0.7818609E-02  0.8334943E-01
       -1   -1    0    0    0  501  0.00000000000E+00  0.00000000000E+00  0.95602568684E+03  0.95602568685E+03  0.50400001928E-02 0.  1.
        1   -1    0    0  501    0  0.00000000000E+00  0.00000000000E+00 -0.19065972646E+04  0.19065972646E+04  0.50400001928E-02 0. -1.
    10030    2    1    2    0    0  0.00000000000E+00  0.00000000000E+00 -0.95057157774E+03  0.28626229514E+04  0.27001895929E+04 0.  0.
        4    1    3    3  502    0  0.12669615682E+04  0.10773114609E+02 -0.96964914468E+03  0.15954713260E+04  0.12699999809E+01 0. -1.
       -4    1    3    3    0  502 -0.12669615682E+04 -0.10773114609E+02  0.19077566938E+02  0.12671516254E+04  0.12699999809E+01 0.  1.
</event>
<event>
 5   0  0.1888149E-07  0.2705042E+04  0.7818609E-02  0.8333371E-01
        1   -1    0    0  501    0  0.00000000000E+00  0.00000000000E+00  0.10703784115E+04  0.10703784115E+04  0.50400001928E-02 0.  1.
       -1   -1    0    0    0  501  0.00000000000E+00  0.00000000000E+00 -0.17090342068E+04  0.17090342068E+04  0.50400001928E-02 0. -1.
    10030    2    1    2    0    0  0.00000000000E+00  0.00000000000E+00 -0.63865579534E+03  0.27794126183E+04  0.27050421952E+04 0.  0.
        1    1    3    3  502    0 -0.62667175270E+03 -0.93879072428E+03 -0.10849777965E+04  0.15656379941E+04  0.50400001928E-02 0. -1.
       -1    1    3    3    0  502  0.62667175270E+03  0.93879072428E+03  0.44632200118E+03  0.12137746242E+04  0.50400001928E-02 0.  1.
</event>
<event>
 5   0  0.4735120E-07  0.2700367E+04  0.7818609E-02  0.8334886E-01
       -2   -1    0    0    0  501  0.00000000000E+00  0.00000000000E+00  0.98308153378E+03  0.98308153379E+03  0.25500000920E-02 0. -1.
        2   -1    0    0  501    0  0.00000000000E+00  0.00000000000E+00 -0.18543689155E+04  0.18543689155E+04  0.25500000920E-02 0.  1.
    10030    2    1    2    0    0  0.00000000000E+00  0.00000000000E+00 -0.87128738170E+03  0.28374504493E+04  0.27003672622E+04 0.  0.
        2    1    3    3  502    0  0.84648972014E+03 -0.10447583961E+04 -0.56403872540E+03  0.14581511020E+04  0.25500000920E-02 0. -1.
       -2    1    3    3    0  502 -0.84648972014E+03  0.10447583961E+04 -0.30724865630E+03  0.13792993473E+04  0.25500000920E-02 0.  1.
</event>
<event>
 5   0  0.1971600E-07  0.2699671E+04  0.7818609E-02  0.8335112E-01
       -1   -1    0    0    0  501  0.00000000000E+00  0.00000000000E+00  0.12821151925E+04  0.12821151925E+04  0.50400001928E-02 0. -1.
        1   -1    0    0  501    0  0.00000000000E+00  0.00000000000E+00 -0.14211329309E+04  0.14211329309E+04  0.50400001928E-02 0.  1.
    10030    2    1    2    0    0  0.00000000000E+00  0.00000000000E+00 -0.13901773836E+03  0.27032481234E+04  0.26996711809E+04 0.  0.
        5    1    3    3  502    0 -0.20361204936E+03  0.11171895675E+04 -0.80017674868E+03  0.13891995233E+04  0.46999998093E+01 0.  1.
       -5    1    3    3    0  502  0.20361204936E+03 -0.11171895675E+04  0.66115901032E+03  0.13140486001E+04  0.46999998093E+01 0. -1.
</event>
<event>
 5   0  0.4983208E-07  0.2699168E+04  0.7818609E-02  0.8335275E-01
       -2   -1    0    0    0  501  0.00000000000E+00  0.00000000000E+00  0.94995692275E+03  0.94995692275E+03  0.25500000920E-02 0.  1.
        2   -1    0    0  501    0  0.00000000000E+00  0.00000000000E+00 -0.19173256353E+04  0.19173256353E+04  0.25500000920E-02 0. -1.
    10030    2    1    2    0    0  0.00000000000E+00  0.00000000000E+00 -0.96736871257E+03  0.28672825581E+04  0.26991678425E+04 0.  0.
        4    1    3    3  502    0 -0.89777257169E+03  0.11781005927E+03 -0.15467648606E+04  0.17923052049E+04  0.12699999809E+01 0. -1.
       -4    1    3    3    0  502  0.89777257169E+03 -0.11781005927E+03  0.57939614805E+03  0.10749773532E+04  0.12699999809E+01 0.  1.
</event>
<event>
 5   0  0.5043890E-07  0.2700811E+04  0.7818609E-02  0.8334742E-01
       -2   -1    0    0    0  501  0.00000000000E+00  0.00000000000E+00  0.13274360575E+04  0.13274360575E+04  0.25500000920E-02 0. -1.
        2   -1    0    0  501    0  0.00000000000E+00  0.00000000000E+00 -0.13737724087E+04  0.13737724087E+04  0.25500000920E-02 0.  1.
    10030    2    1    2    0    0  0.00000000000E+00  0.00000000000E+00 -0.46336351202E+02  0.27012084663E+04  0.27008110117E+04 0.  0.
        3    1    3    3  502    0  0.39729881726E+03  0.11141887740E+04 -0.67467177914E+03  0.13617800828E+04  0.10100000352E+00 0.  1.
       -3    1    3    3    0  502 -0.39729881726E+03 -0.11141887740E+04  0.62833542794E+03  0.13394283835E+04  0.10100000352E+00 0. -1.
</event>
<event>
 5   0  0.4843887E-07  0.2713984E+04  0.7818609E-02  0.8330482E-01
        2   -1    0    0  501    0  0.00000000000E+00  0.00000000000E+00  0.20121504013E+04  0.20121504013E+04  0.25500000920E-02 0. -1.
       -2   -1    0    0    0  501  0.00000000000E+00  0.00000000000E+00 -0.91515395138E+03  0.91515395138E+03  0.25500000920E-02 0.  1.
    10030    2    1    2    0    0  0.00000000000E+00  0.00000000000E+00  0.10969964499E+04  0.29273043527E+04  0.27139840755E+04 0.  0.
        5    1    3    3  502    0 -0.77736171123E+03  0.13782289892E+02  0.17480862243E+04  0.19131933303E+04  0.46999998093E+01 0. -1.
       -5    1    3    3    0  502  0.77736171123E+03 -0.13782289892E+02 -0.65108977431E+03  0.10141110224E+04  0.46999998093E+01 0.  1.
</event>
<event>
 5   0  0.1965415E-07  0.2699545E+04  0.7818609E-02  0.8335153E-01
        1   -1    0    0  501    0  0.00000000000E+00  0.00000000000E+00  0.14503481766E+04  0.14503481766E+04  0.50400001928E-02 0. -1.
       -1   -1    0    0    0  501  0.00000000000E+00  0.00000000000E+00 -0.12561715207E+04  0.12561715207E+04  0.50400001928E-02 0.  1.
    10030    2    1    2    0    0  0.00000000000E+00  0.00000000000E+00  0.19417665589E+03  0.27065196974E+04  0.26995452022E+04 0.  0.
        4    1    3    3  502    0 -0.33425711820E+03 -0.60117225909E+03 -0.10672684740E+04  0.12697241884E+04  0.12699999809E+01 0.  1.
       -4    1    3    3    0  502  0.33425711820E+03  0.60117225909E+03  0.12614451298E+04  0.14367955090E+04  0.12699999809E+01 0. -1.
</event>
<event>
 5   0  0.1937896E-07  0.2700676E+04  0.7818609E-02  0.8334786E-01
        1   -1    0    0  501    0  0.00000000000E+00  0.00000000000E+00  0.15376699719E+04  0.15376699719E+04  0.50400001928E-02 0.  1.
       -1   -1    0    0    0  501  0.00000000000E+00  0.00000000000E+00 -0.11858285046E+04  0.11858285047E+04  0.50400001928E-02 0. -1.
    10030    2    1    2    0    0  0.00000000000E+00  0.00000000000E+00  0.35184146727E+03  0.27234984766E+04  0.27006761253E+04 0.  0.
        3    1    3    3  502    0 -0.79482163102E+01  0.52119814185E+03 -0.10802793526E+04  0.11994641167E+04  0.10100000352E+00 0. -1.
       -3    1    3    3    0  502  0.79482163102E+01 -0.52119814185E+03  0.14321208199E+04  0.15240343599E+04  0.10100000352E+00 0.  1.
</event>
<event>
 5   0  0.1971600E-07  0.2697487E+04  0.7818609E-02  0.8335821E-01
        1   -1    0    0  501    0  0.00000000000E+00  0.00000000000E+00  0.21914662692E+04  0.21914662692E+04  0.50400001928E-02 0.  1.
       -1   -1    0    0    0  501  0.00000000000E+00  0.00000000000E+00 -0.83008769980E+03  0.83008769982E+03  0.50400001928E-02 0. -1.
    10030    2    1    2    0    0  0.00000000000E+00  0.00000000000E+00  0.13613785694E+04  0.30215539690E+04  0.26974871230E+04 0.  0.
        5    1    3    3  502    0 -0.23729333256E+03  0.13217526654E+04  0.54011830201E+03  0.14474419174E+04  0.46999998093E+01 0. -1.
       -5    1    3    3    0  502  0.23729333256E+03 -0.13217526654E+04  0.82126026740E+03  0.15741120516E+04  0.46999998093E+01 0.  1.
</event>
<event>
 5   0  0.4983208E-07  0.2698478E+04  0.7818609E-02  0.8335499E-01
       -2   -1    0    0    0  501  0.00000000000E+00  0.00000000000E+00  0.96102949372E+03  0.96102949372E+03  0.25500000920E-02 0.  1.
        2   -1    0    0  501    0  0.00000000000E+00  0.00000000000E+00 -0.18942660117E+04  0.18942660117E+04  0.25500000920E-02 0. -1.
    10030    2    1    2    0    0  0.00000000000E+00  0.00000000000E+00 -0.93323651795E+03  0.28552955054E+04  0.26984777236E+04 0.  0.
        4    1    3    3  502    0 -0.82413833504E+03 -0.39406983479E+03  0.58403501887E+03  0.10842479173E+04  0.12699999809E+01 0.  1.
       -4    1    3    3    0  502  0.82413833504E+03  0.39406983479E+03 -0.15172715368E+04  0.17710475881E+04  0.12699999809E+01 0. -1.
</event>
<event>
 5   0  0.4992668E-07  0.2700465E+04  0.7818609E-02  0.8334854E-01
       -2   -1    0    0    0  501  0.00000000000E+00  0.00000000000E+00  0.12501255349E+04  0.12501255349E+04  0.25500000920E-02 0.  1.
        2   -1    0    0  501    0  0.00000000000E+00  0.00000000000E+00 -0.14583560216E+04  0.14583560216E+04  0.25500000920E-02 0. -1.
    10030    2    1    2    0    0  0.00000000000E+00  0.00000000000E+00 -0.20823048673E+03  0.27084815565E+04  0.27004652204E+04 0.  0.
        1    1    3    3  502    0  0.10009983488E+04 -0.79417096477E+03  0.33355484407E+03  0.13205923101E+04  0.50400001928E-02 0.  1.
       -1    1    3    3    0  502 -0.10009983488E+04  0.79417096477E+03 -0.54178533081E+03  0.13878892464E+04  0.50400001928E-02 0. -1.
</event>
<event>
 5   0  0.4843887E-07  0.2698395E+04  0.7818609E-02  0.8335526E-01
        2   -1    0    0  501    0  0.00000000000E+00  0.00000000000E+00  0.15554853038E+04  0.15554853038E+04  0.25500000920E-02 0. -1.
       -2   -1    0    0    0  501  0.00000000000E+00  0.00000000000E+00 -0.11702678052E+04  0.11702678052E+04  0.25500000920E-02 0.  1.
    10030    2    1    2    0    0  0.00000000000E+00  0.00000000000E+00  0.38521749855E+03  0.27257531090E+04  0.26983953547E+04 0.  0.
        5    1    3    3  502    0  0.50389242793E+03  0.48420085579E+03  0.13584128727E+04  0.15276340106E+04  0.46999998093E+01 0. -1.
       -5    1    3    3    0  502 -0.50389242793E+03 -0.48420085579E+03 -0.97319537415E+03  0.11981190984E+04  0.46999998093E+01 0.  1.
</event>
<event>
 5   0  0.4983208E-07  0.2701204E+04  0.7818609E-02  0.8334614E-01
       -2   -1    0    0    0  501  0.00000000000E+00  0.00000000000E+00  0.11131789595E+04  0.11131789595E+04  0.25500000920E-02 0.  1.
        2   -1    0    0  501    0  0.00000000000E+00  0.00000000000E+00 -0.16386638744E+04  0.16386638744E+04  0.25500000920E-02 0. -1.
    10030    2    1    2    0    0  0.00000000000E+00  0.00000000000E+00 -0.52548491490E+03  0.27518428339E+04  0.27012042845E+04 0.  0.
        4    1    3    3  502    0  0.26813820766E+03  0.11816567303E+04  0.34502664051E+03  0.12598633744E+04  0.12699999809E+01 0.  1.
       -4    1    3    3    0  502 -0.26813820766E+03 -0.11816567303E+04 -0.87051155541E+03  0.14919794595E+04  0.12699999809E+01 0. -1.
</event>
<event>
 5   0  0.4735120E-07  0.2699765E+04  0.7818609E-02  0.8335081E-01
        2   -1    0    0  501    0  0.00000000000E+00  0.00000000000E+00  0.23777495476E+04  0.23777495476E+04  0.25500000920E-02 0. -1.
       -2   -1    0    0    0  501  0.00000000000E+00  0.00000000000E+00 -0.76634757753E+03  0.76634757753E+03  0.25500000920E-02 0.  1.
    10030    2    1    2    0    0  0.00000000000E+00  0.00000000000E+00  0.16114019700E+04  0.31440971251E+04  0.26997648829E+04 0.  0.
        2    1    3    3  502    0  0.59439814213E+03  0.19723547199E+03 -0.58692251385E+03  0.85830590121E+03  0.25500000920E-02 0.  1.
       -2    1    3    3    0  502 -0.59439814213E+03 -0.19723547199E+03  0.21983244839E+04  0.22857912239E+04  0.25500000920E-02 0. -1.
</event>
<event>
 5   0  0.4843887E-07  0.2700747E+04  0.7818609E-02  0.8334763E-01
        2   -1    0    0  501    0  0.00000000000E+00  0.00000000000E+00  0.72799400854E+03  0.72799400854E+03  0.25500000920E-02 0.  1.
       -2   -1    0    0    0  501  0.00000000000E+00  0.00000000000E+00 -0.25048396617E+04  0.25048396617E+04  0.25500000920E-02 0. -1.
    10030    2    1    2    0    0  0.00000000000E+00  0.00000000000E+00 -0.17768456532E+04  0.32328336703E+04  0.27007467605E+04 0.  0.
        5    1    3    3  502    0  0.69517809416E+03 -0.10167621322E+04 -0.22582531269E+03  0.12522367899E+04  0.46999998093E+01 0.  1.
       -5    1    3    3    0  502 -0.69517809416E+03  0.10167621322E+04 -0.15510203405E+04  0.19805968804E+04  0.46999998093E+01 0. -1.
</event>
<event>
 5   0  0.4843887E-07  0.2700978E+04  0.7818609E-02  0.8334688E-01
       -2   -1    0    0    0  501  0.00000000000E+00  0.00000000000E+00  0.18015842709E+04  0.18015842709E+04  0.25500000920E-02 0.  1.
        2   -1    0    0  501    0  0.00000000000E+00  0.00000000000E+00 -0.10123423211E+04  0.10123423211E+04  0.25500000920E-02 0. -1.
    10030    2    1    2    0    0  0.00000000000E+00  0.00000000000E+00  0.78924194982E+03  0.28139265919E+04  0.27009776025E+04 0.  0.
        5    1    3    3  502    0 -0.47008095860E+03 -0.89369775380E+03 -0.53960915144E+03  0.11449331461E+04  0.46999998093E+01 0. -1.
       -5    1    3    3    0  502  0.47008095860E+03  0.89369775380E+03  0.13288511013E+04  0.16689934458E+04  0.46999998093E+01 0.  1.
</event>
<event>
 5   0  0.1964242E-07  0.2703948E+04  0.7818609E-02  0.8333725E-01
        1   -1    0    0  501    0  0.00000000000E+00  0.00000000000E+00  0.16418482568E+04  0.16418482568E+04  0.50400001928E-02 0. -1.
       -1   -1    0    0    0  501  0.00000000000E+00  0.00000000000E+00 -0.11132779364E+04  0.11132779365E+04  0.50400001928E-02 0.  1.
    10030    2    1    2    0    0  0.00000000000E+00  0.00000000000E+00  0.52857032034E+03  0.27551261933E+04  0.27039478096E+04 0.  0.
        2    1    3    3  502    0 -0.25268595032E+02  0.49911948775E+02 -0.11120980662E+04  0.11135042943E+04  0.25500000920E-02 0.  1.
       -2    1    3    3    0  502  0.25268595032E+02 -0.49911948775E+02  0.16406683866E+04  0.16416218990E+04  0.25500000920E-02 0. -1.
</event>
<event>
 5   0  0.1964242E-07  0.2701515E+04  0.7818609E-02  0.8334514E-01
        1   -1    0    0  501    0  0.00000000000E+00  0.00000000000E+00  0.16054487442E+04  0.16054487442E+04  0.50400001928E-02 0.  1.
       -1   -1    0    0    0  501  0.00000000000E+00  0.00000000000E+00 -0.11364707975E+04  0.11364707975E+04  0.50400001928E-02 0. -1.
    10030    2    1    2    0    0  0.00000000000E+00  0.00000000000E+00  0.46897794678E+03  0.27419195417E+04  0.27015148452E+04 0.  0.
        2    1    3    3  502    0 -0.12938734040E+04 -0.34099407453E+02  0.62662803208E+03  0.14380312395E+04  0.25500000920E-02 0.  1.
       -2    1    3    3    0  502  0.12938734040E+04  0.34099407453E+02 -0.15765008530E+03  0.13038883022E+04  0.25500000920E-02 0. -1.
</event>
<event>
 5   0  0.1964242E-07  0.2699389E+04  0.7818609E-02  0.8335203E-01
        1   -1    0    0  501    0  0.00000000000E+00  0.00000000000E+00  0.17683409769E+04  0.17683409769E+04  0.50400001928E-02 0. -1.
       -1   -1    0    0    0  501  0.00000000000E+00  0.00000000000E+00 -0.10301604678E+04  0.10301604678E+04  0.50400001928E-02 0.  1.
    10030    2    1    2    0    0  0.00000000000E+00  0.00000000000E+00  0.73818050914E+03  0.27985014448E+04  0.26993887960E+04 0.  0.
        2    1    3    3  502    0  0.14824827091E+03 -0.12772824795E+04  0.79432976692E+03  0.15114191546E+04  0.25500000920E-02 0.  1.
       -2    1    3    3    0  502 -0.14824827091E+03  0.12772824795E+04 -0.56149257785E+02  0.12870822901E+04  0.25500000920E-02 0. -1.
</event>
<event>
 5   0  0.1971600E-07  0.2699430E+04  0.7818609E-02  0.8335190E-01
       -1   -1    0    0    0  501  0.00000000000E+00  0.00000000000E+00  0.11447061950E+04  0.11447061950E+04  0.50400001928E-02 0.  1.
        1   -1    0    0  501    0  0.00000000000E+00  0.00000000000E+00 -0.15914399256E+04  0.15914399256E+04  0.50400001928E-02 0. -1.
    10030    2    1    2    0    0  0.00000000000E+00  0.00000000000E+00 -0.44673373060E+03  0.27361461206E+04  0.26994304154E+04 0.  0.
        5    1    3    3  502    0 -0.41730805130E+03 -0.36109988874E+03  0.10251208129E+04  0.11642310382E+04  0.46999998093E+01 0.  1.
       -5    1    3    3    0  502  0.41730805130E+03  0.36109988874E+03 -0.14718545435E+04  0.15719150824E+04  0.46999998093E+01 0. -1.
</event>
<event>
 5   0  0.5043890E-07  0.2699849E+04  0.7818609E-02  0.8335054E-01
        2   -1    0    0  501    0  0.00000000000E+00  0.00000000000E+00  0.29590391482E+04  0.29590391482E+04  0.25500000920E-02 0. -1.
       -2   -1    0    0    0  501  0.00000000000E+00  0.00000000000E+00 -0.61584049904E+03  0.61584049905E+03  0.25500000920E-02 0.  1.
    10030    2    1    2    0    0  0.00000000000E+00  0.00000000000E+00  0.23431986492E+04  0.35748796473E+04  0.26998489926E+04 0.  0.
        3    1    3    3  502    0 -0.56867156690E+03 -0.84362444505E+03  0.23464057393E+04  0.25574810770E+04  0.10100000352E+00 0. -1.
       -3    1    3    3    0  502  0.56867156690E+03  0.84362444505E+03 -0.32070901231E+01  0.10173985703E+04  0.10100000352E+00 0.  1.
</event>
<event>
 5   0  0.1937896E-07  0.2704515E+04  0.7818609E-02  0.8333541E-01
       -1   -1    0    0    0  501  0.00000000000E+00  0.00000000000E+00  0.13255330065E+04  0.13255330065E+04  0.50400001928E-02 0.  1.
        1   -1    0    0  501    0  0.00000000000E+00  0.00000000000E+00 -0.13795210500E+04  0.13795210500E+04  0.50400001928E-02 0. -1.
    10030    2    1    2    0    0  0.00000000000E+00  0.00000000000E+00 -0.53988043463E+02  0.27050540565E+04  0.27045152504E+04 0.  0.
        3    1    3    3  502    0  0.11387854643E+04 -0.52619910080E+03  0.47796579391E+03  0.13424489330E+04  0.10100000352E+00 0. -1.
       -3    1    3    3    0  502 -0.11387854643E+04  0.52619910080E+03 -0.53195383737E+03  0.13626051235E+04  0.10100000352E+00 0.  1.
</event>
<event>
 5   0  0.1964242E-07  0.2700426E+04  0.7818609E-02  0.8334867E-01
       -1   -1    0    0    0  501  0.00000000000E+00  0.00000000000E+00  0.21861396678E+04  0.21861396678E+04  0.50400001928E-02 0. -1.
        1   -1    0    0  501    0  0.00000000000E+00  0.00000000000E+00 -0.83392466129E+03  0.83392466131E+03  0.50400001928E-02 0.  1.
    10030    2    1    2    0    0  0.00000000000E+00  0.00000000000E+00  0.13522150065E+04  0.30200643291E+04  0.27004264715E+04 0.  0.
        2    1    3    3  502    0  0.86693120298E+02  0.58589122508E+03  0.20331103165E+04  0.21176217282E+04  0.25500000920E-02 0. -1.
       -2    1    3    3    0  502 -0.86693120298E+02 -0.58589122508E+03 -0.68089531000E+03  0.90244260090E+03  0.25500000920E-02 0.  1.
</event>
<event>
 5   0  0.1971600E-07  0.2701025E+04  0.7818609E-02  0.8334672E-01
       -1   -1    0    0    0  501  0.00000000000E+00  0.00000000000E+00  0.10670191529E+04  0.10670191529E+04  0.50400001928E-02 0.  1.
        1   -1    0    0  501    0  0.00000000000E+00  0.00000000000E+00 -0.17093270131E+04  0.17093270131E+04  0.50400001928E-02 0. -1.
    10030    2    1    2    0    0  0.00000000000E+00  0.00000000000E+00 -0.64230786022E+03  0.27763461661E+04  0.27010254806E+04 0.  0.
        5    1    3    3  502    0  0.46784153380E+03  0.11110843440E+04 -0.94679667085E+03  0.15329155705E+04  0.46999998093E+01 0. -1.
       -5    1    3    3    0  502 -0.46784153380E+03 -0.11110843440E+04  0.30448881063E+03  0.12434305956E+04  0.46999998093E+01 0.  1.
</event>
<event>
 5   0  0.4735120E-07  0.2701182E+04  0.7818609E-02  0.8334622E-01
       -2   -1    0    0    0  501  0.00000000000E+00  0.00000000000E+00  0.85551045850E+03  0.85551045851E+03  0.25500000920E-02 0.  1.
        2   -1    0    0  501    0  0.00000000000E+00  0.00000000000E+00 -0.21321722206E+04  0.21321722207E+04  0.25500000920E-02 0. -1.
    10030    2    1    2    0    0  0.00000000000E+00  0.00000000000E+00 -0.12766617621E+04  0.29876826792E+04  0.27011816926E+04 0.  0.
        2    1    3    3  502    0 -0.88381827193E+03  0.79997401287E+03 -0.13404883638E+04  0.17938790964E+04  0.25500000920E-02 0. -1.
       -2    1    3    3    0  502  0.88381827193E+03 -0.79997401287E+03  0.63826601666E+02  0.11938035827E+04  0.25500000920E-02 0.  1.
</event>
<event>
 5   0  0.4983208E-07  0.2701821E+04  0.7818609E-02  0.8334414E-01
        2   -1    0    0  501    0  0.00000000000E+00  0.00000000000E+00  0.12897236110E+04  0.12897236110E+04  0.25500000920E-02 0.  1.
       -2   -1    0    0    0  501  0.00000000000E+00  0.00000000000E+00 -0.14150002455E+04  0.14150002455E+04  0.25500000920E-02 0. -1.
    10030    2    1    2    0    0  0.00000000000E+00  0.00000000000E+00 -0.12527663451E+03  0.27047238565E+04  0.27018210349E+04 0.  0.
        4    1    3    3  502    0 -0.92261062633E+03 -0.98448339987E+03  0.48112260308E+01  0.13492378194E+04  0.12699999809E+01 0. -1.
       -4    1    3    3    0  502  0.92261062633E+03  0.98448339987E+03 -0.13008786054E+03  0.13554860371E+04  0.12699999809E+01 0.  1.
</event>
<event>
 5   0  0.1937896E-07  0.2700554E+04  0.7818609E-02  0.8334825E-01
       -1   -1    0    0    0  501  0.00000000000E+00  0.00000000000E+00  0.10421252149E+04  0.10421252149E+04  0.50400001928E-02 0.  1.
        1   -1    0    0  501    0  0.00000000000E+00  0.00000000000E+00 -0.17495482819E+04  0.17495482819E+04  0.50400001928E-02 0. -1.
    10030    2    1    2    0    0  0.00000000000E+00  0.00000000000E+00 -0.70742306701E+03  0.27916734968E+04  0.27005542981E+04 0.  0.
        3    1    3    3  502    0 -0.86630030695E+03  0.80281028884E+03  0.32279098014E+03  0.12244078605E+04  0.10100000352E+00 0.  1.
       -3    1    3    3    0  502  0.86630030695E+03 -0.80281028884E+03 -0.10302140471E+04  0.15672656363E+04  0.10100000352E+00 0. -1.
</event>
<event>
 5   0  0.4735120E-07  0.2696834E+04  0.7818609E-02  0.8336033E-01
        2   -1    0    0  501    0  0.00000000000E+00  0.00000000000E+00  0.19567048103E+04  0.19567048103E+04  0.25500000920E-02 0.  1.
       -2   -1    0    0    0  501  0.00000000000E+00  0.00000000000E+00 -0.92922972775E+03  0.92922972775E+03  0.25500000920E-02 0. -1.
    10030    2    1    2    0    0  0.00000000000E+00  0.00000000000E+00  0.10274750825E+04  0.28859345380E+04  0.26968339053E+04 0.  0.
        2    1    3    3  502    0  0.45235561825E+03 -0.12453804956E+04  0.24592937992E+03  0.13476199182E+04  0.25500000920E-02 0.  1.
       -2    1    3    3    0  502 -0.45235561825E+03  0.12453804956E+04  0.78154570259E+03  0.15383146198E+04  0.25500000920E-02 0. -1.
</event>
<event>
 5   0  0.1971600E-07  0.2700256E+04  0.7818609E-02  0.8334922E-01
        1   -1    0    0  501    0  0.00000000000E+00  0.00000000000E+00  0.14409140236E+04  0.14409140236E+04  0.50400001928E-02 0. -1.
       -1   -1    0    0    0  501  0.00000000000E+00  0.00000000000E+00 -0.12650617080E+04  0.12650617080E+04  0.50400001928E-02 0.  1.
    10030    2    1    2    0    0  0.00000000000E+00  0.00000000000E+00  0.17585231559E+03  0.27059757316E+04  0.27002556588E+04 0.  0.
        5    1    3    3  502    0  0.43143380598E+03  0.32211931158E+03 -0.11528109220E+04  0.12723565113E+04  0.46999998093E+01 0.  1.
       -5    1    3    3    0  502 -0.43143380598E+03 -0.32211931158E+03  0.13286632376E+04  0.14336192203E+04  0.46999998093E+01 0. -1.
</event>
<event>
 5   0  0.1888149E-07  0.2700988E+04  0.7818609E-02  0.8334684E-01
       -1   -1    0    0    0  501  0.00000000000E+00  0.00000000000E+00  0.10934513527E+04  0.10934513527E+04  0.50400001928E-02 0.  1.
        1   -1    0    0  501    0  0.00000000000E+00  0.00000000000E+00 -0.16679609648E+04  0.16679609649E+04  0.50400001928E-02 0. -1.
    10030    2    1    2    0    0  0.00000000000E+00  0.00000000000E+00 -0.57450961212E+03  0.27614123176E+04  0.27009880957E+04 0.  0.
        1    1    3    3  502    0  0.97427323895E+03  0.79929349702E+03 -0.78366389041E+03  0.14839836696E+04  0.50400001928E-02 0.  1.
       -1    1    3    3    0  502 -0.97427323895E+03 -0.79929349702E+03  0.20915427829E+03  0.12774286480E+04  0.50400001928E-02 0. -1.
</event>
<event>
 5   0  0.1964242E-07  0.2702569E+04  0.7818609E-02  0.8334172E-01
        1   -1    0    0  501    0  0.00000000000E+00  0.00000000000E+00  0.13652162143E+04  0.13652162143E+04  0.50400001928E-02 0.  1.
       -1   -1    0    0    0  501  0.00000000000E+00  0.00000000000E+00 -0.13374944916E+04  0.13374944916E+04  0.50400001928E-02 0. -1.
    10030    2    1    2    0    0  0.00000000000E+00  0.00000000000E+00  0.27721722714E+02  0.27027107059E+04  0.27025685312E+04 0.  0.
        2    1    3    3  502    0  0.39186646021E+03  0.54280474848E+02 -0.12782843047E+04  0.13381018109E+04  0.25500000920E-02 0. -1.
       -2    1    3    3    0  502 -0.39186646021E+03 -0.54280474848E+02  0.13060060274E+04  0.13646088950E+04  0.25500000920E-02 0.  1.
</event>
<event>
 5   0  0.1971600E-07  0.2702802E+04  0.7818609E-02  0.8334097E-01
       -1   -1    0    0    0  501  0.00000000000E+00  0.00000000000E+00  0.95771623743E+03  0.95771623744E+03  0.50400001928E-02 0.  1.
        1   -1    0    0  501    0  0.00000000000E+00  0.00000000000E+00 -0.19069156135E+04  0.19069156135E+04  0.50400001928E-02 0. -1.
    10030    2    1    2    0    0  0.00000000000E+00  0.00000000000E+00 -0.94919937603E+03  0.28646318509E+04  0.27028015439E+04 0.  0.
        5    1    3    3  502    0  0.30171369176E+03  0.13007471016E+03  0.91473087799E+03  0.97195949050E+03  0.46999998093E+01 0.  1.
       -5    1    3    3    0  502 -0.30171369176E+03 -0.13007471016E+03 -0.18639302540E+04  0.18926723604E+04  0.46999998093E+01 0. -1.
</event>
<event>
 5   0  0.1888149E-07  0.2700275E+04  0.7818609E-02  0.8334916E-01
        1   -1    0    0  501    0  0.00000000000E+00  0.00000000000E+00  0.99858005565E+03  0.99858005566E+03  0.50400001928E-02 0.  1.
       -1   -1    0    0    0  501  0.00000000000E+00  0.00000000000E+00 -0.18254631383E+04  0.18254631383E+04  0.50400001928E-02 0. -1.
    10030    2    1    2    0    0  0.00000000000E+00  0.00000000000E+00 -0.82688308262E+03  0.28240431939E+04  0.27002748617E+04 0.  0.
        1    1    3    3  502    0 -0.26023839505E+03  0.61192034003E+03  0.81544874594E+03  0.10522011130E+04  0.50400001928E-02 0.  1.
       -1    1    3    3    0  502  0.26023839505E+03 -0.61192034003E+03 -0.16423318286E+04  0.17718420810E+04  0.50400001928E-02 0. -1.
</event>
<event>
 5   0  0.5043890E-07  0.2700177E+04  0.7818609E-02  0.8334948E-01
       -2   -1    0    0    0  501  0.00000000000E+00  0.00000000000E+00  0.16079130277E+04  0.16079130277E+04  0.25500000920E-02 0.  1.
        2   -1    0    0  501    0  0.00000000000E+00  0.00000000000E+00 -0.11336054974E+04  0.11336054974E+04  0.25500000920E-02 0. -1.
    10030    2    1    2    0    0  0.00000000000E+00  0.00000000000E+00  0.47430753023E+03  0.27415185251E+04  0.27001770665E+04 0.  0.
        3    1    3    3  502    0 -0.62620996749E+03  0.42609559785E+03 -0.89756327187E+03  0.11744429399E+04  0.10100000352E+00 0. -1.
       -3    1    3    3    0  502  0.62620996749E+03 -0.42609559785E+03  0.13718708021E+04  0.15670755852E+04  0.10100000352E+00 0.  1.
</event>
<event>
 5   0  0.5043890E-07  0.2701923E+04  0.7818609E-02  0.8334381E-01
       -2   -1    0    0    0  501  0.00000000000E+00  0.00000000000E+00  0.82547196335E+03  0.82547196335E+03  0.25500000920E-02 0.  1.
        2   -1    0    0  501    0  0.00000000000E+00  0.00000000000E+00 -0.22109739660E+04  0.22109739660E+04  0.25500000920E-02 0. -1.
    10030    2    1    2    0    0  0.00000000000E+00  0.00000000000E+00 -0.13855020026E+04  0.30364459294E+04  0.27019230342E+04 0.  0.
        3    1    3    3  502    0 -0.56599939060E+02 -0.10637201753E+03  0.81942120629E+03  0.82823286746E+03  0.10100000352E+00 0.  1.
       -3    1    3    3    0  502  0.56599939060E+02  0.10637201753E+03 -0.22049232089E+04  0.22082130619E+04  0.10100000352E+00 0. -1.
</event>
<event>
 5   0  0.1971600E-07  0.2699996E+04  0.7818609E-02  0.8335006E-01
        1   -1    0    0  501    0  0.00000000000E+00  0.00000000000E+00  0.25402074369E+04  0.25402074369E+04  0.50400001928E-02 0. -1.
       -1   -1    0    0    0  501  0.00000000000E+00  0.00000000000E+00 -0.71745902709E+03  0.71745902711E+03  0.50400001928E-02 0.  1.
    10030    2    1    2    0    0  0.00000000000E+00  0.00000000000E+00  0.18227484098E+04  0.32576664640E+04  0.26999961158E+04 0.  0.
        5    1    3    3  502    0  0.54834701406E+03  0.10595499239E+04  0.14910690659E+03  0.12023250179E+04  0.46999998093E+01 0.  1.
       -5    1    3    3    0  502 -0.54834701406E+03 -0.10595499239E+04  0.16736415032E+04  0.20553414462E+04  0.46999998093E+01 0. -1.
</event>
<event>
 5   0  0.1937896E-07  0.2698668E+04  0.7818609E-02  0.8335437E-01
        1   -1    0    0  501    0  0.00000000000E+00  0.00000000000E+00  0.11486320765E+04  0.11486320765E+04  0.50400001928E-02 0. -1.
       -1   -1    0    0    0  501  0.00000000000E+00  0.00000000000E+00 -0.15851044693E+04  0.15851044693E+04  0.50400001928E-02 0.  1.
    10030    2    1    2    0    0  0.00000000000E+00  0.00000000000E+00 -0.43647239277E+03  0.27337365458E+04  0.26986676994E+04 0.  0.
        3    1    3    3  502    0 -0.57455289251E+03  0.10451185432E+04  0.42108960473E+03  0.12647925763E+04  0.10100000352E+00 0. -1.
       -3    1    3    3    0  502  0.57455289251E+03 -0.10451185432E+04 -0.85756199750E+03  0.14689439695E+04  0.10100000352E+00 0.  1.
</event>
<event>
 5   0  0.1937896E-07  0.2700921E+04  0.7818609E-02  0.8334706E-01
       -1   -1    0    0    0  501  0.00000000000E+00  0.00000000000E+00  0.17757465038E+04  0.17757465038E+04  0.50400001928E-02 0. -1.
        1   -1    0    0  501    0  0.00000000000E+00  0.00000000000E+00 -0.10270290271E+04  0.10270290271E+04  0.50400001928E-02 0.  1.
    10030    2    1    2    0    0  0.00000000000E+00  0.00000000000E+00  0.74871747668E+03  0.28027755310E+04  0.27009207351E+04 0.  0.
        3    1    3    3  502    0 -0.88172880408E+03 -0.95192283658E+03 -0.14111892503E+02  0.12976139358E+04  0.10100000352E+00 0.  1.
       -3    1    3    3    0  502  0.88172880408E+03  0.95192283658E+03  0.76282936919E+03  0.15051615951E+04  0.10100000352E+00 0. -1.
</event>
<event>
 5   0  0.4735120E-07  0.2698414E+04  0.7818609E-02  0.8335520E-01
        2   -1    0    0  501    0  0.00000000000E+00  0.00000000000E+00  0.19413981614E+04  0.19413981614E+04  0.25500000920E-02 0. -1.
       -2   -1    0    0    0  501  0.00000000000E+00  0.00000000000E+00 -0.93765375443E+03  0.93765375444E+03  0.25500000920E-02 0.  1.
    10030    2    1    2    0    0  0.00000000000E+00  0.00000000000E+00  0.10037444070E+04  0.28790519158E+04  0.26984138118E+04 0.  0.
        2    1    3    3  502    0 -0.98782000807E+03 -0.88187361529E+03  0.22596943068E+03  0.13433360061E+04  0.25500000920E-02 0.  1.
       -2    1    3    3    0  502  0.98782000807E+03  0.88187361529E+03  0.77777497629E+03  0.15357159097E+04  0.25500000920E-02 0. -1.
</event>
<event>
 5   0  0.4735120E-07  0.2701151E+04  0.7818609E-02  0.8334632E-01
       -2   -1    0    0    0  501  0.00000000000E+00  0.00000000000E+00  0.13661686219E+04  0.13661686219E+04  0.25500000920E-02 0. -1.
        2   -1    0    0  501    0  0.00000000000E+00  0.00000000000E+00 -0.13351602093E+04  0.13351602093E+04  0.25500000920E-02 0.  1.
    10030    2    1    2    0    0  0.00000000000E+00  0.00000000000E+00  0.31008412609E+02  0.27013288312E+04  0.27011508534E+04 0.  0.
        2    1    3    3  502    0 -0.56373430108E+03  0.47927240542E+03  0.11454262441E+04  0.13636347317E+04  0.25500000920E-02 0. -1.
       -2    1    3    3    0  502  0.56373430108E+03 -0.47927240542E+03 -0.11144178315E+04  0.13376940995E+04  0.25500000920E-02 0.  1.
</event>
<event>
 5   0  0.1965415E-07  0.2707733E+04  0.7818609E-02  0.8332500E-01
        1   -1    0    0  501    0  0.00000000000E+00  0.00000000000E+00  0.10883745505E+04  0.10883745505E+04  0.50400001928E-02 0.  1.
       -1   -1    0    0    0  501  0.00000000000E+00  0.00000000000E+00 -0.16841212016E+04  0.16841212016E+04  0.50400001928E-02 0. -1.
    10030    2    1    2    0    0  0.00000000000E+00  0.00000000000E+00 -0.59574665106E+03  0.27724957521E+04  0.27077331152E+04 0.  0.
        4    1    3    3  502    0 -0.58713056640E+03 -0.81088783253E+03  0.63534865474E+03  0.11857195726E+04  0.12699999809E+01 0. -1.
       -4    1    3    3    0  502  0.58713056640E+03  0.81088783253E+03 -0.12310953058E+04  0.15867761795E+04  0.12699999809E+01 0.  1.
</event>
<event>
 5   0  0.4992668E-07  0.2699679E+04  0.7818609E-02  0.8335109E-01
       -2   -1    0    0    0  501  0.00000000000E+00  0.00000000000E+00  0.96304115863E+03  0.96304115864E+03  0.25500000920E-02 0.  1.
        2   -1    0    0  501    0  0.00000000000E+00  0.00000000000E+00 -0.18919922422E+04  0.18919922422E+04  0.25500000920E-02 0. -1.
    10030    2    1    2    0    0  0.00000000000E+00  0.00000000000E+00 -0.92895108353E+03  0.28550334008E+04  0.26996787965E+04 0.  0.
        1    1    3    3  502    0 -0.10863011194E+04 -0.80112635912E+03 -0.47990395882E+03  0.14325366924E+04  0.50400001928E-02 0. -1.
       -1    1    3    3    0  502  0.10863011194E+04  0.80112635912E+03 -0.44904712470E+03  0.14224967084E+04  0.50400001928E-02 0.  1.
</event>
<event>
 5   0  0.4843887E-07  0.2699713E+04  0.7818609E-02  0.8335098E-01
       -2   -1    0    0    0  501  0.00000000000E+00  0.00000000000E+00  0.22851390764E+04  0.22851390764E+04  0.25500000920E-02 0.  1.
        2   -1    0    0  501    0  0.00000000000E+00  0.00000000000E+00 -0.79737476550E+03  0.79737476550E+03  0.25500000920E-02 0. -1.
    10030    2    1    2    0    0  0.00000000000E+00  0.00000000000E+00  0.14877643109E+04  0.30825138419E+04  0.26997127515E+04 0.  0.
        5    1    3    3  502    0 -0.18743686989E+03  0.70150465926E+03  0.20431449530E+04  0.21683414759E+04  0.46999998093E+01 0.  1.
       -5    1    3    3    0  502  0.18743686989E+03 -0.70150465926E+03 -0.55538064209E+03  0.91417236601E+03  0.46999998093E+01 0. -1.
</event>
<event>
 5   0  0.4843887E-07  0.2700475E+04  0.7818609E-02  0.8334851E-01
        2   -1    0    0  501    0  0.00000000000E+00  0.00000000000E+00  0.16181528637E+04  0.16181528637E+04  0.25500000920E-02 0.  1.
       -2   -1    0    0    0  501  0.00000000000E+00  0.00000000000E+00 -0.11266806497E+04  0.11266806497E+04  0.25500000920E-02 0. -1.
    10030    2    1    2    0    0  0.00000000000E+00  0.00000000000E+00  0.49147221393E+03  0.27448335134E+04  0.27004751580E+04 0.  0.
        5    1    3    3  502    0 -0.97054494450E+03  0.32129839138E+03  0.11422269982E+04  0.15329366429E+04  0.46999998093E+01 0.  1.
       -5    1    3    3    0  502  0.97054494450E+03 -0.32129839138E+03 -0.65075478426E+03  0.12118968705E+04  0.46999998093E+01 0. -1.
</event>
<event>
 5   0  0.4735120E-07  0.2700359E+04  0.7818609E-02  0.8334889E-01
        2   -1    0    0  501    0  0.00000000000E+00  0.00000000000E+00  0.72514833044E+03  0.72514833045E+03  0.25500000920E-02 0. -1.
       -2   -1    0    0    0  501  0.00000000000E+00  0.00000000000E+00 -0.25139467113E+04  0.25139467113E+04  0.25500000920E-02 0.  1.
    10030    2    1    2    0    0  0.00000000000E+00  0.00000000000E+00 -0.17887983809E+04  0.32390950418E+04  0.27003586877E+04 0.  0.
        2    1    3    3  502    0  0.30891813734E+03  0.53059947962E+03  0.54801202724E+03  0.82297229926E+03  0.25500000920E-02 0. -1.
       -2    1    3    3    0  502 -0.30891813734E+03 -0.53059947962E+03 -0.23368104081E+04  0.24161227425E+04  0.25500000920E-02 0.  1.
</event>
<event>
 5   0  0.1641625E-07  0.2698833E+04  0.7818609E-02  0.8335384E-01
        3   -1    0    0  501    0  0.00000000000E+00  0.00000000000E+00  0.17870958697E+04  0.17870958725E+04  0.10100000352E+00 0.  1.
       -3   -1    0    0    0  501  0.00000000000E+00  0.00000000000E+00 -0.10189297924E+04  0.10189297974E+04  0.10100000352E+00 0. -1.
    10030    2    1    2    0    0  0.00000000000E+00  0.00000000000E+00  0.76816607727E+03  0.28060256699E+04  0.26988332549E+04 0.  0.
        2    1    3    3  502    0  0.12076354227E+04 -0.42420291543E+03  0.82836492615E+03  0.15246376221E+04  0.25500000920E-02 0. -1.
       -2    1    3    3    0  502 -0.12076354227E+04  0.42420291543E+03 -0.60198848880E+02  0.12813880478E+04  0.25500000920E-02 0.  1.
</event>
<event>
 5   0  0.5043890E-07  0.2702735E+04  0.7818609E-02  0.8334118E-01
       -2   -1    0    0    0  501  0.00000000000E+00  0.00000000000E+00  0.17003580388E+04  0.17003580388E+04  0.25500000920E-02 0. -1.
        2   -1    0    0  501    0  0.00000000000E+00  0.00000000000E+00 -0.10740052623E+04  0.10740052623E+04  0.25500000920E-02 0.  1.
    10030    2    1    2    0    0  0.00000000000E+00  0.00000000000E+00  0.62635277645E+03  0.27743633011E+04  0.27027345274E+04 0.  0.
        3    1    3    3  502    0 -0.10148875403E+04  0.85916561165E+03  0.65895398388E+02  0.13313543786E+04  0.10100000352E+00 0.  1.
       -3    1    3    3    0  502  0.10148875403E+04 -0.85916561165E+03  0.56045737806E+03  0.14430089225E+04  0.10100000352E+00 0. -1.
</event>
<event>
 5   0  0.1937896E-07  0.2699985E+04  0.7818609E-02  0.8335010E-01
        1   -1    0    0  501    0  0.00000000000E+00  0.00000000000E+00  0.16491431451E+04  0.16491431451E+04  0.50400001928E-02 0.  1.
       -1   -1    0    0    0  501  0.00000000000E+00  0.00000000000E+00 -0.11051073356E+04  0.11051073356E+04  0.50400001928E-02 0. -1.
    10030    2    1    2    0    0  0.00000000000E+00  0.00000000000E+00  0.54403580951E+03  0.27542504807E+04  0.26999853237E+04 0.  0.
        3    1    3    3  502    0  0.93044843992E+03  0.48842083655E+01  0.12697981835E+04  0.15742126895E+04  0.10100000352E+00 0.  1.
       -3    1    3    3    0  502 -0.93044843992E+03 -0.48842083655E+01 -0.72576237400E+03  0.11800377912E+04  0.10100000352E+00 0. -1.
</event>
<event>
 5   0  0.4983208E-07  0.2700200E+04  0.7818609E-02  0.8334940E-01
        2   -1    0    0  501    0  0.00000000000E+00  0.00000000000E+00  0.19085876064E+04  0.19085876064E+04  0.25500000920E-02 0. -1.
       -2   -1    0    0    0  501  0.00000000000E+00  0.00000000000E+00 -0.95503598165E+03  0.95503598166E+03  0.25500000920E-02 0.  1.
    10030    2    1    2    0    0  0.00000000000E+00  0.00000000000E+00  0.95355162477E+03  0.28636235881E+04  0.27001998728E+04 0.  0.
        4    1    3    3  502    0  0.10934669213E+04  0.14650492266E+01  0.13165975144E+04  0.17114621475E+04  0.12699999809E+01 0. -1.
       -4    1    3    3    0  502 -0.10934669213E+04 -0.14650492266E+01 -0.36304588961E+03  0.11521614406E+04  0.12699999809E+01 0.  1.
</event>
<event>
 5   0  0.1964242E-07  0.2701240E+04  0.7818609E-02  0.8334603E-01
        1   -1    0    0  501    0  0.00000000000E+00  0.00000000000E+00  0.16245759326E+04  0.16245759326E+04  0.50400001928E-02 0.  1.
       -1   -1    0    0    0  501  0.00000000000E+00  0.00000000000E+00 -0.11228616003E+04  0.11228616003E+04  0.50400001928E-02 0. -1.
    10030    2    1    2    0    0  0.00000000000E+00  0.00000000000E+00  0.50171433229E+03  0.27474375328E+04  0.27012396646E+04 0.  0.
        2    1    3    3  502    0 -0.38633881627E+03 -0.28470691379E+03 -0.10332153555E+04  0.11392320565E+04  0.25500000920E-02 0. -1.
       -2    1    3    3    0  502  0.38633881627E+03  0.28470691379E+03  0.15349296878E+04  0.16082054763E+04  0.25500000920E-02 0.  1.
</event>
<event>
 5   0  0.1888149E-07  0.2700531E+04  0.7818609E-02  0.8334833E-01
        1   -1    0    0  501    0  0.00000000000E+00  0.00000000000E+00  0.19095922585E+04  0.19095922585E+04  0.50400001928E-02 0. -1.
       -1   -1    0    0    0  501  0.00000000000E+00  0.00000000000E+00 -0.95476785442E+03  0.95476785443E+03  0.50400001928E-02 0.  1.
    10030    2    1    2    0    0  0.00000000000E+00  0.00000000000E+00  0.95482440408E+03  0.28643601129E+04  0.27005312837E+04 0.  0.
        1    1    3    3  502    0 -0.36228826438E+03 -0.41177790553E+03  0.17861218011E+04  0.18684338143E+04  0.50400001928E-02 0. -1.
       -1    1    3    3    0  502  0.36228826438E+03  0.41177790553E+03 -0.83129739703E+03  0.99592629864E+03  0.50400001928E-02 0.  1.
</event>
<event>
 5   0  0.4843887E-07  0.2699063E+04  0.7818609E-02  0.8335309E-01
       -2   -1    0    0    0  501  0.00000000000E+00  0.00000000000E+00  0.93953130023E+03  0.93953130023E+03  0.25500000920E-02 0. -1.
        2   -1    0    0  501    0  0.00000000000E+00  0.00000000000E+00 -0.19384510825E+04  0.19384510825E+04  0.25500000920E-02 0.  1.
    10030    2    1    2    0    0  0.00000000000E+00  0.00000000000E+00 -0.99891978225E+03  0.28779823827E+04  0.26990631456E+04 0.  0.
        5    1    3    3  502    0 -0.41338233848E+03 -0.77503265024E+03  0.59298093547E+03  0.10598155719E+04  0.46999998093E+01 0. -1.
       -5    1    3    3    0  502  0.41338233848E+03  0.77503265024E+03 -0.15919007177E+04  0.18181668108E+04  0.46999998093E+01 0.  1.
</event>
<event>
 5   0  0.1971600E-07  0.2700362E+04  0.7818609E-02  0.8334888E-01
       -1   -1    0    0    0  501  0.00000000000E+00  0.00000000000E+00  0.11982212652E+04  0.11982212652E+04  0.50400001928E-02 0. -1.
        1   -1    0    0  501    0  0.00000000000E+00  0.00000000000E+00 -0.15214121282E+04  0.15214121282E+04  0.50400001928E-02 0.  1.
    10030    2    1    2    0    0  0.00000000000E+00  0.00000000000E+00 -0.32319086304E+03  0.27196333934E+04  0.27003617277E+04 0.  0.
        5    1    3    3  502    0 -0.11092087343E+04  0.59508568691E+03  0.33024963442E+03  0.13013677044E+04  0.46999998093E+01 0. -1.
       -5    1    3    3    0  502  0.11092087343E+04 -0.59508568691E+03 -0.65344049746E+03  0.14182656890E+04  0.46999998093E+01 0.  1.
</event>
<event>
 5   0  0.5043890E-07  0.2700687E+04  0.7818609E-02  0.8334782E-01
       -2   -1    0    0    0  501  0.00000000000E+00  0.00000000000E+00  0.79172395852E+03  0.79172395853E+03  0.25500000920E-02 0. -1.
        2   -1    0    0  501    0  0.00000000000E+00  0.00000000000E+00 -0.23031106586E+04  0.23031106586E+04  0.25500000920E-02 0.  1.
    10030    2    1    2    0    0  0.00000000000E+00  0.00000000000E+00 -0.15113867001E+04  0.30948346171E+04  0.27006872367E+04 0.  0.
        3    1    3    3  502    0  0.76976442670E+03  0.61422267652E+02  0.51372947036E+03  0.92748474192E+03  0.10100000352E+00 0. -1.
       -3    1    3    3    0  502 -0.76976442670E+03 -0.61422267652E+02 -0.20251161704E+04  0.21673498752E+04  0.10100000352E+00 0.  1.
</event>
<event>
 5   0  0.4992668E-07  0.2694716E+04  0.7818609E-02  0.8336722E-01
        2   -1    0    0  501    0  0.00000000000E+00  0.00000000000E+00  0.98655698551E+03  0.98655698551E+03  0.25500000920E-02 0.  1.
       -2   -1    0    0    0  501  0.00000000000E+00  0.00000000000E+00 -0.18401096849E+04  0.18401096849E+04  0.25500000920E-02 0. -1.
    10030    2    1    2    0    0  0.00000000000E+00  0.00000000000E+00 -0.85355269943E+03  0.28266666704E+04  0.26947156167E+04 0.  0.
        1    1    3    3  502    0 -0.20932798143E+03  0.10016454404E+04 -0.13462009703E+04  0.16909668373E+04  0.50400001928E-02 0. -1.
       -1    1    3    3    0  502  0.20932798143E+03 -0.10016454404E+04  0.49264827092E+03  0.11356998332E+04  0.50400001928E-02 0.  1.
</event>
<event>
 5   0  0.1964242E-07  0.2701142E+04  0.7818609E-02  0.8334634E-01
       -1   -1    0    0    0  501  0.00000000000E+00  0.00000000000E+00  0.18026937013E+04  0.18026937013E+04  0.50400001928E-02 0. -1.
        1   -1    0    0  501    0  0.00000000000E+00  0.00000000000E+00 -0.10118427541E+04  0.10118427541E+04  0.50400001928E-02 0.  1.
    10030    2    1    2    0    0  0.00000000000E+00  0.00000000000E+00  0.79085094715E+03  0.28145364554E+04  0.27011423951E+04 0.  0.
        2    1    3    3  502    0  0.33649682970E+02 -0.57057839831E+02  0.18010000270E+04  0.18022177992E+04  0.25500000920E-02 0. -1.
       -2    1    3    3    0  502 -0.33649682970E+02  0.57057839831E+02 -0.10101490799E+04  0.10123186563E+04  0.25500000920E-02 0.  1.
</event>
<event>
 5   0  0.1964242E-07  0.2702906E+04  0.7818609E-02  0.8334063E-01
        1   -1    0    0  501    0  0.00000000000E+00  0.00000000000E+00  0.11473946817E+04  0.11473946817E+04  0.50400001928E-02 0.  1.
       -1   -1    0    0    0  501  0.00000000000E+00  0.00000000000E+00 -0.15918017224E+04  0.15918017224E+04  0.50400001928E-02 0. -1.
    10030    2    1    2    0    0  0.00000000000E+00  0.00000000000E+00 -0.44440704077E+03  0.27391964041E+04  0.27029057184E+04 0.  0.
        2    1    3    3  502    0  0.83863046199E+03 -0.95676222783E+03 -0.68409685626E+03  0.14445357459E+04  0.25500000920E-02 0. -1.
       -2    1    3    3    0  502 -0.83863046199E+03  0.95676222783E+03  0.23968981549E+03  0.12946606583E+04  0.25500000920E-02 0.  1.
</event>
<event>
 5   0  0.5043890E-07  0.2699966E+04  0.7818609E-02  0.8335016E-01
        2   -1    0    0  501    0  0.00000000000E+00  0.00000000000E+00  0.15776630572E+04  0.15776630572E+04  0.25500000920E-02 0.  1.
       -2   -1    0    0    0  501  0.00000000000E+00  0.00000000000E+00 -0.11551603560E+04  0.11551603560E+04  0.25500000920E-02 0. -1.
    10030    2    1    2    0    0  0.00000000000E+00  0.00000000000E+00  0.42250270119E+03  0.27328234131E+04  0.26999657914E+04 0.  0.
        3    1    3    3  502    0  0.13614726770E+03  0.46710979211E+03 -0.10633295466E+04  0.11693576747E+04  0.10100000352E+00 0. -1.
       -3    1    3    3    0  502 -0.13614726770E+03 -0.46710979211E+03  0.14858322478E+04  0.15634657384E+04  0.10100000352E+00 0.  1.
</event>
<event>
 5   0  0.4843887E-07  0.2698930E+04  0.7818609E-02  0.8335352E-01
       -2   -1    0    0    0  501  0.00000000000E+00  0.00000000000E+00  0.97344546700E+03  0.97344546701E+03  0.25500000920E-02 0. -1.
        2   -1    0    0  501    0  0.00000000000E+00  0.00000000000E+00 -0.18707321714E+04  0.18707321714E+04  0.25500000920E-02 0.  1.
    10030    2    1    2    0    0  0.00000000000E+00  0.00000000000E+00 -0.89728670439E+03  0.28441776384E+04  0.26989299748E+04 0.  0.
        5    1    3    3  502    0 -0.62284688310E+03  0.11449493245E+04 -0.81700690600E+03  0.15383008711E+04  0.46999998093E+01 0. -1.
       -5    1    3    3    0  502  0.62284688310E+03 -0.11449493245E+04 -0.80279798394E+02  0.13058767673E+04  0.46999998093E+01 0.  1.
</event>
<event>
 5   0  0.1965415E-07  0.2701981E+04  0.7818609E-02  0.8334363E-01
       -1   -1    0    0    0  501  0.00000000000E+00  0.00000000000E+00  0.14924345133E+04  0.14924345133E+04  0.50400001928E-02 0. -1.
        1   -1    0    0  501    0  0.00000000000E+00  0.00000000000E+00 -0.12229515414E+04  0.12229515414E+04  0.50400001928E-02 0.  1.
    10030    2    1    2    0    0  0.00000000000E+00  0.00000000000E+00  0.26948297190E+03  0.27153860547E+04  0.27019808204E+04 0.  0.
        4    1    3    3  502    0  0.29563178170E+03 -0.68816241802E+03  0.12646897418E+04  0.14698324462E+04  0.12699999809E+01 0. -1.
       -4    1    3    3    0  502 -0.29563178170E+03  0.68816241802E+03 -0.99520676992E+03  0.12455536085E+04  0.12699999809E+01 0.  1.
</event>
<event>
 5   0  0.1965415E-07  0.2699104E+04  0.7818609E-02  0.8335296E-01
       -1   -1    0    0    0  501  0.00000000000E+00  0.00000000000E+00  0.19028934007E+04  0.19028934007E+04  0.50400001928E-02 0. -1.
        1   -1    0    0  501    0  0.00000000000E+00  0.00000000000E+00 -0.95711636084E+03  0.95711636085E+03  0.50400001928E-02 0.  1.
    10030    2    1    2    0    0  0.00000000000E+00  0.00000000000E+00  0.94577703984E+03  0.28600097615E+04  0.26991038563E+04 0.  0.
        4    1    3    3  502    0  0.32272966319E+03  0.20229975367E+03  0.18447555712E+04  0.18836677935E+04  0.12699999809E+01 0. -1.
       -4    1    3    3    0  502 -0.32272966319E+03 -0.20229975367E+03 -0.89897853136E+03  0.97634196805E+03  0.12699999809E+01 0.  1.
</event>
<event>
 5   0  0.1888149E-07  0.2702576E+04  0.7818609E-02  0.8334170E-01
       -1   -1    0    0    0  501  0.00000000000E+00  0.00000000000E+00  0.62020622474E+03  0.62020622476E+03  0.50400001928E-02 0.  1.
        1   -1    0    0  501    0  0.00000000000E+00  0.00000000000E+00 -0.29441483214E+04  0.29441483214E+04  0.50400001928E-02 0. -1.
    10030    2    1    2    0    0  0.00000000000E+00  0.00000000000E+00 -0.23239420966E+04  0.35643545461E+04  0.27025758939E+04 0.  0.
        1    1    3    3  502    0 -0.23347574446E+03 -0.88484552413E+03 -0.24732496659E+04  0.26371246528E+04  0.50400001928E-02 0. -1.
       -1    1    3    3    0  502  0.23347574446E+03  0.88484552413E+03  0.14930756922E+03  0.92722989332E+03  0.50400001928E-02 0.  1.
</event>
<event>
 5   0  0.1888149E-07  0.2696983E+04  0.7818609E-02  0.8335984E-01
        1   -1    0    0  501    0  0.00000000000E+00  0.00000000000E+00  0.14329264932E+04  0.14329264932E+04  0.50400001928E-02 0. -1.
       -1   -1    0    0    0  501  0.00000000000E+00  0.00000000000E+00 -0.12690321570E+04  0.12690321570E+04  0.50400001928E-02 0.  1.
    10030    2    1    2    0    0  0.00000000000E+00  0.00000000000E+00  0.16389433625E+03  0.27019586502E+04  0.26969833507E+04 0.  0.
        1    1    3    3  502    0  0.87908211974E+03  0.10017344706E+04 -0.12379105340E+03  0.13384997377E+04  0.50400001928E-02 0. -1.
       -1    1    3    3    0  502 -0.87908211974E+03 -0.10017344706E+04  0.28768538964E+03  0.13634589126E+04  0.50400001928E-02 0.  1.
</event>
<event>
 5   0  0.1964242E-07  0.2699834E+04  0.7818609E-02  0.8335059E-01
        1   -1    0    0  501    0  0.00000000000E+00  0.00000000000E+00  0.11502183770E+04  0.11502183770E+04  0.50400001928E-02 0.  1.
       -1   -1    0    0    0  501  0.00000000000E+00  0.00000000000E+00 -0.15842865820E+04  0.15842865820E+04  0.50400001928E-02 0. -1.
    10030    2    1    2    0    0  0.00000000000E+00  0.00000000000E+00 -0.43406820500E+03  0.27345049590E+04  0.26998337290E+04 0.  0.
        2    1    3    3  502    0 -0.43842638865E+03  0.21446454657E+03 -0.14917925375E+04  0.15696043180E+04  0.25500000920E-02 0. -1.
       -2    1    3    3    0  502  0.43842638865E+03 -0.21446454657E+03  0.10577243325E+04  0.11649006411E+04  0.25500000920E-02 0.  1.
</event>
<event>
 5   0  0.1971600E-07  0.2697665E+04  0.7818609E-02  0.8335763E-01
        1   -1    0    0  501    0  0.00000000000E+00  0.00000000000E+00  0.11868887814E+04  0.11868887814E+04  0.50400001928E-02 0. -1.
       -1   -1    0    0    0  501  0.00000000000E+00  0.00000000000E+00 -0.15328727055E+04  0.15328727055E+04  0.50400001928E-02 0.  1.
    10030    2    1    2    0    0  0.00000000000E+00  0.00000000000E+00 -0.34598392406E+03  0.27197614869E+04  0.26976652257E+04 0.  0.
        5    1    3    3  502    0  0.29224256203E+03 -0.12716358335E+04 -0.51764569743E+03  0.14037245336E+04  0.46999998093E+01 0. -1.
       -5    1    3    3    0  502 -0.29224256203E+03  0.12716358335E+04  0.17166177337E+03  0.13160369533E+04  0.46999998093E+01 0.  1.
</event>
<event>
 5   0  0.1964242E-07  0.2700131E+04  0.7818609E-02  0.8334962E-01
       -1   -1    0    0    0  501  0.00000000000E+00  0.00000000000E+00  0.22491160932E+04  0.22491160932E+04  0.50400001928E-02 0.  1.
        1   -1    0    0  501    0  0.00000000000E+00  0.00000000000E+00 -0.81039724026E+03  0.81039724028E+03  0.50400001928E-02 0. -1.
    10030    2    1    2    0    0  0.00000000000E+00  0.00000000000E+00  0.14387188530E+04  0.30595133335E+04  0.27001314598E+04 0.  0.
        2    1    3    3  502    0  0.88496188182E+03  0.67003276621E+03 -0.15141436890E+03  0.11202802110E+04  0.25500000920E-02 0. -1.
       -2    1    3    3    0  502 -0.88496188182E+03 -0.67003276621E+03  0.15901332219E+04  0.19392331225E+04  0.25500000920E-02 0.  1.
</event>
<event>
 5   0  0.4992668E-07  0.2700122E+04  0.7818609E-02  0.8334966E-01
       -2   -1    0    0    0  501  0.00000000000E+00  0.00000000000E+00  0.14198370184E+04  0.14198370184E+04  0.25500000920E-02 0. -1.
        2   -1    0    0  501    0  0.00000000000E+00  0.00000000000E+00 -0.12837135871E+04  0.12837135871E+04  0.25500000920E-02 0.  1.
    10030    2    1    2    0    0  0.00000000000E+00  0.00000000000E+00  0.13612343125E+03  0.27035506055E+04  0.27001215321E+04 0.  0.
        1    1    3    3  502    0 -0.46628144640E+03 -0.23149356978E+03  0.13152986734E+04  0.14145735259E+04  0.50400001928E-02 0. -1.
       -1    1    3    3    0  502  0.46628144640E+03  0.23149356978E+03 -0.11791752421E+04  0.12889770796E+04  0.50400001928E-02 0.  1.
</event>
<event>
 5   0  0.4992668E-07  0.2698897E+04  0.7818609E-02  0.8335363E-01
        2   -1    0    0  501    0  0.00000000000E+00  0.00000000000E+00  0.17605133921E+04  0.17605133921E+04  0.25500000920E-02 0. -1.
       -2   -1    0    0    0  501  0.00000000000E+00  0.00000000000E+00 -0.10343635941E+04  0.10343635941E+04  0.25500000920E-02 0.  1.
    10030    2    1    2    0    0  0.00000000000E+00  0.00000000000E+00  0.72614979796E+03  0.27948769862E+04  0.26988967819E+04 0.  0.
        1    1    3    3  502    0 -0.11619928129E+04  0.30453592620E+03 -0.27364171116E+03  0.12320102327E+04  0.50400001928E-02 0.  1.
       -1    1    3    3    0  502  0.11619928129E+04 -0.30453592620E+03  0.99979150912E+03  0.15628667535E+04  0.50400001928E-02 0. -1.
</event>
<event>
 5   0  0.4735120E-07  0.2700842E+04  0.7818609E-02  0.8334732E-01
        2   -1    0    0  501    0  0.00000000000E+00  0.00000000000E+00  0.12744354324E+04  0.12744354324E+04  0.25500000920E-02 0.  1.
       -2   -1    0    0    0  501  0.00000000000E+00  0.00000000000E+00 -0.14309370239E+04  0.14309370239E+04  0.25500000920E-02 0. -1.
    10030    2    1    2    0    0  0.00000000000E+00  0.00000000000E+00 -0.15650159147E+03  0.27053724563E+04  0.27008419760E+04 0.  0.
        2    1    3    3  502    0  0.95811763051E+03 -0.87163566334E+03  0.30435683925E+03  0.13305529712E+04  0.25500000920E-02 0.  1.
       -2    1    3    3    0  502 -0.95811763051E+03  0.87163566334E+03 -0.46085843072E+03  0.13748194851E+04  0.25500000920E-02 0. -1.
</event>
<event>
 5   0  0.1965415E-07  0.2699952E+04  0.7818609E-02  0.8335021E-01
        1   -1    0    0  501    0  0.00000000000E+00  0.00000000000E+00  0.13816946816E+04  0.13816946816E+04  0.50400001928E-02 0. -1.
       -1   -1    0    0    0  501  0.00000000000E+00  0.00000000000E+00 -0.13189850209E+04  0.13189850210E+04  0.50400001928E-02 0.  1.
    10030    2    1    2    0    0  0.00000000000E+00  0.00000000000E+00  0.62709660623E+02  0.27006797025E+04  0.26999515466E+04 0.  0.
        4    1    3    3  502    0  0.31875561179E+03 -0.70859200428E+03  0.11356114387E+04  0.13759806398E+04  0.12699999809E+01 0. -1.
       -4    1    3    3    0  502 -0.31875561179E+03  0.70859200428E+03 -0.10729017780E+04  0.13246990627E+04  0.12699999809E+01 0.  1.
</event>
<event>
 5   0  0.1965415E-07  0.2700575E+04  0.7818609E-02  0.8334818E-01
        1   -1    0    0  501    0  0.00000000000E+00  0.00000000000E+00  0.14414484072E+04  0.14414484072E+04  0.50400001928E-02 0.  1.
       -1   -1    0    0    0  501  0.00000000000E+00  0.00000000000E+00 -0.12648921160E+04  0.12648921160E+04  0.50400001928E-02 0. -1.
    10030    2    1    2    0    0  0.00000000000E+00  0.00000000000E+00  0.17655629114E+03  0.27063405232E+04  0.27005752912E+04 0.  0.
        4    1    3    3  502    0 -0.10346017779E+04 -0.82465085485E+03  0.35871577372E+03  0.13708130764E+04  0.12699999809E+01 0. -1.
       -4    1    3    3    0  502  0.10346017779E+04  0.82465085485E+03 -0.18215948258E+03  0.13355274468E+04  0.12699999809E+01 0.  1.
</event>
<event>
 5   0  0.1888149E-07  0.2701854E+04  0.7818609E-02  0.8334404E-01
       -1   -1    0    0    0  501  0.00000000000E+00  0.00000000000E+00  0.99870992368E+03  0.99870992369E+03  0.50400001928E-02 0. -1.
        1   -1    0    0  501    0  0.00000000000E+00  0.00000000000E+00 -0.18273617188E+04  0.18273617188E+04  0.50400001928E-02 0.  1.
    10030    2    1    2    0    0  0.00000000000E+00  0.00000000000E+00 -0.82865179514E+03  0.28260716425E+04  0.27018543875E+04 0.  0.
        1    1    3    3  502    0 -0.29756065776E+03 -0.28533266811E+03 -0.17599582507E+04  0.18075978869E+04  0.50400001928E-02 0.  1.
       -1    1    3    3    0  502  0.29756065776E+03  0.28533266811E+03  0.93130645559E+03  0.10184737556E+04  0.50400001928E-02 0. -1.
</event>
<event>
 5   0  0.1964242E-07  0.2699329E+04  0.7818609E-02  0.8335223E-01
        1   -1    0    0  501    0  0.00000000000E+00  0.00000000000E+00  0.16644214073E+04  0.16644214073E+04  0.50400001928E-02 0.  1.
       -1   -1    0    0    0  501  0.00000000000E+00  0.00000000000E+00 -0.10944311124E+04  0.10944311124E+04  0.50400001928E-02 0. -1.
    10030    2    1    2    0    0  0.00000000000E+00  0.00000000000E+00  0.56999029494E+03  0.27588525197E+04  0.26993292295E+04 0.  0.
        2    1    3    3  502    0  0.16887302951E+03 -0.11923137883E+04  0.90791356230E+03  0.15081237703E+04  0.25500000920E-02 0.  1.
       -2    1    3    3    0  502 -0.16887302951E+03  0.11923137883E+04 -0.33792326736E+03  0.12507287494E+04  0.25500000920E-02 0. -1.
</event>
<event>
 5   0  0.1964242E-07  0.2698731E+04  0.7818609E-02  0.8335417E-01
        1   -1    0    0  501    0  0.00000000000E+00  0.00000000000E+00  0.14108332966E+04  0.14108332966E+04  0.50400001928E-02 0. -1.
       -1   -1    0    0    0  501  0.00000000000E+00  0.00000000000E+00 -0.12905755563E+04  0.12905755563E+04  0.50400001928E-02 0.  1.
    10030    2    1    2    0    0  0.00000000000E+00  0.00000000000E+00  0.12025774028E+03  0.27014088529E+04  0.26987307881E+04 0.  0.
        2    1    3    3  502    0 -0.12477549781E+04  0.25805686929E+03  0.50475557691E+03  0.13704977291E+04  0.25500000920E-02 0. -1.
       -2    1    3    3    0  502  0.12477549781E+04 -0.25805686929E+03 -0.38449783663E+03  0.13309111238E+04  0.25500000920E-02 0.  1.
</event>
<event>
 5   0  0.5043890E-07  0.2698469E+04  0.7818609E-02  0.8335502E-01
        2   -1    0    0  501    0  0.00000000000E+00  0.00000000000E+00  0.14022961099E+04  0.14022961099E+04  0.25500000920E-02 0. -1.
       -2   -1    0    0    0  501  0.00000000000E+00  0.00000000000E+00 -0.12981810809E+04  0.12981810809E+04  0.25500000920E-02 0.  1.
    10030    2    1    2    0    0  0.00000000000E+00  0.00000000000E+00  0.10411502904E+03  0.27004771908E+04  0.26984694029E+04 0.  0.
        3    1    3    3  502    0  0.87582290577E+03 -0.71103438408E+03 -0.68862736504E+03  0.13216820025E+04  0.10100000352E+00 0.  1.
       -3    1    3    3    0  502 -0.87582290577E+03  0.71103438408E+03  0.79274239408E+03  0.13787951883E+04  0.10100000352E+00 0. -1.
</event>
<event>
 5   0  0.4992668E-07  0.2699278E+04  0.7818609E-02  0.8335239E-01
       -2   -1    0    0    0  501  0.00000000000E+00  0.00000000000E+00  0.78986996596E+03  0.78986996596E+03  0.25500000920E-02 0. -1.
        2   -1    0    0  501    0  0.00000000000E+00  0.00000000000E+00 -0.23061080766E+04  0.23061080766E+04  0.25500000920E-02 0.  1.
    10030    2    1    2    0    0  0.00000000000E+00  0.00000000000E+00 -0.15162381107E+04  0.30959780426E+04  0.26992780575E+04 0.  0.
        1    1    3    3  502    0 -0.55058306851E+03  0.13062839846E+03  0.64723866786E+03  0.85972285477E+03  0.50400001928E-02 0. -1.
       -1    1    3    3    0  502  0.55058306851E+03 -0.13062839846E+03 -0.21634767785E+04  0.22362551878E+04  0.50400001928E-02 0.  1.
</event>
<event>
 5   0  0.5043890E-07  0.2699557E+04  0.7818609E-02  0.8335149E-01
        2   -1    0    0  501    0  0.00000000000E+00  0.00000000000E+00  0.23005414822E+04  0.23005414822E+04  0.25500000920E-02 0.  1.
       -2   -1    0    0    0  501  0.00000000000E+00  0.00000000000E+00 -0.79194459454E+03  0.79194459454E+03  0.25500000920E-02 0. -1.
    10030    2    1    2    0    0  0.00000000000E+00  0.00000000000E+00  0.15085968877E+04  0.30924860768E+04  0.26995565498E+04 0.  0.
        3    1    3    3  502    0 -0.49010920872E+03  0.11036035560E+04  0.63392489772E+02  0.12092007539E+04  0.10100000352E+00 0. -1.
       -3    1    3    3    0  502  0.49010920872E+03 -0.11036035560E+04  0.14452043979E+04  0.18832853228E+04  0.10100000352E+00 0.  1.
</event>
<event>
 5   0  0.1888149E-07  0.2701741E+04  0.7818609E-02  0.8334440E-01
       -1   -1    0    0    0  501  0.00000000000E+00  0.00000000000E+00  0.61853151935E+03  0.61853151937E+03  0.50400001928E-02 0. -1.
        1   -1    0    0  501    0  0.00000000000E+00  0.00000000000E+00 -0.29502953548E+04  0.29502953548E+04  0.50400001928E-02 0.  1.
    10030    2    1    2    0    0  0.00000000000E+00  0.00000000000E+00 -0.23317638354E+04  0.35688268742E+04  0.27017406747E+04 0.  0.
        1    1    3    3  502    0 -0.10148907112E+04 -0.70563075291E+03 -0.44608352591E+03  0.13141188787E+04  0.50400001928E-02 0. -1.
       -1    1    3    3    0  502  0.10148907112E+04  0.70563075291E+03 -0.18856803095E+04  0.22547079955E+04  0.50400001928E-02 0.  1.
</event>
<event>
 5   0  0.4735120E-07  0.2696179E+04  0.7818609E-02  0.8336246E-01
        2   -1    0    0  501    0  0.00000000000E+00  0.00000000000E+00  0.15948843020E+04  0.15948843021E+04  0.25500000920E-02 0.  1.
       -2   -1    0    0    0  501  0.00000000000E+00  0.00000000000E+00 -0.11394836907E+04  0.11394836907E+04  0.25500000920E-02 0. -1.
    10030    2    1    2    0    0  0.00000000000E+00  0.00000000000E+00  0.45540061139E+03  0.27343679927E+04  0.26961785183E+04 0.  0.
        2    1    3    3  502    0  0.53823013676E+03  0.11499978869E+04  0.68705945055E+03  0.14436888545E+04  0.25500000920E-02 0.  1.
       -2    1    3    3    0  502 -0.53823013676E+03 -0.11499978869E+04 -0.23165883917E+03  0.12906791382E+04  0.25500000920E-02 0. -1.
</event>
<event>
 5   0  0.4735120E-07  0.2699942E+04  0.7818609E-02  0.8335024E-01
        2   -1    0    0  501    0  0.00000000000E+00  0.00000000000E+00  0.18415936462E+04  0.18415936462E+04  0.25500000920E-02 0. -1.
       -2   -1    0    0    0  501  0.00000000000E+00  0.00000000000E+00 -0.98958924519E+03  0.98958924519E+03  0.25500000920E-02 0.  1.
    10030    2    1    2    0    0  0.00000000000E+00  0.00000000000E+00  0.85200440102E+03  0.28311828914E+04  0.26999416781E+04 0.  0.
        2    1    3    3  502    0 -0.47536829799E+03 -0.91139785983E+03  0.13436399618E+04  0.16917415360E+04  0.25500000920E-02 0. -1.
       -2    1    3    3    0  502  0.47536829799E+03  0.91139785983E+03 -0.49163556083E+03  0.11394413554E+04  0.25500000920E-02 0.  1.
</event>
<event>
 5   0  0.1888149E-07  0.2698608E+04  0.7818609E-02  0.8335457E-01
       -1   -1    0    0    0  501  0.00000000000E+00  0.00000000000E+00  0.77046251309E+03  0.77046251311E+03  0.50400001928E-02 0.  1.
        1   -1    0    0  501    0  0.00000000000E+00  0.00000000000E+00 -0.23630229951E+04  0.23630229951E+04  0.50400001928E-02 0. -1.
    10030    2    1    2    0    0  0.00000000000E+00  0.00000000000E+00 -0.15925604820E+04  0.31334855082E+04  0.26986075190E+04 0.  0.
        1    1    3    3  502    0  0.40003978080E+02  0.11499918893E+03  0.76407055947E+03  0.77371115515E+03  0.50400001928E-02 0.  1.
       -1    1    3    3    0  502 -0.40003978080E+02 -0.11499918893E+03 -0.23566310415E+04  0.23597743531E+04  0.50400001928E-02 0. -1.
</event>
<event>
 5   0  0.1965415E-07  0.2698997E+04  0.7818609E-02  0.8335330E-01
        1   -1    0    0  501    0  0.00000000000E+00  0.00000000000E+00  0.14029941078E+04  0.14029941078E+04  0.50400001928E-02 0. -1.
       -1   -1    0    0    0  501  0.00000000000E+00  0.00000000000E+00 -0.12980431316E+04  0.12980431316E+04  0.50400001928E-02 0.  1.
    10030    2    1    2    0    0  0.00000000000E+00  0.00000000000E+00  0.10495097624E+03  0.27010372394E+04  0.26989974919E+04 0.  0.
        4    1    3    3  502    0  0.94998615106E+03  0.83117165230E+03 -0.42519566892E+03  0.13319583224E+04  0.12699999809E+01 0.  1.
       -4    1    3    3    0  502 -0.94998615106E+03 -0.83117165230E+03  0.53014664516E+03  0.13690789170E+04  0.12699999809E+01 0. -1.
</event>
<event>
 5   0  0.1971600E-07  0.2699754E+04  0.7818609E-02  0.8335085E-01
        1   -1    0    0  501    0  0.00000000000E+00  0.00000000000E+00  0.12303867090E+04  0.12303867091E+04  0.50400001928E-02 0.  1.
       -1   -1    0    0    0  501  0.00000000000E+00  0.00000000000E+00 -0.14809719731E+04  0.14809719732E+04  0.50400001928E-02 0. -1.
    10030    2    1    2    0    0  0.00000000000E+00  0.00000000000E+00 -0.25058526411E+03  0.27113586822E+04  0.26997542349E+04 0.  0.
        5    1    3    3  502    0 -0.70839281791E+03 -0.75099669250E+03  0.74811770447E+03  0.12749582763E+04  0.46999998093E+01 0.  1.
       -5    1    3    3    0  502  0.70839281791E+03  0.75099669250E+03 -0.99870296858E+03  0.14364004059E+04  0.46999998093E+01 0. -1.
</event>
<event>
 5   0  0.4983208E-07  0.2700306E+04  0.7818609E-02  0.8334906E-01
       -2   -1    0    0    0  501  0.00000000000E+00  0.00000000000E+00  0.13398886405E+04  0.13398886405E+04  0.25500000920E-02 0. -1.
        2   -1    0    0  501    0  0.00000000000E+00  0.00000000000E+00 -0.13604960772E+04  0.13604960772E+04  0.25500000920E-02 0.  1.
    10030    2    1    2    0    0  0.00000000000E+00  0.00000000000E+00 -0.20607436683E+02  0.27003847177E+04  0.27003060859E+04 0.  0.
        4    1    3    3  502    0  0.12667493665E+04  0.18425966782E+03  0.41901758065E+03  0.13469160807E+04  0.12699999809E+01 0. -1.
       -4    1    3    3    0  502 -0.12667493665E+04 -0.18425966782E+03 -0.43962501734E+03  0.13534686370E+04  0.12699999809E+01 0.  1.
</event>
<event>
 5   0  0.1971600E-07  0.2685359E+04  0.7818609E-02  0.8339771E-01
        1   -1    0    0  501    0  0.00000000000E+00  0.00000000000E+00  0.21775387404E+04  0.21775387404E+04  0.50400001928E-02 0.  1.
       -1   -1    0    0    0  501  0.00000000000E+00  0.00000000000E+00 -0.82790190287E+03  0.82790190289E+03  0.50400001928E-02 0. -1.
    10030    2    1    2    0    0  0.00000000000E+00  0.00000000000E+00  0.13496368375E+04  0.30054406433E+04  0.26853591691E+04 0.  0.
        5    1    3    3  502    0 -0.72810889994E+02 -0.86544347875E+03 -0.47118075229E+03  0.98809272436E+03  0.46999998093E+01 0. -1.
       -5    1    3    3    0  502  0.72810889994E+02  0.86544347875E+03  0.18208175898E+04  0.20173479189E+04  0.46999998093E+01 0.  1.
</event>
<event>
 5   0  0.4992668E-07  0.2699369E+04  0.7818609E-02  0.8335210E-01
       -2   -1    0    0    0  501  0.00000000000E+00  0.00000000000E+00  0.11908057027E+04  0.11908057027E+04  0.25500000920E-02 0.  1.
        2   -1    0    0  501    0  0.00000000000E+00  0.00000000000E+00 -0.15297606509E+04  0.15297606509E+04  0.25500000920E-02 0. -1.
    10030    2    1    2    0    0  0.00000000000E+00  0.00000000000E+00 -0.33895494816E+03  0.27205663536E+04  0.26993685979E+04 0.  0.
        1    1    3    3  502    0  0.66119812594E+03  0.56599424362E+03 -0.12091377900E+04  0.14898142974E+04  0.50400001928E-02 0. -1.
       -1    1    3    3    0  502 -0.66119812594E+03 -0.56599424362E+03  0.87018284184E+03  0.12307520562E+04  0.50400001928E-02 0.  1.
</event>
<event>
 5   0  0.1971600E-07  0.2699829E+04  0.7818609E-02  0.8335060E-01
       -1   -1    0    0    0  501  0.00000000000E+00  0.00000000000E+00  0.76848880294E+03  0.76848880296E+03  0.50400001928E-02 0. -1.
        1   -1    0    0  501    0  0.00000000000E+00  0.00000000000E+00 -0.23712379530E+04  0.23712379530E+04  0.50400001928E-02 0.  1.
    10030    2    1    2    0    0  0.00000000000E+00  0.00000000000E+00 -0.16027491501E+04  0.31397267560E+04  0.26998294880E+04 0.  0.
        5    1    3    3  502    0  0.13227175196E+04 -0.24148944989E+03 -0.94067914056E+03  0.16409747489E+04  0.46999998093E+01 0.  1.
       -5    1    3    3    0  502 -0.13227175196E+04  0.24148944989E+03 -0.66207000949E+03  0.14987520070E+04  0.46999998093E+01 0. -1.
</event>
<event>
 5   0  0.1937896E-07  0.2700272E+04  0.7818609E-02  0.8334917E-01
        1   -1    0    0  501    0  0.00000000000E+00  0.00000000000E+00  0.14958270014E+04  0.14958270014E+04  0.50400001928E-02 0. -1.
       -1   -1    0    0    0  501  0.00000000000E+00  0.00000000000E+00 -0.12186346730E+04  0.12186346730E+04  0.50400001928E-02 0.  1.
    10030    2    1    2    0    0  0.00000000000E+00  0.00000000000E+00  0.27719232841E+03  0.27144616744E+04  0.27002715779E+04 0.  0.
        3    1    3    3  502    0 -0.12105624463E+04  0.58971439431E+03  0.39885772198E+02  0.13471508410E+04  0.10100000352E+00 0. -1.
       -3    1    3    3    0  502  0.12105624463E+04 -0.58971439431E+03  0.23730655622E+03  0.13673108334E+04  0.10100000352E+00 0.  1.
</event>
<event>
 5   0  0.1937896E-07  0.2697901E+04  0.7818609E-02  0.8335686E-01
        1   -1    0    0  501    0  0.00000000000E+00  0.00000000000E+00  0.18200232113E+04  0.18200232113E+04  0.50400001928E-02 0.  1.
       -1   -1    0    0    0  501  0.00000000000E+00  0.00000000000E+00 -0.99980465891E+03  0.99980465892E+03  0.50400001928E-02 0. -1.
    10030    2    1    2    0    0  0.00000000000E+00  0.00000000000E+00  0.82021855237E+03  0.28198278702E+04  0.26979011739E+04 0.  0.
        3    1    3    3  502    0 -0.42828048691E+03 -0.42355282532E+02  0.17463426635E+04  0.17985913527E+04  0.10100000352E+00 0.  1.
       -3    1    3    3    0  502  0.42828048691E+03  0.42355282532E+02 -0.92612411110E+03  0.10212365176E+04  0.10100000352E+00 0. -1.
</event>
<event>
 5   0  0.1641625E-07  0.2699756E+04  0.7818609E-02  0.8335084E-01
        3   -1    0    0  501    0  0.00000000000E+00  0.00000000000E+00  0.17557072937E+04  0.17557072966E+04  0.10100000352E+00 0.  1.
       -3   -1    0    0    0  501  0.00000000000E+00  0.00000000000E+00 -0.10378553212E+04  0.10378553261E+04  0.10100000352E+00 0. -1.
    10030    2    1    2    0    0  0.00000000000E+00  0.00000000000E+00  0.71785197254E+03  0.27935626227E+04  0.26997556690E+04 0.  0.
        2    1    3    3  502    0  0.70866624009E+02  0.14022600420E+03 -0.10283617837E+04  0.10402948470E+04  0.25500000920E-02 0. -1.
       -2    1    3    3    0  502 -0.70866624009E+02 -0.14022600420E+03  0.17462137562E+04  0.17532677756E+04  0.25500000920E-02 0.  1.
</event>
<event>
 5   0  0.4983208E-07  0.2698690E+04  0.7818609E-02  0.8335430E-01
        2   -1    0    0  501    0  0.00000000000E+00  0.00000000000E+00  0.19895277499E+04  0.19895277499E+04  0.25500000920E-02 0. -1.
       -2   -1    0    0    0  501  0.00000000000E+00  0.00000000000E+00 -0.91515775075E+03  0.91515775076E+03  0.25500000920E-02 0.  1.
    10030    2    1    2    0    0  0.00000000000E+00  0.00000000000E+00  0.10743699992E+04  0.29046855007E+04  0.26986898604E+04 0.  0.
        4    1    3    3  502    0  0.21979460521E+03  0.54692316276E+02  0.19689203092E+04  0.19819055767E+04  0.12699999809E+01 0. -1.
       -4    1    3    3    0  502 -0.21979460521E+03 -0.54692316276E+02 -0.89455031007E+03  0.92277992397E+03  0.12699999809E+01 0.  1.
</event>
<event>
 5   0  0.5043890E-07  0.2698761E+04  0.7818609E-02  0.8335407E-01
        2   -1    0    0  501    0  0.00000000000E+00  0.00000000000E+00  0.16955453364E+04  0.16955453364E+04  0.25500000920E-02 0.  1.
       -2   -1    0    0    0  501  0.00000000000E+00  0.00000000000E+00 -0.10738895426E+04  0.10738895426E+04  0.25500000920E-02 0. -1.
    10030    2    1    2    0    0  0.00000000000E+00  0.00000000000E+00  0.62165579373E+03  0.27694348790E+04  0.26987614980E+04 0.  0.
        3    1    3    3  502    0 -0.47062617137E+03 -0.10256178820E+04 -0.44844489210E+03  0.12142832719E+04  0.10100000352E+00 0. -1.
       -3    1    3    3    0  502  0.47062617137E+03  0.10256178820E+04  0.10701006858E+04  0.15551516071E+04  0.10100000352E+00 0.  1.
</event>
<event>
 5   0  0.4735120E-07  0.2699976E+04  0.7818609E-02  0.8335013E-01
        2   -1    0    0  501    0  0.00000000000E+00  0.00000000000E+00  0.23669243096E+04  0.23669243096E+04  0.25500000920E-02 0. -1.
       -2   -1    0    0    0  501  0.00000000000E+00  0.00000000000E+00 -0.76997301001E+03  0.76997301001E+03  0.25500000920E-02 0.  1.
    10030    2    1    2    0    0  0.00000000000E+00  0.00000000000E+00  0.15969512995E+04  0.31368973196E+04  0.26999761740E+04 0.  0.
        2    1    3    3  502    0 -0.94576891877E+02  0.18648398283E+03 -0.75104523347E+03  0.77960888083E+03  0.25500000920E-02 0.  1.
       -2    1    3    3    0  502  0.94576891877E+02 -0.18648398283E+03  0.23479965330E+04  0.23572884387E+04  0.25500000920E-02 0. -1.
</event>
<event>
 5   0  0.4992668E-07  0.2702757E+04  0.7818609E-02  0.8334111E-01
       -2   -1    0    0    0  501  0.00000000000E+00  0.00000000000E+00  0.12938049602E+04  0.12938049602E+04  0.25500000920E-02 0.  1.
        2   -1    0    0  501    0  0.00000000000E+00  0.00000000000E+00 -0.14115140966E+04  0.14115140966E+04  0.25500000920E-02 0. -1.
    10030    2    1    2    0    0  0.00000000000E+00  0.00000000000E+00 -0.11770913642E+03  0.27053190568E+04  0.27027570661E+04 0.  0.
        1    1    3    3  502    0 -0.22721795471E+03  0.13154839689E+04 -0.26904855017E+03  0.13618051233E+04  0.50400001928E-02 0. -1.
       -1    1    3    3    0  502  0.22721795471E+03 -0.13154839689E+04  0.15133941375E+03  0.13435139335E+04  0.50400001928E-02 0.  1.
</event>
<event>
 5   0  0.4843887E-07  0.2700286E+04  0.7818609E-02  0.8334912E-01
       -2   -1    0    0    0  501  0.00000000000E+00  0.00000000000E+00  0.89630682180E+03  0.89630682181E+03  0.25500000920E-02 0.  1.
        2   -1    0    0  501    0  0.00000000000E+00  0.00000000000E+00 -0.20337744022E+04  0.20337744022E+04  0.25500000920E-02 0. -1.
    10030    2    1    2    0    0  0.00000000000E+00  0.00000000000E+00 -0.11374675804E+04  0.29300812240E+04  0.27002858150E+04 0.  0.
        5    1    3    3  502    0  0.83168544008E+03 -0.71533703202E+03  0.28530022884E+03  0.11335016768E+04  0.46999998093E+01 0.  1.
       -5    1    3    3    0  502 -0.83168544008E+03  0.71533703202E+03 -0.14227678092E+04  0.17965795473E+04  0.46999998093E+01 0. -1.
</event>
<event>
 5   0  0.5043890E-07  0.2701377E+04  0.7818609E-02  0.8334558E-01
       -2   -1    0    0    0  501  0.00000000000E+00  0.00000000000E+00  0.10901862227E+04  0.10901862227E+04  0.25500000920E-02 0. -1.
        2   -1    0    0  501    0  0.00000000000E+00  0.00000000000E+00 -0.16734385499E+04  0.16734385499E+04  0.25500000920E-02 0.  1.
    10030    2    1    2    0    0  0.00000000000E+00  0.00000000000E+00 -0.58325232720E+03  0.27636247727E+04  0.27013771686E+04 0.  0.
        3    1    3    3  502    0  0.82731207508E+03  0.31878146255E+03 -0.13340726334E+04  0.16018166849E+04  0.10100000352E+00 0.  1.
       -3    1    3    3    0  502 -0.82731207508E+03 -0.31878146255E+03  0.75082030622E+03  0.11618080878E+04  0.10100000352E+00 0. -1.
</event>
<event>
 5   0  0.1937896E-07  0.2700785E+04  0.7818609E-02  0.8334750E-01
       -1   -1    0    0    0  501  0.00000000000E+00  0.00000000000E+00  0.99042427865E+03  0.99042427866E+03  0.50400001928E-02 0. -1.
        1   -1    0    0  501    0  0.00000000000E+00  0.00000000000E+00 -0.18411909883E+04  0.18411909883E+04  0.50400001928E-02 0.  1.
    10030    2    1    2    0    0  0.00000000000E+00  0.00000000000E+00 -0.85076670962E+03  0.28316152669E+04  0.27007852609E+04 0.  0.
        3    1    3    3  502    0  0.23678982416E+03  0.29555394696E+03 -0.17843749059E+04  0.18241204378E+04  0.10100000352E+00 0.  1.
       -3    1    3    3    0  502 -0.23678982416E+03 -0.29555394696E+03  0.93360819630E+03  0.10074948292E+04  0.10100000352E+00 0. -1.
</event>
<event>
 5   0  0.1937896E-07  0.2699655E+04  0.7818609E-02  0.8335117E-01
        1   -1    0    0  501    0  0.00000000000E+00  0.00000000000E+00  0.24787708357E+04  0.24787708357E+04  0.50400001928E-02 0.  1.
       -1   -1    0    0    0  501  0.00000000000E+00  0.00000000000E+00 -0.73505555836E+03  0.73505555838E+03  0.50400001928E-02 0. -1.
    10030    2    1    2    0    0  0.00000000000E+00  0.00000000000E+00  0.17437152773E+04  0.32138263940E+04  0.26996550007E+04 0.  0.
        3    1    3    3  502    0 -0.48305215696E+03  0.10324736055E+04  0.17325293822E+04  0.20738850505E+04  0.10100000352E+00 0.  1.
       -3    1    3    3    0  502  0.48305215696E+03 -0.10324736055E+04  0.11185895119E+02  0.11399413436E+04  0.10100000352E+00 0. -1.
</event>
<event>
 5   0  0.1971600E-07  0.2697257E+04  0.7818609E-02  0.8335896E-01
        1   -1    0    0  501    0  0.00000000000E+00  0.00000000000E+00  0.15107337303E+04  0.15107337303E+04  0.50400001928E-02 0.  1.
       -1   -1    0    0    0  501  0.00000000000E+00  0.00000000000E+00 -0.12039171146E+04  0.12039171146E+04  0.50400001928E-02 0. -1.
    10030    2    1    2    0    0  0.00000000000E+00  0.00000000000E+00  0.30681661573E+03  0.27146508449E+04  0.26972565273E+04 0.  0.
        5    1    3    3  502    0 -0.65835634790E+02 -0.10967106691E+04  0.94054366780E+03  0.14462894260E+04  0.46999998093E+01 0.  1.
       -5    1    3    3    0  502  0.65835634790E+02  0.10967106691E+04 -0.63372705207E+03  0.12683614190E+04  0.46999998093E+01 0. -1.
</event>
<event>
 5   0  0.1937896E-07  0.2700109E+04  0.7818609E-02  0.8334970E-01
        1   -1    0    0  501    0  0.00000000000E+00  0.00000000000E+00  0.14337744186E+04  0.14337744186E+04  0.50400001928E-02 0.  1.
       -1   -1    0    0    0  501  0.00000000000E+00  0.00000000000E+00 -0.12712231213E+04  0.12712231213E+04  0.50400001928E-02 0. -1.
    10030    2    1    2    0    0  0.00000000000E+00  0.00000000000E+00  0.16255129733E+03  0.27049975399E+04  0.27001090286E+04 0.  0.
        3    1    3    3  502    0 -0.12002179598E+04  0.59197581932E+03  0.25961102752E+03  0.13632154700E+04  0.10100000352E+00 0.  1.
       -3    1    3    3    0  502  0.12002179598E+04 -0.59197581932E+03 -0.97059730196E+02  0.13417820699E+04  0.10100000352E+00 0. -1.
</event>
<event>
 5   0  0.4735120E-07  0.2699248E+04  0.7818609E-02  0.8335249E-01
        2   -1    0    0  501    0  0.00000000000E+00  0.00000000000E+00  0.13592458162E+04  0.13592458162E+04  0.25500000920E-02 0.  1.
       -2   -1    0    0    0  501  0.00000000000E+00  0.00000000000E+00 -0.13400699384E+04  0.13400699384E+04  0.25500000920E-02 0. -1.
    10030    2    1    2    0    0  0.00000000000E+00  0.00000000000E+00  0.19175877846E+02  0.26993157546E+04  0.26992476412E+04 0.  0.
        2    1    3    3  502    0 -0.18361109987E+03 -0.12448339019E+04 -0.47844074622E+03  0.13461909326E+04  0.25500000920E-02 0. -1.
       -2    1    3    3    0  502  0.18361109987E+03  0.12448339019E+04  0.49761662407E+03  0.13531248220E+04  0.25500000920E-02 0.  1.
</event>
<event>
 5   0  0.5043890E-07  0.2699627E+04  0.7818609E-02  0.8335126E-01
       -2   -1    0    0    0  501  0.00000000000E+00  0.00000000000E+00  0.91409284828E+03  0.91409284828E+03  0.25500000920E-02 0.  1.
        2   -1    0    0  501    0  0.00000000000E+00  0.00000000000E+00 -0.19932289097E+04  0.19932289097E+04  0.25500000920E-02 0. -1.
    10030    2    1    2    0    0  0.00000000000E+00  0.00000000000E+00 -0.10791360614E+04  0.29073217579E+04  0.26996268567E+04 0.  0.
        3    1    3    3  502    0  0.51609698436E+03 -0.28267216242E+03  0.76869113923E+03  0.96806287317E+03  0.10100000352E+00 0.  1.
       -3    1    3    3    0  502 -0.51609698436E+03  0.28267216242E+03 -0.18478272006E+04  0.19392588848E+04  0.10100000352E+00 0. -1.
</event>
<event>
 5   0  0.1937896E-07  0.2700324E+04  0.7818609E-02  0.8334900E-01
       -1   -1    0    0    0  501  0.00000000000E+00  0.00000000000E+00  0.15768626534E+04  0.15768626534E+04  0.50400001928E-02 0.  1.
        1   -1    0    0  501    0  0.00000000000E+00  0.00000000000E+00 -0.11560530589E+04  0.11560530589E+04  0.50400001928E-02 0. -1.
    10030    2    1    2    0    0  0.00000000000E+00  0.00000000000E+00  0.42080959449E+03  0.27329157123E+04  0.27003236058E+04 0.  0.
        3    1    3    3  502    0 -0.39837676723E+03 -0.81873151561E+03 -0.79857923007E+03  0.12110962556E+04  0.10100000352E+00 0. -1.
       -3    1    3    3    0  502  0.39837676723E+03  0.81873151561E+03  0.12193888246E+04  0.15218194568E+04  0.10100000352E+00 0.  1.
</event>
<event>
 5   0  0.1964242E-07  0.2705908E+04  0.7818609E-02  0.8333090E-01
       -1   -1    0    0    0  501  0.00000000000E+00  0.00000000000E+00  0.12657750991E+04  0.12657750991E+04  0.50400001928E-02 0.  1.
        1   -1    0    0  501    0  0.00000000000E+00  0.00000000000E+00 -0.14461376324E+04  0.14461376324E+04  0.50400001928E-02 0. -1.
    10030    2    1    2    0    0  0.00000000000E+00  0.00000000000E+00 -0.18036253323E+03  0.27119127315E+04  0.27059083539E+04 0.  0.
        2    1    3    3  502    0 -0.47504023928E+02  0.60058754535E+03  0.11239204713E+04  0.12752094957E+04  0.25500000920E-02 0.  1.
       -2    1    3    3    0  502  0.47504023928E+02 -0.60058754535E+03 -0.13042830046E+04  0.14367032359E+04  0.25500000920E-02 0. -1.
</event>
<event>
 5   0  0.4735120E-07  0.2699614E+04  0.7818609E-02  0.8335130E-01
       -2   -1    0    0    0  501  0.00000000000E+00  0.00000000000E+00  0.12327669662E+04  0.12327669662E+04  0.25500000920E-02 0.  1.
        2   -1    0    0  501    0  0.00000000000E+00  0.00000000000E+00 -0.14779587882E+04  0.14779587882E+04  0.25500000920E-02 0. -1.
    10030    2    1    2    0    0  0.00000000000E+00  0.00000000000E+00 -0.24519182192E+03  0.27107257544E+04  0.26996138772E+04 0.  0.
        2    1    3    3  502    0 -0.36710276870E+03  0.13629355512E+03  0.11744789623E+04  0.12380392598E+04  0.25500000920E-02 0.  1.
       -2    1    3    3    0  502  0.36710276870E+03 -0.13629355512E+03 -0.14196707842E+04  0.14726864946E+04  0.25500000920E-02 0. -1.
</event>
<event>
 5   0  0.1965415E-07  0.2700204E+04  0.7818609E-02  0.8334939E-01
        1   -1    0    0  501    0  0.00000000000E+00  0.00000000000E+00  0.14774213060E+04  0.14774213060E+04  0.50400001928E-02 0.  1.
       -1   -1    0    0    0  501  0.00000000000E+00  0.00000000000E+00 -0.12337545412E+04  0.12337545412E+04  0.50400001928E-02 0. -1.
    10030    2    1    2    0    0  0.00000000000E+00  0.00000000000E+00  0.24366676480E+03  0.27111758472E+04  0.27002038779E+04 0.  0.
        4    1    3    3  502    0  0.12292861078E+04 -0.29809297948E+03  0.59573627470E+03  0.13981799173E+04  0.12699999809E+01 0.  1.
       -4    1    3    3    0  502 -0.12292861078E+04  0.29809297948E+03 -0.35206950990E+03  0.13129959299E+04  0.12699999809E+01 0. -1.
</event>
<event>
 5   0  0.4992668E-07  0.2703815E+04  0.7818609E-02  0.8333768E-01
       -2   -1    0    0    0  501  0.00000000000E+00  0.00000000000E+00  0.10270246756E+04  0.10270246756E+04  0.25500000920E-02 0. -1.
        2   -1    0    0  501    0  0.00000000000E+00  0.00000000000E+00 -0.17795622992E+04  0.17795622992E+04  0.25500000920E-02 0.  1.
    10030    2    1    2    0    0  0.00000000000E+00  0.00000000000E+00 -0.75253762362E+03  0.28065869748E+04  0.27038153731E+04 0.  0.
        1    1    3    3  502    0  0.43005809009E+02  0.13064822662E+04 -0.18329992012E+02  0.13073184005E+04  0.50400001928E-02 0. -1.
       -1    1    3    3    0  502 -0.43005809009E+02 -0.13064822662E+04 -0.73420763161E+03  0.14992685743E+04  0.50400001928E-02 0.  1.
</event>
<event>
 5   0  0.1965415E-07  0.2700291E+04  0.7818609E-02  0.8334911E-01
        1   -1    0    0  501    0  0.00000000000E+00  0.00000000000E+00  0.19751688336E+04  0.19751688336E+04  0.50400001928E-02 0.  1.
       -1   -1    0    0    0  501  0.00000000000E+00  0.00000000000E+00 -0.92290459527E+03  0.92290459528E+03  0.50400001928E-02 0. -1.
    10030    2    1    2    0    0  0.00000000000E+00  0.00000000000E+00  0.10522642384E+04  0.28980734289E+04  0.27002906458E+04 0.  0.
        4    1    3    3  502    0  0.94298199645E+02  0.13435134892E+04  0.42448423569E+03  0.14121292877E+04  0.12699999809E+01 0.  1.
       -4    1    3    3    0  502 -0.94298199645E+02 -0.13435134892E+04  0.62778000267E+03  0.14859441412E+04  0.12699999809E+01 0. -1.
</event>
<event>
 5   0  0.1937896E-07  0.2701365E+04  0.7818609E-02  0.8334562E-01
       -1   -1    0    0    0  501  0.00000000000E+00  0.00000000000E+00  0.85066155053E+03  0.85066155054E+03  0.50400001928E-02 0.  1.
        1   -1    0    0  501    0  0.00000000000E+00  0.00000000000E+00 -0.21446169848E+04  0.21446169848E+04  0.50400001928E-02 0. -1.
    10030    2    1    2    0    0  0.00000000000E+00  0.00000000000E+00 -0.12939554342E+04  0.29952785353E+04  0.27013649954E+04 0.  0.
        3    1    3    3  502    0  0.30489497149E+03  0.94797469710E+03 -0.16588019317E+04  0.19347456754E+04  0.10100000352E+00 0. -1.
       -3    1    3    3    0  502 -0.30489497149E+03 -0.94797469710E+03  0.36484649742E+03  0.10605328599E+04  0.10100000352E+00 0.  1.
</event>
<event>
 5   0  0.1964242E-07  0.2700624E+04  0.7818609E-02  0.8334803E-01
       -1   -1    0    0    0  501  0.00000000000E+00  0.00000000000E+00  0.12508870341E+04  0.12508870341E+04  0.50400001928E-02 0. -1.
        1   -1    0    0  501    0  0.00000000000E+00  0.00000000000E+00 -0.14576392419E+04  0.14576392420E+04  0.50400001928E-02 0.  1.
    10030    2    1    2    0    0  0.00000000000E+00  0.00000000000E+00 -0.20675220782E+03  0.27085262761E+04  0.27006236526E+04 0.  0.
        2    1    3    3  502    0  0.30367002355E+03  0.20373097837E+03  0.12002814846E+04  0.12547499500E+04  0.25500000920E-02 0. -1.
       -2    1    3    3    0  502 -0.30367002355E+03 -0.20373097837E+03 -0.14070336924E+04  0.14537763261E+04  0.25500000920E-02 0.  1.
</event>
<event>
 5   0  0.4992668E-07  0.2700743E+04  0.7818609E-02  0.8334764E-01
        2   -1    0    0  501    0  0.00000000000E+00  0.00000000000E+00  0.26867396379E+04  0.26867396379E+04  0.25500000920E-02 0. -1.
       -2   -1    0    0    0  501  0.00000000000E+00  0.00000000000E+00 -0.67870479990E+03  0.67870479990E+03  0.25500000920E-02 0.  1.
    10030    2    1    2    0    0  0.00000000000E+00  0.00000000000E+00  0.20080348380E+04  0.33654444378E+04  0.27007429262E+04 0.  0.
        1    1    3    3  502    0  0.76437660654E+03  0.46194332895E+03 -0.25809767631E+03  0.92966534104E+03  0.50400001928E-02 0.  1.
       -1    1    3    3    0  502 -0.76437660654E+03 -0.46194332895E+03  0.22661325143E+04  0.24357790968E+04  0.50400001928E-02 0. -1.
</event>
<event>
 5   0  0.4843887E-07  0.2701404E+04  0.7818609E-02  0.8334550E-01
        2   -1    0    0  501    0  0.00000000000E+00  0.00000000000E+00  0.16585802468E+04  0.16585802468E+04  0.25500000920E-02 0. -1.
       -2   -1    0    0    0  501  0.00000000000E+00  0.00000000000E+00 -0.10999742863E+04  0.10999742863E+04  0.25500000920E-02 0.  1.
    10030    2    1    2    0    0  0.00000000000E+00  0.00000000000E+00  0.55860596050E+03  0.27585545332E+04  0.27014038005E+04 0.  0.
        5    1    3    3  502    0 -0.84568725385E+03  0.88539381061E+01 -0.79611929385E+03  0.11615047755E+04  0.46999998093E+01 0.  1.
       -5    1    3    3    0  502  0.84568725385E+03 -0.88539381061E+01  0.13547252544E+04  0.15970497576E+04  0.46999998093E+01 0. -1.
</event>
<event>
 5   0  0.1971600E-07  0.2700261E+04  0.7818609E-02  0.8334920E-01
        1   -1    0    0  501    0  0.00000000000E+00  0.00000000000E+00  0.14962639032E+04  0.14962639032E+04  0.50400001928E-02 0. -1.
       -1   -1    0    0    0  501  0.00000000000E+00  0.00000000000E+00 -0.12182688751E+04  0.12182688751E+04  0.50400001928E-02 0.  1.
    10030    2    1    2    0    0  0.00000000000E+00  0.00000000000E+00  0.27799502818E+03  0.27145327783E+04  0.27002605372E+04 0.  0.
        5    1    3    3  502    0  0.10647615265E+04  0.56808051441E+03  0.74750428982E+03  0.14195835067E+04  0.46999998093E+01 0. -1.
       -5    1    3    3    0  502 -0.10647615265E+04 -0.56808051441E+03 -0.46950926165E+03  0.12949492716E+04  0.46999998093E+01 0.  1.
</event>
<event>
 5   0  0.4983208E-07  0.2697868E+04  0.7818609E-02  0.8335697E-01
       -2   -1    0    0    0  501  0.00000000000E+00  0.00000000000E+00  0.14392409694E+04  0.14392409694E+04  0.25500000920E-02 0.  1.
        2   -1    0    0  501    0  0.00000000000E+00  0.00000000000E+00 -0.12642931710E+04  0.12642931710E+04  0.25500000920E-02 0. -1.
    10030    2    1    2    0    0  0.00000000000E+00  0.00000000000E+00  0.17494779836E+03  0.27035341404E+04  0.26978676980E+04 0.  0.
        4    1    3    3  502    0  0.25284830234E+03 -0.10276856474E+04 -0.75067438077E+03  0.12975298427E+04  0.12699999809E+01 0. -1.
       -4    1    3    3    0  502 -0.25284830234E+03  0.10276856474E+04  0.92562217913E+03  0.14060042977E+04  0.12699999809E+01 0.  1.
</event>
<event>
 5   0  0.1888149E-07  0.2699280E+04  0.7818609E-02  0.8335239E-01
       -1   -1    0    0    0  501  0.00000000000E+00  0.00000000000E+00  0.15990935718E+04  0.15990935719E+04  0.50400001928E-02 0.  1.
        1   -1    0    0  501    0  0.00000000000E+00  0.00000000000E+00 -0.11391001017E+04  0.11391001017E+04  0.50400001928E-02 0. -1.
    10030    2    1    2    0    0  0.00000000000E+00  0.00000000000E+00  0.45999347011E+03  0.27381936736E+04  0.26992796449E+04 0.  0.
        1    1    3    3  502    0 -0.11755107816E+04  0.39075018783E+03  0.77345925302E+03  0.14603939616E+04  0.50400001928E-02 0.  1.
       -1    1    3    3    0  502  0.11755107816E+04 -0.39075018783E+03 -0.31346578291E+03  0.12777997120E+04  0.50400001928E-02 0. -1.
</event>
<event>
 5   0  0.1971600E-07  0.2699577E+04  0.7818609E-02  0.8335142E-01
       -1   -1    0    0    0  501  0.00000000000E+00  0.00000000000E+00  0.76739719927E+03  0.76739719929E+03  0.50400001928E-02 0.  1.
        1   -1    0    0  501    0  0.00000000000E+00  0.00000000000E+00 -0.23741670437E+04  0.23741670437E+04  0.50400001928E-02 0. -1.
    10030    2    1    2    0    0  0.00000000000E+00  0.00000000000E+00 -0.16067698444E+04  0.31415642430E+04  0.26995771076E+04 0.  0.
        5    1    3    3  502    0  0.40604344067E+03  0.52163810667E+02 -0.23001694127E+04  0.23363205593E+04  0.46999998093E+01 0. -1.
       -5    1    3    3    0  502 -0.40604344067E+03 -0.52163810667E+02  0.69339956825E+03  0.80524368368E+03  0.46999998093E+01 0.  1.
</event>
<event>
 5   0  0.1964242E-07  0.2702200E+04  0.7818609E-02  0.8334291E-01
        1   -1    0    0  501    0  0.00000000000E+00  0.00000000000E+00  0.13066536714E+04  0.13066536714E+04  0.50400001928E-02 0.  1.
       -1   -1    0    0    0  501  0.00000000000E+00  0.00000000000E+00 -0.13970586802E+04  0.13970586802E+04  0.50400001928E-02 0. -1.
    10030    2    1    2    0    0  0.00000000000E+00  0.00000000000E+00 -0.90405008787E+02  0.27037123516E+04  0.27022004764E+04 0.  0.
        2    1    3    3  502    0 -0.84866879711E+03 -0.67281399771E+03 -0.85346289608E+03  0.13788822712E+04  0.25500000920E-02 0. -1.
       -2    1    3    3    0  502  0.84866879711E+03  0.67281399771E+03  0.76305788730E+03  0.13248300805E+04  0.25500000920E-02 0.  1.
</event>
<event>
 5   0  0.1964242E-07  0.2700332E+04  0.7818609E-02  0.8334897E-01
       -1   -1    0    0    0  501  0.00000000000E+00  0.00000000000E+00  0.59978010244E+03  0.59978010246E+03  0.50400001928E-02 0. -1.
        1   -1    0    0  501    0  0.00000000000E+00  0.00000000000E+00 -0.30393603249E+04  0.30393603250E+04  0.50400001928E-02 0.  1.
    10030    2    1    2    0    0  0.00000000000E+00  0.00000000000E+00 -0.24395802225E+04  0.36391404274E+04  0.27003317182E+04 0.  0.
        2    1    3    3  502    0 -0.12972701859E+04  0.78518238562E+02 -0.72669821280E+03  0.14890148896E+04  0.25500000920E-02 0. -1.
       -2    1    3    3    0  502  0.12972701859E+04 -0.78518238562E+02 -0.17128820097E+04  0.21501255378E+04  0.25500000920E-02 0.  1.
</event>
<event>
 5   0  0.1641625E-07  0.2699827E+04  0.7818609E-02  0.8335061E-01
       -3   -1    0    0    0  501  0.00000000000E+00  0.00000000000E+00  0.97973918622E+03  0.97973919142E+03  0.10100000352E+00 0. -1.
        3   -1    0    0  501    0  0.00000000000E+00  0.00000000000E+00 -0.18599512157E+04  0.18599512184E+04  0.10100000352E+00 0.  1.
    10030    2    1    2    0    0  0.00000000000E+00  0.00000000000E+00 -0.88021202947E+03  0.28396904099E+04  0.26998274773E+04 0.  0.
        2    1    3    3  502    0 -0.71972950089E+03 -0.71309396698E+03 -0.13783683263E+04  0.17106761246E+04  0.25500000920E-02 0.  1.
       -2    1    3    3    0  502  0.71972950089E+03  0.71309396698E+03  0.49815629687E+03  0.11290142853E+04  0.25500000920E-02 0. -1.
</event>
<event>
 5   0  0.1971600E-07  0.2700149E+04  0.7818609E-02  0.8334957E-01
        1   -1    0    0  501    0  0.00000000000E+00  0.00000000000E+00  0.12721717536E+04  0.12721717536E+04  0.50400001928E-02 0.  1.
       -1   -1    0    0    0  501  0.00000000000E+00  0.00000000000E+00 -0.14327480298E+04  0.14327480298E+04  0.50400001928E-02 0. -1.
    10030    2    1    2    0    0  0.00000000000E+00  0.00000000000E+00 -0.16057627618E+03  0.27049197834E+04  0.27001493096E+04 0.  0.
        5    1    3    3  502    0 -0.10638657560E+04 -0.30815113144E+03 -0.85360535980E+03  0.13983675007E+04  0.46999998093E+01 0. -1.
       -5    1    3    3    0  502  0.10638657560E+04  0.30815113144E+03  0.69302908362E+03  0.13065522827E+04  0.46999998093E+01 0.  1.
</event>
<event>
 5   0  0.1964242E-07  0.2701270E+04  0.7818609E-02  0.8334593E-01
       -1   -1    0    0    0  501  0.00000000000E+00  0.00000000000E+00  0.69904977893E+03  0.69904977895E+03  0.50400001928E-02 0. -1.
        1   -1    0    0  501    0  0.00000000000E+00  0.00000000000E+00 -0.26095630161E+04  0.26095630161E+04  0.50400001928E-02 0.  1.
    10030    2    1    2    0    0  0.00000000000E+00  0.00000000000E+00 -0.19105132372E+04  0.33086127951E+04  0.27012696641E+04 0.  0.
        2    1    3    3  502    0 -0.12269598106E+04  0.67076145351E+02 -0.16419134356E+04  0.20508069914E+04  0.25500000920E-02 0.  1.
       -2    1    3    3    0  502  0.12269598106E+04 -0.67076145351E+02 -0.26859980160E+03  0.12578058036E+04  0.25500000920E-02 0. -1.
</event>
<event>
 5   0  0.1964242E-07  0.2700067E+04  0.7818609E-02  0.8334983E-01
       -1   -1    0    0    0  501  0.00000000000E+00  0.00000000000E+00  0.28770192536E+04  0.28770192536E+04  0.50400001928E-02 0.  1.
        1   -1    0    0  501    0  0.00000000000E+00  0.00000000000E+00 -0.63349948723E+03  0.63349948725E+03  0.50400001928E-02 0. -1.
    10030    2    1    2    0    0  0.00000000000E+00  0.00000000000E+00  0.22435197664E+04  0.35105187408E+04  0.27000668302E+04 0.  0.
        2    1    3    3  502    0  0.10114603916E+03  0.71390523881E+03  0.26057083651E+04  0.27036285424E+04  0.25500000920E-02 0.  1.
       -2    1    3    3    0  502 -0.10114603916E+03 -0.71390523881E+03 -0.36218859877E+03  0.80689019843E+03  0.25500000920E-02 0. -1.
</event>
<event>
 5   0  0.1964242E-07  0.2700190E+04  0.7818609E-02  0.8334943E-01
        1   -1    0    0  501    0  0.00000000000E+00  0.00000000000E+00  0.16235262254E+04  0.16235262254E+04  0.50400001928E-02 0.  1.
       -1   -1    0    0    0  501  0.00000000000E+00  0.00000000000E+00 -0.11227148642E+04  0.11227148642E+04  0.50400001928E-02 0. -1.
    10030    2    1    2    0    0  0.00000000000E+00  0.00000000000E+00  0.50081136122E+03  0.27462410897E+04  0.27001903827E+04 0.  0.
        2    1    3    3  502    0  0.96745948006E+03  0.87405660485E+03  0.60681655064E+03  0.14381165183E+04  0.25500000920E-02 0.  1.
       -2    1    3    3    0  502 -0.96745948006E+03 -0.87405660485E+03 -0.10600518943E+03  0.13081245714E+04  0.25500000920E-02 0. -1.
</event>
<event>
 5   0  0.4992668E-07  0.2699480E+04  0.7818609E-02  0.8335174E-01
        2   -1    0    0  501    0  0.00000000000E+00  0.00000000000E+00  0.20109510459E+04  0.20109510459E+04  0.25500000920E-02 0. -1.
       -2   -1    0    0    0  501  0.00000000000E+00  0.00000000000E+00 -0.90593825332E+03  0.90593825332E+03  0.25500000920E-02 0.  1.
    10030    2    1    2    0    0  0.00000000000E+00  0.00000000000E+00  0.11050127926E+04  0.29168892992E+04  0.26994795632E+04 0.  0.
        1    1    3    3  502    0 -0.43752976953E+03 -0.54804624432E+03  0.17986481185E+04  0.19305237733E+04  0.50400001928E-02 0. -1.
       -1    1    3    3    0  502  0.43752976953E+03  0.54804624432E+03 -0.69363532596E+03  0.98636552585E+03  0.50400001928E-02 0.  1.
</event>
<event>
 5   0  0.1971600E-07  0.2697516E+04  0.7818609E-02  0.8335811E-01
        1   -1    0    0  501    0  0.00000000000E+00  0.00000000000E+00  0.10833474254E+04  0.10833474255E+04  0.50400001928E-02 0. -1.
       -1   -1    0    0    0  501  0.00000000000E+00  0.00000000000E+00 -0.16791920325E+04  0.16791920325E+04  0.50400001928E-02 0.  1.
    10030    2    1    2    0    0  0.00000000000E+00  0.00000000000E+00 -0.59584460704E+03  0.27625394579E+04  0.26975161651E+04 0.  0.
        5    1    3    3  502    0  0.74920114080E+03 -0.10258920193E+03  0.84582422113E+03  0.11345781581E+04  0.46999998093E+01 0. -1.
       -5    1    3    3    0  502 -0.74920114080E+03  0.10258920193E+03 -0.14416688282E+04  0.16279612999E+04  0.46999998093E+01 0.  1.
</event>
<event>
 5   0  0.1964242E-07  0.2698800E+04  0.7818609E-02  0.8335395E-01
       -1   -1    0    0    0  501  0.00000000000E+00  0.00000000000E+00  0.12363886319E+04  0.12363886319E+04  0.50400001928E-02 0.  1.
        1   -1    0    0  501    0  0.00000000000E+00  0.00000000000E+00 -0.14727407910E+04  0.14727407910E+04  0.50400001928E-02 0. -1.
    10030    2    1    2    0    0  0.00000000000E+00  0.00000000000E+00 -0.23635215908E+03  0.27091294229E+04  0.26987997123E+04 0.  0.
        2    1    3    3  502    0  0.12619771898E+02 -0.11839819174E+04  0.53153187282E+03  0.12978823411E+04  0.25500000920E-02 0. -1.
       -2    1    3    3    0  502 -0.12619771898E+02  0.11839819174E+04 -0.76788403190E+03  0.14112470818E+04  0.25500000920E-02 0.  1.
</event>
<event>
 5   0  0.1888149E-07  0.2701735E+04  0.7818609E-02  0.8334442E-01
        1   -1    0    0  501    0  0.00000000000E+00  0.00000000000E+00  0.16424508691E+04  0.16424508692E+04  0.50400001928E-02 0.  1.
       -1   -1    0    0    0  501  0.00000000000E+00  0.00000000000E+00 -0.11110490424E+04  0.11110490424E+04  0.50400001928E-02 0. -1.
    10030    2    1    2    0    0  0.00000000000E+00  0.00000000000E+00  0.53140182672E+03  0.27534999116E+04  0.27017353426E+04 0.  0.
        1    1    3    3  502    0  0.37608494516E+03  0.59471142104E+03  0.14409303865E+04  0.16035591473E+04  0.50400001928E-02 0.  1.
       -1    1    3    3    0  502 -0.37608494516E+03 -0.59471142104E+03 -0.90952855975E+03  0.11499407643E+04  0.50400001928E-02 0. -1.
</event>
<event>
 5   0  0.4843887E-07  0.2699934E+04  0.7818609E-02  0.8335027E-01
       -2   -1    0    0    0  501  0.00000000000E+00  0.00000000000E+00  0.26850855731E+04  0.26850855731E+04  0.25500000920E-02 0. -1.
        2   -1    0    0  501    0  0.00000000000E+00  0.00000000000E+00 -0.67871594722E+03  0.67871594722E+03  0.25500000920E-02 0.  1.
    10030    2    1    2    0    0  0.00000000000E+00  0.00000000000E+00  0.20063696259E+04  0.33638015204E+04  0.26999336274E+04 0.  0.
        5    1    3    3  502    0  0.10824677597E+04 -0.65947049322E+03  0.42448518115E+03  0.13367301677E+04  0.46999998093E+01 0.  1.
       -5    1    3    3    0  502 -0.10824677597E+04  0.65947049322E+03  0.15818844448E+04  0.20270713527E+04  0.46999998093E+01 0. -1.
</event>
<event>
 5   0  0.4843887E-07  0.2699253E+04  0.7818609E-02  0.8335247E-01
       -2   -1    0    0    0  501  0.00000000000E+00  0.00000000000E+00  0.16915091270E+04  0.16915091270E+04  0.25500000920E-02 0. -1.
        2   -1    0    0  501    0  0.00000000000E+00  0.00000000000E+00 -0.10768439860E+04  0.10768439860E+04  0.25500000920E-02 0.  1.
    10030    2    1    2    0    0  0.00000000000E+00  0.00000000000E+00  0.61466514101E+03  0.27683531130E+04  0.26992528082E+04 0.  0.
        5    1    3    3  502    0  0.24870155792E+03  0.88576490286E+03  0.13200506499E+04  0.16090331682E+04  0.46999998093E+01 0. -1.
       -5    1    3    3    0  502 -0.24870155792E+03 -0.88576490286E+03 -0.70538550893E+03  0.11593199447E+04  0.46999998093E+01 0.  1.
</event>
<event>
 5   0  0.4983208E-07  0.2699506E+04  0.7818609E-02  0.8335165E-01
       -2   -1    0    0    0  501  0.00000000000E+00  0.00000000000E+00  0.19272215746E+04  0.19272215746E+04  0.25500000920E-02 0. -1.
        2   -1    0    0  501    0  0.00000000000E+00  0.00000000000E+00 -0.94531579959E+03  0.94531579959E+03  0.25500000920E-02 0.  1.
    10030    2    1    2    0    0  0.00000000000E+00  0.00000000000E+00  0.98190577505E+03  0.28725373742E+04  0.26995058835E+04 0.  0.
        4    1    3    3  502    0  0.12742067124E+04  0.25300577278E+02  0.17951657469E+02  0.12745849285E+04  0.12699999809E+01 0.  1.
       -4    1    3    3    0  502 -0.12742067124E+04 -0.25300577278E+02  0.96395411758E+03  0.15979524457E+04  0.12699999809E+01 0. -1.
</event>
<event>
 5   0  0.1971600E-07  0.2698948E+04  0.7818609E-02  0.8335347E-01
        1   -1    0    0  501    0  0.00000000000E+00  0.00000000000E+00  0.24458427385E+04  0.24458427385E+04  0.50400001928E-02 0. -1.
       -1   -1    0    0    0  501  0.00000000000E+00  0.00000000000E+00 -0.74456117340E+03  0.74456117342E+03  0.50400001928E-02 0.  1.
    10030    2    1    2    0    0  0.00000000000E+00  0.00000000000E+00  0.17012815651E+04  0.31904039119E+04  0.26989476018E+04 0.  0.
        5    1    3    3  502    0  0.99048596177E+03 -0.91533798542E+03  0.79581183414E+03  0.15659644419E+04  0.46999998093E+01 0.  1.
       -5    1    3    3    0  502 -0.99048596177E+03  0.91533798542E+03  0.90546973097E+03  0.16244394700E+04  0.46999998093E+01 0. -1.
</event>
<event>
 5   0  0.4735120E-07  0.2700512E+04  0.7818609E-02  0.8334839E-01
       -2   -1    0    0    0  501  0.00000000000E+00  0.00000000000E+00  0.11991624421E+04  0.11991624421E+04  0.25500000920E-02 0. -1.
        2   -1    0    0  501    0  0.00000000000E+00  0.00000000000E+00 -0.15203875625E+04  0.15203875625E+04  0.25500000920E-02 0.  1.
    10030    2    1    2    0    0  0.00000000000E+00  0.00000000000E+00 -0.32122512042E+03  0.27195500046E+04  0.27005122939E+04 0.  0.
        2    1    3    3  502    0 -0.48922393911E+03  0.10361648824E+04 -0.87994069730E+03  0.14447398925E+04  0.25500000920E-02 0.  1.
       -2    1    3    3    0  502  0.48922393911E+03 -0.10361648824E+04  0.55871557688E+03  0.12748101121E+04  0.25500000920E-02 0. -1.
</event>
<event>
 5   0  0.1964242E-07  0.2699958E+04  0.7818609E-02  0.8335019E-01
       -1   -1    0    0    0  501  0.00000000000E+00  0.00000000000E+00  0.92614620969E+03  0.92614620970E+03  0.50400001928E-02 0. -1.
        1   -1    0    0  501    0  0.00000000000E+00  0.00000000000E+00 -0.19677700702E+04  0.19677700702E+04  0.50400001928E-02 0.  1.
    10030    2    1    2    0    0  0.00000000000E+00  0.00000000000E+00 -0.10416238605E+04  0.28939162799E+04  0.26999576234E+04 0.  0.
        2    1    3    3  502    0  0.11295997305E+04 -0.72261054221E+03 -0.35379346346E+03  0.13868422266E+04  0.25500000920E-02 0.  1.
       -2    1    3    3    0  502 -0.11295997305E+04  0.72261054221E+03 -0.68783039701E+03  0.15070740532E+04  0.25500000920E-02 0. -1.
</event>
<event>
 5   0  0.4735120E-07  0.2699789E+04  0.7818609E-02  0.8335073E-01
       -2   -1    0    0    0  501  0.00000000000E+00  0.00000000000E+00  0.11014197105E+04  0.11014197105E+04  0.25500000920E-02 0. -1.
        2   -1    0    0  501    0  0.00000000000E+00  0.00000000000E+00 -0.16544239448E+04  0.16544239448E+04  0.25500000920E-02 0.  1.
    10030    2    1    2    0    0  0.00000000000E+00  0.00000000000E+00 -0.55300423428E+03  0.27558436554E+04  0.26997889861E+04 0.  0.
        2    1    3    3  502    0 -0.12817142731E+03  0.53944188263E+02 -0.16470929848E+04  0.16529528701E+04  0.25500000920E-02 0.  1.
       -2    1    3    3    0  502  0.12817142731E+03 -0.53944188263E+02  0.10940887505E+04  0.11028907853E+04  0.25500000920E-02 0. -1.
</event>
<event>
 5   0  0.1971600E-07  0.2700024E+04  0.7818609E-02  0.8334997E-01
        1   -1    0    0  501    0  0.00000000000E+00  0.00000000000E+00  0.18083956152E+04  0.18083956152E+04  0.50400001928E-02 0. -1.
       -1   -1    0    0    0  501  0.00000000000E+00  0.00000000000E+00 -0.10078176391E+04  0.10078176391E+04  0.50400001928E-02 0.  1.
    10030    2    1    2    0    0  0.00000000000E+00  0.00000000000E+00  0.80057797606E+03  0.28162132543E+04  0.27000244440E+04 0.  0.
        5    1    3    3  502    0 -0.76309456074E+03 -0.11135752710E+04  0.41296587849E+03  0.14117103455E+04  0.46999998093E+01 0.  1.
       -5    1    3    3    0  502  0.76309456074E+03  0.11135752710E+04  0.38761209757E+03  0.14045029088E+04  0.46999998093E+01 0. -1.
</event>
<event>
 5   0  0.4983208E-07  0.2700515E+04  0.7818609E-02  0.8334838E-01
       -2   -1    0    0    0  501  0.00000000000E+00  0.00000000000E+00  0.11816238328E+04  0.11816238328E+04  0.25500000920E-02 0. -1.
        2   -1    0    0  501    0  0.00000000000E+00  0.00000000000E+00 -0.15429571474E+04  0.15429571474E+04  0.25500000920E-02 0.  1.
    10030    2    1    2    0    0  0.00000000000E+00  0.00000000000E+00 -0.36133331457E+03  0.27245809803E+04  0.27005147202E+04 0.  0.
        4    1    3    3  502    0 -0.10685650223E+04  0.17843369336E+03 -0.99377912062E+03  0.14701252815E+04  0.12699999809E+01 0.  1.
       -4    1    3    3    0  502  0.10685650223E+04 -0.17843369336E+03  0.63244580605E+03  0.12544556988E+04  0.12699999809E+01 0. -1.
</event>
<event>
 5   0  0.1888149E-07  0.2699437E+04  0.7818609E-02  0.8335188E-01
        1   -1    0    0  501    0  0.00000000000E+00  0.00000000000E+00  0.20560034195E+04  0.20560034195E+04  0.50400001928E-02 0. -1.
       -1   -1    0    0    0  501  0.00000000000E+00  0.00000000000E+00 -0.88605879828E+03  0.88605879830E+03  0.50400001928E-02 0.  1.
    10030    2    1    2    0    0  0.00000000000E+00  0.00000000000E+00  0.11699446212E+04  0.29420622178E+04  0.26994369184E+04 0.  0.
        1    1    3    3  502    0 -0.11217593123E+04  0.70946936398E+03  0.31789792870E+03  0.13648259326E+04  0.50400001928E-02 0.  1.
       -1    1    3    3    0  502  0.11217593123E+04 -0.70946936398E+03  0.85204669248E+03  0.15772362852E+04  0.50400001928E-02 0. -1.
</event>
<event>
 5   0  0.1971600E-07  0.2701044E+04  0.7818609E-02  0.8334666E-01
        1   -1    0    0  501    0  0.00000000000E+00  0.00000000000E+00  0.18194676471E+04  0.18194676471E+04  0.50400001928E-02 0. -1.
       -1   -1    0    0    0  501  0.00000000000E+00  0.00000000000E+00 -0.10024417054E+04  0.10024417054E+04  0.50400001928E-02 0.  1.
    10030    2    1    2    0    0  0.00000000000E+00  0.00000000000E+00  0.81702594166E+03  0.28219093525E+04  0.27010444284E+04 0.  0.
        5    1    3    3  502    0 -0.12376697027E+04  0.24977338411E+02 -0.15549393367E+03  0.12476580516E+04  0.46999998093E+01 0.  1.
       -5    1    3    3    0  502  0.12376697027E+04 -0.24977338411E+02  0.97251987534E+03  0.15742513009E+04  0.46999998093E+01 0. -1.
</event>
<event>
 5   0  0.1888149E-07  0.2699478E+04  0.7818609E-02  0.8335174E-01
        1   -1    0    0  501    0  0.00000000000E+00  0.00000000000E+00  0.22330323716E+04  0.22330323716E+04  0.50400001928E-02 0. -1.
       -1   -1    0    0    0  501  0.00000000000E+00  0.00000000000E+00 -0.81583929369E+03  0.81583929371E+03  0.50400001928E-02 0.  1.
    10030    2    1    2    0    0  0.00000000000E+00  0.00000000000E+00  0.14171930779E+04  0.30488716653E+04  0.26994781369E+04 0.  0.
        1    1    3    3  502    0 -0.24630784485E+03 -0.85692185527E+03  0.18530680718E+04  0.20564153032E+04  0.50400001928E-02 0. -1.
       -1    1    3    3    0  502  0.24630784485E+03  0.85692185527E+03 -0.43587499386E+03  0.99245636215E+03  0.50400001928E-02 0.  1.
</event>
<event>
 5   0  0.4735120E-07  0.2699792E+04  0.7818609E-02  0.8335072E-01
       -2   -1    0    0    0  501  0.00000000000E+00  0.00000000000E+00  0.83916336649E+03  0.83916336649E+03  0.25500000920E-02 0.  1.
        2   -1    0    0  501    0  0.00000000000E+00  0.00000000000E+00 -0.21714719793E+04  0.21714719793E+04  0.25500000920E-02 0. -1.
    10030    2    1    2    0    0  0.00000000000E+00  0.00000000000E+00 -0.13323086128E+04  0.30106353458E+04  0.26997923893E+04 0.  0.
        2    1    3    3  502    0 -0.13233475029E+04 -0.78595362084E+02 -0.38230043548E+03  0.13797026735E+04  0.25500000920E-02 0. -1.
       -2    1    3    3    0  502  0.13233475029E+04  0.78595362084E+02 -0.95000817730E+03  0.16309326722E+04  0.25500000920E-02 0.  1.
</event>
<event>
 5   0  0.5043890E-07  0.2719526E+04  0.7818609E-02  0.8328697E-01
       -2   -1    0    0    0  501  0.00000000000E+00  0.00000000000E+00  0.15029239393E+04  0.15029239393E+04  0.25500000920E-02 0. -1.
        2   -1    0    0  501    0  0.00000000000E+00  0.00000000000E+00 -0.12302392936E+04  0.12302392936E+04  0.25500000920E-02 0.  1.
    10030    2    1    2    0    0  0.00000000000E+00  0.00000000000E+00  0.27268464563E+03  0.27331632329E+04  0.27195264922E+04 0.  0.
        3    1    3    3  502    0 -0.44410404143E+03  0.12751470685E+04  0.29754496701E+03  0.13826646244E+04  0.10100000352E+00 0.  1.
       -3    1    3    3    0  502  0.44410404143E+03 -0.12751470685E+04 -0.24860321387E+02  0.13504986085E+04  0.10100000352E+00 0. -1.
</event>
<event>
 5   0  0.1971600E-07  0.2700753E+04  0.7818609E-02  0.8334761E-01
       -1   -1    0    0    0  501  0.00000000000E+00  0.00000000000E+00  0.15515307938E+04  0.15515307938E+04  0.50400001928E-02 0.  1.
        1   -1    0    0  501    0  0.00000000000E+00  0.00000000000E+00 -0.11753014581E+04  0.11753014581E+04  0.50400001928E-02 0. -1.
    10030    2    1    2    0    0  0.00000000000E+00  0.00000000000E+00  0.37622933563E+03  0.27268322519E+04  0.27007527871E+04 0.  0.
        5    1    3    3  502    0 -0.46228405170E+03 -0.81217292988E+03  0.11722903365E+04  0.14992058350E+04  0.46999998093E+01 0.  1.
       -5    1    3    3    0  502  0.46228405170E+03  0.81217292988E+03 -0.79606100089E+03  0.12276264170E+04  0.46999998093E+01 0. -1.
</event>
<event>
 5   0  0.4843887E-07  0.2699459E+04  0.7818609E-02  0.8335180E-01
       -2   -1    0    0    0  501  0.00000000000E+00  0.00000000000E+00  0.12685878000E+04  0.12685878000E+04  0.25500000920E-02 0. -1.
        2   -1    0    0  501    0  0.00000000000E+00  0.00000000000E+00 -0.14360613159E+04  0.14360613159E+04  0.25500000920E-02 0.  1.
    10030    2    1    2    0    0  0.00000000000E+00  0.00000000000E+00 -0.16747351587E+03  0.27046491158E+04  0.26994591053E+04 0.  0.
        5    1    3    3  502    0  0.57929035930E+03  0.57513236296E+03  0.99322203187E+03  0.12856386156E+04  0.46999998093E+01 0. -1.
       -5    1    3    3    0  502 -0.57929035930E+03 -0.57513236296E+03 -0.11606955477E+04  0.14190105003E+04  0.46999998093E+01 0.  1.
</event>
<event>
 5   0  0.4843887E-07  0.2698960E+04  0.7818609E-02  0.8335343E-01
        2   -1    0    0  501    0  0.00000000000E+00  0.00000000000E+00  0.21060547199E+04  0.21060547199E+04  0.25500000920E-02 0.  1.
       -2   -1    0    0    0  501  0.00000000000E+00  0.00000000000E+00 -0.86469544765E+03  0.86469544765E+03  0.25500000920E-02 0. -1.
    10030    2    1    2    0    0  0.00000000000E+00  0.00000000000E+00  0.12413592722E+04  0.29707501675E+04  0.26989597469E+04 0.  0.
        5    1    3    3  502    0  0.59124881946E+03 -0.10029550362E+04 -0.13036685096E+03  0.11715423923E+04  0.46999998093E+01 0. -1.
       -5    1    3    3    0  502 -0.59124881946E+03  0.10029550362E+04  0.13717261232E+04  0.17992077752E+04  0.46999998093E+01 0.  1.
</event>
<event>
 5   0  0.4843887E-07  0.2698590E+04  0.7818609E-02  0.8335462E-01
        2   -1    0    0  501    0  0.00000000000E+00  0.00000000000E+00  0.18674783967E+04  0.18674783967E+04  0.25500000920E-02 0.  1.
       -2   -1    0    0    0  501  0.00000000000E+00  0.00000000000E+00 -0.97489621698E+03  0.97489621698E+03  0.25500000920E-02 0. -1.
    10030    2    1    2    0    0  0.00000000000E+00  0.00000000000E+00  0.89258217967E+03  0.28423746136E+04  0.26985904648E+04 0.  0.
        5    1    3    3  502    0 -0.94262545585E+03  0.77786442606E+03 -0.15597922767E+03  0.12320582067E+04  0.46999998093E+01 0. -1.
       -5    1    3    3    0  502  0.94262545585E+03 -0.77786442606E+03  0.10485614073E+04  0.16103164069E+04  0.46999998093E+01 0.  1.
</event>
<event>
 5   0  0.1888149E-07  0.2700228E+04  0.7818609E-02  0.8334931E-01
        1   -1    0    0  501    0  0.00000000000E+00  0.00000000000E+00  0.26563974851E+04  0.26563974851E+04  0.50400001928E-02 0.  1.
       -1   -1    0    0    0  501  0.00000000000E+00  0.00000000000E+00 -0.68619547547E+03  0.68619547549E+03  0.50400001928E-02 0. -1.
    10030    2    1    2    0    0  0.00000000000E+00  0.00000000000E+00  0.19702020096E+04  0.33425929606E+04  0.27002280906E+04 0.  0.
        1    1    3    3  502    0  0.12413885435E+04  0.40737975383E+03  0.56384595959E+03  0.14229989620E+04  0.50400001928E-02 0. -1.
       -1    1    3    3    0  502 -0.12413885435E+04 -0.40737975383E+03  0.14063560500E+04  0.19195939985E+04  0.50400001928E-02 0.  1.
</event>
<event>
 5   0  0.4983208E-07  0.2700983E+04  0.7818609E-02  0.8334686E-01
       -2   -1    0    0    0  501  0.00000000000E+00  0.00000000000E+00  0.11386666498E+04  0.11386666498E+04  0.25500000920E-02 0.  1.
        2   -1    0    0  501    0  0.00000000000E+00  0.00000000000E+00 -0.16017219535E+04  0.16017219535E+04  0.25500000920E-02 0. -1.
    10030    2    1    2    0    0  0.00000000000E+00  0.00000000000E+00 -0.46305530376E+03  0.27403886033E+04  0.27009830586E+04 0.  0.
        4    1    3    3  502    0 -0.11833692736E+03  0.29893246373E+03 -0.15623275939E+04  0.15950653184E+04  0.12699999809E+01 0. -1.
       -4    1    3    3    0  502  0.11833692736E+03 -0.29893246373E+03  0.10992722902E+04  0.11453232850E+04  0.12699999809E+01 0.  1.
</event>
<event>
 5   0  0.1888149E-07  0.2704548E+04  0.7818609E-02  0.8333531E-01
       -1   -1    0    0    0  501  0.00000000000E+00  0.00000000000E+00  0.13122067126E+04  0.13122067126E+04  0.50400001928E-02 0.  1.
        1   -1    0    0  501    0  0.00000000000E+00  0.00000000000E+00 -0.13935647534E+04  0.13935647535E+04  0.50400001928E-02 0. -1.
    10030    2    1    2    0    0  0.00000000000E+00  0.00000000000E+00 -0.81358040876E+02  0.27057714660E+04  0.27045480391E+04 0.  0.
        1    1    3    3  502    0 -0.32436282328E+03  0.19043181380E+03 -0.13401774873E+04  0.13919594873E+04  0.50400001928E-02 0. -1.
       -1    1    3    3    0  502  0.32436282328E+03 -0.19043181380E+03  0.12588194464E+04  0.13138119787E+04  0.50400001928E-02 0.  1.
</event>
<event>
 5   0  0.1937896E-07  0.2701061E+04  0.7818609E-02  0.8334661E-01
       -1   -1    0    0    0  501  0.00000000000E+00  0.00000000000E+00  0.16572369493E+04  0.16572369494E+04  0.50400001928E-02 0. -1.
        1   -1    0    0  501    0  0.00000000000E+00  0.00000000000E+00 -0.11005861125E+04  0.11005861125E+04  0.50400001928E-02 0.  1.
    10030    2    1    2    0    0  0.00000000000E+00  0.00000000000E+00  0.55665083681E+03  0.27578230619E+04  0.27010605115E+04 0.  0.
        3    1    3    3  502    0  0.82803790578E+03 -0.10415550330E+04  0.51437271901E+03  0.14265563307E+04  0.10100000352E+00 0. -1.
       -3    1    3    3    0  502 -0.82803790578E+03  0.10415550330E+04  0.42278117798E+02  0.13312667312E+04  0.10100000352E+00 0.  1.
</event>
<event>
 5   0  0.1965415E-07  0.2712105E+04  0.7818609E-02  0.8331088E-01
       -1   -1    0    0    0  501  0.00000000000E+00  0.00000000000E+00  0.11828526282E+04  0.11828526282E+04  0.50400001928E-02 0.  1.
        1   -1    0    0  501    0  0.00000000000E+00  0.00000000000E+00 -0.15546135194E+04  0.15546135194E+04  0.50400001928E-02 0. -1.
    10030    2    1    2    0    0  0.00000000000E+00  0.00000000000E+00 -0.37176089128E+03  0.27374661476E+04  0.27121052246E+04 0.  0.
        4    1    3    3  502    0  0.23790804405E+03 -0.43301309427E+03  0.10887730322E+04  0.11956290837E+04  0.12699999809E+01 0.  1.
       -4    1    3    3    0  502 -0.23790804405E+03  0.43301309427E+03 -0.14605339235E+04  0.15418370639E+04  0.12699999809E+01 0. -1.
</event>
<event>
 5   0  0.4983208E-07  0.2698626E+04  0.7818609E-02  0.8335451E-01
        2   -1    0    0  501    0  0.00000000000E+00  0.00000000000E+00  0.15390669831E+04  0.15390669832E+04  0.25500000920E-02 0. -1.
       -2   -1    0    0    0  501  0.00000000000E+00  0.00000000000E+00 -0.11829540434E+04  0.11829540435E+04  0.25500000920E-02 0.  1.
    10030    2    1    2    0    0  0.00000000000E+00  0.00000000000E+00  0.35611293970E+03  0.27220210266E+04  0.26986259547E+04 0.  0.
        4    1    3    3  502    0 -0.10414167322E+04  0.71854723561E+03 -0.29482006703E+03  0.12991456519E+04  0.12699999809E+01 0.  1.
       -4    1    3    3    0  502  0.10414167322E+04 -0.71854723561E+03  0.65093300674E+03  0.14228753747E+04  0.12699999809E+01 0. -1.
</event>
<event>
 5   0  0.1965415E-07  0.2700034E+04  0.7818609E-02  0.8334994E-01
       -1   -1    0    0    0  501  0.00000000000E+00  0.00000000000E+00  0.11216250769E+04  0.11216250769E+04  0.50400001928E-02 0.  1.
        1   -1    0    0  501    0  0.00000000000E+00  0.00000000000E+00 -0.16249151442E+04  0.16249151442E+04  0.50400001928E-02 0. -1.
    10030    2    1    2    0    0  0.00000000000E+00  0.00000000000E+00 -0.50329006735E+03  0.27465402211E+04  0.27000337580E+04 0.  0.
        4    1    3    3  502    0  0.12762413027E+04  0.10813942333E+02  0.19597433969E+03  0.12912460489E+04  0.12699999809E+01 0.  1.
       -4    1    3    3    0  502 -0.12762413027E+04 -0.10813942333E+02 -0.69926440704E+03  0.14552941723E+04  0.12699999809E+01 0. -1.
</event>
<event>
 5   0  0.1937896E-07  0.2698983E+04  0.7818609E-02  0.8335335E-01
       -1   -1    0    0    0  501  0.00000000000E+00  0.00000000000E+00  0.79234661207E+03  0.79234661209E+03  0.50400001928E-02 0. -1.
        1   -1    0    0  501    0  0.00000000000E+00  0.00000000000E+00 -0.22983972246E+04  0.22983972246E+04  0.50400001928E-02 0.  1.
    10030    2    1    2    0    0  0.00000000000E+00  0.00000000000E+00 -0.15060506125E+04  0.30907438367E+04  0.26989829597E+04 0.  0.
        3    1    3    3  502    0 -0.63341761270E+03 -0.61675811755E+02 -0.21157579797E+04  0.22094011896E+04  0.10100000352E+00 0.  1.
       -3    1    3    3    0  502  0.63341761270E+03  0.61675811755E+02  0.60970736715E+03  0.88134264710E+03  0.10100000352E+00 0. -1.
</event>
<event>
 5   0  0.4992668E-07  0.2697864E+04  0.7818609E-02  0.8335698E-01
        2   -1    0    0  501    0  0.00000000000E+00  0.00000000000E+00  0.12621085286E+04  0.12621085286E+04  0.25500000920E-02 0. -1.
       -2   -1    0    0    0  501  0.00000000000E+00  0.00000000000E+00 -0.14417279592E+04  0.14417279592E+04  0.25500000920E-02 0.  1.
    10030    2    1    2    0    0  0.00000000000E+00  0.00000000000E+00 -0.17961943062E+03  0.27038364878E+04  0.26978637128E+04 0.  0.
        1    1    3    3  502    0 -0.12381645532E+04  0.24076177653E+03 -0.56898898061E+03  0.13837507557E+04  0.50400001928E-02 0.  1.
       -1    1    3    3    0  502  0.12381645532E+04 -0.24076177653E+03  0.38936954999E+03  0.13200857321E+04  0.50400001928E-02 0. -1.
</event>
<event>
 5   0  0.4843887E-07  0.2698236E+04  0.7818609E-02  0.8335578E-01
        2   -1    0    0  501    0  0.00000000000E+00  0.00000000000E+00  0.16488617330E+04  0.16488617330E+04  0.25500000920E-02 0. -1.
       -2   -1    0    0    0  501  0.00000000000E+00  0.00000000000E+00 -0.11038637950E+04  0.11038637950E+04  0.25500000920E-02 0.  1.
    10030    2    1    2    0    0  0.00000000000E+00  0.00000000000E+00  0.54499793799E+03  0.27527255280E+04  0.26982355494E+04 0.  0.
        5    1    3    3  502    0 -0.30512395373E+03  0.24129088298E+03 -0.10453993746E+04  0.11154388642E+04  0.46999998093E+01 0.  1.
       -5    1    3    3    0  502  0.30512395373E+03 -0.24129088298E+03  0.15903973126E+04  0.16372866638E+04  0.46999998093E+01 0. -1.
</event>
<event>
 5   0  0.1965415E-07  0.2699209E+04  0.7818609E-02  0.8335262E-01
       -1   -1    0    0    0  501  0.00000000000E+00  0.00000000000E+00  0.10601775183E+04  0.10601775183E+04  0.50400001928E-02 0.  1.
        1   -1    0    0  501    0  0.00000000000E+00  0.00000000000E+00 -0.17180444407E+04  0.17180444407E+04  0.50400001928E-02 0. -1.
    10030    2    1    2    0    0  0.00000000000E+00  0.00000000000E+00 -0.65786692248E+03  0.27782219590E+04  0.26992088407E+04 0.  0.
        4    1    3    3  502    0  0.13426014253E+04 -0.10641921792E+03 -0.23963646800E+03  0.13679659670E+04  0.12699999809E+01 0. -1.
       -4    1    3    3    0  502 -0.13426014253E+04  0.10641921792E+03 -0.41823045448E+03  0.14102559920E+04  0.12699999809E+01 0.  1.
</event>
<event>
 5   0  0.4983208E-07  0.2700595E+04  0.7818609E-02  0.8334812E-01
        2   -1    0    0  501    0  0.00000000000E+00  0.00000000000E+00  0.14050075067E+04  0.14050075067E+04  0.25500000920E-02 0. -1.
       -2   -1    0    0    0  501  0.00000000000E+00  0.00000000000E+00 -0.12977176722E+04  0.12977176722E+04  0.25500000920E-02 0.  1.
    10030    2    1    2    0    0  0.00000000000E+00  0.00000000000E+00  0.10728983451E+03  0.27027251789E+04  0.27005948019E+04 0.  0.
        4    1    3    3  502    0  0.51305842122E+02  0.31757775500E+03 -0.12588062150E+04  0.12992623367E+04  0.12699999809E+01 0.  1.
       -4    1    3    3    0  502 -0.51305842122E+02 -0.31757775500E+03  0.13660960495E+04  0.14034628421E+04  0.12699999809E+01 0. -1.
</event>
<event>
 5   0  0.4735120E-07  0.2702686E+04  0.7818609E-02  0.8334134E-01
       -2   -1    0    0    0  501  0.00000000000E+00  0.00000000000E+00  0.13861660507E+04  0.13861660507E+04  0.25500000920E-02 0. -1.
        2   -1    0    0  501    0  0.00000000000E+00  0.00000000000E+00 -0.13173951108E+04  0.13173951108E+04  0.25500000920E-02 0.  1.
    10030    2    1    2    0    0  0.00000000000E+00  0.00000000000E+00  0.68770939922E+02  0.27035611614E+04  0.27026863509E+04 0.  0.
        2    1    3    3  502    0 -0.17648915455E+03 -0.76223832642E+02 -0.13036460374E+04  0.13177448483E+04  0.25500000920E-02 0.  1.
       -2    1    3    3    0  502  0.17648915455E+03  0.76223832642E+02  0.13724169773E+04  0.13858163132E+04  0.25500000920E-02 0. -1.
</event>
<event>
 5   0  0.1888149E-07  0.2699548E+04  0.7818609E-02  0.8335152E-01
       -1   -1    0    0    0  501  0.00000000000E+00  0.00000000000E+00  0.71177181011E+03  0.71177181013E+03  0.50400001928E-02 0.  1.
        1   -1    0    0  501    0  0.00000000000E+00  0.00000000000E+00 -0.25596535714E+04  0.25596535714E+04  0.50400001928E-02 0. -1.
    10030    2    1    2    0    0  0.00000000000E+00  0.00000000000E+00 -0.18478817613E+04  0.32714253816E+04  0.26995475590E+04 0.  0.
        1    1    3    3  502    0  0.31289828568E+03 -0.72625639769E+03  0.40164796644E+03  0.88694688755E+03  0.50400001928E-02 0.  1.
       -1    1    3    3    0  502 -0.31289828568E+03  0.72625639769E+03 -0.22495297278E+04  0.23844784940E+04  0.50400001928E-02 0. -1.
</event>
<event>
 5   0  0.4735120E-07  0.2699924E+04  0.7818609E-02  0.8335030E-01
       -2   -1    0    0    0  501  0.00000000000E+00  0.00000000000E+00  0.13457599677E+04  0.13457599677E+04  0.25500000920E-02 0. -1.
        2   -1    0    0  501    0  0.00000000000E+00  0.00000000000E+00 -0.13541768501E+04  0.13541768501E+04  0.25500000920E-02 0.  1.
    10030    2    1    2    0    0  0.00000000000E+00  0.00000000000E+00 -0.84168823874E+01  0.26999368179E+04  0.26999236983E+04 0.  0.
        2    1    3    3  502    0 -0.48417953915E+03  0.16459610930E+03  0.12451475762E+04  0.13460736205E+04  0.25500000920E-02 0. -1.
       -2    1    3    3    0  502  0.48417953915E+03 -0.16459610930E+03 -0.12535644586E+04  0.13538631973E+04  0.25500000920E-02 0.  1.
</event>
<event>
 5   0  0.1964242E-07  0.2702078E+04  0.7818609E-02  0.8334331E-01
        1   -1    0    0  501    0  0.00000000000E+00  0.00000000000E+00  0.15671936937E+04  0.15671936937E+04  0.50400001928E-02 0.  1.
       -1   -1    0    0    0  501  0.00000000000E+00  0.00000000000E+00 -0.11646974557E+04  0.11646974557E+04  0.50400001928E-02 0. -1.
    10030    2    1    2    0    0  0.00000000000E+00  0.00000000000E+00  0.40249623801E+03  0.27318911493E+04  0.27020780948E+04 0.  0.
        2    1    3    3  502    0  0.11742934477E+04  0.54697053939E+02 -0.47194345856E+03  0.12667626049E+04  0.25500000920E-02 0. -1.
       -2    1    3    3    0  502 -0.11742934477E+04 -0.54697053939E+02  0.87443969657E+03  0.14651285445E+04  0.25500000920E-02 0.  1.
</event>
<event>
 5   0  0.1888149E-07  0.2699451E+04  0.7818609E-02  0.8335183E-01
        1   -1    0    0  501    0  0.00000000000E+00  0.00000000000E+00  0.18251697195E+04  0.18251697195E+04  0.50400001928E-02 0. -1.
       -1   -1    0    0    0  501  0.00000000000E+00  0.00000000000E+00 -0.99813092344E+03  0.99813092345E+03  0.50400001928E-02 0.  1.
    10030    2    1    2    0    0  0.00000000000E+00  0.00000000000E+00  0.82703879602E+03  0.28233006429E+04  0.26994505645E+04 0.  0.
        1    1    3    3  502    0  0.56939781500E+03 -0.77447420919E+03  0.14044782585E+04  0.17019351783E+04  0.50400001928E-02 0. -1.
       -1    1    3    3    0  502 -0.56939781500E+03  0.77447420919E+03 -0.57743946248E+03  0.11213654646E+04  0.50400001928E-02 0.  1.
</event>
<event>
 5   0  0.4992668E-07  0.2699330E+04  0.7818609E-02  0.8335222E-01
       -2   -1    0    0    0  501  0.00000000000E+00  0.00000000000E+00  0.76468047098E+03  0.76468047098E+03  0.25500000920E-02 0.  1.
        2   -1    0    0  501    0  0.00000000000E+00  0.00000000000E+00 -0.23821656169E+04  0.23821656169E+04  0.25500000920E-02 0. -1.
    10030    2    1    2    0    0  0.00000000000E+00  0.00000000000E+00 -0.16174851459E+04  0.31468460879E+04  0.26993299361E+04 0.  0.
        1    1    3    3  502    0  0.35087454943E+03 -0.60415391784E+03 -0.21549527988E+04  0.22653777767E+04  0.50400001928E-02 0. -1.
       -1    1    3    3    0  502 -0.35087454943E+03  0.60415391784E+03  0.53746765285E+03  0.88146831126E+03  0.50400001928E-02 0.  1.
</event>
<event>
 5   0  0.4735120E-07  0.2699569E+04  0.7818609E-02  0.8335145E-01
        2   -1    0    0  501    0  0.00000000000E+00  0.00000000000E+00  0.10802252595E+04  0.10802252595E+04  0.25500000920E-02 0. -1.
       -2   -1    0    0    0  501  0.00000000000E+00  0.00000000000E+00 -0.16866093312E+04  0.16866093312E+04  0.25500000920E-02 0.  1.
    10030    2    1    2    0    0  0.00000000000E+00  0.00000000000E+00 -0.60638407169E+03  0.27668345906E+04  0.26995688562E+04 0.  0.
        2    1    3    3  502    0 -0.64272760755E+03 -0.15173425137E+03 -0.15097228830E+04  0.16478426029E+04  0.25500000920E-02 0.  1.
       -2    1    3    3    0  502  0.64272760755E+03  0.15173425137E+03  0.90333881132E+03  0.11189919877E+04  0.25500000920E-02 0. -1.
</event>
<event>
 5   0  0.1888149E-07  0.2701021E+04  0.7818609E-02  0.8334674E-01
        1   -1    0    0  501    0  0.00000000000E+00  0.00000000000E+00  0.10329897666E+04  0.10329897666E+04  0.50400001928E-02 0. -1.
       -1   -1    0    0    0  501  0.00000000000E+00  0.00000000000E+00 -0.17656313060E+04  0.17656313060E+04  0.50400001928E-02 0.  1.
    10030    2    1    2    0    0  0.00000000000E+00  0.00000000000E+00 -0.73264153939E+03  0.27986210727E+04  0.27010213407E+04 0.  0.
        1    1    3    3  502    0  0.22543411324E+03  0.37240330892E+03 -0.16909424152E+04  0.17460787540E+04  0.50400001928E-02 0.  1.
       -1    1    3    3    0  502 -0.22543411324E+03 -0.37240330892E+03  0.95830087578E+03  0.10525423186E+04  0.50400001928E-02 0. -1.
</event>
<event>
 5   0  0.1964242E-07  0.2700195E+04  0.7818609E-02  0.8334942E-01
        1   -1    0    0  501    0  0.00000000000E+00  0.00000000000E+00  0.22126360708E+04  0.22126360708E+04  0.50400001928E-02 0. -1.
       -1   -1    0    0    0  501  0.00000000000E+00  0.00000000000E+00 -0.82379699419E+03  0.82379699421E+03  0.50400001928E-02 0.  1.
    10030    2    1    2    0    0  0.00000000000E+00  0.00000000000E+00  0.13888390766E+04  0.30364330650E+04  0.27001947666E+04 0.  0.
        2    1    3    3  502    0  0.71309864404E+03  0.73883859896E+03  0.16801406199E+04  0.19690771072E+04  0.25500000920E-02 0. -1.
       -2    1    3    3    0  502 -0.71309864404E+03 -0.73883859896E+03 -0.29130154333E+03  0.10673559578E+04  0.25500000920E-02 0.  1.
</event>
<event>
 5   0  0.4992668E-07  0.2700207E+04  0.7818609E-02  0.8334938E-01
       -2   -1    0    0    0  501  0.00000000000E+00  0.00000000000E+00  0.10248219673E+04  0.10248219673E+04  0.25500000920E-02 0. -1.
        2   -1    0    0  501    0  0.00000000000E+00  0.00000000000E+00 -0.17786297146E+04  0.17786297146E+04  0.25500000920E-02 0.  1.
    10030    2    1    2    0    0  0.00000000000E+00  0.00000000000E+00 -0.75380774731E+03  0.28034516819E+04  0.27002065130E+04 0.  0.
        1    1    3    3  502    0  0.48687476370E+03  0.19117743256E+03  0.91534883200E+03  0.10542577154E+04  0.50400001928E-02 0. -1.
       -1    1    3    3    0  502 -0.48687476370E+03 -0.19117743256E+03 -0.16691565793E+04  0.17491939665E+04  0.50400001928E-02 0.  1.
</event>
<event>
 5   0  0.1964242E-07  0.2699064E+04  0.7818609E-02  0.8335309E-01
        1   -1    0    0  501    0  0.00000000000E+00  0.00000000000E+00  0.17992496706E+04  0.17992496706E+04  0.50400001928E-02 0. -1.
       -1   -1    0    0    0  501  0.00000000000E+00  0.00000000000E+00 -0.10122197145E+04  0.10122197145E+04  0.50400001928E-02 0.  1.
    10030    2    1    2    0    0  0.00000000000E+00  0.00000000000E+00  0.78702995611E+03  0.28114693851E+04  0.26990635323E+04 0.  0.
        2    1    3    3  502    0 -0.37212844040E+03 -0.12299943961E+04  0.82283273016E+03  0.15259159520E+04  0.25500000920E-02 0. -1.
       -2    1    3    3    0  502  0.37212844040E+03  0.12299943961E+04 -0.35802774047E+02  0.12855534331E+04  0.25500000920E-02 0.  1.
</event>
<event>
 5   0  0.1937896E-07  0.2703225E+04  0.7818609E-02  0.8333959E-01
        1   -1    0    0  501    0  0.00000000000E+00  0.00000000000E+00  0.17029649566E+04  0.17029649566E+04  0.50400001928E-02 0. -1.
       -1   -1    0    0    0  501  0.00000000000E+00  0.00000000000E+00 -0.10727504454E+04  0.10727504454E+04  0.50400001928E-02 0.  1.
    10030    2    1    2    0    0  0.00000000000E+00  0.00000000000E+00  0.63021451123E+03  0.27757154020E+04  0.27032250485E+04 0.  0.
        3    1    3    3  502    0 -0.13502671968E+03 -0.99151872750E+03 -0.61783586160E+03  0.11760368889E+04  0.10100000352E+00 0.  1.
       -3    1    3    3    0  502  0.13502671968E+03  0.99151872750E+03  0.12480503728E+04  0.15996785131E+04  0.10100000352E+00 0. -1.
</event>
<event>
 5   0  0.4983208E-07  0.2699721E+04  0.7818609E-02  0.8335096E-01
       -2   -1    0    0    0  501  0.00000000000E+00  0.00000000000E+00  0.16272875897E+04  0.16272875897E+04  0.25500000920E-02 0. -1.
        2   -1    0    0  501    0  0.00000000000E+00  0.00000000000E+00 -0.11197300155E+04  0.11197300155E+04  0.25500000920E-02 0.  1.
    10030    2    1    2    0    0  0.00000000000E+00  0.00000000000E+00  0.50755757423E+03  0.27470176052E+04  0.26997205471E+04 0.  0.
        4    1    3    3  502    0  0.45973790005E+03 -0.68595182842E+03  0.13403027278E+04  0.15742623233E+04  0.12699999809E+01 0. -1.
       -4    1    3    3    0  502 -0.45973790005E+03  0.68595182842E+03 -0.83274515352E+03  0.11727552819E+04  0.12699999809E+01 0.  1.
</event>
<event>
 5   0  0.4983208E-07  0.2700000E+04  0.7818609E-02  0.8335005E-01
        2   -1    0    0  501    0  0.00000000000E+00  0.00000000000E+00  0.17290637194E+04  0.17290637194E+04  0.25500000920E-02 0. -1.
       -2   -1    0    0    0  501  0.00000000000E+00  0.00000000000E+00 -0.10540386608E+04  0.10540386608E+04  0.25500000920E-02 0.  1.
    10030    2    1    2    0    0  0.00000000000E+00  0.00000000000E+00  0.67502505861E+03  0.27831023802E+04  0.27000000053E+04 0.  0.
        4    1    3    3  502    0  0.28057242788E+03 -0.10860028549E+04  0.11118841337E+04  0.15793704530E+04  0.12699999809E+01 0. -1.
       -4    1    3    3    0  502 -0.28057242788E+03  0.10860028549E+04 -0.43685907507E+03  0.12037319272E+04  0.12699999809E+01 0.  1.
</event>
<event>
 5   0  0.4983208E-07  0.2700937E+04  0.7818609E-02  0.8334701E-01
        2   -1    0    0  501    0  0.00000000000E+00  0.00000000000E+00  0.21052809524E+04  0.21052809524E+04  0.25500000920E-02 0.  1.
       -2   -1    0    0    0  501  0.00000000000E+00  0.00000000000E+00 -0.86628139952E+03  0.86628139952E+03  0.25500000920E-02 0. -1.
    10030    2    1    2    0    0  0.00000000000E+00  0.00000000000E+00  0.12389995529E+04  0.29715623519E+04  0.27009374149E+04 0.  0.
        4    1    3    3  502    0 -0.95927325991E+03  0.78625741153E+02 -0.42271631644E+03  0.10512268506E+04  0.12699999809E+01 0. -1.
       -4    1    3    3    0  502  0.95927325991E+03 -0.78625741153E+02  0.16617158693E+04  0.19203355013E+04  0.12699999809E+01 0.  1.
</event>
<event>
 5   0  0.5043890E-07  0.2700646E+04  0.7818609E-02  0.8334795E-01
        2   -1    0    0  501    0  0.00000000000E+00  0.00000000000E+00  0.15989797869E+04  0.15989797869E+04  0.25500000920E-02 0. -1.
       -2   -1    0    0    0  501  0.00000000000E+00  0.00000000000E+00 -0.11403345698E+04  0.11403345698E+04  0.25500000920E-02 0.  1.
    10030    2    1    2    0    0  0.00000000000E+00  0.00000000000E+00  0.45864521711E+03  0.27393143567E+04  0.27006457950E+04 0.  0.
        3    1    3    3  502    0 -0.88135687503E+02  0.99175047727E+03  0.11545426806E+04  0.15245673878E+04  0.10100000352E+00 0. -1.
       -3    1    3    3    0  502  0.88135687503E+02 -0.99175047727E+03 -0.69589746347E+03  0.12147469689E+04  0.10100000352E+00 0.  1.
</event>
<event>
 5   0  0.1888149E-07  0.2699951E+04  0.7818609E-02  0.8335021E-01
        1   -1    0    0  501    0  0.00000000000E+00  0.00000000000E+00  0.95112961783E+03  0.95112961785E+03  0.50400001928E-02 0. -1.
       -1   -1    0    0    0  501  0.00000000000E+00  0.00000000000E+00 -0.19160734950E+04  0.19160734950E+04  0.50400001928E-02 0.  1.
    10030    2    1    2    0    0  0.00000000000E+00  0.00000000000E+00 -0.96494387714E+03  0.28672031128E+04  0.26999512966E+04 0.  0.
        1    1    3    3  502    0  0.57139873532E+03  0.28501595114E+03 -0.17455647556E+04  0.18586895715E+04  0.50400001928E-02 0.  1.
       -1    1    3    3    0  502 -0.57139873532E+03 -0.28501595114E+03  0.78062087847E+03  0.10085135413E+04  0.50400001928E-02 0. -1.
</event>
<event>
 5   0  0.4735120E-07  0.2699584E+04  0.7818609E-02  0.8335140E-01
        2   -1    0    0  501    0  0.00000000000E+00  0.00000000000E+00  0.14888938610E+04  0.14888938610E+04  0.25500000920E-02 0.  1.
       -2   -1    0    0    0  501  0.00000000000E+00  0.00000000000E+00 -0.12236862327E+04  0.12236862327E+04  0.25500000920E-02 0. -1.
    10030    2    1    2    0    0  0.00000000000E+00  0.00000000000E+00  0.26520762830E+03  0.27125800937E+04  0.26995843529E+04 0.  0.
        2    1    3    3  502    0  0.73905902739E+03 -0.85335441437E+03 -0.61090212041E+03  0.12835978355E+04  0.25500000920E-02 0. -1.
       -2    1    3    3    0  502 -0.73905902739E+03  0.85335441437E+03  0.87610974871E+03  0.14289822582E+04  0.25500000920E-02 0.  1.
</event>
<event>
 5   0  0.4992668E-07  0.2700637E+04  0.7818609E-02  0.8334798E-01
        2   -1    0    0  501    0  0.00000000000E+00  0.00000000000E+00  0.12306489551E+04  0.12306489551E+04  0.25500000920E-02 0. -1.
       -2   -1    0    0    0  501  0.00000000000E+00  0.00000000000E+00 -0.14816245811E+04  0.14816245811E+04  0.25500000920E-02 0.  1.
    10030    2    1    2    0    0  0.00000000000E+00  0.00000000000E+00 -0.25097562600E+03  0.27122735363E+04  0.27006367713E+04 0.  0.
        1    1    3    3  502    0 -0.38679746720E+03  0.20745104508E+03  0.11570077768E+04  0.12374632165E+04  0.50400001928E-02 0. -1.
       -1    1    3    3    0  502  0.38679746720E+03 -0.20745104508E+03 -0.14079834028E+04  0.14748103197E+04  0.50400001928E-02 0.  1.
</event>
<event>
 5   0  0.1964242E-07  0.2700137E+04  0.7818609E-02  0.8334960E-01
        1   -1    0    0  501    0  0.00000000000E+00  0.00000000000E+00  0.24049996589E+04  0.24049996589E+04  0.50400001928E-02 0.  1.
       -1   -1    0    0    0  501  0.00000000000E+00  0.00000000000E+00 -0.75787339135E+03  0.75787339137E+03  0.50400001928E-02 0. -1.
    10030    2    1    2    0    0  0.00000000000E+00  0.00000000000E+00  0.16471262675E+04  0.31628730502E+04  0.27001372170E+04 0.  0.
        2    1    3    3  502    0  0.77805376586E+03  0.10903863476E+04  0.62624573687E+03  0.14786797397E+04  0.25500000920E-02 0.  1.
       -2    1    3    3    0  502 -0.77805376586E+03 -0.10903863476E+04  0.10208805307E+04  0.16841933106E+04  0.25500000920E-02 0. -1.
</event>
<event>
 5   0  0.1964242E-07  0.2699583E+04  0.7818609E-02  0.8335140E-01
        1   -1    0    0  501    0  0.00000000000E+00  0.00000000000E+00  0.13745265694E+04  0.13745265695E+04  0.50400001928E-02 0.  1.
       -1   -1    0    0    0  501  0.00000000000E+00  0.00000000000E+00 -0.13255020058E+04  0.13255020058E+04  0.50400001928E-02 0. -1.
    10030    2    1    2    0    0  0.00000000000E+00  0.00000000000E+00  0.49024563671E+02  0.27000285752E+04  0.26995834677E+04 0.  0.
        2    1    3    3  502    0  0.12243401025E+04 -0.12114521580E+03  0.57980907886E+03  0.13600968414E+04  0.25500000920E-02 0.  1.
       -2    1    3    3    0  502 -0.12243401025E+04  0.12114521580E+03 -0.53078451519E+03  0.13399317339E+04  0.25500000920E-02 0. -1.
</event>
<event>
 5   0  0.4992668E-07  0.2702088E+04  0.7818609E-02  0.8334328E-01
        2   -1    0    0  501    0  0.00000000000E+00  0.00000000000E+00  0.12158531839E+04  0.12158531839E+04  0.25500000920E-02 0.  1.
       -2   -1    0    0    0  501  0.00000000000E+00  0.00000000000E+00 -0.15012662935E+04  0.15012662935E+04  0.25500000920E-02 0. -1.
    10030    2    1    2    0    0  0.00000000000E+00  0.00000000000E+00 -0.28541310957E+03  0.27171194774E+04  0.27020876395E+04 0.  0.
        1    1    3    3  502    0 -0.36962344016E+03  0.49498521020E+03  0.10655131422E+04  0.12316452826E+04  0.50400001928E-02 0.  1.
       -1    1    3    3    0  502  0.36962344016E+03 -0.49498521020E+03 -0.13509262518E+04  0.14854741949E+04  0.50400001928E-02 0. -1.
</event>
<event>
 5   0  0.4983208E-07  0.2701458E+04  0.7818609E-02  0.8334532E-01
        2   -1    0    0  501    0  0.00000000000E+00  0.00000000000E+00  0.20108236291E+04  0.20108236291E+04  0.25500000920E-02 0.  1.
       -2   -1    0    0    0  501  0.00000000000E+00  0.00000000000E+00 -0.90732393357E+03  0.90732393358E+03  0.25500000920E-02 0. -1.
    10030    2    1    2    0    0  0.00000000000E+00  0.00000000000E+00  0.11034996956E+04  0.29181475627E+04  0.27014576842E+04 0.  0.
        4    1    3    3  502    0 -0.32234416654E+03  0.56702470966E+03  0.18294377071E+04  0.19422324063E+04  0.12699999809E+01 0.  1.
       -4    1    3    3    0  502  0.32234416654E+03 -0.56702470966E+03 -0.72593801152E+03  0.97591515642E+03  0.12699999809E+01 0. -1.
</event>
<event>
 5   0  0.4983208E-07  0.2704009E+04  0.7818609E-02  0.8333706E-01
       -2   -1    0    0    0  501  0.00000000000E+00  0.00000000000E+00  0.14090344522E+04  0.14090344522E+04  0.25500000920E-02 0. -1.
        2   -1    0    0  501    0  0.00000000000E+00  0.00000000000E+00 -0.12972823273E+04  0.12972823273E+04  0.25500000920E-02 0.  1.
    10030    2    1    2    0    0  0.00000000000E+00  0.00000000000E+00  0.11175212492E+03  0.27063167796E+04  0.27040085011E+04 0.  0.
        4    1    3    3  502    0 -0.11889735268E+04  0.62862352839E+03 -0.82402265862E+02  0.13474484533E+04  0.12699999809E+01 0.  1.
       -4    1    3    3    0  502  0.11889735268E+04 -0.62862352839E+03  0.19415439078E+03  0.13588683263E+04  0.12699999809E+01 0. -1.
</event>
<event>
 5   0  0.1937896E-07  0.2701616E+04  0.7818609E-02  0.8334481E-01
       -1   -1    0    0    0  501  0.00000000000E+00  0.00000000000E+00  0.86158099711E+03  0.86158099712E+03  0.50400001928E-02 0. -1.
        1   -1    0    0  501    0  0.00000000000E+00  0.00000000000E+00 -0.21178304993E+04  0.21178304993E+04  0.50400001928E-02 0.  1.
    10030    2    1    2    0    0  0.00000000000E+00  0.00000000000E+00 -0.12562495022E+04  0.29794114964E+04  0.27016161928E+04 0.  0.
        3    1    3    3  502    0 -0.16449971647E+03 -0.53804733877E+03  0.72620947788E+03  0.91865951878E+03  0.10100000352E+00 0. -1.
       -3    1    3    3    0  502  0.16449971647E+03  0.53804733877E+03 -0.19824589801E+04  0.20607519777E+04  0.10100000352E+00 0.  1.
</event>
<event>
 5   0  0.1971600E-07  0.2700840E+04  0.7818609E-02  0.8334732E-01
       -1   -1    0    0    0  501  0.00000000000E+00  0.00000000000E+00  0.23351049714E+04  0.23351049714E+04  0.50400001928E-02 0.  1.
        1   -1    0    0  501    0  0.00000000000E+00  0.00000000000E+00 -0.78096450027E+03  0.78096450029E+03  0.50400001928E-02 0. -1.
    10030    2    1    2    0    0  0.00000000000E+00  0.00000000000E+00  0.15541404712E+04  0.31160694717E+04  0.27008399339E+04 0.  0.
        5    1    3    3  502    0 -0.48400329962E+03  0.25541600013E+03 -0.64728140727E+03  0.84763897820E+03  0.46999998093E+01 0. -1.
       -5    1    3    3    0  502  0.48400329962E+03 -0.25541600013E+03  0.22014218784E+04  0.22684304935E+04  0.46999998093E+01 0.  1.
</event>
<event>
 5   0  0.4735120E-07  0.2703440E+04  0.7818609E-02  0.8333890E-01
       -2   -1    0    0    0  501  0.00000000000E+00  0.00000000000E+00  0.15003497806E+04  0.15003497806E+04  0.25500000920E-02 0.  1.
        2   -1    0    0  501    0  0.00000000000E+00  0.00000000000E+00 -0.12178138861E+04  0.12178138861E+04  0.25500000920E-02 0. -1.
    10030    2    1    2    0    0  0.00000000000E+00  0.00000000000E+00  0.28253589447E+03  0.27181636667E+04  0.27034398805E+04 0.  0.
        2    1    3    3  502    0  0.32529534489E+03  0.26081016675E+03 -0.11515451501E+04  0.12247021014E+04  0.25500000920E-02 0. -1.
       -2    1    3    3    0  502 -0.32529534489E+03 -0.26081016675E+03  0.14340810446E+04  0.14934615653E+04  0.25500000920E-02 0.  1.
</event>
<event>
 5   0  0.1964242E-07  0.2700149E+04  0.7818609E-02  0.8334957E-01
       -1   -1    0    0    0  501  0.00000000000E+00  0.00000000000E+00  0.95894392765E+03  0.95894392766E+03  0.50400001928E-02 0.  1.
        1   -1    0    0  501    0  0.00000000000E+00  0.00000000000E+00 -0.19007376086E+04  0.19007376086E+04  0.50400001928E-02 0. -1.
    10030    2    1    2    0    0  0.00000000000E+00  0.00000000000E+00 -0.94179368095E+03  0.28596815363E+04  0.27001487276E+04 0.  0.
        2    1    3    3  502    0 -0.36845359451E+02  0.77974644730E+02 -0.18978173565E+04  0.18997758669E+04  0.25500000920E-02 0. -1.
       -2    1    3    3    0  502  0.36845359451E+02 -0.77974644730E+02  0.95602367559E+03  0.95990566934E+03  0.25500000920E-02 0.  1.
</event>
<event>
 5   0  0.1964242E-07  0.2700079E+04  0.7818609E-02  0.8334979E-01
       -1   -1    0    0    0  501  0.00000000000E+00  0.00000000000E+00  0.13907508614E+04  0.13907508614E+04  0.50400001928E-02 0. -1.
        1   -1    0    0  501    0  0.00000000000E+00  0.00000000000E+00 -0.13105202573E+04  0.13105202573E+04  0.50400001928E-02 0.  1.
    10030    2    1    2    0    0  0.00000000000E+00  0.00000000000E+00  0.80230604090E+02  0.27012711187E+04  0.27000793890E+04 0.  0.
        2    1    3    3  502    0  0.38547583406E+03 -0.91257156981E+03  0.95770531697E+03  0.13778889516E+04  0.25500000920E-02 0. -1.
       -2    1    3    3    0  502 -0.38547583406E+03  0.91257156981E+03 -0.87747471288E+03  0.13233821672E+04  0.25500000920E-02 0.  1.
</event>
<event>
 5   0  0.1888149E-07  0.2699432E+04  0.7818609E-02  0.8335189E-01
       -1   -1    0    0    0  501  0.00000000000E+00  0.00000000000E+00  0.91114882293E+03  0.91114882295E+03  0.50400001928E-02 0.  1.
        1   -1    0    0  501    0  0.00000000000E+00  0.00000000000E+00 -0.19993805861E+04  0.19993805861E+04  0.50400001928E-02 0. -1.
    10030    2    1    2    0    0  0.00000000000E+00  0.00000000000E+00 -0.10882317632E+04  0.29105294091E+04  0.26994319904E+04 0.  0.
        1    1    3    3  502    0  0.11741345682E+03  0.10075708652E+04 -0.15041071018E+04  0.18142004139E+04  0.50400001928E-02 0. -1.
       -1    1    3    3    0  502 -0.11741345682E+03 -0.10075708652E+04  0.41587533860E+03  0.10963289951E+04  0.50400001928E-02 0.  1.
</event>
<event>
 5   0  0.4735120E-07  0.2700670E+04  0.7818609E-02  0.8334787E-01
        2   -1    0    0  501    0  0.00000000000E+00  0.00000000000E+00  0.18802553271E+04  0.18802553271E+04  0.25500000920E-02 0.  1.
       -2   -1    0    0    0  501  0.00000000000E+00  0.00000000000E+00 -0.96976469630E+03  0.96976469630E+03  0.25500000920E-02 0. -1.
    10030    2    1    2    0    0  0.00000000000E+00  0.00000000000E+00  0.91049063077E+03  0.28500200234E+04  0.27006704621E+04 0.  0.
        2    1    3    3  502    0  0.62890050577E+03 -0.36300749365E+03 -0.74618359056E+03  0.10411917390E+04  0.25500000920E-02 0. -1.
       -2    1    3    3    0  502 -0.62890050577E+03  0.36300749365E+03  0.16566742213E+04  0.18088282843E+04  0.25500000920E-02 0.  1.
</event>
<event>
 5   0  0.4983208E-07  0.2700409E+04  0.7818609E-02  0.8334872E-01
        2   -1    0    0  501    0  0.00000000000E+00  0.00000000000E+00  0.13582801753E+04  0.13582801753E+04  0.25500000920E-02 0.  1.
       -2   -1    0    0    0  501  0.00000000000E+00  0.00000000000E+00 -0.13421769544E+04  0.13421769545E+04  0.25500000920E-02 0. -1.
    10030    2    1    2    0    0  0.00000000000E+00  0.00000000000E+00  0.16103220804E+02  0.27004571297E+04  0.27004091163E+04 0.  0.
        4    1    3    3  502    0 -0.53006241750E+03  0.51838594953E+03  0.11365044708E+04  0.13569576943E+04  0.12699999809E+01 0.  1.
       -4    1    3    3    0  502  0.53006241750E+03 -0.51838594953E+03 -0.11204012500E+04  0.13434994354E+04  0.12699999809E+01 0. -1.
</event>
<event>
 5   0  0.1937896E-07  0.2700913E+04  0.7818609E-02  0.8334709E-01
        1   -1    0    0  501    0  0.00000000000E+00  0.00000000000E+00  0.10598242227E+04  0.10598242227E+04  0.50400001928E-02 0.  1.
       -1   -1    0    0    0  501  0.00000000000E+00  0.00000000000E+00 -0.17207885712E+04  0.17207885712E+04  0.50400001928E-02 0. -1.
    10030    2    1    2    0    0  0.00000000000E+00  0.00000000000E+00 -0.66096434852E+03  0.27806127939E+04  0.27009134825E+04 0.  0.
        3    1    3    3  502    0  0.59680216952E+03  0.52610463222E+03 -0.14539085197E+04  0.16573499652E+04  0.10100000352E+00 0. -1.
       -3    1    3    3    0  502 -0.59680216952E+03 -0.52610463222E+03  0.79294417114E+03  0.11232628287E+04  0.10100000352E+00 0.  1.
</event>
<event>
 5   0  0.4992668E-07  0.2698420E+04  0.7818609E-02  0.8335518E-01
       -2   -1    0    0    0  501  0.00000000000E+00  0.00000000000E+00  0.89568951911E+03  0.89568951911E+03  0.25500000920E-02 0. -1.
        2   -1    0    0  501    0  0.00000000000E+00  0.00000000000E+00 -0.20323643648E+04  0.20323643648E+04  0.25500000920E-02 0.  1.
    10030    2    1    2    0    0  0.00000000000E+00  0.00000000000E+00 -0.11366748457E+04  0.29280538839E+04  0.26984198788E+04 0.  0.
        1    1    3    3  502    0  0.71329218062E+03 -0.21012600853E+02 -0.18108308588E+04  0.19463647303E+04  0.50400001928E-02 0.  1.
       -1    1    3    3    0  502 -0.71329218062E+03  0.21012600853E+02  0.67415601307E+03  0.98168915361E+03  0.50400001928E-02 0. -1.
</event>
<event>
 5   0  0.1964242E-07  0.2697789E+04  0.7818609E-02  0.8335723E-01
        1   -1    0    0  501    0  0.00000000000E+00  0.00000000000E+00  0.92865747754E+03  0.92865747756E+03  0.50400001928E-02 0.  1.
       -1   -1    0    0    0  501  0.00000000000E+00  0.00000000000E+00 -0.19592982986E+04  0.19592982986E+04  0.50400001928E-02 0. -1.
    10030    2    1    2    0    0  0.00000000000E+00  0.00000000000E+00 -0.10306408211E+04  0.28879557762E+04  0.26977894772E+04 0.  0.
        2    1    3    3  502    0 -0.88493463080E+03 -0.15167326330E+03 -0.15929600584E+04  0.18285611357E+04  0.25500000920E-02 0. -1.
       -2    1    3    3    0  502  0.88493463080E+03  0.15167326330E+03  0.56231923728E+03  0.10593946404E+04  0.25500000920E-02 0.  1.
</event>
<event>
 5   0  0.1888149E-07  0.2696686E+04  0.7818609E-02  0.8336081E-01
        1   -1    0    0  501    0  0.00000000000E+00  0.00000000000E+00  0.26052394175E+04  0.26052394175E+04  0.50400001928E-02 0. -1.
       -1   -1    0    0    0  501  0.00000000000E+00  0.00000000000E+00 -0.69783569674E+03  0.69783569676E+03  0.50400001928E-02 0.  1.
    10030    2    1    2    0    0  0.00000000000E+00  0.00000000000E+00  0.19074037208E+04  0.33030751143E+04  0.26966861621E+04 0.  0.
        1    1    3    3  502    0 -0.44036228952E+03  0.67296658896E+02 -0.60509462258E+03  0.75139023725E+03  0.50400001928E-02 0.  1.
       -1    1    3    3    0  502  0.44036228952E+03 -0.67296658896E+02  0.25124983434E+04  0.25516848771E+04  0.50400001928E-02 0. -1.
</event>
<event>
 5   0  0.1937896E-07  0.2692740E+04  0.7818609E-02  0.8337364E-01
        1   -1    0    0  501    0  0.00000000000E+00  0.00000000000E+00  0.88652047801E+03  0.88652047802E+03  0.50400001928E-02 0. -1.
       -1   -1    0    0    0  501  0.00000000000E+00  0.00000000000E+00 -0.20447494687E+04  0.20447494687E+04  0.50400001928E-02 0.  1.
    10030    2    1    2    0    0  0.00000000000E+00  0.00000000000E+00 -0.11582289907E+04  0.29312699467E+04  0.26927400739E+04 0.  0.
        3    1    3    3  502    0  0.33510285431E+03 -0.21787022441E+03 -0.19786739726E+04  0.20186411414E+04  0.10100000352E+00 0.  1.
       -3    1    3    3    0  502 -0.33510285431E+03  0.21787022441E+03  0.82044498195E+03  0.91262880530E+03  0.10100000352E+00 0. -1.
</event>
<event>
 5   0  0.1888149E-07  0.2699979E+04  0.7818609E-02  0.8335012E-01
        1   -1    0    0  501    0  0.00000000000E+00  0.00000000000E+00  0.17356962351E+04  0.17356962351E+04  0.50400001928E-02 0. -1.
       -1   -1    0    0    0  501  0.00000000000E+00  0.00000000000E+00 -0.10499944810E+04  0.10499944810E+04  0.50400001928E-02 0.  1.
    10030    2    1    2    0    0  0.00000000000E+00  0.00000000000E+00  0.68570175417E+03  0.27856907161E+04  0.26999788648E+04 0.  0.
        1    1    3    3  502    0 -0.41669761942E+03 -0.12596166347E+04  0.60016845369E+03  0.14561844476E+04  0.50400001928E-02 0. -1.
       -1    1    3    3    0  502  0.41669761942E+03  0.12596166347E+04  0.85533300482E+02  0.13295062685E+04  0.50400001928E-02 0.  1.
</event>
<event>
 5   0  0.1888149E-07  0.2693251E+04  0.7818609E-02  0.8337198E-01
        1   -1    0    0  501    0  0.00000000000E+00  0.00000000000E+00  0.22841747669E+04  0.22841747669E+04  0.50400001928E-02 0. -1.
       -1   -1    0    0    0  501  0.00000000000E+00  0.00000000000E+00 -0.79389721471E+03  0.79389721473E+03  0.50400001928E-02 0.  1.
    10030    2    1    2    0    0  0.00000000000E+00  0.00000000000E+00  0.14902775522E+04  0.30780719817E+04  0.26932508130E+04 0.  0.
        1    1    3    3  502    0  0.59572935732E+03 -0.26015132100E+03  0.20929797506E+04  0.21916058983E+04  0.50400001928E-02 0. -1.
       -1    1    3    3    0  502 -0.59572935732E+03  0.26015132100E+03 -0.60270219838E+03  0.88646608336E+03  0.50400001928E-02 0.  1.
</event>
<event>
 5   0  0.1964242E-07  0.2702141E+04  0.7818609E-02  0.8334311E-01
        1   -1    0    0  501    0  0.00000000000E+00  0.00000000000E+00  0.19027776277E+04  0.19027776277E+04  0.50400001928E-02 0.  1.
       -1   -1    0    0    0  501  0.00000000000E+00  0.00000000000E+00 -0.95933015833E+03  0.95933015834E+03  0.50400001928E-02 0. -1.
    10030    2    1    2    0    0  0.00000000000E+00  0.00000000000E+00  0.94344746932E+03  0.28621077860E+04  0.27021413456E+04 0.  0.
        2    1    3    3  502    0  0.46259566295E+03  0.34256363668E+03  0.17663967798E+04  0.18578218904E+04  0.25500000920E-02 0.  1.
       -2    1    3    3    0  502 -0.46259566295E+03 -0.34256363668E+03 -0.82294931049E+03  0.10042858956E+04  0.25500000920E-02 0. -1.
</event>
<event>
 5   0  0.1888149E-07  0.2700399E+04  0.7818609E-02  0.8334876E-01
        1   -1    0    0  501    0  0.00000000000E+00  0.00000000000E+00  0.83252373696E+03  0.83252373697E+03  0.50400001928E-02 0. -1.
       -1   -1    0    0    0  501  0.00000000000E+00  0.00000000000E+00 -0.21897733841E+04  0.21897733841E+04  0.50400001928E-02 0.  1.
    10030    2    1    2    0    0  0.00000000000E+00  0.00000000000E+00 -0.13572496471E+04  0.30222971211E+04  0.27003987267E+04 0.  0.
        1    1    3    3  502    0  0.12366517153E+04  0.47795697745E+03 -0.96459838940E+03  0.16395732341E+04  0.50400001928E-02 0.  1.
       -1    1    3    3    0  502 -0.12366517153E+04 -0.47795697745E+03 -0.39265125772E+03  0.13827238869E+04  0.50400001928E-02 0. -1.
</event>
<event>
 5   0  0.4735120E-07  0.2699054E+04  0.7818609E-02  0.8335312E-01
        2   -1    0    0  501    0  0.00000000000E+00  0.00000000000E+00  0.23600531596E+04  0.23600531596E+04  0.25500000920E-02 0. -1.
       -2   -1    0    0    0  501  0.00000000000E+00  0.00000000000E+00 -0.77168757890E+03  0.77168757891E+03  0.25500000920E-02 0.  1.
    10030    2    1    2    0    0  0.00000000000E+00  0.00000000000E+00  0.15883655807E+04  0.31317407385E+04  0.26990544336E+04 0.  0.
        2    1    3    3  502    0 -0.63138721165E+03  0.10848605204E+04  0.21909531137E+03  0.12741957915E+04  0.25500000920E-02 0.  1.
       -2    1    3    3    0  502  0.63138721165E+03 -0.10848605204E+04  0.13692702694E+04  0.18575449470E+04  0.25500000920E-02 0. -1.
</event>
<event>
 5   0  0.1964242E-07  0.2700417E+04  0.7818609E-02  0.8334870E-01
       -1   -1    0    0    0  501  0.00000000000E+00  0.00000000000E+00  0.99485605900E+03  0.99485605901E+03  0.50400001928E-02 0.  1.
        1   -1    0    0  501    0  0.00000000000E+00  0.00000000000E+00 -0.18324890311E+04  0.18324890311E+04  0.50400001928E-02 0. -1.
    10030    2    1    2    0    0  0.00000000000E+00  0.00000000000E+00 -0.83763297210E+03  0.28273450901E+04  0.27004168683E+04 0.  0.
        2    1    3    3  502    0 -0.39655018280E+03 -0.97830940578E+03  0.46260940495E+03  0.11525401522E+04  0.25500000920E-02 0.  1.
       -2    1    3    3    0  502  0.39655018280E+03  0.97830940578E+03 -0.13002423770E+04  0.16748049379E+04  0.25500000920E-02 0. -1.
</event>
<event>
 5   0  0.1971600E-07  0.2697330E+04  0.7818609E-02  0.8335872E-01
       -1   -1    0    0    0  501  0.00000000000E+00  0.00000000000E+00  0.10579423388E+04  0.10579423388E+04  0.50400001928E-02 0.  1.
        1   -1    0    0  501    0  0.00000000000E+00  0.00000000000E+00 -0.17192781665E+04  0.17192781665E+04  0.50400001928E-02 0. -1.
    10030    2    1    2    0    0  0.00000000000E+00  0.00000000000E+00 -0.66133582769E+03  0.27772205054E+04  0.26973299128E+04 0.  0.
        5    1    3    3  502    0  0.51920209774E+03  0.12434286693E+04 -0.38881538599E+03  0.14024568329E+04  0.46999998093E+01 0. -1.
       -5    1    3    3    0  502 -0.51920209774E+03 -0.12434286693E+04 -0.27252044171E+03  0.13747636724E+04  0.46999998093E+01 0.  1.
</event>
<event>
 5   0  0.4992668E-07  0.2698285E+04  0.7818609E-02  0.8335562E-01
        2   -1    0    0  501    0  0.00000000000E+00  0.00000000000E+00  0.16846098523E+04  0.16846098523E+04  0.25500000920E-02 0. -1.
       -2   -1    0    0    0  501  0.00000000000E+00  0.00000000000E+00 -0.10804787282E+04  0.10804787282E+04  0.25500000920E-02 0.  1.
    10030    2    1    2    0    0  0.00000000000E+00  0.00000000000E+00  0.60413112415E+03  0.27650885805E+04  0.26982847224E+04 0.  0.
        1    1    3    3  502    0 -0.45987730983E+02 -0.99410243626E+02  0.16800459823E+04  0.16836127140E+04  0.50400001928E-02 0. -1.
       -1    1    3    3    0  502  0.45987730983E+02  0.99410243626E+02 -0.10759148582E+04  0.10814758666E+04  0.50400001928E-02 0.  1.
</event>
<event>
 5   0  0.4992668E-07  0.2699837E+04  0.7818609E-02  0.8335058E-01
        2   -1    0    0  501    0  0.00000000000E+00  0.00000000000E+00  0.18712203465E+04  0.18712203465E+04  0.25500000920E-02 0. -1.
       -2   -1    0    0    0  501  0.00000000000E+00  0.00000000000E+00 -0.97384566311E+03  0.97384566312E+03  0.25500000920E-02 0.  1.
    10030    2    1    2    0    0  0.00000000000E+00  0.00000000000E+00  0.89737468334E+03  0.28450660096E+04  0.26998368981E+04 0.  0.
        1    1    3    3  502    0 -0.29669091552E+02 -0.87530347694E+03  0.15311954008E+04  0.17639715948E+04  0.50400001928E-02 0. -1.
       -1    1    3    3    0  502  0.29669091552E+02  0.87530347694E+03 -0.63382071748E+03  0.10810944148E+04  0.50400001928E-02 0.  1.
</event>
<event>
 5   0  0.4735120E-07  0.2698515E+04  0.7818609E-02  0.8335487E-01
       -2   -1    0    0    0  501  0.00000000000E+00  0.00000000000E+00  0.90789830459E+03  0.90789830460E+03  0.25500000920E-02 0. -1.
        2   -1    0    0  501    0  0.00000000000E+00  0.00000000000E+00 -0.20051754290E+04  0.20051754290E+04  0.25500000920E-02 0.  1.
    10030    2    1    2    0    0  0.00000000000E+00  0.00000000000E+00 -0.10972771244E+04  0.29130737336E+04  0.26985146821E+04 0.  0.
        2    1    3    3  502    0  0.56757986213E+03 -0.76638921821E+03 -0.15789889437E+04  0.18446423550E+04  0.25500000920E-02 0.  1.
       -2    1    3    3    0  502 -0.56757986213E+03  0.76638921821E+03  0.48171181934E+03  0.10684313785E+04  0.25500000920E-02 0. -1.
</event>
<event>
 5   0  0.4843887E-07  0.2711198E+04  0.7818609E-02  0.8331381E-01
       -2   -1    0    0    0  501  0.00000000000E+00  0.00000000000E+00  0.11688353463E+04  0.11688353463E+04  0.25500000920E-02 0.  1.
        2   -1    0    0  501    0  0.00000000000E+00  0.00000000000E+00 -0.15722045461E+04  0.15722045461E+04  0.25500000920E-02 0. -1.
    10030    2    1    2    0    0  0.00000000000E+00  0.00000000000E+00 -0.40336919975E+03  0.27410398924E+04  0.27111977022E+04 0.  0.
        5    1    3    3  502    0  0.32789948747E+03  0.10414963010E+03 -0.15273229703E+04  0.15655998099E+04  0.46999998093E+01 0. -1.
       -5    1    3    3    0  502 -0.32789948747E+03 -0.10414963010E+03  0.11239537705E+04  0.11754400825E+04  0.46999998093E+01 0.  1.
</event>
<event>
 5   0  0.1965415E-07  0.2699999E+04  0.7818609E-02  0.8335005E-01
       -1   -1    0    0    0  501  0.00000000000E+00  0.00000000000E+00  0.14226661373E+04  0.14226661373E+04  0.50400001928E-02 0.  1.
        1   -1    0    0  501    0  0.00000000000E+00  0.00000000000E+00 -0.12810442201E+04  0.12810442201E+04  0.50400001928E-02 0. -1.
    10030    2    1    2    0    0  0.00000000000E+00  0.00000000000E+00  0.14162191719E+03  0.27037103575E+04  0.26999986907E+04 0.  0.
        4    1    3    3  502    0  0.10239433977E+04  0.55887545379E+03  0.75122628303E+03  0.13874957282E+04  0.12699999809E+01 0.  1.
       -4    1    3    3    0  502 -0.10239433977E+04 -0.55887545379E+03 -0.60960436584E+03  0.13162146293E+04  0.12699999809E+01 0. -1.
</event>
<event>
 5   0  0.4992668E-07  0.2699419E+04  0.7818609E-02  0.8335193E-01
       -2   -1    0    0    0  501  0.00000000000E+00  0.00000000000E+00  0.80654554084E+03  0.80654554084E+03  0.25500000920E-02 0.  1.
        2   -1    0    0  501    0  0.00000000000E+00  0.00000000000E+00 -0.22586650231E+04  0.22586650231E+04  0.25500000920E-02 0. -1.
    10030    2    1    2    0    0  0.00000000000E+00  0.00000000000E+00 -0.14521194822E+04  0.30652105639E+04  0.26994193469E+04 0.  0.
        1    1    3    3  502    0  0.34358487034E+03 -0.11056812839E+04  0.61572026513E+02  0.11594709048E+04  0.50400001928E-02 0.  1.
       -1    1    3    3    0  502 -0.34358487034E+03  0.11056812839E+04 -0.15136915088E+04  0.19057396591E+04  0.50400001928E-02 0. -1.
</event>
<event>
 5   0  0.1888149E-07  0.2700528E+04  0.7818609E-02  0.8334834E-01
        1   -1    0    0  501    0  0.00000000000E+00  0.00000000000E+00  0.10775118179E+04  0.10775118179E+04  0.50400001928E-02 0.  1.
       -1   -1    0    0    0  501  0.00000000000E+00  0.00000000000E+00 -0.16920585364E+04  0.16920585364E+04  0.50400001928E-02 0. -1.
    10030    2    1    2    0    0  0.00000000000E+00  0.00000000000E+00 -0.61454671847E+03  0.27695703543E+04  0.27005281480E+04 0.  0.
        1    1    3    3  502    0 -0.58281625443E+03  0.68126578480E+03  0.72820076057E+03  0.11550213001E+04  0.50400001928E-02 0.  1.
       -1    1    3    3    0  502  0.58281625443E+03 -0.68126578480E+03 -0.13427474790E+04  0.16145490542E+04  0.50400001928E-02 0. -1.
</event>
<event>
 5   0  0.1964242E-07  0.2698596E+04  0.7818609E-02  0.8335461E-01
        1   -1    0    0  501    0  0.00000000000E+00  0.00000000000E+00  0.21773272470E+04  0.21773272470E+04  0.50400001928E-02 0.  1.
       -1   -1    0    0    0  501  0.00000000000E+00  0.00000000000E+00 -0.83616496649E+03  0.83616496651E+03  0.50400001928E-02 0. -1.
    10030    2    1    2    0    0  0.00000000000E+00  0.00000000000E+00  0.13411622805E+04  0.30134922135E+04  0.26985957567E+04 0.  0.
        2    1    3    3  502    0  0.68786574612E+03  0.24270868650E+03  0.19381771149E+04  0.20708928799E+04  0.25500000920E-02 0.  1.
       -2    1    3    3    0  502 -0.68786574612E+03 -0.24270868650E+03 -0.59701483442E+03  0.94259933361E+03  0.25500000920E-02 0. -1.
</event>
<event>
 5   0  0.1937896E-07  0.2699372E+04  0.7818609E-02  0.8335209E-01
        1   -1    0    0  501    0  0.00000000000E+00  0.00000000000E+00  0.15971876490E+04  0.15971876490E+04  0.50400001928E-02 0. -1.
       -1   -1    0    0    0  501  0.00000000000E+00  0.00000000000E+00 -0.11405371879E+04  0.11405371879E+04  0.50400001928E-02 0.  1.
    10030    2    1    2    0    0  0.00000000000E+00  0.00000000000E+00  0.45665046113E+03  0.27377248369E+04  0.26993717119E+04 0.  0.
        3    1    3    3  502    0  0.94877073479E+03 -0.95895499624E+03  0.18421816368E+03  0.13615053926E+04  0.10100000352E+00 0.  1.
       -3    1    3    3    0  502 -0.94877073479E+03  0.95895499624E+03  0.27243229745E+03  0.13762194443E+04  0.10100000352E+00 0. -1.
</event>
<event>
 5   0  0.1971600E-07  0.2699705E+04  0.7818609E-02  0.8335101E-01
        1   -1    0    0  501    0  0.00000000000E+00  0.00000000000E+00  0.13718668429E+04  0.13718668429E+04  0.50400001928E-02 0.  1.
       -1   -1    0    0    0  501  0.00000000000E+00  0.00000000000E+00 -0.13281912001E+04  0.13281912001E+04  0.50400001928E-02 0. -1.
    10030    2    1    2    0    0  0.00000000000E+00  0.00000000000E+00  0.43675642844E+02  0.27000580430E+04  0.26997047753E+04 0.  0.
        5    1    3    3  502    0  0.13145133834E+04 -0.22130044610E+03 -0.19069894092E+03  0.13465910659E+04  0.46999998093E+01 0. -1.
       -5    1    3    3    0  502 -0.13145133834E+04  0.22130044610E+03  0.23437458377E+03  0.13534669771E+04  0.46999998093E+01 0.  1.
</event>
<event>
 5   0  0.1964242E-07  0.2699832E+04  0.7818609E-02  0.8335059E-01
       -1   -1    0    0    0  501  0.00000000000E+00  0.00000000000E+00  0.82453688264E+03  0.82453688265E+03  0.50400001928E-02 0.  1.
        1   -1    0    0  501    0  0.00000000000E+00  0.00000000000E+00 -0.22100571911E+04  0.22100571911E+04  0.50400001928E-02 0. -1.
    10030    2    1    2    0    0  0.00000000000E+00  0.00000000000E+00 -0.13855203085E+04  0.30345940738E+04  0.26998323406E+04 0.  0.
        2    1    3    3  502    0  0.32334088088E+03 -0.70401826125E+03 -0.19353107891E+04  0.20846148056E+04  0.25500000920E-02 0. -1.
       -2    1    3    3    0  502 -0.32334088088E+03  0.70401826125E+03  0.54979048058E+03  0.94997926818E+03  0.25500000920E-02 0.  1.
</event>
<event>
 5   0  0.4992668E-07  0.2699842E+04  0.7818609E-02  0.8335056E-01
       -2   -1    0    0    0  501  0.00000000000E+00  0.00000000000E+00  0.75915088834E+03  0.75915088834E+03  0.25500000920E-02 0. -1.
        2   -1    0    0  501    0  0.00000000000E+00  0.00000000000E+00 -0.24004267698E+04  0.24004267698E+04  0.25500000920E-02 0.  1.
    10030    2    1    2    0    0  0.00000000000E+00  0.00000000000E+00 -0.16412758815E+04  0.31595776581E+04  0.26998415618E+04 0.  0.
        1    1    3    3  502    0  0.72166438147E+03  0.30620526254E+02  0.51397127186E+03  0.88651202160E+03  0.50400001928E-02 0. -1.
       -1    1    3    3    0  502 -0.72166438147E+03 -0.30620526254E+02 -0.21552471533E+04  0.22730656365E+04  0.50400001928E-02 0.  1.
</event>
<event>
 5   0  0.5043890E-07  0.2699450E+04  0.7818609E-02  0.8335183E-01
        2   -1    0    0  501    0  0.00000000000E+00  0.00000000000E+00  0.27942405419E+04  0.27942405419E+04  0.25500000920E-02 0.  1.
       -2   -1    0    0    0  501  0.00000000000E+00  0.00000000000E+00 -0.65196873397E+03  0.65196873398E+03  0.25500000920E-02 0. -1.
    10030    2    1    2    0    0  0.00000000000E+00  0.00000000000E+00  0.21422718079E+04  0.34462092759E+04  0.26994499206E+04 0.  0.
        3    1    3    3  502    0  0.82832664430E+03 -0.10642412889E+04  0.10009453263E+04  0.16794719727E+04  0.10100000352E+00 0. -1.
       -3    1    3    3    0  502 -0.82832664430E+03  0.10642412889E+04  0.11413264816E+04  0.17667373032E+04  0.10100000352E+00 0.  1.
</event>
<event>
 5   0  0.1888149E-07  0.2697785E+04  0.7818609E-02  0.8335724E-01
       -1   -1    0    0    0  501  0.00000000000E+00  0.00000000000E+00  0.76052588643E+03  0.76052588644E+03  0.50400001928E-02 0. -1.
        1   -1    0    0  501    0  0.00000000000E+00  0.00000000000E+00 -0.23924387436E+04  0.23924387436E+04  0.50400001928E-02 0.  1.
    10030    2    1    2    0    0  0.00000000000E+00  0.00000000000E+00 -0.16319128571E+04  0.31529646300E+04  0.26977854594E+04 0.  0.
        1    1    3    3  502    0 -0.13276347715E+04 -0.16561659482E+03 -0.61532829507E+03  0.14726411151E+04  0.50400001928E-02 0. -1.
       -1    1    3    3    0  502  0.13276347715E+04  0.16561659482E+03 -0.10165845621E+04  0.16803235149E+04  0.50400001928E-02 0.  1.
</event>
<event>
 5   0  0.1964242E-07  0.2700428E+04  0.7818609E-02  0.8334866E-01
       -1   -1    0    0    0  501  0.00000000000E+00  0.00000000000E+00  0.22068540712E+04  0.22068540712E+04  0.50400001928E-02 0.  1.
        1   -1    0    0  501    0  0.00000000000E+00  0.00000000000E+00 -0.82609792792E+03  0.82609792794E+03  0.50400001928E-02 0. -1.
    10030    2    1    2    0    0  0.00000000000E+00  0.00000000000E+00  0.13807561433E+04  0.30329519992E+04  0.27004277998E+04 0.  0.
        2    1    3    3  502    0 -0.10494069279E+04  0.32441657058E+03  0.15722925519E+04  0.19179689467E+04  0.25500000920E-02 0.  1.
       -2    1    3    3    0  502  0.10494069279E+04 -0.32441657058E+03 -0.19153640865E+03  0.11149830525E+04  0.25500000920E-02 0. -1.
</event>
<event>
 5   0  0.1888149E-07  0.2700227E+04  0.7818609E-02  0.8334931E-01
       -1   -1    0    0    0  501  0.00000000000E+00  0.00000000000E+00  0.78865639878E+03  0.78865639880E+03  0.50400001928E-02 0. -1.
        1   -1    0    0  501    0  0.00000000000E+00  0.00000000000E+00 -0.23112812147E+04  0.23112812147E+04  0.50400001928E-02 0.  1.
    10030    2    1    2    0    0  0.00000000000E+00  0.00000000000E+00 -0.15226248159E+04  0.30999376135E+04  0.27002271900E+04 0.  0.
        1    1    3    3  502    0 -0.11373265947E+04 -0.61159969719E+03 -0.12136425294E+04  0.17721439450E+04  0.50400001928E-02 0.  1.
       -1    1    3    3    0  502  0.11373265947E+04  0.61159969719E+03 -0.30898228648E+03  0.13277936685E+04  0.50400001928E-02 0. -1.
</event>
<event>
 5   0  0.1965415E-07  0.2702318E+04  0.7818609E-02  0.8334253E-01
        1   -1    0    0  501    0  0.00000000000E+00  0.00000000000E+00  0.27617324069E+04  0.27617324069E+04  0.50400001928E-02 0.  1.
       -1   -1    0    0    0  501  0.00000000000E+00  0.00000000000E+00 -0.66104522813E+03  0.66104522815E+03  0.50400001928E-02 0. -1.
    10030    2    1    2    0    0  0.00000000000E+00  0.00000000000E+00  0.21006871788E+04  0.34227776351E+04  0.27023175454E+04 0.  0.
        4    1    3    3  502    0  0.86408779418E+02  0.71269844845E+03 -0.39947909612E+03  0.82157818661E+03  0.12699999809E+01 0. -1.
       -4    1    3    3    0  502 -0.86408779418E+02 -0.71269844845E+03  0.25001662749E+04  0.26011994485E+04  0.12699999809E+01 0.  1.
</event>
<event>
 5   0  0.1937896E-07  0.2699013E+04  0.7818609E-02  0.8335325E-01
       -1   -1    0    0    0  501  0.00000000000E+00  0.00000000000E+00  0.86882651503E+03  0.86882651505E+03  0.50400001928E-02 0. -1.
        1   -1    0    0  501    0  0.00000000000E+00  0.00000000000E+00 -0.20961243021E+04  0.20961243021E+04  0.50400001928E-02 0.  1.
    10030    2    1    2    0    0  0.00000000000E+00  0.00000000000E+00 -0.12272977871E+04  0.29649508172E+04  0.26990134290E+04 0.  0.
        3    1    3    3  502    0 -0.42699055893E+03  0.43436464247E+01  0.79265509934E+03  0.90035655237E+03  0.10100000352E+00 0. -1.
       -3    1    3    3    0  502  0.42699055893E+03 -0.43436464247E+01 -0.20199528864E+04  0.20645942648E+04  0.10100000352E+00 0.  1.
</event>
<event>
 5   0  0.4992668E-07  0.2701898E+04  0.7818609E-02  0.8334389E-01
       -2   -1    0    0    0  501  0.00000000000E+00  0.00000000000E+00  0.13166622002E+04  0.13166622002E+04  0.25500000920E-02 0.  1.
        2   -1    0    0  501    0  0.00000000000E+00  0.00000000000E+00 -0.13861287055E+04  0.13861287055E+04  0.25500000920E-02 0. -1.
    10030    2    1    2    0    0  0.00000000000E+00  0.00000000000E+00 -0.69466505294E+02  0.27027909056E+04  0.27018980522E+04 0.  0.
        1    1    3    3  502    0 -0.63826507672E+03 -0.27388890231E+03 -0.11938507436E+04  0.13811868219E+04  0.50400001928E-02 0. -1.
       -1    1    3    3    0  502  0.63826507672E+03  0.27388890231E+03  0.11243842383E+04  0.13216040838E+04  0.50400001928E-02 0.  1.
</event>
<event>
 5   0  0.1971600E-07  0.2697735E+04  0.7818609E-02  0.8335740E-01
        1   -1    0    0  501    0  0.00000000000E+00  0.00000000000E+00  0.23252355297E+04  0.23252355297E+04  0.50400001928E-02 0. -1.
       -1   -1    0    0    0  501  0.00000000000E+00  0.00000000000E+00 -0.78247706385E+03  0.78247706387E+03  0.50400001928E-02 0.  1.
    10030    2    1    2    0    0  0.00000000000E+00  0.00000000000E+00  0.15427584659E+04  0.31077125936E+04  0.26977349537E+04 0.  0.
        5    1    3    3  502    0 -0.50912225109E+02  0.11998274558E+04  0.14789215100E+04  0.19051007588E+04  0.46999998093E+01 0. -1.
       -5    1    3    3    0  502  0.50912225109E+02 -0.11998274558E+04  0.63836955867E+02  0.12026118348E+04  0.46999998093E+01 0.  1.
</event>
<event>
 5   0  0.4735120E-07  0.2700466E+04  0.7818609E-02  0.8334854E-01
        2   -1    0    0  501    0  0.00000000000E+00  0.00000000000E+00  0.17818929065E+04  0.17818929065E+04  0.25500000920E-02 0.  1.
       -2   -1    0    0    0  501  0.00000000000E+00  0.00000000000E+00 -0.10231415229E+04  0.10231415229E+04  0.25500000920E-02 0. -1.
    10030    2    1    2    0    0  0.00000000000E+00  0.00000000000E+00  0.75875138360E+03  0.28050344294E+04  0.27004656058E+04 0.  0.
        2    1    3    3  502    0 -0.34369535202E+03  0.34090832343E+03  0.16886538587E+04  0.17566720907E+04  0.25500000920E-02 0.  1.
       -2    1    3    3    0  502  0.34369535202E+03 -0.34090832343E+03 -0.92990247507E+03  0.10483623387E+04  0.25500000920E-02 0. -1.
</event>
<event>
 5   0  0.1965415E-07  0.2696761E+04  0.7818609E-02  0.8336057E-01
        1   -1    0    0  501    0  0.00000000000E+00  0.00000000000E+00  0.22949129210E+04  0.22949129211E+04  0.50400001928E-02 0. -1.
       -1   -1    0    0    0  501  0.00000000000E+00  0.00000000000E+00 -0.79224344582E+03  0.79224344584E+03  0.50400001928E-02 0.  1.
    10030    2    1    2    0    0  0.00000000000E+00  0.00000000000E+00  0.15026694752E+04  0.30871563669E+04  0.26967608129E+04 0.  0.
        4    1    3    3  502    0 -0.73934584143E+03 -0.10706155359E+04  0.34614917153E+03  0.13463546192E+04  0.12699999809E+01 0.  1.
       -4    1    3    3    0  502  0.73934584143E+03  0.10706155359E+04  0.11565203037E+04  0.17408017477E+04  0.12699999809E+01 0. -1.
</event>
<event>
 5   0  0.5043890E-07  0.2701245E+04  0.7818609E-02  0.8334601E-01
       -2   -1    0    0    0  501  0.00000000000E+00  0.00000000000E+00  0.16415614216E+04  0.16415614216E+04  0.25500000920E-02 0.  1.
        2   -1    0    0  501    0  0.00000000000E+00  0.00000000000E+00 -0.11112475353E+04  0.11112475353E+04  0.25500000920E-02 0. -1.
    10030    2    1    2    0    0  0.00000000000E+00  0.00000000000E+00  0.53031388634E+03  0.27528089569E+04  0.27012449602E+04 0.  0.
        3    1    3    3  502    0 -0.44254561080E+02  0.57581505826E+03  0.15093888885E+04  0.16160990917E+04  0.10100000352E+00 0.  1.
       -3    1    3    3    0  502  0.44254561080E+02 -0.57581505826E+03 -0.97907500212E+03  0.11367098651E+04  0.10100000352E+00 0. -1.
</event>
<event>
 5   0  0.1888149E-07  0.2699609E+04  0.7818609E-02  0.8335132E-01
       -1   -1    0    0    0  501  0.00000000000E+00  0.00000000000E+00  0.84144860823E+03  0.84144860824E+03  0.50400001928E-02 0. -1.
        1   -1    0    0  501    0  0.00000000000E+00  0.00000000000E+00 -0.21652805584E+04  0.21652805584E+04  0.50400001928E-02 0.  1.
    10030    2    1    2    0    0  0.00000000000E+00  0.00000000000E+00 -0.13238319502E+04  0.30067291667E+04  0.26996090920E+04 0.  0.
        1    1    3    3  502    0  0.10182251735E+02  0.63825590210E+03 -0.19865460249E+04  0.20865855803E+04  0.50400001928E-02 0.  1.
       -1    1    3    3    0  502 -0.10182251735E+02 -0.63825590210E+03  0.66271407467E+03  0.92014358641E+03  0.50400001928E-02 0. -1.
</event>
<event>
 5   0  0.5043890E-07  0.2699458E+04  0.7818609E-02  0.8335181E-01
        2   -1    0    0  501    0  0.00000000000E+00  0.00000000000E+00  0.17128124158E+04  0.17128124158E+04  0.25500000920E-02 0.  1.
       -2   -1    0    0    0  501  0.00000000000E+00  0.00000000000E+00 -0.10636125014E+04  0.10636125014E+04  0.25500000920E-02 0. -1.
    10030    2    1    2    0    0  0.00000000000E+00  0.00000000000E+00  0.64919991444E+03  0.27764249172E+04  0.26994582404E+04 0.  0.
        3    1    3    3  502    0  0.99948721011E+02 -0.12276788451E+04 -0.24302642636E+03  0.12554867373E+04  0.10100000352E+00 0. -1.
       -3    1    3    3    0  502 -0.99948721011E+02  0.12276788451E+04  0.89222634080E+03  0.15209381798E+04  0.10100000352E+00 0.  1.
</event>
<event>
 5   0  0.1971600E-07  0.2699294E+04  0.7818609E-02  0.8335234E-01
        1   -1    0    0  501    0  0.00000000000E+00  0.00000000000E+00  0.15962408554E+04  0.15962408554E+04  0.50400001928E-02 0.  1.
       -1   -1    0    0    0  501  0.00000000000E+00  0.00000000000E+00 -0.11411483807E+04  0.11411483807E+04  0.50400001928E-02 0. -1.
    10030    2    1    2    0    0  0.00000000000E+00  0.00000000000E+00  0.45509247474E+03  0.27373892361E+04  0.26992944763E+04 0.  0.
        5    1    3    3  502    0 -0.10669436417E+04 -0.58960185326E+03  0.81496755192E+03  0.14663537366E+04  0.46999998093E+01 0. -1.
       -5    1    3    3    0  502  0.10669436417E+04  0.58960185326E+03 -0.35987507718E+03  0.12710354996E+04  0.46999998093E+01 0.  1.
</event>
<event>
 5   0  0.1971600E-07  0.2706800E+04  0.7818609E-02  0.8332802E-01
        1   -1    0    0  501    0  0.00000000000E+00  0.00000000000E+00  0.16310763402E+04  0.16310763402E+04  0.50400001928E-02 0. -1.
       -1   -1    0    0    0  501  0.00000000000E+00  0.00000000000E+00 -0.11229957001E+04  0.11229957001E+04  0.50400001928E-02 0.  1.
    10030    2    1    2    0    0  0.00000000000E+00  0.00000000000E+00  0.50808064007E+03  0.27540720404E+04  0.27068001158E+04 0.  0.
        5    1    3    3  502    0  0.44697128791E+03  0.12348492436E+04  0.58691384708E+03  0.14384456682E+04  0.46999998093E+01 0. -1.
       -5    1    3    3    0  502 -0.44697128791E+03 -0.12348492436E+04 -0.78833207003E+02  0.13156263721E+04  0.46999998093E+01 0.  1.
</event>
<event>
 5   0  0.1937896E-07  0.2699916E+04  0.7818609E-02  0.8335032E-01
       -1   -1    0    0    0  501  0.00000000000E+00  0.00000000000E+00  0.11533239533E+04  0.11533239533E+04  0.50400001928E-02 0. -1.
        1   -1    0    0  501    0  0.00000000000E+00  0.00000000000E+00 -0.15801172711E+04  0.15801172711E+04  0.50400001928E-02 0.  1.
    10030    2    1    2    0    0  0.00000000000E+00  0.00000000000E+00 -0.42679331785E+03  0.27334412244E+04  0.26999163675E+04 0.  0.
        3    1    3    3  502    0 -0.33655759522E+03  0.25300686681E+03  0.10851455007E+04  0.11639691824E+04  0.10100000352E+00 0. -1.
       -3    1    3    3    0  502  0.33655759522E+03 -0.25300686681E+03 -0.15119388186E+04  0.15694720421E+04  0.10100000352E+00 0.  1.
</event>
<event>
 5   0  0.4843887E-07  0.2701074E+04  0.7818609E-02  0.8334657E-01
       -2   -1    0    0    0  501  0.00000000000E+00  0.00000000000E+00  0.21257702857E+04  0.21257702857E+04  0.25500000920E-02 0.  1.
        2   -1    0    0  501    0  0.00000000000E+00  0.00000000000E+00 -0.85801838252E+03  0.85801838252E+03  0.25500000920E-02 0. -1.
    10030    2    1    2    0    0  0.00000000000E+00  0.00000000000E+00  0.12677519032E+04  0.29837886682E+04  0.27010738473E+04 0.  0.
        5    1    3    3  502    0  0.36954742760E+03  0.58415049059E+03  0.19155430394E+04  0.20364489492E+04  0.46999998093E+01 0.  1.
       -5    1    3    3    0  502 -0.36954742760E+03 -0.58415049059E+03 -0.64779113627E+03  0.94733971897E+03  0.46999998093E+01 0. -1.
</event>
<event>
 5   0  0.4992668E-07  0.2698310E+04  0.7818609E-02  0.8335553E-01
       -2   -1    0    0    0  501  0.00000000000E+00  0.00000000000E+00  0.85138601827E+03  0.85138601827E+03  0.25500000920E-02 0. -1.
        2   -1    0    0  501    0  0.00000000000E+00  0.00000000000E+00 -0.21379484740E+04  0.21379484740E+04  0.25500000920E-02 0.  1.
    10030    2    1    2    0    0  0.00000000000E+00  0.00000000000E+00 -0.12865624557E+04  0.29893344922E+04  0.26983101664E+04 0.  0.
        1    1    3    3  502    0 -0.73128900706E+03  0.21216189657E+03  0.59058357605E+03  0.96363127934E+03  0.50400001928E-02 0. -1.
       -1    1    3    3    0  502  0.73128900706E+03 -0.21216189657E+03 -0.18771460318E+04  0.20257032129E+04  0.50400001928E-02 0.  1.
</event>
<event>
 5   0  0.4992668E-07  0.2700136E+04  0.7818609E-02  0.8334961E-01
        2   -1    0    0  501    0  0.00000000000E+00  0.00000000000E+00  0.17457346188E+04  0.17457346188E+04  0.25500000920E-02 0.  1.
       -2   -1    0    0    0  501  0.00000000000E+00  0.00000000000E+00 -0.10440779886E+04  0.10440779886E+04  0.25500000920E-02 0. -1.
    10030    2    1    2    0    0  0.00000000000E+00  0.00000000000E+00  0.70165663022E+03  0.27898126075E+04  0.27001356185E+04 0.  0.
        1    1    3    3  502    0 -0.11778985009E+03 -0.11090889959E+04  0.11368373582E+04  0.15925928634E+04  0.50400001928E-02 0.  1.
       -1    1    3    3    0  502  0.11778985009E+03  0.11090889959E+04 -0.43518072799E+03  0.11972197441E+04  0.50400001928E-02 0. -1.
</event>
<event>
 5   0  0.1964242E-07  0.2688076E+04  0.7818609E-02  0.8338884E-01
       -1   -1    0    0    0  501  0.00000000000E+00  0.00000000000E+00  0.13294452099E+04  0.13294452100E+04  0.50400001928E-02 0. -1.
        1   -1    0    0  501    0  0.00000000000E+00  0.00000000000E+00 -0.13587908283E+04  0.13587908283E+04  0.50400001928E-02 0.  1.
    10030    2    1    2    0    0  0.00000000000E+00  0.00000000000E+00 -0.29345618338E+02  0.26882360382E+04  0.26880758605E+04 0.  0.
        2    1    3    3  502    0 -0.62755672420E+03 -0.11853992925E+04  0.71582161283E+02  0.13431764331E+04  0.25500000920E-02 0.  1.
       -2    1    3    3    0  502  0.62755672420E+03  0.11853992925E+04 -0.10092777962E+03  0.13450596051E+04  0.25500000920E-02 0. -1.
</event>
<event>
 5   0  0.1964242E-07  0.2698480E+04  0.7818609E-02  0.8335498E-01
       -1   -1    0    0    0  501  0.00000000000E+00  0.00000000000E+00  0.12117115396E+04  0.12117115396E+04  0.50400001928E-02 0.  1.
        1   -1    0    0  501    0  0.00000000000E+00  0.00000000000E+00 -0.15023780733E+04  0.15023780733E+04  0.50400001928E-02 0. -1.
    10030    2    1    2    0    0  0.00000000000E+00  0.00000000000E+00 -0.29066653373E+03  0.27140896129E+04  0.26984802006E+04 0.  0.
        2    1    3    3  502    0  0.67651634114E+03  0.93904089493E+03  0.55220326857E+03  0.12823418468E+04  0.25500000920E-02 0.  1.
       -2    1    3    3    0  502 -0.67651634114E+03 -0.93904089493E+03 -0.84286980230E+03  0.14317477661E+04  0.25500000920E-02 0. -1.
</event>
<event>
 5   0  0.4735120E-07  0.2693144E+04  0.7818609E-02  0.8337233E-01
        2   -1    0    0  501    0  0.00000000000E+00  0.00000000000E+00  0.22331127392E+04  0.22331127392E+04  0.25500000920E-02 0.  1.
       -2   -1    0    0    0  501  0.00000000000E+00  0.00000000000E+00 -0.81198619251E+03  0.81198619251E+03  0.25500000920E-02 0. -1.
    10030    2    1    2    0    0  0.00000000000E+00  0.00000000000E+00  0.14211265467E+04  0.30450989317E+04  0.26931444154E+04 0.  0.
        2    1    3    3  502    0 -0.91193792036E+03  0.97415320306E+03  0.91487494638E+03  0.16179003063E+04  0.25500000920E-02 0. -1.
       -2    1    3    3    0  502  0.91193792036E+03 -0.97415320306E+03  0.50625160035E+03  0.14271986254E+04  0.25500000920E-02 0.  1.
</event>
<event>
 5   0  0.1971600E-07  0.2700544E+04  0.7818609E-02  0.8334828E-01
       -1   -1    0    0    0  501  0.00000000000E+00  0.00000000000E+00  0.11966197894E+04  0.11966197894E+04  0.50400001928E-02 0. -1.
        1   -1    0    0  501    0  0.00000000000E+00  0.00000000000E+00 -0.15236539218E+04  0.15236539218E+04  0.50400001928E-02 0.  1.
    10030    2    1    2    0    0  0.00000000000E+00  0.00000000000E+00 -0.32703413233E+03  0.27202737112E+04  0.27005439712E+04 0.  0.
        5    1    3    3  502    0 -0.42841518903E+03 -0.12793570392E+04 -0.21793337549E+03  0.13666788409E+04  0.46999998093E+01 0.  1.
       -5    1    3    3    0  502  0.42841518903E+03  0.12793570392E+04 -0.10910075684E+03  0.13535948704E+04  0.46999998093E+01 0. -1.
</event>
<event>
 5   0  0.1965415E-07  0.2700448E+04  0.7818609E-02  0.8334860E-01
        1   -1    0    0  501    0  0.00000000000E+00  0.00000000000E+00  0.12974113913E+04  0.12974113913E+04  0.50400001928E-02 0. -1.
       -1   -1    0    0    0  501  0.00000000000E+00  0.00000000000E+00 -0.14051864952E+04  0.14051864952E+04  0.50400001928E-02 0.  1.
    10030    2    1    2    0    0  0.00000000000E+00  0.00000000000E+00 -0.10777510389E+03  0.27025978865E+04  0.27004480856E+04 0.  0.
        4    1    3    3  502    0  0.10969595088E+04 -0.42150910461E+03  0.61155776362E+03  0.13247620920E+04  0.12699999809E+01 0.  1.
       -4    1    3    3    0  502 -0.10969595088E+04  0.42150910461E+03 -0.71933286751E+03  0.13778357944E+04  0.12699999809E+01 0. -1.
</event>
<event>
 5   0  0.1937896E-07  0.2694348E+04  0.7818609E-02  0.8336841E-01
        1   -1    0    0  501    0  0.00000000000E+00  0.00000000000E+00  0.12114709193E+04  0.12114709193E+04  0.50400001928E-02 0. -1.
       -1   -1    0    0    0  501  0.00000000000E+00  0.00000000000E+00 -0.14980779057E+04  0.14980779057E+04  0.50400001928E-02 0.  1.
    10030    2    1    2    0    0  0.00000000000E+00  0.00000000000E+00 -0.28660698640E+03  0.27095488250E+04  0.26943480233E+04 0.  0.
        3    1    3    3  502    0 -0.12672631276E+04  0.60153283495E+02  0.31235715584E+03  0.13065761574E+04  0.10100000352E+00 0. -1.
       -3    1    3    3    0  502  0.12672631276E+04 -0.60153283495E+02 -0.59896414225E+03  0.14029726676E+04  0.10100000352E+00 0.  1.
</event>
<event>
 5   0  0.1971600E-07  0.2700127E+04  0.7818609E-02  0.8334964E-01
       -1   -1    0    0    0  501  0.00000000000E+00  0.00000000000E+00  0.11172853256E+04  0.11172853256E+04  0.50400001928E-02 0.  1.
        1   -1    0    0  501    0  0.00000000000E+00  0.00000000000E+00 -0.16313394107E+04  0.16313394107E+04  0.50400001928E-02 0. -1.
    10030    2    1    2    0    0  0.00000000000E+00  0.00000000000E+00 -0.51405408511E+03  0.27486247364E+04  0.27001270968E+04 0.  0.
        5    1    3    3  502    0 -0.29015314796E+03  0.18579571862E+03  0.10717694360E+04  0.11257978114E+04  0.46999998093E+01 0.  1.
       -5    1    3    3    0  502  0.29015314796E+03 -0.18579571862E+03 -0.15858235211E+04  0.16228269249E+04  0.46999998093E+01 0. -1.
</event>
<event>
 5   0  0.4735120E-07  0.2704126E+04  0.7818609E-02  0.8333668E-01
        2   -1    0    0  501    0  0.00000000000E+00  0.00000000000E+00  0.11604039881E+04  0.11604039882E+04  0.25500000920E-02 0. -1.
       -2   -1    0    0    0  501  0.00000000000E+00  0.00000000000E+00 -0.15753771464E+04  0.15753771464E+04  0.25500000920E-02 0.  1.
    10030    2    1    2    0    0  0.00000000000E+00  0.00000000000E+00 -0.41497315822E+03  0.27357811345E+04  0.27041256801E+04 0.  0.
        2    1    3    3  502    0  0.67833781441E+03  0.22547762177E+03 -0.13685674333E+04  0.15440075025E+04  0.25500000920E-02 0.  1.
       -2    1    3    3    0  502 -0.67833781441E+03 -0.22547762177E+03  0.95359427509E+03  0.11917736320E+04  0.25500000920E-02 0. -1.
</event>
<event>
 5   0  0.4735120E-07  0.2699705E+04  0.7818609E-02  0.8335101E-01
        2   -1    0    0  501    0  0.00000000000E+00  0.00000000000E+00  0.15315700098E+04  0.15315700098E+04  0.25500000920E-02 0.  1.
       -2   -1    0    0    0  501  0.00000000000E+00  0.00000000000E+00 -0.11896956798E+04  0.11896956798E+04  0.25500000920E-02 0. -1.
    10030    2    1    2    0    0  0.00000000000E+00  0.00000000000E+00  0.34187432999E+03  0.27212656896E+04  0.26997053351E+04 0.  0.
        2    1    3    3  502    0  0.61123859615E+03  0.71298241102E+03  0.11482917611E+04  0.14834185210E+04  0.25500000920E-02 0.  1.
       -2    1    3    3    0  502 -0.61123859615E+03 -0.71298241102E+03 -0.80641743107E+03  0.12378471687E+04  0.25500000920E-02 0. -1.
</event>
<event>
 5   0  0.1965415E-07  0.2700046E+04  0.7818609E-02  0.8334990E-01
       -1   -1    0    0    0  501  0.00000000000E+00  0.00000000000E+00  0.17630268835E+04  0.17630268835E+04  0.50400001928E-02 0.  1.
        1   -1    0    0  501    0  0.00000000000E+00  0.00000000000E+00 -0.10337685018E+04  0.10337685019E+04  0.50400001928E-02 0. -1.
    10030    2    1    2    0    0  0.00000000000E+00  0.00000000000E+00  0.72925838168E+03  0.27967953854E+04  0.27000456738E+04 0.  0.
        4    1    3    3  502    0 -0.52712395703E+03 -0.67392856294E+03 -0.71707007555E+03  0.11163469354E+04  0.12699999809E+01 0. -1.
       -4    1    3    3    0  502  0.52712395703E+03  0.67392856294E+03  0.14463284572E+04  0.16804484500E+04  0.12699999809E+01 0.  1.
</event>
<event>
 5   0  0.1888149E-07  0.2698594E+04  0.7818609E-02  0.8335461E-01
       -1   -1    0    0    0  501  0.00000000000E+00  0.00000000000E+00  0.20564197238E+04  0.20564197238E+04  0.50400001928E-02 0.  1.
        1   -1    0    0  501    0  0.00000000000E+00  0.00000000000E+00 -0.88532628331E+03  0.88532628333E+03  0.50400001928E-02 0. -1.
    10030    2    1    2    0    0  0.00000000000E+00  0.00000000000E+00  0.11710934405E+04  0.29417460071E+04  0.26985940273E+04 0.  0.
        1    1    3    3  502    0 -0.10018027401E+04  0.89968476214E+03  0.49075768801E+03  0.14331379939E+04  0.50400001928E-02 0. -1.
       -1    1    3    3    0  502  0.10018027401E+04 -0.89968476214E+03  0.68033575248E+03  0.15086080132E+04  0.50400001928E-02 0.  1.
</event>
<event>
 5   0  0.1888149E-07  0.2700312E+04  0.7818609E-02  0.8334904E-01
        1   -1    0    0  501    0  0.00000000000E+00  0.00000000000E+00  0.14026659666E+04  0.14026659666E+04  0.50400001928E-02 0. -1.
       -1   -1    0    0    0  501  0.00000000000E+00  0.00000000000E+00 -0.12996118092E+04  0.12996118092E+04  0.50400001928E-02 0.  1.
    10030    2    1    2    0    0  0.00000000000E+00  0.00000000000E+00  0.10305415747E+03  0.27022777758E+04  0.27003120224E+04 0.  0.
        1    1    3    3  502    0  0.11119289014E+04 -0.76342869001E+03  0.11249768257E+03  0.13534640649E+04  0.50400001928E-02 0.  1.
       -1    1    3    3    0  502 -0.11119289014E+04  0.76342869001E+03 -0.94435251005E+01  0.13488137109E+04  0.50400001928E-02 0. -1.
</event>
<event>
 5   0  0.1971600E-07  0.2699226E+04  0.7818609E-02  0.8335256E-01
        1   -1    0    0  501    0  0.00000000000E+00  0.00000000000E+00  0.23814696173E+04  0.23814696173E+04  0.50400001928E-02 0.  1.
       -1   -1    0    0    0  501  0.00000000000E+00  0.00000000000E+00 -0.76484487201E+03  0.76484487203E+03  0.50400001928E-02 0. -1.
    10030    2    1    2    0    0  0.00000000000E+00  0.00000000000E+00  0.16166247453E+04  0.31463144893E+04  0.26992256850E+04 0.  0.
        5    1    3    3  502    0  0.69222641152E+03  0.82973079121E+03 -0.13419792220E+03  0.10888809682E+04  0.46999998093E+01 0. -1.
       -5    1    3    3    0  502 -0.69222641152E+03 -0.82973079121E+03  0.17508226675E+04  0.20574335211E+04  0.46999998093E+01 0.  1.
</event>
<event>
 5   0  0.4983208E-07  0.2696569E+04  0.7818609E-02  0.8336119E-01
        2   -1    0    0  501    0  0.00000000000E+00  0.00000000000E+00  0.11364848025E+04  0.11364848025E+04  0.25500000920E-02 0.  1.
       -2   -1    0    0    0  501  0.00000000000E+00  0.00000000000E+00 -0.15995562884E+04  0.15995562884E+04  0.25500000920E-02 0. -1.
    10030    2    1    2    0    0  0.00000000000E+00  0.00000000000E+00 -0.46307148591E+03  0.27360410909E+04  0.26965692371E+04 0.  0.
        4    1    3    3  502    0 -0.11715352576E+04 -0.30008571928E+03 -0.83635137322E+03  0.14703848241E+04  0.12699999809E+01 0.  1.
       -4    1    3    3    0  502  0.11715352576E+04  0.30008571928E+03  0.37327988731E+03  0.12656562668E+04  0.12699999809E+01 0. -1.
</event>
<event>
 5   0  0.5043890E-07  0.2700487E+04  0.7818609E-02  0.8334847E-01
       -2   -1    0    0    0  501  0.00000000000E+00  0.00000000000E+00  0.11999703287E+04  0.11999703287E+04  0.25500000920E-02 0.  1.
        2   -1    0    0  501    0  0.00000000000E+00  0.00000000000E+00 -0.15193352677E+04  0.15193352678E+04  0.25500000920E-02 0. -1.
    10030    2    1    2    0    0  0.00000000000E+00  0.00000000000E+00 -0.31936493904E+03  0.27193055965E+04  0.27004868011E+04 0.  0.
        3    1    3    3  502    0  0.89801951375E+03 -0.98262052001E+03  0.68113111487E+02  0.13328996735E+04  0.10100000352E+00 0. -1.
       -3    1    3    3    0  502 -0.89801951375E+03  0.98262052001E+03 -0.38747805052E+03  0.13864059230E+04  0.10100000352E+00 0.  1.
</event>
<event>
 5   0  0.4992668E-07  0.2699871E+04  0.7818609E-02  0.8335047E-01
        2   -1    0    0  501    0  0.00000000000E+00  0.00000000000E+00  0.10623143599E+04  0.10623143599E+04  0.25500000920E-02 0. -1.
       -2   -1    0    0    0  501  0.00000000000E+00  0.00000000000E+00 -0.17154293801E+04  0.17154293801E+04  0.25500000920E-02 0.  1.
    10030    2    1    2    0    0  0.00000000000E+00  0.00000000000E+00 -0.65311502020E+03  0.27777437399E+04  0.26998705626E+04 0.  0.
        1    1    3    3  502    0  0.55999513418E+03  0.11953716120E+04 -0.61722608670E+03  0.14572151122E+04  0.50400001928E-02 0. -1.
       -1    1    3    3    0  502 -0.55999513418E+03 -0.11953716120E+04 -0.35888933494E+02  0.13205286277E+04  0.50400001928E-02 0.  1.
</event>
<event>
 5   0  0.5043890E-07  0.2699242E+04  0.7818609E-02  0.8335251E-01
        2   -1    0    0  501    0  0.00000000000E+00  0.00000000000E+00  0.24121892823E+04  0.24121892823E+04  0.25500000920E-02 0.  1.
       -2   -1    0    0    0  501  0.00000000000E+00  0.00000000000E+00 -0.75511353300E+03  0.75511353301E+03  0.25500000920E-02 0. -1.
    10030    2    1    2    0    0  0.00000000000E+00  0.00000000000E+00  0.16570757493E+04  0.31673028153E+04  0.26992419464E+04 0.  0.
        3    1    3    3  502    0 -0.89496084944E+03 -0.99590521435E+03  0.62976908833E+03  0.14796591610E+04  0.10100000352E+00 0.  1.
       -3    1    3    3    0  502  0.89496084944E+03  0.99590521435E+03  0.10273066610E+04  0.16876436543E+04  0.10100000352E+00 0. -1.
</event>
<event>
 5   0  0.4843887E-07  0.2700308E+04  0.7818609E-02  0.8334905E-01
       -2   -1    0    0    0  501  0.00000000000E+00  0.00000000000E+00  0.12359833925E+04  0.12359833925E+04  0.25500000920E-02 0.  1.
        2   -1    0    0  501    0  0.00000000000E+00  0.00000000000E+00 -0.14748713103E+04  0.14748713103E+04  0.25500000920E-02 0. -1.
    10030    2    1    2    0    0  0.00000000000E+00  0.00000000000E+00 -0.23888791777E+03  0.27108547027E+04  0.27003084606E+04 0.  0.
        5    1    3    3  502    0 -0.39454178912E+03  0.51213399018E+03 -0.13093790821E+04  0.14602876833E+04  0.46999998093E+01 0. -1.
       -5    1    3    3    0  502  0.39454178912E+03 -0.51213399018E+03  0.10704911643E+04  0.12505670195E+04  0.46999998093E+01 0.  1.
</event>
<event>
 5   0  0.1964242E-07  0.2693876E+04  0.7818609E-02  0.8336995E-01
       -1   -1    0    0    0  501  0.00000000000E+00  0.00000000000E+00  0.13232847069E+04  0.13232847069E+04  0.50400001928E-02 0. -1.
        1   -1    0    0  501    0  0.00000000000E+00  0.00000000000E+00 -0.13710137314E+04  0.13710137314E+04  0.50400001928E-02 0.  1.
    10030    2    1    2    0    0  0.00000000000E+00  0.00000000000E+00 -0.47729024504E+02  0.26942984384E+04  0.26938756495E+04 0.  0.
        2    1    3    3  502    0 -0.52196645148E+03 -0.19856886790E+03 -0.12497660352E+04  0.13688658498E+04  0.25500000920E-02 0.  1.
       -2    1    3    3    0  502  0.52196645148E+03  0.19856886790E+03  0.12020370107E+04  0.13254325886E+04  0.25500000920E-02 0. -1.
</event>
<event>
 5   0  0.1937896E-07  0.2698488E+04  0.7818609E-02  0.8335496E-01
        1   -1    0    0  501    0  0.00000000000E+00  0.00000000000E+00  0.13544781850E+04  0.13544781850E+04  0.50400001928E-02 0.  1.
       -1   -1    0    0    0  501  0.00000000000E+00  0.00000000000E+00 -0.13440299095E+04  0.13440299095E+04  0.50400001928E-02 0. -1.
    10030    2    1    2    0    0  0.00000000000E+00  0.00000000000E+00  0.10448275475E+02  0.26985080945E+04  0.26984878672E+04 0.  0.
        3    1    3    3  502    0  0.60224078161E+03 -0.10896134697E+04  0.52533159312E+03  0.13512678363E+04  0.10100000352E+00 0.  1.
       -3    1    3    3    0  502 -0.60224078161E+03  0.10896134697E+04 -0.51488331765E+03  0.13472402582E+04  0.10100000352E+00 0. -1.
</event>
<event>
 5   0  0.4992668E-07  0.2701401E+04  0.7818609E-02  0.8334550E-01
        2   -1    0    0  501    0  0.00000000000E+00  0.00000000000E+00  0.92047966841E+03  0.92047966841E+03  0.25500000920E-02 0.  1.
       -2   -1    0    0    0  501  0.00000000000E+00  0.00000000000E+00 -0.19820015472E+04  0.19820015472E+04  0.25500000920E-02 0. -1.
    10030    2    1    2    0    0  0.00000000000E+00  0.00000000000E+00 -0.10615218788E+04  0.29024812156E+04  0.27014012119E+04 0.  0.
        1    1    3    3  502    0 -0.12363647480E+04  0.21890288051E+03  0.41696699112E+01  0.12556009109E+04  0.50400001928E-02 0.  1.
       -1    1    3    3    0  502  0.12363647480E+04 -0.21890288051E+03 -0.10656915487E+04  0.16468803047E+04  0.50400001928E-02 0. -1.
</event>
<event>
 5   0  0.1937896E-07  0.2699630E+04  0.7818609E-02  0.8335125E-01
       -1   -1    0    0    0  501  0.00000000000E+00  0.00000000000E+00  0.10317094968E+04  0.10317094968E+04  0.50400001928E-02 0. -1.
        1   -1    0    0  501    0  0.00000000000E+00  0.00000000000E+00 -0.17660017055E+04  0.17660017055E+04  0.50400001928E-02 0.  1.
    10030    2    1    2    0    0  0.00000000000E+00  0.00000000000E+00 -0.73429220876E+03  0.27977112023E+04  0.26996301457E+04 0.  0.
        3    1    3    3  502    0  0.85684036370E+03 -0.61153600033E+02  0.71187612129E+03  0.11156535277E+04  0.10100000352E+00 0. -1.
       -3    1    3    3    0  502 -0.85684036370E+03  0.61153600033E+02 -0.14461683300E+04  0.16820576746E+04  0.10100000352E+00 0.  1.
</event>
<event>
 5   0  0.1964242E-07  0.2700792E+04  0.7818609E-02  0.8334748E-01
        1   -1    0    0  501    0  0.00000000000E+00  0.00000000000E+00  0.14292922194E+04  0.14292922194E+04  0.50400001928E-02 0. -1.
       -1   -1    0    0    0  501  0.00000000000E+00  0.00000000000E+00 -0.12758549260E+04  0.12758549260E+04  0.50400001928E-02 0.  1.
    10030    2    1    2    0    0  0.00000000000E+00  0.00000000000E+00  0.15343729343E+03  0.27051471454E+04  0.27007921199E+04 0.  0.
        2    1    3    3  502    0  0.61526306718E+03 -0.36365081384E+03  0.12243318596E+04  0.14176667657E+04  0.25500000920E-02 0. -1.
       -2    1    3    3    0  502 -0.61526306718E+03  0.36365081384E+03 -0.10708945661E+04  0.12874803797E+04  0.25500000920E-02 0.  1.
</event>
<event>
 5   0  0.1965415E-07  0.2700031E+04  0.7818609E-02  0.8334995E-01
       -1   -1    0    0    0  501  0.00000000000E+00  0.00000000000E+00  0.12719504387E+04  0.12719504387E+04  0.50400001928E-02 0.  1.
        1   -1    0    0  501    0  0.00000000000E+00  0.00000000000E+00 -0.14328719065E+04  0.14328719065E+04  0.50400001928E-02 0. -1.
    10030    2    1    2    0    0  0.00000000000E+00  0.00000000000E+00 -0.16092146785E+03  0.27048223452E+04  0.27000311480E+04 0.  0.
        4    1    3    3  502    0 -0.20090964346E+03  0.30223817176E+03 -0.13830865059E+04  0.14299099598E+04  0.12699999809E+01 0. -1.
       -4    1    3    3    0  502  0.20090964346E+03 -0.30223817176E+03  0.12221650381E+04  0.12749123854E+04  0.12699999809E+01 0.  1.
</event>
<event>
 5   0  0.4983208E-07  0.2699519E+04  0.7818609E-02  0.8335161E-01
        2   -1    0    0  501    0  0.00000000000E+00  0.00000000000E+00  0.17428131535E+04  0.17428131535E+04  0.25500000920E-02 0.  1.
       -2   -1    0    0    0  501  0.00000000000E+00  0.00000000000E+00 -0.10453505071E+04  0.10453505071E+04  0.25500000920E-02 0. -1.
    10030    2    1    2    0    0  0.00000000000E+00  0.00000000000E+00  0.69746264641E+03  0.27881636606E+04  0.26995189304E+04 0.  0.
        4    1    3    3  502    0 -0.88819295041E+03 -0.55859731683E+02 -0.69940357099E+03  0.11318895683E+04  0.12699999809E+01 0. -1.
       -4    1    3    3    0  502  0.88819295041E+03  0.55859731683E+02  0.13968662174E+04  0.16562740923E+04  0.12699999809E+01 0.  1.
</event>
<event>
 5   0  0.1641625E-07  0.2700132E+04  0.7818609E-02  0.8334962E-01
        3   -1    0    0  501    0  0.00000000000E+00  0.00000000000E+00  0.14355847529E+04  0.14355847564E+04  0.10100000352E+00 0. -1.
       -3   -1    0    0    0  501  0.00000000000E+00  0.00000000000E+00 -0.12696416921E+04  0.12696416961E+04  0.10100000352E+00 0.  1.
    10030    2    1    2    0    0  0.00000000000E+00  0.00000000000E+00  0.16594306078E+03  0.27052264525E+04  0.27001320449E+04 0.  0.
        2    1    3    3  502    0  0.68164531205E+03  0.67092492885E+03 -0.87166285637E+03  0.12940543755E+04  0.25500000920E-02 0.  1.
       -2    1    3    3    0  502 -0.68164531205E+03 -0.67092492885E+03  0.10376059171E+04  0.14111720770E+04  0.25500000920E-02 0. -1.
</event>
<event>
 5   0  0.1971600E-07  0.2700319E+04  0.7818609E-02  0.8334901E-01
        1   -1    0    0  501    0  0.00000000000E+00  0.00000000000E+00  0.17597563442E+04  0.17597563442E+04  0.50400001928E-02 0. -1.
       -1   -1    0    0    0  501  0.00000000000E+00  0.00000000000E+00 -0.10358995290E+04  0.10358995290E+04  0.50400001928E-02 0.  1.
    10030    2    1    2    0    0  0.00000000000E+00  0.00000000000E+00  0.72385681523E+03  0.27956558732E+04  0.27003190687E+04 0.  0.
        5    1    3    3  502    0 -0.10098402206E+03  0.51860220318E+03  0.16482776482E+04  0.17308920571E+04  0.46999998093E+01 0. -1.
       -5    1    3    3    0  502  0.10098402206E+03 -0.51860220318E+03 -0.92442083293E+03  0.10647638162E+04  0.46999998093E+01 0.  1.
</event>
<event>
 5   0  0.1971600E-07  0.2700843E+04  0.7818609E-02  0.8334732E-01
        1   -1    0    0  501    0  0.00000000000E+00  0.00000000000E+00  0.11791066371E+04  0.11791066371E+04  0.50400001928E-02 0. -1.
       -1   -1    0    0    0  501  0.00000000000E+00  0.00000000000E+00 -0.15466268135E+04  0.15466268136E+04  0.50400001928E-02 0.  1.
    10030    2    1    2    0    0  0.00000000000E+00  0.00000000000E+00 -0.36752017645E+03  0.27257334507E+04  0.27008427877E+04 0.  0.
        5    1    3    3  502    0 -0.83002043048E+03 -0.74475212235E+03  0.58485320065E+03  0.12592319068E+04  0.46999998093E+01 0. -1.
       -5    1    3    3    0  502  0.83002043048E+03  0.74475212235E+03 -0.95237337710E+03  0.14665015439E+04  0.46999998093E+01 0.  1.
</event>
<event>
 5   0  0.4843887E-07  0.2699402E+04  0.7818609E-02  0.8335199E-01
       -2   -1    0    0    0  501  0.00000000000E+00  0.00000000000E+00  0.11083569885E+04  0.11083569885E+04  0.25500000920E-02 0. -1.
        2   -1    0    0  501    0  0.00000000000E+00  0.00000000000E+00 -0.16435973023E+04  0.16435973023E+04  0.25500000920E-02 0.  1.
    10030    2    1    2    0    0  0.00000000000E+00  0.00000000000E+00 -0.53524031376E+03  0.27519542908E+04  0.26994018273E+04 0.  0.
        5    1    3    3  502    0 -0.80391423954E+03  0.10333066109E+04  0.66898736146E+02  0.13109150192E+04  0.46999998093E+01 0. -1.
       -5    1    3    3    0  502  0.80391423954E+03 -0.10333066109E+04 -0.60213904991E+03  0.14410392716E+04  0.46999998093E+01 0.  1.
</event>
<event>
 5   0  0.4992668E-07  0.2700297E+04  0.7818609E-02  0.8334909E-01
       -2   -1    0    0    0  501  0.00000000000E+00  0.00000000000E+00  0.98052364714E+03  0.98052364714E+03  0.25500000920E-02 0.  1.
        2   -1    0    0  501    0  0.00000000000E+00  0.00000000000E+00 -0.18591094840E+04  0.18591094840E+04  0.25500000920E-02 0. -1.
    10030    2    1    2    0    0  0.00000000000E+00  0.00000000000E+00 -0.87858583684E+03  0.28396331311E+04  0.27002968812E+04 0.  0.
        1    1    3    3  502    0 -0.12061881615E+04  0.60618254690E+03 -0.46403684509E+03  0.14274723656E+04  0.50400001928E-02 0. -1.
       -1    1    3    3    0  502  0.12061881615E+04 -0.60618254690E+03 -0.41454899175E+03  0.14121607655E+04  0.50400001928E-02 0.  1.
</event>
<event>
 5   0  0.1964242E-07  0.2700517E+04  0.7818609E-02  0.8334837E-01
        1   -1    0    0  501    0  0.00000000000E+00  0.00000000000E+00  0.12287818106E+04  0.12287818106E+04  0.50400001928E-02 0.  1.
       -1   -1    0    0    0  501  0.00000000000E+00  0.00000000000E+00 -0.14837442748E+04  0.14837442748E+04  0.50400001928E-02 0. -1.
    10030    2    1    2    0    0  0.00000000000E+00  0.00000000000E+00 -0.25496246425E+03  0.27125260854E+04  0.27005169701E+04 0.  0.
        2    1    3    3  502    0  0.94710242700E+03  0.69430789326E+03  0.54191430100E+03  0.12933435613E+04  0.25500000920E-02 0.  1.
       -2    1    3    3    0  502 -0.94710242700E+03 -0.69430789326E+03 -0.79687676526E+03  0.14191825242E+04  0.25500000920E-02 0. -1.
</event>
<event>
 5   0  0.1641625E-07  0.2701225E+04  0.7818609E-02  0.8334608E-01
        4   -1    0    0  501    0  0.00000000000E+00  0.00000000000E+00  0.11352480174E+04  0.11352487278E+04  0.12699999809E+01 0. -1.
       -4   -1    0    0    0  501  0.00000000000E+00  0.00000000000E+00 -0.16068315260E+04  0.16068320278E+04  0.12699999809E+01 0.  1.
    10030    2    1    2    0    0  0.00000000000E+00  0.00000000000E+00 -0.47158350852E+03  0.27420807557E+04  0.27012248824E+04 0.  0.
        3    1    3    3  502    0 -0.12789871948E+04  0.28831842235E+03 -0.56507143417E+03  0.14276699524E+04  0.10100000352E+00 0.  1.
       -3    1    3    3    0  502  0.12789871948E+04 -0.28831842235E+03  0.93487925653E+02  0.13144108032E+04  0.10100000352E+00 0. -1.
</event>
<event>
 5   0  0.4992668E-07  0.2700173E+04  0.7818609E-02  0.8334949E-01
        2   -1    0    0  501    0  0.00000000000E+00  0.00000000000E+00  0.15156500459E+04  0.15156500459E+04  0.25500000920E-02 0.  1.
       -2   -1    0    0    0  501  0.00000000000E+00  0.00000000000E+00 -0.12026088457E+04  0.12026088457E+04  0.25500000920E-02 0. -1.
    10030    2    1    2    0    0  0.00000000000E+00  0.00000000000E+00  0.31304120012E+03  0.27182588916E+04  0.27001734405E+04 0.  0.
        1    1    3    3  502    0 -0.80430179335E+03 -0.70133855856E+03 -0.67603559490E+03  0.12632502817E+04  0.50400001928E-02 0. -1.
       -1    1    3    3    0  502  0.80430179335E+03  0.70133855856E+03  0.98907679502E+03  0.14550086099E+04  0.50400001928E-02 0.  1.
</event>
<event>
 5   0  0.4992668E-07  0.2702482E+04  0.7818609E-02  0.8334200E-01
       -2   -1    0    0    0  501  0.00000000000E+00  0.00000000000E+00  0.24540703599E+04  0.24540703599E+04  0.25500000920E-02 0. -1.
        2   -1    0    0  501    0  0.00000000000E+00  0.00000000000E+00 -0.74401001020E+03  0.74401001020E+03  0.25500000920E-02 0.  1.
    10030    2    1    2    0    0  0.00000000000E+00  0.00000000000E+00  0.17100603497E+04  0.31980803701E+04  0.27024824984E+04 0.  0.
        1    1    3    3  502    0 -0.27481532099E+03 -0.11532531544E+04  0.16222593244E+04  0.20092888330E+04  0.50400001928E-02 0. -1.
       -1    1    3    3    0  502  0.27481532099E+03  0.11532531544E+04  0.87801025297E+02  0.11887915371E+04  0.50400001928E-02 0.  1.
</event>
<event>
 5   0  0.5043890E-07  0.2700039E+04  0.7818609E-02  0.8334992E-01
        2   -1    0    0  501    0  0.00000000000E+00  0.00000000000E+00  0.14373633435E+04  0.14373633435E+04  0.25500000920E-02 0. -1.
       -2   -1    0    0    0  501  0.00000000000E+00  0.00000000000E+00 -0.12679836212E+04  0.12679836212E+04  0.25500000920E-02 0.  1.
    10030    2    1    2    0    0  0.00000000000E+00  0.00000000000E+00  0.16937972234E+03  0.27053469647E+04  0.27000393902E+04 0.  0.
        3    1    3    3  502    0  0.38006991382E+03 -0.79802314370E+03 -0.93773705642E+03  0.12886601082E+04  0.10100000352E+00 0.  1.
       -3    1    3    3    0  502 -0.38006991382E+03  0.79802314370E+03  0.11071167788E+04  0.14166868565E+04  0.10100000352E+00 0. -1.
</event>
<event>
 5   0  0.1965415E-07  0.2700325E+04  0.7818609E-02  0.8334900E-01
       -1   -1    0    0    0  501  0.00000000000E+00  0.00000000000E+00  0.11800733382E+04  0.11800733382E+04  0.50400001928E-02 0. -1.
        1   -1    0    0  501    0  0.00000000000E+00  0.00000000000E+00 -0.15447670639E+04  0.15447670639E+04  0.50400001928E-02 0.  1.
    10030    2    1    2    0    0  0.00000000000E+00  0.00000000000E+00 -0.36469372570E+03  0.27248404022E+04  0.27003247404E+04 0.  0.
        4    1    3    3  502    0  0.15151527802E+03 -0.60062406953E+03 -0.13929178906E+04  0.15244435101E+04  0.12699999809E+01 0.  1.
       -4    1    3    3    0  502 -0.15151527802E+03  0.60062406953E+03  0.10282241649E+04  0.12003968921E+04  0.12699999809E+01 0. -1.
</event>
<event>
 5   0  0.1965415E-07  0.2700036E+04  0.7818609E-02  0.8334993E-01
       -1   -1    0    0    0  501  0.00000000000E+00  0.00000000000E+00  0.20486286357E+04  0.20486286357E+04  0.50400001928E-02 0. -1.
        1   -1    0    0  501    0  0.00000000000E+00  0.00000000000E+00 -0.88964320581E+03  0.88964320582E+03  0.50400001928E-02 0.  1.
    10030    2    1    2    0    0  0.00000000000E+00  0.00000000000E+00  0.11589854299E+04  0.29382718415E+04  0.27000359605E+04 0.  0.
        4    1    3    3  502    0  0.79504115853E+03 -0.76188956880E+03 -0.27043207892E+03  0.11338876845E+04  0.12699999809E+01 0.  1.
       -4    1    3    3    0  502 -0.79504115853E+03  0.76188956880E+03  0.14294175088E+04  0.18043841570E+04  0.12699999809E+01 0. -1.
</event>
<event>
 5   0  0.1888149E-07  0.2701253E+04  0.7818609E-02  0.8334599E-01
       -1   -1    0    0    0  501  0.00000000000E+00  0.00000000000E+00  0.89249679964E+03  0.89249679965E+03  0.50400001928E-02 0.  1.
        1   -1    0    0  501    0  0.00000000000E+00  0.00000000000E+00 -0.20439198549E+04  0.20439198549E+04  0.50400001928E-02 0. -1.
    10030    2    1    2    0    0  0.00000000000E+00  0.00000000000E+00 -0.11514230552E+04  0.29364166545E+04  0.27012529902E+04 0.  0.
        1    1    3    3  502    0 -0.61720605127E+03  0.10919982066E+04 -0.31326392060E+02  0.12547448887E+04  0.50400001928E-02 0.  1.
       -1    1    3    3    0  502  0.61720605127E+03 -0.10919982066E+04 -0.11200966632E+04  0.16816717658E+04  0.50400001928E-02 0. -1.
</event>
<event>
 5   0  0.4843887E-07  0.2702179E+04  0.7818609E-02  0.8334298E-01
        2   -1    0    0  501    0  0.00000000000E+00  0.00000000000E+00  0.11356255269E+04  0.11356255269E+04  0.25500000920E-02 0. -1.
       -2   -1    0    0    0  501  0.00000000000E+00  0.00000000000E+00 -0.16074331928E+04  0.16074331928E+04  0.25500000920E-02 0.  1.
    10030    2    1    2    0    0  0.00000000000E+00  0.00000000000E+00 -0.47180766591E+03  0.27430587197E+04  0.27021785037E+04 0.  0.
        5    1    3    3  502    0 -0.77693832856E+03 -0.95486950750E+03 -0.80111367466E+03  0.14687457753E+04  0.46999998093E+01 0.  1.
       -5    1    3    3    0  502  0.77693832856E+03  0.95486950750E+03  0.32930600874E+03  0.12743129443E+04  0.46999998093E+01 0. -1.
</event>
<event>
 5   0  0.1937896E-07  0.2700306E+04  0.7818609E-02  0.8334906E-01
        1   -1    0    0  501    0  0.00000000000E+00  0.00000000000E+00  0.14481405596E+04  0.14481405596E+04  0.50400001928E-02 0. -1.
       -1   -1    0    0    0  501  0.00000000000E+00  0.00000000000E+00 -0.12587955082E+04  0.12587955082E+04  0.50400001928E-02 0.  1.
    10030    2    1    2    0    0  0.00000000000E+00  0.00000000000E+00  0.18934505141E+03  0.27069360678E+04  0.27003057839E+04 0.  0.
        3    1    3    3  502    0  0.11581663607E+04 -0.17839974783E+03  0.76694352522E+03  0.14004921171E+04  0.10100000352E+00 0.  1.
       -3    1    3    3    0  502 -0.11581663607E+04  0.17839974783E+03 -0.57759847381E+03  0.13064439506E+04  0.10100000352E+00 0. -1.
</event>
<event>
 5   0  0.4843887E-07  0.2699662E+04  0.7818609E-02  0.8335115E-01
       -2   -1    0    0    0  501  0.00000000000E+00  0.00000000000E+00  0.14863154437E+04  0.14863154437E+04  0.25500000920E-02 0. -1.
        2   -1    0    0  501    0  0.00000000000E+00  0.00000000000E+00 -0.12258797052E+04  0.12258797052E+04  0.25500000920E-02 0.  1.
    10030    2    1    2    0    0  0.00000000000E+00  0.00000000000E+00  0.26043573841E+03  0.27121951489E+04  0.26996621551E+04 0.  0.
        5    1    3    3  502    0 -0.50821272936E+03 -0.14648973033E+03 -0.11174341439E+04  0.12362930783E+04  0.46999998093E+01 0.  1.
       -5    1    3    3    0  502  0.50821272936E+03  0.14648973033E+03  0.13778698824E+04  0.14759020706E+04  0.46999998093E+01 0. -1.
</event>
<event>
 5   0  0.4992668E-07  0.2699614E+04  0.7818609E-02  0.8335130E-01
       -2   -1    0    0    0  501  0.00000000000E+00  0.00000000000E+00  0.13835992342E+04  0.13835992342E+04  0.25500000920E-02 0. -1.
        2   -1    0    0  501    0  0.00000000000E+00  0.00000000000E+00 -0.13168403218E+04  0.13168403218E+04  0.25500000920E-02 0.  1.
    10030    2    1    2    0    0  0.00000000000E+00  0.00000000000E+00  0.66758912364E+02  0.27004395560E+04  0.26996142397E+04 0.  0.
        1    1    3    3  502    0  0.67659480556E+03  0.56109764688E+03  0.10580793521E+04  0.13755518949E+04  0.50400001928E-02 0. -1.
       -1    1    3    3    0  502 -0.67659480556E+03 -0.56109764688E+03 -0.99132043972E+03  0.13248876611E+04  0.50400001928E-02 0.  1.
</event>
<event>
 5   0  0.4983208E-07  0.2699488E+04  0.7818609E-02  0.8335171E-01
       -2   -1    0    0    0  501  0.00000000000E+00  0.00000000000E+00  0.68602089067E+03  0.68602089067E+03  0.25500000920E-02 0. -1.
        2   -1    0    0  501    0  0.00000000000E+00  0.00000000000E+00 -0.26556167204E+04  0.26556167204E+04  0.25500000920E-02 0.  1.
    10030    2    1    2    0    0  0.00000000000E+00  0.00000000000E+00 -0.19695958298E+04  0.33416376111E+04  0.26994877646E+04 0.  0.
        4    1    3    3  502    0  0.11319038129E+04  0.54374846126E+03 -0.15974393134E+04  0.20319159933E+04  0.12699999809E+01 0.  1.
       -4    1    3    3    0  502 -0.11319038129E+04 -0.54374846126E+03 -0.37215651633E+03  0.13097216178E+04  0.12699999809E+01 0. -1.
</event>
<event>
 5   0  0.4843887E-07  0.2701185E+04  0.7818609E-02  0.8334621E-01
        2   -1    0    0  501    0  0.00000000000E+00  0.00000000000E+00  0.24569740158E+04  0.24569740158E+04  0.25500000920E-02 0.  1.
       -2   -1    0    0    0  501  0.00000000000E+00  0.00000000000E+00 -0.74241723837E+03  0.74241723837E+03  0.25500000920E-02 0. -1.
    10030    2    1    2    0    0  0.00000000000E+00  0.00000000000E+00  0.17145567775E+04  0.31993912542E+04  0.27011848242E+04 0.  0.
        5    1    3    3  502    0 -0.10872546503E+04  0.78712136037E+03  0.10345295938E+04  0.16946847144E+04  0.46999998093E+01 0.  1.
       -5    1    3    3    0  502  0.10872546503E+04 -0.78712136037E+03  0.68002718362E+03  0.15047065398E+04  0.46999998093E+01 0. -1.
</event>
<event>
 5   0  0.1965415E-07  0.2698999E+04  0.7818609E-02  0.8335330E-01
       -1   -1    0    0    0  501  0.00000000000E+00  0.00000000000E+00  0.12354170769E+04  0.12354170769E+04  0.50400001928E-02 0.  1.
        1   -1    0    0  501    0  0.00000000000E+00  0.00000000000E+00 -0.14741169740E+04  0.14741169740E+04  0.50400001928E-02 0. -1.
    10030    2    1    2    0    0  0.00000000000E+00  0.00000000000E+00 -0.23869989709E+03  0.27095340509E+04  0.26989992835E+04 0.  0.
        4    1    3    3  502    0  0.12765372407E+03  0.29253599035E+03  0.11969792180E+04  0.12388033097E+04  0.12699999809E+01 0.  1.
       -4    1    3    3    0  502 -0.12765372407E+03 -0.29253599035E+03 -0.14356791151E+04  0.14707307412E+04  0.12699999809E+01 0. -1.
</event>
<event>
 5   0  0.4992668E-07  0.2699947E+04  0.7818609E-02  0.8335022E-01
       -2   -1    0    0    0  501  0.00000000000E+00  0.00000000000E+00  0.12428374080E+04  0.12428374080E+04  0.25500000920E-02 0. -1.
        2   -1    0    0  501    0  0.00000000000E+00  0.00000000000E+00 -0.14663449190E+04  0.14663449190E+04  0.25500000920E-02 0.  1.
    10030    2    1    2    0    0  0.00000000000E+00  0.00000000000E+00 -0.22350751097E+03  0.27091823270E+04  0.26999469020E+04 0.  0.
        1    1    3    3  502    0  0.12945778869E+04  0.27358819769E+03  0.15682936542E+03  0.13324330591E+04  0.50400001928E-02 0. -1.
       -1    1    3    3    0  502 -0.12945778869E+04 -0.27358819769E+03 -0.38033687640E+03  0.13767492679E+04  0.50400001928E-02 0.  1.
</event>
<event>
 5   0  0.1888149E-07  0.2705969E+04  0.7818609E-02  0.8333071E-01
       -1   -1    0    0    0  501  0.00000000000E+00  0.00000000000E+00  0.12200934341E+04  0.12200934341E+04  0.50400001928E-02 0. -1.
        1   -1    0    0  501    0  0.00000000000E+00  0.00000000000E+00 -0.15003495431E+04  0.15003495431E+04  0.50400001928E-02 0.  1.
    10030    2    1    2    0    0  0.00000000000E+00  0.00000000000E+00 -0.28025610907E+03  0.27204429772E+04  0.27059686816E+04 0.  0.
        1    1    3    3  502    0  0.62304767904E+03 -0.61422376480E+03 -0.11776888629E+04  0.14671095056E+04  0.50400001928E-02 0.  1.
       -1    1    3    3    0  502 -0.62304767904E+03  0.61422376480E+03  0.89743275378E+03  0.12533334717E+04  0.50400001928E-02 0. -1.
</event>
<event>
 5   0  0.1964242E-07  0.2699309E+04  0.7818609E-02  0.8335229E-01
        1   -1    0    0  501    0  0.00000000000E+00  0.00000000000E+00  0.21814900700E+04  0.21814900700E+04  0.50400001928E-02 0. -1.
       -1   -1    0    0    0  501  0.00000000000E+00  0.00000000000E+00 -0.83501070728E+03  0.83501070730E+03  0.50400001928E-02 0.  1.
    10030    2    1    2    0    0  0.00000000000E+00  0.00000000000E+00  0.13464793627E+04  0.30165007773E+04  0.26993092200E+04 0.  0.
        2    1    3    3  502    0 -0.20682321619E+03  0.32651196518E+03 -0.77184245155E+03  0.86320720350E+03  0.25500000920E-02 0.  1.
       -2    1    3    3    0  502  0.20682321619E+03 -0.32651196518E+03  0.21183218142E+04  0.21532935738E+04  0.25500000920E-02 0. -1.
</event>
<event>
 5   0  0.1964242E-07  0.2699352E+04  0.7818609E-02  0.8335215E-01
       -1   -1    0    0    0  501  0.00000000000E+00  0.00000000000E+00  0.21303429022E+04  0.21303429022E+04  0.50400001928E-02 0. -1.
        1   -1    0    0  501    0  0.00000000000E+00  0.00000000000E+00 -0.85508568276E+03  0.85508568277E+03  0.50400001928E-02 0.  1.
    10030    2    1    2    0    0  0.00000000000E+00  0.00000000000E+00  0.12752572195E+04  0.29854285850E+04  0.26993523039E+04 0.  0.
        2    1    3    3  502    0  0.44017610272E+03  0.13933811112E+03 -0.76502894795E+03  0.89355436422E+03  0.25500000920E-02 0.  1.
       -2    1    3    3    0  502 -0.44017610272E+03 -0.13933811112E+03  0.20402861674E+04  0.20918742208E+04  0.25500000920E-02 0. -1.
</event>
<event>
 5   0  0.1888149E-07  0.2695010E+04  0.7818609E-02  0.8336626E-01
        1   -1    0    0  501    0  0.00000000000E+00  0.00000000000E+00  0.15722636781E+04  0.15722636781E+04  0.50400001928E-02 0. -1.
       -1   -1    0    0    0  501  0.00000000000E+00  0.00000000000E+00 -0.11548763095E+04  0.11548763095E+04  0.50400001928E-02 0.  1.
    10030    2    1    2    0    0  0.00000000000E+00  0.00000000000E+00  0.41738736864E+03  0.27271399876E+04  0.26950102591E+04 0.  0.
        1    1    3    3  502    0 -0.86335858916E+03 -0.58970046764E+03 -0.65152053809E+03  0.12319146507E+04  0.50400001928E-02 0.  1.
       -1    1    3    3    0  502  0.86335858916E+03  0.58970046764E+03  0.10689079067E+04  0.14952253369E+04  0.50400001928E-02 0. -1.
</event>
<event>
 5   0  0.1965415E-07  0.2700400E+04  0.7818609E-02  0.8334875E-01
        1   -1    0    0  501    0  0.00000000000E+00  0.00000000000E+00  0.92721757567E+03  0.92721757569E+03  0.50400001928E-02 0. -1.
       -1   -1    0    0    0  501  0.00000000000E+00  0.00000000000E+00 -0.19661407106E+04  0.19661407106E+04  0.50400001928E-02 0.  1.
    10030    2    1    2    0    0  0.00000000000E+00  0.00000000000E+00 -0.10389231349E+04  0.28933582863E+04  0.27004001356E+04 0.  0.
        4    1    3    3  502    0  0.29241541644E+03 -0.10465975650E+04  0.33915158359E+03  0.11383754426E+04  0.12699999809E+01 0. -1.
       -4    1    3    3    0  502 -0.29241541644E+03  0.10465975650E+04 -0.13780747185E+04  0.17549828437E+04  0.12699999809E+01 0.  1.
</event>
<event>
 5   0  0.4983208E-07  0.2699675E+04  0.7818609E-02  0.8335110E-01
       -2   -1    0    0    0  501  0.00000000000E+00  0.00000000000E+00  0.94315792854E+03  0.94315792854E+03  0.25500000920E-02 0.  1.
        2   -1    0    0  501    0  0.00000000000E+00  0.00000000000E+00 -0.19318735116E+04  0.19318735116E+04  0.25500000920E-02 0. -1.
    10030    2    1    2    0    0  0.00000000000E+00  0.00000000000E+00 -0.98871558308E+03  0.28750314402E+04  0.26996754023E+04 0.  0.
        4    1    3    3  502    0 -0.58382754533E+03 -0.30309119874E+03 -0.17496230994E+04  0.18691980848E+04  0.12699999809E+01 0. -1.
       -4    1    3    3    0  502  0.58382754533E+03  0.30309119874E+03  0.76090751632E+03  0.10058333553E+04  0.12699999809E+01 0.  1.
</event>
<event>
 5   0  0.4735120E-07  0.2701629E+04  0.7818609E-02  0.8334477E-01
        2   -1    0    0  501    0  0.00000000000E+00  0.00000000000E+00  0.12492600701E+04  0.12492600701E+04  0.25500000920E-02 0.  1.
       -2   -1    0    0    0  501  0.00000000000E+00  0.00000000000E+00 -0.14606242097E+04  0.14606242097E+04  0.25500000920E-02 0. -1.
    10030    2    1    2    0    0  0.00000000000E+00  0.00000000000E+00 -0.21136413963E+03  0.27098842798E+04  0.27016287699E+04 0.  0.
        2    1    3    3  502    0 -0.76258632789E+03 -0.72111299789E+03 -0.95866740033E+03  0.14214728445E+04  0.25500000920E-02 0. -1.
       -2    1    3    3    0  502  0.76258632789E+03  0.72111299789E+03  0.74730326070E+03  0.12884114353E+04  0.25500000920E-02 0.  1.
</event>
<event>
 5   0  0.1971600E-07  0.2699791E+04  0.7818609E-02  0.8335073E-01
        1   -1    0    0  501    0  0.00000000000E+00  0.00000000000E+00  0.78345515169E+03  0.78345515170E+03  0.50400001928E-02 0.  1.
       -1   -1    0    0    0  501  0.00000000000E+00  0.00000000000E+00 -0.23258737614E+04  0.23258737614E+04  0.50400001928E-02 0. -1.
    10030    2    1    2    0    0  0.00000000000E+00  0.00000000000E+00 -0.15424186098E+04  0.31093289131E+04  0.26997909405E+04 0.  0.
        5    1    3    3  502    0  0.63748387992E+03 -0.25022592579E+03  0.56851994564E+03  0.89007624936E+03  0.46999998093E+01 0.  1.
       -5    1    3    3    0  502 -0.63748387992E+03  0.25022592579E+03 -0.21109385554E+04  0.22192526638E+04  0.46999998093E+01 0. -1.
</event>
<event>
 5   0  0.4735120E-07  0.2700661E+04  0.7818609E-02  0.8334790E-01
       -2   -1    0    0    0  501  0.00000000000E+00  0.00000000000E+00  0.13481052173E+04  0.13481052173E+04  0.25500000920E-02 0.  1.
        2   -1    0    0  501    0  0.00000000000E+00  0.00000000000E+00 -0.13525596247E+04  0.13525596247E+04  0.25500000920E-02 0. -1.
    10030    2    1    2    0    0  0.00000000000E+00  0.00000000000E+00 -0.44544073692E+01  0.27006648420E+04  0.27006611685E+04 0.  0.
        2    1    3    3  502    0  0.33487448603E+03 -0.59677405825E+03 -0.11663217768E+04  0.13522524487E+04  0.25500000920E-02 0. -1.
       -2    1    3    3    0  502 -0.33487448603E+03  0.59677405825E+03  0.11618673695E+04  0.13484123932E+04  0.25500000920E-02 0.  1.
</event>
<event>
 5   0  0.1641625E-07  0.2699775E+04  0.7818609E-02  0.8335078E-01
        3   -1    0    0  501    0  0.00000000000E+00  0.00000000000E+00  0.14425808053E+04  0.14425808089E+04  0.10100000352E+00 0.  1.
       -3   -1    0    0    0  501  0.00000000000E+00  0.00000000000E+00 -0.12631500857E+04  0.12631500898E+04  0.10100000352E+00 0. -1.
    10030    2    1    2    0    0  0.00000000000E+00  0.00000000000E+00  0.17943071959E+03  0.27057308986E+04  0.26997748633E+04 0.  0.
        2    1    3    3  502    0  0.18387076257E+03 -0.16278704589E+03  0.14200049737E+04  0.14410836911E+04  0.25500000920E-02 0.  1.
       -2    1    3    3    0  502 -0.18387076257E+03  0.16278704589E+03 -0.12405742541E+04  0.12646472075E+04  0.25500000920E-02 0. -1.
</event>
<event>
 5   0  0.4992668E-07  0.2701415E+04  0.7818609E-02  0.8334546E-01
       -2   -1    0    0    0  501  0.00000000000E+00  0.00000000000E+00  0.18928729090E+04  0.18928729090E+04  0.25500000920E-02 0. -1.
        2   -1    0    0  501    0  0.00000000000E+00  0.00000000000E+00 -0.96383151974E+03  0.96383151974E+03  0.25500000920E-02 0.  1.
    10030    2    1    2    0    0  0.00000000000E+00  0.00000000000E+00  0.92904138922E+03  0.28567044287E+04  0.27014148682E+04 0.  0.
        1    1    3    3  502    0 -0.27248845603E+03 -0.43900841278E+03  0.17842309780E+04  0.18575409896E+04  0.50400001928E-02 0. -1.
       -1    1    3    3    0  502  0.27248845603E+03  0.43900841278E+03 -0.85518958881E+03  0.99916343908E+03  0.50400001928E-02 0.  1.
</event>
<event>
 5   0  0.4983208E-07  0.2698319E+04  0.7818609E-02  0.8335551E-01
       -2   -1    0    0    0  501  0.00000000000E+00  0.00000000000E+00  0.76336225106E+03  0.76336225107E+03  0.25500000920E-02 0.  1.
        2   -1    0    0  501    0  0.00000000000E+00  0.00000000000E+00 -0.23844918068E+04  0.23844918068E+04  0.25500000920E-02 0. -1.
    10030    2    1    2    0    0  0.00000000000E+00  0.00000000000E+00 -0.16211295557E+04  0.31478540578E+04  0.26983187605E+04 0.  0.
        4    1    3    3  502    0  0.92678917119E+03  0.94475201274E+03 -0.11164158080E+04  0.17314388244E+04  0.12699999809E+01 0. -1.
       -4    1    3    3    0  502 -0.92678917119E+03 -0.94475201274E+03 -0.50471374764E+03  0.14164152334E+04  0.12699999809E+01 0.  1.
</event>
<event>
 5   0  0.1971600E-07  0.2701154E+04  0.7818609E-02  0.8334631E-01
        1   -1    0    0  501    0  0.00000000000E+00  0.00000000000E+00  0.19172725082E+04  0.19172725082E+04  0.50400001928E-02 0. -1.
       -1   -1    0    0    0  501  0.00000000000E+00  0.00000000000E+00 -0.95138158204E+03  0.95138158205E+03  0.50400001928E-02 0.  1.
    10030    2    1    2    0    0  0.00000000000E+00  0.00000000000E+00  0.96589092614E+03  0.28686540902E+04  0.27011536440E+04 0.  0.
        5    1    3    3  502    0 -0.83728153917E+03 -0.35918776964E+03 -0.57586346355E+03  0.10778205084E+04  0.46999998093E+01 0.  1.
       -5    1    3    3    0  502  0.83728153917E+03  0.35918776964E+03  0.15417543897E+04  0.17908335818E+04  0.46999998093E+01 0. -1.
</event>
<event>
 5   0  0.4983208E-07  0.2705374E+04  0.7818609E-02  0.8333263E-01
        2   -1    0    0  501    0  0.00000000000E+00  0.00000000000E+00  0.19907805853E+04  0.19907805853E+04  0.25500000920E-02 0. -1.
       -2   -1    0    0    0  501  0.00000000000E+00  0.00000000000E+00 -0.91911806960E+03  0.91911806960E+03  0.25500000920E-02 0.  1.
    10030    2    1    2    0    0  0.00000000000E+00  0.00000000000E+00  0.10716625157E+04  0.29098986549E+04  0.27053742134E+04 0.  0.
        4    1    3    3  502    0 -0.86501893700E+03 -0.99357226271E+03  0.86615968645E+03  0.15766032532E+04  0.12699999809E+01 0. -1.
       -4    1    3    3    0  502  0.86501893700E+03  0.99357226271E+03  0.20550282928E+03  0.13332954018E+04  0.12699999809E+01 0.  1.
</event>
<event>
 5   0  0.4843887E-07  0.2700982E+04  0.7818609E-02  0.8334687E-01
        2   -1    0    0  501    0  0.00000000000E+00  0.00000000000E+00  0.14798943146E+04  0.14798943146E+04  0.25500000920E-02 0.  1.
       -2   -1    0    0    0  501  0.00000000000E+00  0.00000000000E+00 -0.12324025013E+04  0.12324025013E+04  0.25500000920E-02 0. -1.
    10030    2    1    2    0    0  0.00000000000E+00  0.00000000000E+00  0.24749181324E+03  0.27122968159E+04  0.27009816400E+04 0.  0.
        5    1    3    3  502    0  0.19042825712E+02 -0.12194538044E+04 -0.45866063742E+03  0.13030049427E+04  0.46999998093E+01 0. -1.
       -5    1    3    3    0  502 -0.19042825712E+02  0.12194538044E+04  0.70615245066E+03  0.14092918732E+04  0.46999998093E+01 0.  1.
</event>
<event>
 5   0  0.4992668E-07  0.2700180E+04  0.7818609E-02  0.8334947E-01
       -2   -1    0    0    0  501  0.00000000000E+00  0.00000000000E+00  0.14039688179E+04  0.14039688179E+04  0.25500000920E-02 0.  1.
        2   -1    0    0  501    0  0.00000000000E+00  0.00000000000E+00 -0.12982786274E+04  0.12982786274E+04  0.25500000920E-02 0. -1.
    10030    2    1    2    0    0  0.00000000000E+00  0.00000000000E+00  0.10569019055E+03  0.27022474453E+04  0.27001797791E+04 0.  0.
        1    1    3    3  502    0 -0.61407677406E+03  0.91095667357E+03 -0.73249167363E+03  0.13204076634E+04  0.50400001928E-02 0. -1.
       -1    1    3    3    0  502  0.61407677406E+03 -0.91095667357E+03  0.83818186418E+03  0.13818397820E+04  0.50400001928E-02 0.  1.
</event>
<event>
 5   0  0.1965415E-07  0.2700589E+04  0.7818609E-02  0.8334814E-01
       -1   -1    0    0    0  501  0.00000000000E+00  0.00000000000E+00  0.69869212175E+03  0.69869212176E+03  0.50400001928E-02 0. -1.
        1   -1    0    0  501    0  0.00000000000E+00  0.00000000000E+00 -0.26095834212E+04  0.26095834212E+04  0.50400001928E-02 0.  1.
    10030    2    1    2    0    0  0.00000000000E+00  0.00000000000E+00 -0.19108912995E+04  0.33082755430E+04  0.27005891042E+04 0.  0.
        4    1    3    3  502    0 -0.87489168571E+03 -0.96817965192E+03 -0.53022701025E+03  0.14085274564E+04  0.12699999809E+01 0. -1.
       -4    1    3    3    0  502  0.87489168571E+03  0.96817965192E+03 -0.13806642892E+04  0.18997480866E+04  0.12699999809E+01 0.  1.
</event>
<event>
 5   0  0.4992668E-07  0.2698921E+04  0.7818609E-02  0.8335355E-01
       -2   -1    0    0    0  501  0.00000000000E+00  0.00000000000E+00  0.81166713494E+03  0.81166713495E+03  0.25500000920E-02 0. -1.
        2   -1    0    0  501    0  0.00000000000E+00  0.00000000000E+00 -0.22435849968E+04  0.22435849968E+04  0.25500000920E-02 0.  1.
    10030    2    1    2    0    0  0.00000000000E+00  0.00000000000E+00 -0.14319178619E+04  0.30552521318E+04  0.26989214189E+04 0.  0.
        1    1    3    3  502    0 -0.95732972365E+03  0.50871515050E+03  0.19373798947E+03  0.11012745855E+04  0.50400001928E-02 0. -1.
       -1    1    3    3    0  502  0.95732972365E+03 -0.50871515050E+03 -0.16256558514E+04  0.19539775462E+04  0.50400001928E-02 0.  1.
</event>
<event>
 5   0  0.1964242E-07  0.2699638E+04  0.7818609E-02  0.8335122E-01
        1   -1    0    0  501    0  0.00000000000E+00  0.00000000000E+00  0.14113201257E+04  0.14113201257E+04  0.50400001928E-02 0. -1.
       -1   -1    0    0    0  501  0.00000000000E+00  0.00000000000E+00 -0.12909978697E+04  0.12909978697E+04  0.50400001928E-02 0.  1.
    10030    2    1    2    0    0  0.00000000000E+00  0.00000000000E+00  0.12032225606E+03  0.27023179954E+04  0.26996379578E+04 0.  0.
        2    1    3    3  502    0 -0.61544713929E+03 -0.10374181746E+04  0.66656747483E+03  0.13781595875E+04  0.25500000920E-02 0. -1.
       -2    1    3    3    0  502  0.61544713929E+03  0.10374181746E+04 -0.54624521877E+03  0.13241584079E+04  0.25500000920E-02 0.  1.
</event>
<event>
 5   0  0.5043890E-07  0.2700955E+04  0.7818609E-02  0.8334695E-01
       -2   -1    0    0    0  501  0.00000000000E+00  0.00000000000E+00  0.14294607938E+04  0.14294607938E+04  0.25500000920E-02 0. -1.
        2   -1    0    0  501    0  0.00000000000E+00  0.00000000000E+00 -0.12758585917E+04  0.12758585917E+04  0.25500000920E-02 0.  1.
    10030    2    1    2    0    0  0.00000000000E+00  0.00000000000E+00  0.15360220210E+03  0.27053193855E+04  0.27009552646E+04 0.  0.
        3    1    3    3  502    0  0.64238950842E+03 -0.23969767578E+03  0.12421544989E+04  0.14188259462E+04  0.10100000352E+00 0. -1.
       -3    1    3    3    0  502 -0.64238950842E+03  0.23969767578E+03 -0.10885522968E+04  0.12864934393E+04  0.10100000352E+00 0.  1.
</event>
<event>
 5   0  0.1965415E-07  0.2701715E+04  0.7818609E-02  0.8334449E-01
       -1   -1    0    0    0  501  0.00000000000E+00  0.00000000000E+00  0.11919606718E+04  0.11919606718E+04  0.50400001928E-02 0.  1.
        1   -1    0    0  501    0  0.00000000000E+00  0.00000000000E+00 -0.15309364958E+04  0.15309364958E+04  0.50400001928E-02 0. -1.
    10030    2    1    2    0    0  0.00000000000E+00  0.00000000000E+00 -0.33897582400E+03  0.27228971677E+04  0.27017150805E+04 0.  0.
        4    1    3    3  502    0 -0.48057402254E+03 -0.82249963933E+03  0.79580915238E+03  0.12412779172E+04  0.12699999809E+01 0.  1.
       -4    1    3    3    0  502  0.48057402254E+03  0.82249963933E+03 -0.11347849764E+04  0.14816192505E+04  0.12699999809E+01 0. -1.
</event>
<event>
 5   0  0.1888149E-07  0.2696569E+04  0.7818609E-02  0.8336119E-01
        1   -1    0    0  501    0  0.00000000000E+00  0.00000000000E+00  0.19047770280E+04  0.19047770280E+04  0.50400001928E-02 0.  1.
       -1   -1    0    0    0  501  0.00000000000E+00  0.00000000000E+00 -0.95437502912E+03  0.95437502913E+03  0.50400001928E-02 0. -1.
    10030    2    1    2    0    0  0.00000000000E+00  0.00000000000E+00  0.95040199886E+03  0.28591520571E+04  0.26965693995E+04 0.  0.
        1    1    3    3  502    0 -0.35597128919E+01  0.24224943994E+03 -0.93110578099E+03  0.96210988880E+03  0.50400001928E-02 0. -1.
       -1    1    3    3    0  502  0.35597128919E+01 -0.24224943994E+03  0.18815077798E+04  0.18970421683E+04  0.50400001928E-02 0.  1.
</event>
<event>
 5   0  0.4992668E-07  0.2701232E+04  0.7818609E-02  0.8334605E-01
        2   -1    0    0  501    0  0.00000000000E+00  0.00000000000E+00  0.11652294060E+04  0.11652294060E+04  0.25500000920E-02 0.  1.
       -2   -1    0    0    0  501  0.00000000000E+00  0.00000000000E+00 -0.15654974344E+04  0.15654974344E+04  0.25500000920E-02 0. -1.
    10030    2    1    2    0    0  0.00000000000E+00  0.00000000000E+00 -0.40026802846E+03  0.27307268404E+04  0.27012320490E+04 0.  0.
        1    1    3    3  502    0 -0.63042112084E+03 -0.10973190772E+04 -0.67711609332E+03  0.14352791194E+04  0.50400001928E-02 0. -1.
       -1    1    3    3    0  502  0.63042112084E+03  0.10973190772E+04  0.27684806486E+03  0.12954477210E+04  0.50400001928E-02 0.  1.
</event>
<event>
 5   0  0.4983208E-07  0.2693191E+04  0.7818609E-02  0.8337218E-01
       -2   -1    0    0    0  501  0.00000000000E+00  0.00000000000E+00  0.10126301035E+04  0.10126301035E+04  0.25500000920E-02 0.  1.
        2   -1    0    0  501    0  0.00000000000E+00  0.00000000000E+00 -0.17907024365E+04  0.17907024365E+04  0.25500000920E-02 0. -1.
    10030    2    1    2    0    0  0.00000000000E+00  0.00000000000E+00 -0.77807233294E+03  0.28033325400E+04  0.26931908166E+04 0.  0.
        4    1    3    3  502    0  0.68029424052E+03 -0.50904952480E+03 -0.14764545337E+04  0.17034821031E+04  0.12699999809E+01 0. -1.
       -4    1    3    3    0  502 -0.68029424052E+03  0.50904952480E+03  0.69838220078E+03  0.10998504369E+04  0.12699999809E+01 0.  1.
</event>
<event>
 5   0  0.1641625E-07  0.2695224E+04  0.7818609E-02  0.8336556E-01
       -3   -1    0    0    0  501  0.00000000000E+00  0.00000000000E+00  0.15945501022E+04  0.15945501054E+04  0.10100000352E+00 0.  1.
        3   -1    0    0  501    0  0.00000000000E+00  0.00000000000E+00 -0.11389156712E+04  0.11389156757E+04  0.10100000352E+00 0. -1.
    10030    2    1    2    0    0  0.00000000000E+00  0.00000000000E+00  0.45563443100E+03  0.27334657811E+04  0.26952240058E+04 0.  0.
        2    1    3    3  502    0  0.62925453999E+03  0.10457265021E+04 -0.35173898854E+03  0.12701281468E+04  0.25500000920E-02 0. -1.
       -2    1    3    3    0  502 -0.62925453999E+03 -0.10457265021E+04  0.80737341954E+03  0.14633376343E+04  0.25500000920E-02 0.  1.
</event>
<event>
 5   0  0.4992668E-07  0.2697397E+04  0.7818609E-02  0.8335850E-01
        2   -1    0    0  501    0  0.00000000000E+00  0.00000000000E+00  0.58571508547E+03  0.58571508548E+03  0.25500000920E-02 0.  1.
       -2   -1    0    0    0  501  0.00000000000E+00  0.00000000000E+00 -0.31055850898E+04  0.31055850898E+04  0.25500000920E-02 0. -1.
    10030    2    1    2    0    0  0.00000000000E+00  0.00000000000E+00 -0.25198700043E+04  0.36913001752E+04  0.26973972909E+04 0.  0.
        1    1    3    3  502    0 -0.91060498488E+03  0.86375967838E+03 -0.58436961076E+03  0.13844746522E+04  0.50400001928E-02 0.  1.
       -1    1    3    3    0  502  0.91060498488E+03 -0.86375967838E+03 -0.19355003935E+04  0.23068255231E+04  0.50400001928E-02 0. -1.
</event>
<event>
 5   0  0.5043890E-07  0.2698606E+04  0.7818609E-02  0.8335457E-01
       -2   -1    0    0    0  501  0.00000000000E+00  0.00000000000E+00  0.10166516361E+04  0.10166516361E+04  0.25500000920E-02 0.  1.
        2   -1    0    0  501    0  0.00000000000E+00  0.00000000000E+00 -0.17907990101E+04  0.17907990101E+04  0.25500000920E-02 0. -1.
    10030    2    1    2    0    0  0.00000000000E+00  0.00000000000E+00 -0.77414737400E+03  0.28074506462E+04  0.26986061169E+04 0.  0.
        3    1    3    3  502    0 -0.17246128804E+03  0.50669664280E+03  0.90148536705E+03  0.10484084418E+04  0.10100000352E+00 0.  1.
       -3    1    3    3    0  502  0.17246128804E+03 -0.50669664280E+03 -0.16756327410E+04  0.17590422044E+04  0.10100000352E+00 0. -1.
</event>
<event>
 5   0  0.1888149E-07  0.2700002E+04  0.7818609E-02  0.8335004E-01
       -1   -1    0    0    0  501  0.00000000000E+00  0.00000000000E+00  0.11299633646E+04  0.11299633646E+04  0.50400001928E-02 0.  1.
        1   -1    0    0  501    0  0.00000000000E+00  0.00000000000E+00 -0.16128870206E+04  0.16128870206E+04  0.50400001928E-02 0. -1.
    10030    2    1    2    0    0  0.00000000000E+00  0.00000000000E+00 -0.48292365603E+03  0.27428503851E+04  0.27000024033E+04 0.  0.
        1    1    3    3  502    0 -0.38324827827E+03  0.12844928750E+04 -0.40432462828E+03  0.14000998514E+04  0.50400001928E-02 0. -1.
       -1    1    3    3    0  502  0.38324827827E+03 -0.12844928750E+04 -0.78599027747E+02  0.13427505338E+04  0.50400001928E-02 0.  1.
</event>
<event>
 5   0  0.1888149E-07  0.2680086E+04  0.7818609E-02  0.8341495E-01
       -1   -1    0    0    0  501  0.00000000000E+00  0.00000000000E+00  0.16960124339E+04  0.16960124339E+04  0.50400001928E-02 0.  1.
        1   -1    0    0  501    0  0.00000000000E+00  0.00000000000E+00 -0.10587869553E+04  0.10587869553E+04  0.50400001928E-02 0. -1.
    10030    2    1    2    0    0  0.00000000000E+00  0.00000000000E+00  0.63722547858E+03  0.27547993893E+04  0.26800864472E+04 0.  0.
        1    1    3    3  502    0  0.87921866763E+03 -0.86335334713E+03  0.85989652322E+03  0.15026065680E+04  0.50400001928E-02 0.  1.
       -1    1    3    3    0  502 -0.87921866763E+03  0.86335334713E+03 -0.22267104464E+03  0.12521928213E+04  0.50400001928E-02 0. -1.
</event>
<event>
 5   0  0.1937896E-07  0.2700102E+04  0.7818609E-02  0.8334972E-01
       -1   -1    0    0    0  501  0.00000000000E+00  0.00000000000E+00  0.11149955347E+04  0.11149955347E+04  0.50400001928E-02 0.  1.
        1   -1    0    0  501    0  0.00000000000E+00  0.00000000000E+00 -0.16346595097E+04  0.16346595097E+04  0.50400001928E-02 0. -1.
    10030    2    1    2    0    0  0.00000000000E+00  0.00000000000E+00 -0.51966397500E+03  0.27496550445E+04  0.27001022604E+04 0.  0.
        3    1    3    3  502    0 -0.11030366060E+04  0.11853938350E+03 -0.10432994443E+04  0.15228969369E+04  0.10100000352E+00 0. -1.
       -3    1    3    3    0  502  0.11030366060E+04 -0.11853938350E+03  0.52363546930E+03  0.12267581076E+04  0.10100000352E+00 0.  1.
</event>
<event>
 5   0  0.1971600E-07  0.2703929E+04  0.7818609E-02  0.8333731E-01
       -1   -1    0    0    0  501  0.00000000000E+00  0.00000000000E+00  0.14429160900E+04  0.14429160900E+04  0.50400001928E-02 0.  1.
        1   -1    0    0  501    0  0.00000000000E+00  0.00000000000E+00 -0.12667457779E+04  0.12667457779E+04  0.50400001928E-02 0. -1.
    10030    2    1    2    0    0  0.00000000000E+00  0.00000000000E+00  0.17617031210E+03  0.27096618679E+04  0.27039288932E+04 0.  0.
        5    1    3    3  502    0 -0.15556007411E+03  0.75876120102E+03 -0.10223564433E+04  0.12826348989E+04  0.46999998093E+01 0. -1.
       -5    1    3    3    0  502  0.15556007411E+03 -0.75876120102E+03  0.11985267553E+04  0.14270269690E+04  0.46999998093E+01 0.  1.
</event>
<event>
 5   0  0.1971600E-07  0.2699713E+04  0.7818609E-02  0.8335098E-01
        1   -1    0    0  501    0  0.00000000000E+00  0.00000000000E+00  0.21630946994E+04  0.21630946994E+04  0.50400001928E-02 0.  1.
       -1   -1    0    0    0  501  0.00000000000E+00  0.00000000000E+00 -0.84236370410E+03  0.84236370411E+03  0.50400001928E-02 0. -1.
    10030    2    1    2    0    0  0.00000000000E+00  0.00000000000E+00  0.13207309953E+04  0.30054584035E+04  0.26997129205E+04 0.  0.
        5    1    3    3  502    0 -0.11747289176E+04 -0.92031239217E+02 -0.72719101874E+02  0.11805794919E+04  0.46999998093E+01 0. -1.
       -5    1    3    3    0  502  0.11747289176E+04  0.92031239217E+02  0.13934500972E+04  0.18248789116E+04  0.46999998093E+01 0.  1.
</event>
<event>
 5   0  0.4983208E-07  0.2699422E+04  0.7818609E-02  0.8335193E-01
        2   -1    0    0  501    0  0.00000000000E+00  0.00000000000E+00  0.20544685944E+04  0.20544685944E+04  0.25500000920E-02 0.  1.
       -2   -1    0    0    0  501  0.00000000000E+00  0.00000000000E+00 -0.88671076210E+03  0.88671076210E+03  0.25500000920E-02 0. -1.
    10030    2    1    2    0    0  0.00000000000E+00  0.00000000000E+00  0.11677578323E+04  0.29411793566E+04  0.26994217256E+04 0.  0.
        4    1    3    3  502    0 -0.11988642586E+04 -0.33492852067E+03  0.15357514263E+02  0.12448654910E+04  0.12699999809E+01 0. -1.
       -4    1    3    3    0  502  0.11988642586E+04  0.33492852067E+03  0.11524003181E+04  0.16963138656E+04  0.12699999809E+01 0.  1.
</event>
<event>
 5   0  0.4992668E-07  0.2699833E+04  0.7818609E-02  0.8335059E-01
        2   -1    0    0  501    0  0.00000000000E+00  0.00000000000E+00  0.17628037222E+04  0.17628037222E+04  0.25500000920E-02 0. -1.
       -2   -1    0    0    0  501  0.00000000000E+00  0.00000000000E+00 -0.10337367189E+04  0.10337367189E+04  0.25500000920E-02 0.  1.
    10030    2    1    2    0    0  0.00000000000E+00  0.00000000000E+00  0.72906700326E+03  0.27965404411E+04  0.26998332807E+04 0.  0.
        1    1    3    3  502    0  0.56877268428E+03 -0.29696133750E+03  0.15947570172E+04  0.17189934108E+04  0.50400001928E-02 0. -1.
       -1    1    3    3    0  502 -0.56877268428E+03  0.29696133750E+03 -0.86569001395E+03  0.10775470304E+04  0.50400001928E-02 0.  1.
</event>
<event>
 5   0  0.1964242E-07  0.2699647E+04  0.7818609E-02  0.8335119E-01
       -1   -1    0    0    0  501  0.00000000000E+00  0.00000000000E+00  0.11338542753E+04  0.11338542753E+04  0.50400001928E-02 0.  1.
        1   -1    0    0  501    0  0.00000000000E+00  0.00000000000E+00 -0.16069294317E+04  0.16069294317E+04  0.50400001928E-02 0. -1.
    10030    2    1    2    0    0  0.00000000000E+00  0.00000000000E+00 -0.47307515640E+03  0.27407837069E+04  0.26996472408E+04 0.  0.
        2    1    3    3  502    0 -0.24894120739E+03 -0.11595053849E+04 -0.89103082736E+03  0.14833611824E+04  0.25500000920E-02 0. -1.
       -2    1    3    3    0  502  0.24894120739E+03  0.11595053849E+04  0.41795567096E+03  0.12574225245E+04  0.25500000920E-02 0.  1.
</event>
<event>
 5   0  0.4843887E-07  0.2699425E+04  0.7818609E-02  0.8335191E-01
       -2   -1    0    0    0  501  0.00000000000E+00  0.00000000000E+00  0.14934695479E+04  0.14934695479E+04  0.25500000920E-02 0.  1.
        2   -1    0    0  501    0  0.00000000000E+00  0.00000000000E+00 -0.12197935287E+04  0.12197935287E+04  0.25500000920E-02 0. -1.
    10030    2    1    2    0    0  0.00000000000E+00  0.00000000000E+00  0.27367601926E+03  0.27132630766E+04  0.26994254869E+04 0.  0.
        5    1    3    3  502    0 -0.90238527447E+03 -0.21645890977E+03 -0.84826187421E+03  0.12572684441E+04  0.46999998093E+01 0. -1.
       -5    1    3    3    0  502  0.90238527447E+03  0.21645890977E+03  0.11219378935E+04  0.14559946326E+04  0.46999998093E+01 0.  1.
</event>
<event>
 5   0  0.1964242E-07  0.2699977E+04  0.7818609E-02  0.8335013E-01
        1   -1    0    0  501    0  0.00000000000E+00  0.00000000000E+00  0.18167188961E+04  0.18167188961E+04  0.50400001928E-02 0.  1.
       -1   -1    0    0    0  501  0.00000000000E+00  0.00000000000E+00 -0.10031647384E+04  0.10031647384E+04  0.50400001928E-02 0. -1.
    10030    2    1    2    0    0  0.00000000000E+00  0.00000000000E+00  0.81355415766E+03  0.28198836345E+04  0.26999765453E+04 0.  0.
        2    1    3    3  502    0  0.46647031516E+03  0.43667568089E+03 -0.83523205478E+03  0.10516143735E+04  0.25500000920E-02 0. -1.
       -2    1    3    3    0  502 -0.46647031516E+03 -0.43667568089E+03  0.16487862124E+04  0.17682692610E+04  0.25500000920E-02 0.  1.
</event>
<event>
 5   0  0.4735120E-07  0.2699358E+04  0.7818609E-02  0.8335213E-01
       -2   -1    0    0    0  501  0.00000000000E+00  0.00000000000E+00  0.10751590022E+04  0.10751590022E+04  0.25500000920E-02 0. -1.
        2   -1    0    0  501    0  0.00000000000E+00  0.00000000000E+00 -0.16942924935E+04  0.16942924936E+04  0.25500000920E-02 0.  1.
    10030    2    1    2    0    0  0.00000000000E+00  0.00000000000E+00 -0.61913349134E+03  0.27694514958E+04  0.26993583140E+04 0.  0.
        2    1    3    3  502    0  0.12932292087E+03 -0.84324598729E+03 -0.13825952067E+04  0.16246100204E+04  0.25500000920E-02 0.  1.
       -2    1    3    3    0  502 -0.12932292087E+03  0.84324598729E+03  0.76346171532E+03  0.11448414754E+04  0.25500000920E-02 0. -1.
</event>
<event>
 5   0  0.5043890E-07  0.2700494E+04  0.7818609E-02  0.8334845E-01
       -2   -1    0    0    0  501  0.00000000000E+00  0.00000000000E+00  0.69517005333E+03  0.69517005334E+03  0.25500000920E-02 0.  1.
        2   -1    0    0  501    0  0.00000000000E+00  0.00000000000E+00 -0.26226192820E+04  0.26226192820E+04  0.25500000920E-02 0. -1.
    10030    2    1    2    0    0  0.00000000000E+00  0.00000000000E+00 -0.19274492287E+04  0.33177893354E+04  0.27004935743E+04 0.  0.
        3    1    3    3  502    0  0.15276512841E+03  0.80187599231E+03 -0.22851398794E+04  0.24265627069E+04  0.10100000352E+00 0. -1.
       -3    1    3    3    0  502 -0.15276512841E+03 -0.80187599231E+03  0.35769065076E+03  0.89122662850E+03  0.10100000352E+00 0.  1.
</event>
<event>
 5   0  0.4992668E-07  0.2700080E+04  0.7818609E-02  0.8334979E-01
       -2   -1    0    0    0  501  0.00000000000E+00  0.00000000000E+00  0.74434442675E+03  0.74434442676E+03  0.25500000920E-02 0. -1.
        2   -1    0    0  501    0  0.00000000000E+00  0.00000000000E+00 -0.24486080559E+04  0.24486080559E+04  0.25500000920E-02 0.  1.
    10030    2    1    2    0    0  0.00000000000E+00  0.00000000000E+00 -0.17042636292E+04  0.31929524827E+04  0.27000798208E+04 0.  0.
        1    1    3    3  502    0  0.59485220137E+03 -0.40019126934E+03 -0.22048901976E+04  0.23185217224E+04  0.50400001928E-02 0.  1.
       -1    1    3    3    0  502 -0.59485220137E+03  0.40019126934E+03  0.50062656844E+03  0.87443076032E+03  0.50400001928E-02 0. -1.
</event>
<event>
 5   0  0.4983208E-07  0.2699319E+04  0.7818609E-02  0.8335226E-01
        2   -1    0    0  501    0  0.00000000000E+00  0.00000000000E+00  0.31059984271E+04  0.31059984271E+04  0.25500000920E-02 0.  1.
       -2   -1    0    0    0  501  0.00000000000E+00  0.00000000000E+00 -0.58647182893E+03  0.58647182893E+03  0.25500000920E-02 0. -1.
    10030    2    1    2    0    0  0.00000000000E+00  0.00000000000E+00  0.25195265981E+04  0.36924702560E+04  0.26993188609E+04 0.  0.
        4    1    3    3  502    0 -0.15146671035E+03 -0.13080406759E+04  0.16647860140E+04  0.21225990341E+04  0.12699999809E+01 0. -1.
       -4    1    3    3    0  502  0.15146671035E+03  0.13080406759E+04  0.85474058409E+03  0.15698712219E+04  0.12699999809E+01 0.  1.
</event>
<event>
 5   0  0.1971600E-07  0.2699326E+04  0.7818609E-02  0.8335224E-01
        1   -1    0    0  501    0  0.00000000000E+00  0.00000000000E+00  0.14558671740E+04  0.14558671740E+04  0.50400001928E-02 0.  1.
       -1   -1    0    0    0  501  0.00000000000E+00  0.00000000000E+00 -0.12512061886E+04  0.12512061886E+04  0.50400001928E-02 0. -1.
    10030    2    1    2    0    0  0.00000000000E+00  0.00000000000E+00  0.20466098538E+03  0.27070733626E+04  0.26993258550E+04 0.  0.
        5    1    3    3  502    0 -0.64662037663E+03 -0.76991979620E+03 -0.80062783067E+03  0.12852709509E+04  0.46999998093E+01 0. -1.
       -5    1    3    3    0  502  0.64662037663E+03  0.76991979620E+03  0.10052888160E+04  0.14218024116E+04  0.46999998093E+01 0.  1.
</event>
<event>
 5   0  0.1965415E-07  0.2700059E+04  0.7818609E-02  0.8334986E-01
       -1   -1    0    0    0  501  0.00000000000E+00  0.00000000000E+00  0.91574603861E+03  0.91574603863E+03  0.50400001928E-02 0.  1.
        1   -1    0    0  501    0  0.00000000000E+00  0.00000000000E+00 -0.19902672397E+04  0.19902672397E+04  0.50400001928E-02 0. -1.
    10030    2    1    2    0    0  0.00000000000E+00  0.00000000000E+00 -0.10745212011E+04  0.29060132784E+04  0.27000587702E+04 0.  0.
        4    1    3    3  502    0  0.55715152275E+03  0.37993952573E+03 -0.17960022661E+04  0.19184362421E+04  0.12699999809E+01 0. -1.
       -4    1    3    3    0  502 -0.55715152275E+03 -0.37993952573E+03  0.72148106495E+03  0.98757703623E+03  0.12699999809E+01 0.  1.
</event>
<event>
 5   0  0.1641625E-07  0.2700249E+04  0.7818609E-02  0.8334924E-01
       -3   -1    0    0    0  501  0.00000000000E+00  0.00000000000E+00  0.17896664657E+04  0.17896664686E+04  0.10100000352E+00 0. -1.
        3   -1    0    0  501    0  0.00000000000E+00  0.00000000000E+00 -0.10185338597E+04  0.10185338647E+04  0.10100000352E+00 0.  1.
    10030    2    1    2    0    0  0.00000000000E+00  0.00000000000E+00  0.77113260604E+03  0.28082003333E+04  0.27002488063E+04 0.  0.
        4    1    3    3  502    0  0.58602439092E+03  0.78553684514E+03  0.13513146305E+04  0.16692949306E+04  0.12699999809E+01 0. -1.
       -4    1    3    3    0  502 -0.58602439092E+03 -0.78553684514E+03 -0.58018202449E+03  0.11389054027E+04  0.12699999809E+01 0.  1.
</event>
<event>
 5   0  0.5043890E-07  0.2699964E+04  0.7818609E-02  0.8335017E-01
       -2   -1    0    0    0  501  0.00000000000E+00  0.00000000000E+00  0.99248880350E+03  0.99248880350E+03  0.25500000920E-02 0.  1.
        2   -1    0    0  501    0  0.00000000000E+00  0.00000000000E+00 -0.18362439691E+04  0.18362439691E+04  0.25500000920E-02 0. -1.
    10030    2    1    2    0    0  0.00000000000E+00  0.00000000000E+00 -0.84375516565E+03  0.28287327727E+04  0.26999641330E+04 0.  0.
        3    1    3    3  502    0  0.59605649416E+03  0.69005858580E+03 -0.14648383877E+04  0.17254610133E+04  0.10100000352E+00 0. -1.
       -3    1    3    3    0  502 -0.59605649416E+03 -0.69005858580E+03  0.62108322207E+03  0.11032717594E+04  0.10100000352E+00 0.  1.
</event>
<event>
 5   0  0.4735120E-07  0.2698964E+04  0.7818609E-02  0.8335341E-01
        2   -1    0    0  501    0  0.00000000000E+00  0.00000000000E+00  0.11847682826E+04  0.11847682826E+04  0.25500000920E-02 0. -1.
       -2   -1    0    0    0  501  0.00000000000E+00  0.00000000000E+00 -0.15370950954E+04  0.15370950954E+04  0.25500000920E-02 0.  1.
    10030    2    1    2    0    0  0.00000000000E+00  0.00000000000E+00 -0.35232681282E+03  0.27218633780E+04  0.26989638874E+04 0.  0.
        2    1    3    3  502    0  0.11096778926E+04  0.51396313258E+03  0.39925492628E+03  0.12864476760E+04  0.25500000920E-02 0.  1.
       -2    1    3    3    0  502 -0.11096778926E+04 -0.51396313258E+03 -0.75158173910E+03  0.14354157020E+04  0.25500000920E-02 0. -1.
</event>
<event>
 5   0  0.4843887E-07  0.2700463E+04  0.7818609E-02  0.8334855E-01
       -2   -1    0    0    0  501  0.00000000000E+00  0.00000000000E+00  0.85966701927E+03  0.85966701928E+03  0.25500000920E-02 0.  1.
        2   -1    0    0  501    0  0.00000000000E+00  0.00000000000E+00 -0.21207344976E+04  0.21207344976E+04  0.25500000920E-02 0. -1.
    10030    2    1    2    0    0  0.00000000000E+00  0.00000000000E+00 -0.12610674783E+04  0.29804015168E+04  0.27004632967E+04 0.  0.
        5    1    3    3  502    0 -0.50769800237E+03  0.11558806027E+04 -0.10205753016E+03  0.12665919069E+04  0.46999998093E+01 0.  1.
       -5    1    3    3    0  502  0.50769800237E+03 -0.11558806027E+04 -0.11590099481E+04  0.17138096099E+04  0.46999998093E+01 0. -1.
</event>
<event>
 5   0  0.1965415E-07  0.2699589E+04  0.7818609E-02  0.8335138E-01
       -1   -1    0    0    0  501  0.00000000000E+00  0.00000000000E+00  0.90594031884E+03  0.90594031886E+03  0.50400001928E-02 0. -1.
        1   -1    0    0  501    0  0.00000000000E+00  0.00000000000E+00 -0.20111089257E+04  0.20111089257E+04  0.50400001928E-02 0.  1.
    10030    2    1    2    0    0  0.00000000000E+00  0.00000000000E+00 -0.11051686068E+04  0.29170492445E+04  0.26995886067E+04 0.  0.
        4    1    3    3  502    0 -0.12922529863E+04  0.24261941938E+02 -0.97308007867E+03  0.16178358615E+04  0.12699999809E+01 0. -1.
       -4    1    3    3    0  502  0.12922529863E+04 -0.24261941938E+02 -0.13208852814E+03  0.12992133830E+04  0.12699999809E+01 0.  1.
</event>
<event>
 5   0  0.1888149E-07  0.2700279E+04  0.7818609E-02  0.8334915E-01
       -1   -1    0    0    0  501  0.00000000000E+00  0.00000000000E+00  0.18600021350E+04  0.18600021350E+04  0.50400001928E-02 0.  1.
        1   -1    0    0  501    0  0.00000000000E+00  0.00000000000E+00 -0.98003974513E+03  0.98003974514E+03  0.50400001928E-02 0. -1.
    10030    2    1    2    0    0  0.00000000000E+00  0.00000000000E+00  0.87996238987E+03  0.28400418801E+04  0.27002785177E+04 0.  0.
        1    1    3    3  502    0 -0.12674220291E+04  0.78816948070E+02 -0.42345500213E+02  0.12705761892E+04  0.50400001928E-02 0. -1.
       -1    1    3    3    0  502  0.12674220291E+04 -0.78816948070E+02  0.92230789009E+03  0.15694656910E+04  0.50400001928E-02 0.  1.
</event>
<event>
 5   0  0.4735120E-07  0.2698432E+04  0.7818609E-02  0.8335514E-01
       -2   -1    0    0    0  501  0.00000000000E+00  0.00000000000E+00  0.10895774114E+04  0.10895774114E+04  0.25500000920E-02 0. -1.
        2   -1    0    0  501    0  0.00000000000E+00  0.00000000000E+00 -0.16707251834E+04  0.16707251834E+04  0.25500000920E-02 0.  1.
    10030    2    1    2    0    0  0.00000000000E+00  0.00000000000E+00 -0.58114777193E+03  0.27603025948E+04  0.26984324491E+04 0.  0.
        2    1    3    3  502    0  0.10383997219E+04  0.81180680999E+03  0.42711064240E+01  0.13180753095E+04  0.25500000920E-02 0.  1.
       -2    1    3    3    0  502 -0.10383997219E+04 -0.81180680999E+03 -0.58541887836E+03  0.14422272853E+04  0.25500000920E-02 0. -1.
</event>
<event>
 5   0  0.1965415E-07  0.2701155E+04  0.7818609E-02  0.8334630E-01
       -1   -1    0    0    0  501  0.00000000000E+00  0.00000000000E+00  0.82680809956E+03  0.82680809958E+03  0.50400001928E-02 0.  1.
        1   -1    0    0  501    0  0.00000000000E+00  0.00000000000E+00 -0.22061460469E+04  0.22061460469E+04  0.50400001928E-02 0. -1.
    10030    2    1    2    0    0  0.00000000000E+00  0.00000000000E+00 -0.13793379473E+04  0.30329541465E+04  0.27011548792E+04 0.  0.
        4    1    3    3  502    0  0.10819668555E+03 -0.96472082902E+03  0.36464062385E+03  0.10369943096E+04  0.12699999809E+01 0.  1.
       -4    1    3    3    0  502 -0.10819668555E+03  0.96472082902E+03 -0.17439785712E+04  0.19959598368E+04  0.12699999809E+01 0. -1.
</event>
<event>
 5   0  0.4983208E-07  0.2699941E+04  0.7818609E-02  0.8335024E-01
        2   -1    0    0  501    0  0.00000000000E+00  0.00000000000E+00  0.14411261602E+04  0.14411261602E+04  0.25500000920E-02 0. -1.
       -2   -1    0    0    0  501  0.00000000000E+00  0.00000000000E+00 -0.12645808987E+04  0.12645808987E+04  0.25500000920E-02 0.  1.
    10030    2    1    2    0    0  0.00000000000E+00  0.00000000000E+00  0.17654526152E+03  0.27057070589E+04  0.26999411955E+04 0.  0.
        4    1    3    3  502    0 -0.73891518837E+03  0.66474968185E+03 -0.82720504862E+03  0.12931193296E+04  0.12699999809E+01 0.  1.
       -4    1    3    3    0  502  0.73891518837E+03 -0.66474968185E+03  0.10037503101E+04  0.14125877294E+04  0.12699999809E+01 0. -1.
</event>
<event>
 5   0  0.1971600E-07  0.2699782E+04  0.7818609E-02  0.8335076E-01
        1   -1    0    0  501    0  0.00000000000E+00  0.00000000000E+00  0.21633027924E+04  0.21633027924E+04  0.50400001928E-02 0. -1.
       -1   -1    0    0    0  501  0.00000000000E+00  0.00000000000E+00 -0.84232604899E+03  0.84232604900E+03  0.50400001928E-02 0.  1.
    10030    2    1    2    0    0  0.00000000000E+00  0.00000000000E+00  0.13209767434E+04  0.30056288414E+04  0.26997824312E+04 0.  0.
        5    1    3    3  502    0 -0.14184966158E+03  0.23784818432E+03  0.21313282775E+04  0.21492499626E+04  0.46999998093E+01 0. -1.
       -5    1    3    3    0  502  0.14184966158E+03 -0.23784818432E+03 -0.81035153409E+03  0.85637887881E+03  0.46999998093E+01 0.  1.
</event>
<event>
 5   0  0.4843887E-07  0.2700080E+04  0.7818609E-02  0.8334979E-01
       -2   -1    0    0    0  501  0.00000000000E+00  0.00000000000E+00  0.14583784797E+04  0.14583784797E+04  0.25500000920E-02 0.  1.
        2   -1    0    0  501    0  0.00000000000E+00  0.00000000000E+00 -0.12497493273E+04  0.12497493273E+04  0.25500000920E-02 0. -1.
    10030    2    1    2    0    0  0.00000000000E+00  0.00000000000E+00  0.20862915246E+03  0.27081278070E+04  0.27000796462E+04 0.  0.
        5    1    3    3  502    0 -0.47527889946E+03  0.11107461373E+04 -0.49992484221E+03  0.13075144174E+04  0.46999998093E+01 0. -1.
       -5    1    3    3    0  502  0.47527889946E+03 -0.11107461373E+04  0.70855399467E+03  0.14006133896E+04  0.46999998093E+01 0.  1.
</event>
<event>
 5   0  0.4992668E-07  0.2699864E+04  0.7818609E-02  0.8335049E-01
       -2   -1    0    0    0  501  0.00000000000E+00  0.00000000000E+00  0.93229475236E+03  0.93229475237E+03  0.25500000920E-02 0. -1.
        2   -1    0    0  501    0  0.00000000000E+00  0.00000000000E+00 -0.19546567918E+04  0.19546567918E+04  0.25500000920E-02 0.  1.
    10030    2    1    2    0    0  0.00000000000E+00  0.00000000000E+00 -0.10223620395E+04  0.28869515442E+04  0.26998639001E+04 0.  0.
        1    1    3    3  502    0  0.72145916088E+03  0.25407379168E+03 -0.17005812375E+04  0.18646804975E+04  0.50400001928E-02 0.  1.
       -1    1    3    3    0  502 -0.72145916088E+03 -0.25407379168E+03  0.67821919799E+03  0.10222710467E+04  0.50400001928E-02 0. -1.
</event>
<event>
 5   0  0.1937896E-07  0.2699995E+04  0.7818609E-02  0.8335007E-01
        1   -1    0    0  501    0  0.00000000000E+00  0.00000000000E+00  0.21861399148E+04  0.21861399148E+04  0.50400001928E-02 0. -1.
       -1   -1    0    0    0  501  0.00000000000E+00  0.00000000000E+00 -0.83365802253E+03  0.83365802254E+03  0.50400001928E-02 0.  1.
    10030    2    1    2    0    0  0.00000000000E+00  0.00000000000E+00  0.13524818923E+04  0.30197979374E+04  0.26999948729E+04 0.  0.
        3    1    3    3  502    0 -0.11647148871E+03 -0.13281077955E+04  0.91364972507E+03  0.16162276308E+04  0.10100000352E+00 0. -1.
       -3    1    3    3    0  502  0.11647148871E+03  0.13281077955E+04  0.43883216722E+03  0.14035703066E+04  0.10100000352E+00 0.  1.
</event>
<event>
 5   0  0.1965415E-07  0.2699719E+04  0.7818609E-02  0.8335096E-01
        1   -1    0    0  501    0  0.00000000000E+00  0.00000000000E+00  0.10178928115E+04  0.10178928116E+04  0.50400001928E-02 0.  1.
       -1   -1    0    0    0  501  0.00000000000E+00  0.00000000000E+00 -0.17900907667E+04  0.17900907667E+04  0.50400001928E-02 0. -1.
    10030    2    1    2    0    0  0.00000000000E+00  0.00000000000E+00 -0.77219795511E+03  0.28079835782E+04  0.26997188916E+04 0.  0.
        4    1    3    3  502    0  0.92247739577E+03 -0.28136108314E+03 -0.13684259869E+04  0.16741325811E+04  0.12699999809E+01 0. -1.
       -4    1    3    3    0  502 -0.92247739577E+03  0.28136108314E+03  0.59622803175E+03  0.11338509971E+04  0.12699999809E+01 0.  1.
</event>
<event>
 5   0  0.1965415E-07  0.2708109E+04  0.7818609E-02  0.8332379E-01
        1   -1    0    0  501    0  0.00000000000E+00  0.00000000000E+00  0.12407370871E+04  0.12407370871E+04  0.50400001928E-02 0. -1.
       -1   -1    0    0    0  501  0.00000000000E+00  0.00000000000E+00 -0.14777212085E+04  0.14777212085E+04  0.50400001928E-02 0.  1.
    10030    2    1    2    0    0  0.00000000000E+00  0.00000000000E+00 -0.23698412138E+03  0.27184582956E+04  0.27081089400E+04 0.  0.
        4    1    3    3  502    0  0.81436785512E+03 -0.10782607254E+04 -0.20612229340E+03  0.13668683946E+04  0.12699999809E+01 0. -1.
       -4    1    3    3    0  502 -0.81436785512E+03  0.10782607254E+04 -0.30861827973E+02  0.13515899011E+04  0.12699999809E+01 0.  1.
</event>
<event>
 5   0  0.1965415E-07  0.2700553E+04  0.7818609E-02  0.8334826E-01
       -1   -1    0    0    0  501  0.00000000000E+00  0.00000000000E+00  0.94398248561E+03  0.94398248563E+03  0.50400001928E-02 0. -1.
        1   -1    0    0  501    0  0.00000000000E+00  0.00000000000E+00 -0.19314409029E+04  0.19314409029E+04  0.50400001928E-02 0.  1.
    10030    2    1    2    0    0  0.00000000000E+00  0.00000000000E+00 -0.98745841731E+03  0.28754233886E+04  0.27005528207E+04 0.  0.
        4    1    3    3  502    0 -0.25804399671E+03  0.12941911824E+04 -0.79812074265E+03  0.15422437724E+04  0.12699999809E+01 0. -1.
       -4    1    3    3    0  502  0.25804399671E+03 -0.12941911824E+04 -0.18933767466E+03  0.13331796161E+04  0.12699999809E+01 0.  1.
</event>
<event>
 5   0  0.1937896E-07  0.2695621E+04  0.7818609E-02  0.8336427E-01
        1   -1    0    0  501    0  0.00000000000E+00  0.00000000000E+00  0.13159889870E+04  0.13159889870E+04  0.50400001928E-02 0. -1.
       -1   -1    0    0    0  501  0.00000000000E+00  0.00000000000E+00 -0.13804015908E+04  0.13804015908E+04  0.50400001928E-02 0.  1.
    10030    2    1    2    0    0  0.00000000000E+00  0.00000000000E+00 -0.64412603793E+02  0.26963905778E+04  0.26956211093E+04 0.  0.
        3    1    3    3  502    0 -0.86619453297E+03  0.59605298260E+03 -0.87566770335E+03  0.13683442783E+04  0.10100000352E+00 0.  1.
       -3    1    3    3    0  502  0.86619453297E+03 -0.59605298260E+03  0.81125509955E+03  0.13280462996E+04  0.10100000352E+00 0. -1.
</event>
<event>
 5   0  0.4843887E-07  0.2700430E+04  0.7818609E-02  0.8334866E-01
        2   -1    0    0  501    0  0.00000000000E+00  0.00000000000E+00  0.12505903687E+04  0.12505903687E+04  0.25500000920E-02 0. -1.
       -2   -1    0    0    0  501  0.00000000000E+00  0.00000000000E+00 -0.14577754781E+04  0.14577754781E+04  0.25500000920E-02 0.  1.
    10030    2    1    2    0    0  0.00000000000E+00  0.00000000000E+00 -0.20718510943E+03  0.27083658469E+04  0.27004295753E+04 0.  0.
        5    1    3    3  502    0 -0.10711581573E+04 -0.46993972649E+03  0.57280384335E+03  0.13024398172E+04  0.46999998093E+01 0. -1.
       -5    1    3    3    0  502  0.10711581573E+04  0.46993972649E+03 -0.77998895277E+03  0.14059260297E+04  0.46999998093E+01 0.  1.
</event>
<event>
 5   0  0.4735120E-07  0.2699775E+04  0.7818609E-02  0.8335078E-01
        2   -1    0    0  501    0  0.00000000000E+00  0.00000000000E+00  0.14494879085E+04  0.14494879085E+04  0.25500000920E-02 0.  1.
       -2   -1    0    0    0  501  0.00000000000E+00  0.00000000000E+00 -0.12571307388E+04  0.12571307388E+04  0.25500000920E-02 0. -1.
    10030    2    1    2    0    0  0.00000000000E+00  0.00000000000E+00  0.19235716964E+03  0.27066186473E+04  0.26997746612E+04 0.  0.
        2    1    3    3  502    0  0.11061321236E+04 -0.24672885215E+03 -0.63902376177E+03  0.13010590953E+04  0.25500000920E-02 0. -1.
       -2    1    3    3    0  502 -0.11061321236E+04  0.24672885215E+03  0.83138093141E+03  0.14055595520E+04  0.25500000920E-02 0.  1.
</event>
<event>
 5   0  0.1964242E-07  0.2700413E+04  0.7818609E-02  0.8334871E-01
        1   -1    0    0  501    0  0.00000000000E+00  0.00000000000E+00  0.13315828758E+04  0.13315828758E+04  0.50400001928E-02 0. -1.
       -1   -1    0    0    0  501  0.00000000000E+00  0.00000000000E+00 -0.13690905558E+04  0.13690905559E+04  0.50400001928E-02 0.  1.
    10030    2    1    2    0    0  0.00000000000E+00  0.00000000000E+00 -0.37507680009E+02  0.27006734317E+04  0.27004129608E+04 0.  0.
        2    1    3    3  502    0 -0.60864314381E+02 -0.83303874821E+02  0.13276351054E+04  0.13316377035E+04  0.25500000920E-02 0. -1.
       -2    1    3    3    0  502  0.60864314381E+02  0.83303874821E+02 -0.13651427854E+04  0.13690357282E+04  0.25500000920E-02 0.  1.
</event>
<event>
 5   0  0.1888149E-07  0.2699453E+04  0.7818609E-02  0.8335182E-01
        1   -1    0    0  501    0  0.00000000000E+00  0.00000000000E+00  0.91659539538E+03  0.91659539539E+03  0.50400001928E-02 0.  1.
       -1   -1    0    0    0  501  0.00000000000E+00  0.00000000000E+00 -0.19875313336E+04  0.19875313336E+04  0.50400001928E-02 0. -1.
    10030    2    1    2    0    0  0.00000000000E+00  0.00000000000E+00 -0.10709359383E+04  0.29041267290E+04  0.26994533288E+04 0.  0.
        1    1    3    3  502    0 -0.74616232729E+03 -0.71433994491E+03  0.39914828548E+03  0.11074110029E+04  0.50400001928E-02 0.  1.
       -1    1    3    3    0  502  0.74616232729E+03  0.71433994491E+03 -0.14700842237E+04  0.17967157261E+04  0.50400001928E-02 0. -1.
</event>
<event>
 5   0  0.1937896E-07  0.2698433E+04  0.7818609E-02  0.8335514E-01
       -1   -1    0    0    0  501  0.00000000000E+00  0.00000000000E+00  0.11198173029E+04  0.11198173029E+04  0.50400001928E-02 0.  1.
        1   -1    0    0  501    0  0.00000000000E+00  0.00000000000E+00 -0.16256090669E+04  0.16256090669E+04  0.50400001928E-02 0. -1.
    10030    2    1    2    0    0  0.00000000000E+00  0.00000000000E+00 -0.50579176399E+03  0.27454263698E+04  0.26984329978E+04 0.  0.
        3    1    3    3  502    0  0.51484586765E+03  0.29845128111E+03  0.97907811086E+03  0.11457457798E+04  0.10100000352E+00 0.  1.
       -3    1    3    3    0  502 -0.51484586765E+03 -0.29845128111E+03 -0.14848698748E+04  0.15996805900E+04  0.10100000352E+00 0. -1.
</event>
<event>
 5   0  0.1888149E-07  0.2700044E+04  0.7818609E-02  0.8334991E-01
       -1   -1    0    0    0  501  0.00000000000E+00  0.00000000000E+00  0.73657237105E+03  0.73657237107E+03  0.50400001928E-02 0. -1.
        1   -1    0    0  501    0  0.00000000000E+00  0.00000000000E+00 -0.24743797495E+04  0.24743797495E+04  0.50400001928E-02 0.  1.
    10030    2    1    2    0    0  0.00000000000E+00  0.00000000000E+00 -0.17378073784E+04  0.32109521205E+04  0.27000442655E+04 0.  0.
        1    1    3    3  502    0  0.37922469479E+02 -0.23803340151E+03  0.71077612643E+03  0.75053362074E+03  0.50400001928E-02 0. -1.
       -1    1    3    3    0  502 -0.37922469479E+02  0.23803340151E+03 -0.24485835049E+04  0.24604184998E+04  0.50400001928E-02 0.  1.
</event>
<event>
 5   0  0.1965415E-07  0.2701799E+04  0.7818609E-02  0.8334422E-01
        1   -1    0    0  501    0  0.00000000000E+00  0.00000000000E+00  0.13432595602E+04  0.13432595603E+04  0.50400001928E-02 0. -1.
       -1   -1    0    0    0  501  0.00000000000E+00  0.00000000000E+00 -0.13585828483E+04  0.13585828483E+04  0.50400001928E-02 0.  1.
    10030    2    1    2    0    0  0.00000000000E+00  0.00000000000E+00 -0.15323288096E+02  0.27018424086E+04  0.27017989558E+04 0.  0.
        4    1    3    3  502    0 -0.12513810021E+04 -0.38424872525E+03 -0.34132295748E+03  0.13528135384E+04  0.12699999809E+01 0. -1.
       -4    1    3    3    0  502  0.12513810021E+04  0.38424872525E+03  0.32599966938E+03  0.13490288702E+04  0.12699999809E+01 0.  1.
</event>
<event>
 5   0  0.1965415E-07  0.2692211E+04  0.7818609E-02  0.8337537E-01
       -1   -1    0    0    0  501  0.00000000000E+00  0.00000000000E+00  0.83320897636E+03  0.83320897638E+03  0.50400001928E-02 0. -1.
        1   -1    0    0  501    0  0.00000000000E+00  0.00000000000E+00 -0.21747239881E+04  0.21747239881E+04  0.50400001928E-02 0.  1.
    10030    2    1    2    0    0  0.00000000000E+00  0.00000000000E+00 -0.13415150118E+04  0.30079329645E+04  0.26922106515E+04 0.  0.
        4    1    3    3  502    0  0.68557223458E+03 -0.93403536323E+03 -0.14363677009E+04  0.18454227520E+04  0.12699999809E+01 0.  1.
       -4    1    3    3    0  502 -0.68557223458E+03  0.93403536323E+03  0.94852689154E+02  0.11625102125E+04  0.12699999809E+01 0. -1.
</event>
<event>
 5   0  0.1937896E-07  0.2705416E+04  0.7818609E-02  0.8333250E-01
        1   -1    0    0  501    0  0.00000000000E+00  0.00000000000E+00  0.24340891892E+04  0.24340891892E+04  0.50400001928E-02 0. -1.
       -1   -1    0    0    0  501  0.00000000000E+00  0.00000000000E+00 -0.75174667752E+03  0.75174667753E+03  0.50400001928E-02 0.  1.
    10030    2    1    2    0    0  0.00000000000E+00  0.00000000000E+00  0.16823425117E+04  0.31858358668E+04  0.27054156507E+04 0.  0.
        3    1    3    3  502    0  0.12809766130E+02  0.61878896572E+03  0.22575742354E+04  0.23408770392E+04  0.10100000352E+00 0. -1.
       -3    1    3    3    0  502 -0.12809766130E+02 -0.61878896572E+03 -0.57523172365E+03  0.84495882758E+03  0.10100000352E+00 0.  1.
</event>
<event>
 5   0  0.4735120E-07  0.2691959E+04  0.7818609E-02  0.8337619E-01
       -2   -1    0    0    0  501  0.00000000000E+00  0.00000000000E+00  0.11220393048E+04  0.11220393048E+04  0.25500000920E-02 0. -1.
        2   -1    0    0  501    0  0.00000000000E+00  0.00000000000E+00 -0.16146148628E+04  0.16146148628E+04  0.25500000920E-02 0.  1.
    10030    2    1    2    0    0  0.00000000000E+00  0.00000000000E+00 -0.49257555801E+03  0.27366541676E+04  0.26919593891E+04 0.  0.
        2    1    3    3  502    0 -0.32805241140E+03 -0.68464106815E+03  0.88361042015E+03  0.11649545705E+04  0.25500000920E-02 0. -1.
       -2    1    3    3    0  502  0.32805241140E+03  0.68464106815E+03 -0.13761859782E+04  0.15716995970E+04  0.25500000920E-02 0.  1.
</event>
<event>
 5   0  0.1641625E-07  0.2694659E+04  0.7818609E-02  0.8336740E-01
       -3   -1    0    0    0  501  0.00000000000E+00  0.00000000000E+00  0.12237504710E+04  0.12237504751E+04  0.10100000352E+00 0. -1.
        3   -1    0    0  501    0  0.00000000000E+00  0.00000000000E+00 -0.14833879039E+04  0.14833879073E+04  0.10100000352E+00 0.  1.
    10030    2    1    2    0    0  0.00000000000E+00  0.00000000000E+00 -0.25963743293E+03  0.27071383824E+04  0.26946589070E+04 0.  0.
        4    1    3    3  502    0  0.47841500372E+03  0.12036237409E+04  0.24298476822E+03  0.13178141887E+04  0.12699999809E+01 0. -1.
       -4    1    3    3    0  502 -0.47841500372E+03 -0.12036237409E+04 -0.50262220115E+03  0.13893241938E+04  0.12699999809E+01 0.  1.
</event>
<event>
 5   0  0.4992668E-07  0.2699669E+04  0.7818609E-02  0.8335112E-01
        2   -1    0    0  501    0  0.00000000000E+00  0.00000000000E+00  0.15331181728E+04  0.15331181728E+04  0.25500000920E-02 0.  1.
       -2   -1    0    0    0  501  0.00000000000E+00  0.00000000000E+00 -0.11884620456E+04  0.11884620456E+04  0.25500000920E-02 0. -1.
    10030    2    1    2    0    0  0.00000000000E+00  0.00000000000E+00  0.34465612718E+03  0.27215802183E+04  0.26996686906E+04 0.  0.
        1    1    3    3  502    0 -0.12006234575E+04 -0.39714563545E+03  0.64820962840E+03  0.14210549127E+04  0.50400001928E-02 0.  1.
       -1    1    3    3    0  502  0.12006234575E+04  0.39714563545E+03 -0.30355350122E+03  0.13005253056E+04  0.50400001928E-02 0. -1.
</event>
<event>
 5   0  0.1937896E-07  0.2700172E+04  0.7818609E-02  0.8334949E-01
       -1   -1    0    0    0  501  0.00000000000E+00  0.00000000000E+00  0.66959631809E+03  0.66959631810E+03  0.50400001928E-02 0. -1.
        1   -1    0    0  501    0  0.00000000000E+00  0.00000000000E+00 -0.27221365708E+04  0.27221365708E+04  0.50400001928E-02 0.  1.
    10030    2    1    2    0    0  0.00000000000E+00  0.00000000000E+00 -0.20525402527E+04  0.33917328889E+04  0.27001723094E+04 0.  0.
        3    1    3    3  502    0 -0.92338329692E+03 -0.62206182857E+03 -0.19854823657E+04  0.22763430907E+04  0.10100000352E+00 0.  1.
       -3    1    3    3    0  502  0.92338329692E+03  0.62206182857E+03 -0.67057886977E+02  0.11153897982E+04  0.10100000352E+00 0. -1.
</event>
<event>
 5   0  0.4992668E-07  0.2698623E+04  0.7818609E-02  0.8335452E-01
       -2   -1    0    0    0  501  0.00000000000E+00  0.00000000000E+00  0.11181202754E+04  0.11181202754E+04  0.25500000920E-02 0. -1.
        2   -1    0    0  501    0  0.00000000000E+00  0.00000000000E+00 -0.16283053630E+04  0.16283053630E+04  0.25500000920E-02 0.  1.
    10030    2    1    2    0    0  0.00000000000E+00  0.00000000000E+00 -0.51018508756E+03  0.27464256384E+04  0.26986227902E+04 0.  0.
        1    1    3    3  502    0  0.65597784432E+03  0.11790288811E+04 -0.27036524571E+03  0.13760499267E+04  0.50400001928E-02 0.  1.
       -1    1    3    3    0  502 -0.65597784432E+03 -0.11790288811E+04 -0.23981984185E+03  0.13703757117E+04  0.50400001928E-02 0. -1.
</event>
<event>
 5   0  0.1888149E-07  0.2701255E+04  0.7818609E-02  0.8334598E-01
       -1   -1    0    0    0  501  0.00000000000E+00  0.00000000000E+00  0.12344491232E+04  0.12344491232E+04  0.50400001928E-02 0.  1.
        1   -1    0    0  501    0  0.00000000000E+00  0.00000000000E+00 -0.14777397291E+04  0.14777397291E+04  0.50400001928E-02 0. -1.
    10030    2    1    2    0    0  0.00000000000E+00  0.00000000000E+00 -0.24329060591E+03  0.27121888524E+04  0.27012549032E+04 0.  0.
        1    1    3    3  502    0  0.19282052122E+03 -0.13144010067E+03 -0.14573451565E+04  0.14759102813E+04  0.50400001928E-02 0. -1.
       -1    1    3    3    0  502 -0.19282052122E+03  0.13144010067E+03  0.12140545506E+04  0.12362785710E+04  0.50400001928E-02 0.  1.
</event>
<event>
 5   0  0.4843887E-07  0.2700868E+04  0.7818609E-02  0.8334723E-01
       -2   -1    0    0    0  501  0.00000000000E+00  0.00000000000E+00  0.11803507847E+04  0.11803507847E+04  0.25500000920E-02 0. -1.
        2   -1    0    0  501    0  0.00000000000E+00  0.00000000000E+00 -0.15450259286E+04  0.15450259286E+04  0.25500000920E-02 0.  1.
    10030    2    1    2    0    0  0.00000000000E+00  0.00000000000E+00 -0.36467514392E+03  0.27253767133E+04  0.27008684286E+04 0.  0.
        5    1    3    3  502    0 -0.82017309260E+03  0.37204120716E+03  0.83304981030E+03  0.12268221705E+04  0.46999998093E+01 0. -1.
       -5    1    3    3    0  502  0.82017309260E+03 -0.37204120716E+03 -0.11977249542E+04  0.14985545428E+04  0.46999998093E+01 0.  1.
</event>
<event>
 5   0  0.1964242E-07  0.2699543E+04  0.7818609E-02  0.8335153E-01
        1   -1    0    0  501    0  0.00000000000E+00  0.00000000000E+00  0.25063488387E+04  0.25063488387E+04  0.50400001928E-02 0. -1.
       -1   -1    0    0    0  501  0.00000000000E+00  0.00000000000E+00 -0.72690713969E+03  0.72690713971E+03  0.50400001928E-02 0.  1.
    10030    2    1    2    0    0  0.00000000000E+00  0.00000000000E+00  0.17794416990E+04  0.32332559784E+04  0.26995428246E+04 0.  0.
        2    1    3    3  502    0 -0.35523365973E+03 -0.10012599065E+04 -0.10745076547E+03  0.10678286474E+04  0.25500000920E-02 0. -1.
       -2    1    3    3    0  502  0.35523365973E+03  0.10012599065E+04  0.18868924645E+04  0.21654273310E+04  0.25500000920E-02 0.  1.
</event>
<event>
 5   0  0.5043890E-07  0.2700332E+04  0.7818609E-02  0.8334897E-01
       -2   -1    0    0    0  501  0.00000000000E+00  0.00000000000E+00  0.23834663038E+04  0.23834663038E+04  0.25500000920E-02 0. -1.
        2   -1    0    0  501    0  0.00000000000E+00  0.00000000000E+00 -0.76483081735E+03  0.76483081735E+03  0.25500000920E-02 0.  1.
    10030    2    1    2    0    0  0.00000000000E+00  0.00000000000E+00  0.16186354864E+04  0.31482971211E+04  0.27003321879E+04 0.  0.
        3    1    3    3  502    0  0.31427775213E+03  0.54404330837E+03  0.22026421653E+04  0.22904991040E+04  0.10100000352E+00 0. -1.
       -3    1    3    3    0  502 -0.31427775213E+03 -0.54404330837E+03 -0.58400667893E+03  0.85779801708E+03  0.10100000352E+00 0.  1.
</event>
<event>
 5   0  0.4735120E-07  0.2700099E+04  0.7818609E-02  0.8334973E-01
       -2   -1    0    0    0  501  0.00000000000E+00  0.00000000000E+00  0.11896655199E+04  0.11896655199E+04  0.25500000920E-02 0.  1.
        2   -1    0    0  501    0  0.00000000000E+00  0.00000000000E+00 -0.15320552361E+04  0.15320552361E+04  0.25500000920E-02 0. -1.
    10030    2    1    2    0    0  0.00000000000E+00  0.00000000000E+00 -0.34238971615E+03  0.27217207560E+04  0.27000987308E+04 0.  0.
        2    1    3    3  502    0 -0.99880122254E+03  0.85391259487E+03 -0.48329122990E+03  0.14001217857E+04  0.25500000920E-02 0. -1.
       -2    1    3    3    0  502  0.99880122254E+03 -0.85391259487E+03  0.14090151375E+03  0.13215989703E+04  0.25500000920E-02 0.  1.
</event>
<event>
 5   0  0.1964242E-07  0.2700114E+04  0.7818609E-02  0.8334968E-01
        1   -1    0    0  501    0  0.00000000000E+00  0.00000000000E+00  0.12943891003E+04  0.12943891003E+04  0.50400001928E-02 0.  1.
       -1   -1    0    0    0  501  0.00000000000E+00  0.00000000000E+00 -0.14081192461E+04  0.14081192461E+04  0.50400001928E-02 0. -1.
    10030    2    1    2    0    0  0.00000000000E+00  0.00000000000E+00 -0.11373014581E+03  0.27025083464E+04  0.27001142228E+04 0.  0.
        2    1    3    3  502    0  0.48172688407E+03 -0.61953735410E+03  0.10426383826E+04  0.13049835711E+04  0.25500000920E-02 0.  1.
       -2    1    3    3    0  502 -0.48172688407E+03  0.61953735410E+03 -0.11563685284E+04  0.13975247753E+04  0.25500000920E-02 0. -1.
</event>
<event>
 5   0  0.4843887E-07  0.2700098E+04  0.7818609E-02  0.8334973E-01
       -2   -1    0    0    0  501  0.00000000000E+00  0.00000000000E+00  0.13939979528E+04  0.13939979528E+04  0.25500000920E-02 0.  1.
        2   -1    0    0  501    0  0.00000000000E+00  0.00000000000E+00 -0.13074858749E+04  0.13074858749E+04  0.25500000920E-02 0. -1.
    10030    2    1    2    0    0  0.00000000000E+00  0.00000000000E+00  0.86512077863E+02  0.27014838277E+04  0.27000982449E+04 0.  0.
        5    1    3    3  502    0  0.56025051102E+03 -0.65580666989E+03  0.10823685649E+04  0.13840183610E+04  0.46999998093E+01 0.  1.
       -5    1    3    3    0  502 -0.56025051102E+03  0.65580666989E+03 -0.99585648700E+03  0.13174654667E+04  0.46999998093E+01 0. -1.
</event>
<event>
 5   0  0.4843887E-07  0.2697280E+04  0.7818609E-02  0.8335888E-01
       -2   -1    0    0    0  501  0.00000000000E+00  0.00000000000E+00  0.15216310267E+04  0.15216310267E+04  0.25500000920E-02 0. -1.
        2   -1    0    0  501    0  0.00000000000E+00  0.00000000000E+00 -0.11953163497E+04  0.11953163497E+04  0.25500000920E-02 0.  1.
    10030    2    1    2    0    0  0.00000000000E+00  0.00000000000E+00  0.32631467699E+03  0.27169473764E+04  0.26972804410E+04 0.  0.
        5    1    3    3  502    0 -0.11780191041E+04  0.59783075919E+03 -0.11025822778E+03  0.13256355431E+04  0.46999998093E+01 0.  1.
       -5    1    3    3    0  502  0.11780191041E+04 -0.59783075919E+03  0.43657290477E+03  0.13913118333E+04  0.46999998093E+01 0. -1.
</event>
<event>
 5   0  0.5043890E-07  0.2700115E+04  0.7818609E-02  0.8334968E-01
        2   -1    0    0  501    0  0.00000000000E+00  0.00000000000E+00  0.11384481484E+04  0.11384481484E+04  0.25500000920E-02 0. -1.
       -2   -1    0    0    0  501  0.00000000000E+00  0.00000000000E+00 -0.16009992368E+04  0.16009992368E+04  0.25500000920E-02 0.  1.
    10030    2    1    2    0    0  0.00000000000E+00  0.00000000000E+00 -0.46255108838E+03  0.27394473851E+04  0.27001145284E+04 0.  0.
        3    1    3    3  502    0  0.49696370872E+03 -0.57786664551E+03  0.89929633847E+03  0.11788285297E+04  0.10100000352E+00 0. -1.
       -3    1    3    3    0  502 -0.49696370872E+03  0.57786664551E+03 -0.13618474269E+04  0.15606188555E+04  0.10100000352E+00 0.  1.
</event>
<event>
 5   0  0.4992668E-07  0.2712842E+04  0.7818609E-02  0.8330850E-01
       -2   -1    0    0    0  501  0.00000000000E+00  0.00000000000E+00  0.80768512678E+03  0.80768512678E+03  0.25500000920E-02 0.  1.
        2   -1    0    0  501    0  0.00000000000E+00  0.00000000000E+00 -0.22779650543E+04  0.22779650543E+04  0.25500000920E-02 0. -1.
    10030    2    1    2    0    0  0.00000000000E+00  0.00000000000E+00 -0.14702799276E+04  0.30856501811E+04  0.27128424162E+04 0.  0.
        1    1    3    3  502    0  0.15251569381E+03 -0.13217049966E+04 -0.10354571079E+04  0.16859230579E+04  0.50400001928E-02 0.  1.
       -1    1    3    3    0  502 -0.15251569381E+03  0.13217049966E+04 -0.43482281967E+03  0.13997271232E+04  0.50400001928E-02 0. -1.
</event>
<event>
 5   0  0.1971600E-07  0.2699753E+04  0.7818609E-02  0.8335085E-01
        1   -1    0    0  501    0  0.00000000000E+00  0.00000000000E+00  0.13750455568E+04  0.13750455568E+04  0.50400001928E-02 0. -1.
       -1   -1    0    0    0  501  0.00000000000E+00  0.00000000000E+00 -0.13251677205E+04  0.13251677205E+04  0.50400001928E-02 0.  1.
    10030    2    1    2    0    0  0.00000000000E+00  0.00000000000E+00  0.49877836305E+02  0.27002132772E+04  0.26997525709E+04 0.  0.
        5    1    3    3  502    0  0.75376284765E+03 -0.94128085514E+03 -0.58177470159E+03  0.13388995377E+04  0.46999998093E+01 0.  1.
       -5    1    3    3    0  502 -0.75376284765E+03  0.94128085514E+03  0.63165253790E+03  0.13613137395E+04  0.46999998093E+01 0. -1.
</event>
<event>
 5   0  0.1888149E-07  0.2700188E+04  0.7818609E-02  0.8334944E-01
        1   -1    0    0  501    0  0.00000000000E+00  0.00000000000E+00  0.94698117456E+03  0.94698117457E+03  0.50400001928E-02 0. -1.
       -1   -1    0    0    0  501  0.00000000000E+00  0.00000000000E+00 -0.19248045322E+04  0.19248045322E+04  0.50400001928E-02 0.  1.
    10030    2    1    2    0    0  0.00000000000E+00  0.00000000000E+00 -0.97782335759E+03  0.28717857067E+04  0.27001878873E+04 0.  0.
        1    1    3    3  502    0 -0.98283485239E+03 -0.92562044340E+03 -0.49317973075E+03  0.14373460958E+04  0.50400001928E-02 0.  1.
       -1    1    3    3    0  502  0.98283485239E+03  0.92562044340E+03 -0.48464362684E+03  0.14344396109E+04  0.50400001928E-02 0. -1.
</event>
<event>
 5   0  0.4735120E-07  0.2699479E+04  0.7818609E-02  0.8335174E-01
       -2   -1    0    0    0  501  0.00000000000E+00  0.00000000000E+00  0.13836913842E+04  0.13836913842E+04  0.25500000920E-02 0. -1.
        2   -1    0    0  501    0  0.00000000000E+00  0.00000000000E+00 -0.13166205542E+04  0.13166205542E+04  0.25500000920E-02 0.  1.
    10030    2    1    2    0    0  0.00000000000E+00  0.00000000000E+00  0.67070830063E+02  0.27003119384E+04  0.26994788513E+04 0.  0.
        2    1    3    3  502    0 -0.10864433296E+04  0.21589306529E+03  0.80502409910E+03  0.13693183429E+04  0.25500000920E-02 0. -1.
       -2    1    3    3    0  502  0.10864433296E+04 -0.21589306529E+03 -0.73795326903E+03  0.13309935955E+04  0.25500000920E-02 0.  1.
</event>
<event>
 5   0  0.1964242E-07  0.2699729E+04  0.7818609E-02  0.8335093E-01
       -1   -1    0    0    0  501  0.00000000000E+00  0.00000000000E+00  0.80951008702E+03  0.80951008703E+03  0.50400001928E-02 0.  1.
        1   -1    0    0  501    0  0.00000000000E+00  0.00000000000E+00 -0.22509098186E+04  0.22509098186E+04  0.50400001928E-02 0. -1.
    10030    2    1    2    0    0  0.00000000000E+00  0.00000000000E+00 -0.14413997316E+04  0.30604199057E+04  0.26997290258E+04 0.  0.
        2    1    3    3  502    0 -0.52589533863E+03  0.18880558464E+03  0.67225780260E+03  0.87415330986E+03  0.25500000920E-02 0.  1.
       -2    1    3    3    0  502  0.52589533863E+03 -0.18880558464E+03 -0.21136575342E+04  0.21862665958E+04  0.25500000920E-02 0. -1.
</event>
<event>
 5   0  0.4992668E-07  0.2695334E+04  0.7818609E-02  0.8336520E-01
        2   -1    0    0  501    0  0.00000000000E+00  0.00000000000E+00  0.27559199718E+04  0.27559199718E+04  0.25500000920E-02 0. -1.
       -2   -1    0    0    0  501  0.00000000000E+00  0.00000000000E+00 -0.65902008240E+03  0.65902008240E+03  0.25500000920E-02 0.  1.
    10030    2    1    2    0    0  0.00000000000E+00  0.00000000000E+00  0.20968998894E+04  0.34149400542E+04  0.26953341959E+04 0.  0.
        1    1    3    3  502    0 -0.23098090895E+02 -0.11629223170E+04  0.19108216026E+04  0.22369982195E+04  0.50400001928E-02 0. -1.
       -1    1    3    3    0  502  0.23098090895E+02  0.11629223170E+04  0.18607828680E+03  0.11779418347E+04  0.50400001928E-02 0.  1.
</event>
<event>
 5   0  0.4843887E-07  0.2700312E+04  0.7818609E-02  0.8334904E-01
        2   -1    0    0  501    0  0.00000000000E+00  0.00000000000E+00  0.95501567327E+03  0.95501567327E+03  0.25500000920E-02 0.  1.
       -2   -1    0    0    0  501  0.00000000000E+00  0.00000000000E+00 -0.19087861313E+04  0.19087861313E+04  0.25500000920E-02 0. -1.
    10030    2    1    2    0    0  0.00000000000E+00  0.00000000000E+00 -0.95377045799E+03  0.28638018045E+04  0.27003115911E+04 0.  0.
        5    1    3    3  502    0  0.12079720215E+04  0.31408906275E+03 -0.10228859009E+04  0.16137428545E+04  0.46999998093E+01 0. -1.
       -5    1    3    3    0  502 -0.12079720215E+04 -0.31408906275E+03  0.69115442894E+02  0.12500589501E+04  0.46999998093E+01 0.  1.
</event>
<event>
 5   0  0.1971600E-07  0.2701554E+04  0.7818609E-02  0.8334501E-01
        1   -1    0    0  501    0  0.00000000000E+00  0.00000000000E+00  0.14021632078E+04  0.14021632078E+04  0.50400001928E-02 0. -1.
       -1   -1    0    0    0  501  0.00000000000E+00  0.00000000000E+00 -0.13012739357E+04  0.13012739357E+04  0.50400001928E-02 0.  1.
    10030    2    1    2    0    0  0.00000000000E+00  0.00000000000E+00  0.10088927210E+03  0.27034371434E+04  0.27015539497E+04 0.  0.
        5    1    3    3  502    0  0.38800770300E+03 -0.93418284761E+03  0.94623833000E+03  0.13851485976E+04  0.46999998093E+01 0. -1.
       -5    1    3    3    0  502 -0.38800770300E+03  0.93418284761E+03 -0.84534905790E+03  0.13182885458E+04  0.46999998093E+01 0.  1.
</event>
<event>
 5   0  0.1971600E-07  0.2688524E+04  0.7818609E-02  0.8338738E-01
       -1   -1    0    0    0  501  0.00000000000E+00  0.00000000000E+00  0.12445487931E+04  0.12445487931E+04  0.50400001928E-02 0. -1.
        1   -1    0    0  501    0  0.00000000000E+00  0.00000000000E+00 -0.14519637420E+04  0.14519637420E+04  0.50400001928E-02 0.  1.
    10030    2    1    2    0    0  0.00000000000E+00  0.00000000000E+00 -0.20741494894E+03  0.26965125351E+04  0.26885235522E+04 0.  0.
        5    1    3    3  502    0  0.51435985773E+03  0.76530307525E+03  0.87734160013E+03  0.12727942621E+04  0.46999998093E+01 0. -1.
       -5    1    3    3    0  502 -0.51435985773E+03 -0.76530307525E+03 -0.10847565491E+04  0.14237182730E+04  0.46999998093E+01 0.  1.
</event>
<event>
 5   0  0.4992668E-07  0.2699792E+04  0.7818609E-02  0.8335072E-01
       -2   -1    0    0    0  501  0.00000000000E+00  0.00000000000E+00  0.14089471185E+04  0.14089471185E+04  0.25500000920E-02 0. -1.
        2   -1    0    0  501    0  0.00000000000E+00  0.00000000000E+00 -0.12933198436E+04  0.12933198436E+04  0.25500000920E-02 0.  1.
    10030    2    1    2    0    0  0.00000000000E+00  0.00000000000E+00  0.11562727495E+03  0.27022669621E+04  0.26997920415E+04 0.  0.
        1    1    3    3  502    0 -0.20501662005E+03 -0.19868437854E+03  0.13783835453E+04  0.14076393341E+04  0.50400001928E-02 0. -1.
       -1    1    3    3    0  502  0.20501662005E+03  0.19868437854E+03 -0.12627562704E+04  0.12946276280E+04  0.50400001928E-02 0.  1.
</event>
<event>
 5   0  0.4983208E-07  0.2699927E+04  0.7818609E-02  0.8335029E-01
       -2   -1    0    0    0  501  0.00000000000E+00  0.00000000000E+00  0.82092779042E+03  0.82092779042E+03  0.25500000920E-02 0.  1.
        2   -1    0    0  501    0  0.00000000000E+00  0.00000000000E+00 -0.22199286195E+04  0.22199286195E+04  0.25500000920E-02 0. -1.
    10030    2    1    2    0    0  0.00000000000E+00  0.00000000000E+00 -0.13990008291E+04  0.30408564100E+04  0.26999267372E+04 0.  0.
        4    1    3    3  502    0  0.10779308296E+04  0.51174251530E+02 -0.16129950234E+04  0.19406978734E+04  0.12699999809E+01 0. -1.
       -4    1    3    3    0  502 -0.10779308296E+04 -0.51174251530E+02  0.21399419432E+03  0.11001585365E+04  0.12699999809E+01 0.  1.
</event>
<event>
 5   0  0.1964242E-07  0.2717239E+04  0.7818609E-02  0.8329433E-01
       -1   -1    0    0    0  501  0.00000000000E+00  0.00000000000E+00  0.71224971110E+03  0.71224971111E+03  0.50400001928E-02 0.  1.
        1   -1    0    0  501    0  0.00000000000E+00  0.00000000000E+00 -0.25915736804E+04  0.25915736804E+04  0.50400001928E-02 0. -1.
    10030    2    1    2    0    0  0.00000000000E+00  0.00000000000E+00 -0.18793239693E+04  0.33038233915E+04  0.27172394854E+04 0.  0.
        2    1    3    3  502    0 -0.12863308856E+04  0.39450715867E+03 -0.71036537931E+03  0.15214802061E+04  0.25500000920E-02 0.  1.
       -2    1    3    3    0  502  0.12863308856E+04 -0.39450715867E+03 -0.11689585900E+04  0.17823431854E+04  0.25500000920E-02 0. -1.
</event>
<event>
 5   0  0.1965415E-07  0.2699432E+04  0.7818609E-02  0.8335189E-01
        1   -1    0    0  501    0  0.00000000000E+00  0.00000000000E+00  0.10860930545E+04  0.10860930546E+04  0.50400001928E-02 0. -1.
       -1   -1    0    0    0  501  0.00000000000E+00  0.00000000000E+00 -0.16773265109E+04  0.16773265109E+04  0.50400001928E-02 0.  1.
    10030    2    1    2    0    0  0.00000000000E+00  0.00000000000E+00 -0.59123345633E+03  0.27634195654E+04  0.26994315503E+04 0.  0.
        4    1    3    3  502    0 -0.12220752182E+04  0.12105649945E+03  0.27766546580E+03  0.12590560904E+04  0.12699999809E+01 0. -1.
       -4    1    3    3    0  502  0.12220752182E+04 -0.12105649945E+03 -0.86889892212E+03  0.15043634750E+04  0.12699999809E+01 0.  1.
</event>
<event>
 5   0  0.5043890E-07  0.2703180E+04  0.7818609E-02  0.8333974E-01
        2   -1    0    0  501    0  0.00000000000E+00  0.00000000000E+00  0.16127954161E+04  0.16127954161E+04  0.25500000920E-02 0.  1.
       -2   -1    0    0    0  501  0.00000000000E+00  0.00000000000E+00 -0.11326890085E+04  0.11326890085E+04  0.25500000920E-02 0. -1.
    10030    2    1    2    0    0  0.00000000000E+00  0.00000000000E+00  0.48010640767E+03  0.27454844246E+04  0.27031800833E+04 0.  0.
        3    1    3    3  502    0 -0.11002745271E+04 -0.55792737875E+03 -0.32077373645E+03  0.12746696808E+04  0.10100000352E+00 0. -1.
       -3    1    3    3    0  502  0.11002745271E+04  0.55792737875E+03  0.80088014413E+03  0.14708147438E+04  0.10100000352E+00 0.  1.
</event>
<event>
 5   0  0.1888149E-07  0.2700414E+04  0.7818609E-02  0.8334871E-01
       -1   -1    0    0    0  501  0.00000000000E+00  0.00000000000E+00  0.86577170339E+03  0.86577170341E+03  0.50400001928E-02 0. -1.
        1   -1    0    0  501    0  0.00000000000E+00  0.00000000000E+00 -0.21057042970E+04  0.21057042970E+04  0.50400001928E-02 0.  1.
    10030    2    1    2    0    0  0.00000000000E+00  0.00000000000E+00 -0.12399325936E+04  0.29714760004E+04  0.27004141875E+04 0.  0.
        1    1    3    3  502    0 -0.12878863701E+04  0.28584779515E+03 -0.93640660253E+03  0.16177816879E+04  0.50400001928E-02 0.  1.
       -1    1    3    3    0  502  0.12878863701E+04 -0.28584779515E+03 -0.30352599105E+03  0.13536943125E+04  0.50400001928E-02 0. -1.
</event>
<event>
 5   0  0.4843887E-07  0.2700183E+04  0.7818609E-02  0.8334946E-01
       -2   -1    0    0    0  501  0.00000000000E+00  0.00000000000E+00  0.71215342091E+03  0.71215342091E+03  0.25500000920E-02 0. -1.
        2   -1    0    0  501    0  0.00000000000E+00  0.00000000000E+00 -0.25594862902E+04  0.25594862902E+04  0.25500000920E-02 0.  1.
    10030    2    1    2    0    0  0.00000000000E+00  0.00000000000E+00 -0.18473328693E+04  0.32716397111E+04  0.27001828956E+04 0.  0.
        5    1    3    3  502    0 -0.18038668334E+02 -0.12493985436E+04 -0.15431464986E+04  0.19856095589E+04  0.46999998093E+01 0.  1.
       -5    1    3    3    0  502  0.18038668334E+02  0.12493985436E+04 -0.30418637069E+03  0.12860301522E+04  0.46999998093E+01 0. -1.
</event>
<event>
 5   0  0.1964242E-07  0.2702613E+04  0.7818609E-02  0.8334158E-01
        1   -1    0    0  501    0  0.00000000000E+00  0.00000000000E+00  0.22551696967E+04  0.22551696967E+04  0.50400001928E-02 0. -1.
       -1   -1    0    0    0  501  0.00000000000E+00  0.00000000000E+00 -0.80970837250E+03  0.80970837251E+03  0.50400001928E-02 0.  1.
    10030    2    1    2    0    0  0.00000000000E+00  0.00000000000E+00  0.14454613242E+04  0.30648780692E+04  0.27026133906E+04 0.  0.
        2    1    3    3  502    0  0.19966952229E+03 -0.30654834673E+03 -0.75247930030E+03  0.83669881344E+03  0.25500000920E-02 0.  1.
       -2    1    3    3    0  502 -0.19966952229E+03  0.30654834673E+03  0.21979406245E+04  0.22281792557E+04  0.25500000920E-02 0. -1.
</event>
<event>
 5   0  0.4992668E-07  0.2718338E+04  0.7818609E-02  0.8329079E-01
        2   -1    0    0  501    0  0.00000000000E+00  0.00000000000E+00  0.11108005804E+04  0.11108005804E+04  0.25500000920E-02 0. -1.
       -2   -1    0    0    0  501  0.00000000000E+00  0.00000000000E+00 -0.16630711612E+04  0.16630711612E+04  0.25500000920E-02 0.  1.
    10030    2    1    2    0    0  0.00000000000E+00  0.00000000000E+00 -0.55227058084E+03  0.27738717416E+04  0.27183380298E+04 0.  0.
        1    1    3    3  502    0 -0.64087401456E+03  0.64820464491E+03  0.75265362704E+03  0.11821066985E+04  0.50400001928E-02 0. -1.
       -1    1    3    3    0  502  0.64087401456E+03 -0.64820464491E+03 -0.13049242079E+04  0.15917650431E+04  0.50400001928E-02 0.  1.
</event>
<event>
 5   0  0.4735120E-07  0.2715399E+04  0.7818609E-02  0.8330026E-01
        2   -1    0    0  501    0  0.00000000000E+00  0.00000000000E+00  0.18773123293E+04  0.18773123293E+04  0.25500000920E-02 0. -1.
       -2   -1    0    0    0  501  0.00000000000E+00  0.00000000000E+00 -0.98190800270E+03  0.98190800270E+03  0.25500000920E-02 0.  1.
    10030    2    1    2    0    0  0.00000000000E+00  0.00000000000E+00  0.89540432660E+03  0.28592203320E+04  0.27153990496E+04 0.  0.
        2    1    3    3  502    0  0.41089289046E+03 -0.83576320789E+03  0.14879628451E+04  0.17553821623E+04  0.25500000920E-02 0.  1.
       -2    1    3    3    0  502 -0.41089289046E+03  0.83576320789E+03 -0.59255851853E+03  0.11038381697E+04  0.25500000920E-02 0. -1.
</event>
<event>
 5   0  0.1965415E-07  0.2699101E+04  0.7818609E-02  0.8335297E-01
        1   -1    0    0  501    0  0.00000000000E+00  0.00000000000E+00  0.12642989439E+04  0.12642989439E+04  0.50400001928E-02 0. -1.
       -1   -1    0    0    0  501  0.00000000000E+00  0.00000000000E+00 -0.14405510606E+04  0.14405510606E+04  0.50400001928E-02 0.  1.
    10030    2    1    2    0    0  0.00000000000E+00  0.00000000000E+00 -0.17625211670E+03  0.27048500045E+04  0.26991014687E+04 0.  0.
        4    1    3    3  502    0  0.99413043631E+03  0.21050627807E+03 -0.97809256082E+03  0.14104165654E+04  0.12699999809E+01 0.  1.
       -4    1    3    3    0  502 -0.99413043631E+03 -0.21050627807E+03  0.80184044413E+03  0.12944334391E+04  0.12699999809E+01 0. -1.
</event>
<event>
 5   0  0.4983208E-07  0.2693552E+04  0.7818609E-02  0.8337100E-01
       -2   -1    0    0    0  501  0.00000000000E+00  0.00000000000E+00  0.72825273033E+03  0.72825273033E+03  0.25500000920E-02 0.  1.
        2   -1    0    0  501    0  0.00000000000E+00  0.00000000000E+00 -0.24906269625E+04  0.24906269625E+04  0.25500000920E-02 0. -1.
    10030    2    1    2    0    0  0.00000000000E+00  0.00000000000E+00 -0.17623742322E+04  0.32188796928E+04  0.26935522164E+04 0.  0.
        4    1    3    3  502    0 -0.52135019723E+03 -0.59041447868E+03 -0.21866784647E+04  0.23242116095E+04  0.12699999809E+01 0. -1.
       -4    1    3    3    0  502  0.52135019723E+03  0.59041447868E+03  0.42430423250E+03  0.89466808337E+03  0.12699999809E+01 0.  1.
</event>
<event>
 5   0  0.4843887E-07  0.2700690E+04  0.7818609E-02  0.8334781E-01
       -2   -1    0    0    0  501  0.00000000000E+00  0.00000000000E+00  0.20283221293E+04  0.20283221293E+04  0.25500000920E-02 0. -1.
        2   -1    0    0  501    0  0.00000000000E+00  0.00000000000E+00 -0.89898553521E+03  0.89898553522E+03  0.25500000920E-02 0.  1.
    10030    2    1    2    0    0  0.00000000000E+00  0.00000000000E+00  0.11293365941E+04  0.29273076645E+04  0.27006904710E+04 0.  0.
        5    1    3    3  502    0  0.23808162211E+03 -0.86115971619E+03  0.16621146359E+04  0.18870416181E+04  0.46999998093E+01 0. -1.
       -5    1    3    3    0  502 -0.23808162211E+03  0.86115971619E+03 -0.53277804179E+03  0.10402660464E+04  0.46999998093E+01 0.  1.
</event>
<event>
 5   0  0.1888149E-07  0.2703284E+04  0.7818609E-02  0.8333940E-01
        1   -1    0    0  501    0  0.00000000000E+00  0.00000000000E+00  0.16593870824E+04  0.16593870824E+04  0.50400001928E-02 0. -1.
       -1   -1    0    0    0  501  0.00000000000E+00  0.00000000000E+00 -0.11009706222E+04  0.11009706222E+04  0.50400001928E-02 0.  1.
    10030    2    1    2    0    0  0.00000000000E+00  0.00000000000E+00  0.55841646014E+03  0.27603577046E+04  0.27032842459E+04 0.  0.
        1    1    3    3  502    0  0.11981188742E+04 -0.49936454806E+03  0.66410490545E+03  0.14580429054E+04  0.50400001928E-02 0. -1.
       -1    1    3    3    0  502 -0.11981188742E+04  0.49936454806E+03 -0.10568844531E+03  0.13023147992E+04  0.50400001928E-02 0.  1.
</event>
<event>
 5   0  0.4983208E-07  0.2699305E+04  0.7818609E-02  0.8335231E-01
       -2   -1    0    0    0  501  0.00000000000E+00  0.00000000000E+00  0.94902780727E+03  0.94902780727E+03  0.25500000920E-02 0. -1.
        2   -1    0    0  501    0  0.00000000000E+00  0.00000000000E+00 -0.19193973220E+04  0.19193973220E+04  0.25500000920E-02 0.  1.
    10030    2    1    2    0    0  0.00000000000E+00  0.00000000000E+00 -0.97036951475E+03  0.28684251293E+04  0.26993046748E+04 0.  0.
        4    1    3    3  502    0  0.46765511366E+03  0.10851191123E+04  0.20788604918E+03  0.11997512307E+04  0.12699999809E+01 0. -1.
       -4    1    3    3    0  502 -0.46765511366E+03 -0.10851191123E+04 -0.11782555639E+04  0.16686738986E+04  0.12699999809E+01 0.  1.
</event>
<event>
 5   0  0.1937896E-07  0.2702537E+04  0.7818609E-02  0.8334182E-01
       -1   -1    0    0    0  501  0.00000000000E+00  0.00000000000E+00  0.10103239944E+04  0.10103239944E+04  0.50400001928E-02 0.  1.
        1   -1    0    0  501    0  0.00000000000E+00  0.00000000000E+00 -0.18072681948E+04  0.18072681948E+04  0.50400001928E-02 0. -1.
    10030    2    1    2    0    0  0.00000000000E+00  0.00000000000E+00 -0.79694420035E+03  0.28175921892E+04  0.27025368982E+04 0.  0.
        3    1    3    3  502    0 -0.11380802801E+04  0.43015173259E+03  0.21449452500E+03  0.12354210410E+04  0.10100000352E+00 0.  1.
       -3    1    3    3    0  502  0.11380802801E+04 -0.43015173259E+03 -0.10114387253E+04  0.15821711482E+04  0.10100000352E+00 0. -1.
</event>
<event>
 5   0  0.1964242E-07  0.2699246E+04  0.7818609E-02  0.8335250E-01
        1   -1    0    0  501    0  0.00000000000E+00  0.00000000000E+00  0.18245200194E+04  0.18245200195E+04  0.50400001928E-02 0. -1.
       -1   -1    0    0    0  501  0.00000000000E+00  0.00000000000E+00 -0.99833519849E+03  0.99833519850E+03  0.50400001928E-02 0.  1.
    10030    2    1    2    0    0  0.00000000000E+00  0.00000000000E+00  0.82618482096E+03  0.28228552180E+04  0.26992462324E+04 0.  0.
        2    1    3    3  502    0  0.10509804734E+04 -0.65091632773E+03  0.97939780198E+03  0.15771721769E+04  0.25500000920E-02 0. -1.
       -2    1    3    3    0  502 -0.10509804734E+04  0.65091632773E+03 -0.15321298102E+03  0.12456830410E+04  0.25500000920E-02 0.  1.
</event>
<event>
 5   0  0.1964242E-07  0.2699733E+04  0.7818609E-02  0.8335092E-01
        1   -1    0    0  501    0  0.00000000000E+00  0.00000000000E+00  0.20380110266E+04  0.20380110266E+04  0.50400001928E-02 0.  1.
       -1   -1    0    0    0  501  0.00000000000E+00  0.00000000000E+00 -0.89407731817E+03  0.89407731819E+03  0.50400001928E-02 0. -1.
    10030    2    1    2    0    0  0.00000000000E+00  0.00000000000E+00  0.11439337084E+04  0.29320883448E+04  0.26997329002E+04 0.  0.
        2    1    3    3  502    0  0.16558765307E+02 -0.70869186562E+03  0.18195826791E+04  0.19527927384E+04  0.25500000920E-02 0.  1.
       -2    1    3    3    0  502 -0.16558765307E+02  0.70869186562E+03 -0.67564897067E+03  0.97929560638E+03  0.25500000920E-02 0. -1.
</event>
<event>
 5   0  0.1888149E-07  0.2695441E+04  0.7818609E-02  0.8336486E-01
       -1   -1    0    0    0  501  0.00000000000E+00  0.00000000000E+00  0.72124937062E+03  0.72124937064E+03  0.50400001928E-02 0.  1.
        1   -1    0    0  501    0  0.00000000000E+00  0.00000000000E+00 -0.25183384581E+04  0.25183384581E+04  0.50400001928E-02 0. -1.
    10030    2    1    2    0    0  0.00000000000E+00  0.00000000000E+00 -0.17970890875E+04  0.32395878287E+04  0.26954406155E+04 0.  0.
        1    1    3    3  502    0  0.44649223277E+01  0.11987915739E+03 -0.25119088808E+04  0.25147717935E+04  0.50400001928E-02 0. -1.
       -1    1    3    3    0  502 -0.44649223277E+01 -0.11987915739E+03  0.71481979335E+03  0.72481603522E+03  0.50400001928E-02 0.  1.
</event>
<event>
 5   0  0.1971600E-07  0.2697744E+04  0.7818609E-02  0.8335737E-01
        1   -1    0    0  501    0  0.00000000000E+00  0.00000000000E+00  0.17871576113E+04  0.17871576113E+04  0.50400001928E-02 0. -1.
       -1   -1    0    0    0  501  0.00000000000E+00  0.00000000000E+00 -0.10180724746E+04  0.10180724746E+04  0.50400001928E-02 0.  1.
    10030    2    1    2    0    0  0.00000000000E+00  0.00000000000E+00  0.76908513669E+03  0.28052300860E+04  0.26977442221E+04 0.  0.
        5    1    3    3  502    0 -0.24266198914E+03 -0.68279132976E+03  0.15675643723E+04  0.17269536740E+04  0.46999998093E+01 0. -1.
       -5    1    3    3    0  502  0.24266198914E+03  0.68279132976E+03 -0.79847923557E+03  0.10782764120E+04  0.46999998093E+01 0.  1.
</event>
<event>
 5   0  0.1964242E-07  0.2700776E+04  0.7818609E-02  0.8334753E-01
       -1   -1    0    0    0  501  0.00000000000E+00  0.00000000000E+00  0.97763645676E+03  0.97763645677E+03  0.50400001928E-02 0. -1.
        1   -1    0    0  501    0  0.00000000000E+00  0.00000000000E+00 -0.18652613751E+04  0.18652613751E+04  0.50400001928E-02 0.  1.
    10030    2    1    2    0    0  0.00000000000E+00  0.00000000000E+00 -0.88762491831E+03  0.28428978319E+04  0.27007758305E+04 0.  0.
        2    1    3    3  502    0 -0.37266369619E+03 -0.11371709272E+04 -0.11024477788E+04  0.16270915934E+04  0.25500000920E-02 0.  1.
       -2    1    3    3    0  502  0.37266369619E+03  0.11371709272E+04  0.21482286050E+03  0.12158062385E+04  0.25500000920E-02 0. -1.
</event>
<event>
 5   0  0.4983208E-07  0.2695425E+04  0.7818609E-02  0.8336491E-01
        2   -1    0    0  501    0  0.00000000000E+00  0.00000000000E+00  0.14969301816E+04  0.14969301816E+04  0.25500000920E-02 0. -1.
       -2   -1    0    0    0  501  0.00000000000E+00  0.00000000000E+00 -0.12133690203E+04  0.12133690203E+04  0.25500000920E-02 0.  1.
    10030    2    1    2    0    0  0.00000000000E+00  0.00000000000E+00  0.28356116133E+03  0.27102992019E+04  0.26954247961E+04 0.  0.
        4    1    3    3  502    0  0.70350307667E+03 -0.11478115812E+04  0.20488909867E+03  0.13617522390E+04  0.12699999809E+01 0.  1.
       -4    1    3    3    0  502 -0.70350307667E+03  0.11478115812E+04  0.78672062664E+02  0.13485469629E+04  0.12699999809E+01 0. -1.
</event>
<event>
 5   0  0.4983208E-07  0.2699949E+04  0.7818609E-02  0.8335022E-01
        2   -1    0    0  501    0  0.00000000000E+00  0.00000000000E+00  0.16280355523E+04  0.16280355523E+04  0.25500000920E-02 0. -1.
       -2   -1    0    0    0  501  0.00000000000E+00  0.00000000000E+00 -0.11194046688E+04  0.11194046688E+04  0.25500000920E-02 0.  1.
    10030    2    1    2    0    0  0.00000000000E+00  0.00000000000E+00  0.50863088344E+03  0.27474402211E+04  0.26999485908E+04 0.  0.
        4    1    3    3  502    0  0.78811489011E+03  0.55022799555E+03  0.12189095840E+04  0.15522944675E+04  0.12699999809E+01 0. -1.
       -4    1    3    3    0  502 -0.78811489011E+03 -0.55022799555E+03 -0.71027870051E+03  0.11951457536E+04  0.12699999809E+01 0.  1.
</event>
<event>
 5   0  0.4992668E-07  0.2696597E+04  0.7818609E-02  0.8336110E-01
       -2   -1    0    0    0  501  0.00000000000E+00  0.00000000000E+00  0.10270950248E+04  0.10270950248E+04  0.25500000920E-02 0. -1.
        2   -1    0    0  501    0  0.00000000000E+00  0.00000000000E+00 -0.17699523943E+04  0.17699523943E+04  0.25500000920E-02 0.  1.
    10030    2    1    2    0    0  0.00000000000E+00  0.00000000000E+00 -0.74285736954E+03  0.27970474191E+04  0.26965973361E+04 0.  0.
        1    1    3    3  502    0 -0.12086858760E+04 -0.20561174354E+03 -0.95331759102E+03  0.15530654092E+04  0.50400001928E-02 0. -1.
       -1    1    3    3    0  502  0.12086858760E+04  0.20561174354E+03  0.21046022148E+03  0.12439820098E+04  0.50400001928E-02 0.  1.
</event>
<event>
 5   0  0.1965415E-07  0.2701121E+04  0.7818609E-02  0.8334641E-01
       -1   -1    0    0    0  501  0.00000000000E+00  0.00000000000E+00  0.16594009930E+04  0.16594009930E+04  0.50400001928E-02 0.  1.
        1   -1    0    0  501    0  0.00000000000E+00  0.00000000000E+00 -0.10992000884E+04  0.10992000885E+04  0.50400001928E-02 0. -1.
    10030    2    1    2    0    0  0.00000000000E+00  0.00000000000E+00  0.56020090453E+03  0.27586010814E+04  0.27011210401E+04 0.  0.
        4    1    3    3  502    0  0.60633905092E+03 -0.10578717113E+04  0.87321055852E+03  0.14997459434E+04  0.12699999809E+01 0. -1.
       -4    1    3    3    0  502 -0.60633905092E+03  0.10578717113E+04 -0.31300965399E+03  0.12588551381E+04  0.12699999809E+01 0.  1.
</event>
<event>
 5   0  0.1965415E-07  0.2699882E+04  0.7818609E-02  0.8335043E-01
       -1   -1    0    0    0  501  0.00000000000E+00  0.00000000000E+00  0.96174177614E+03  0.96174177616E+03  0.50400001928E-02 0. -1.
        1   -1    0    0  501    0  0.00000000000E+00  0.00000000000E+00 -0.18948331021E+04  0.18948331021E+04  0.50400001928E-02 0.  1.
    10030    2    1    2    0    0  0.00000000000E+00  0.00000000000E+00 -0.93309132591E+03  0.28565748782E+04  0.26998815923E+04 0.  0.
        4    1    3    3  502    0  0.96744444655E+03  0.80919045503E+03  0.42633620817E+02  0.12619656050E+04  0.12699999809E+01 0. -1.
       -4    1    3    3    0  502 -0.96744444655E+03 -0.80919045503E+03 -0.97572494673E+03  0.15946092732E+04  0.12699999809E+01 0.  1.
</event>
<event>
 5   0  0.4843887E-07  0.2701084E+04  0.7818609E-02  0.8334653E-01
        2   -1    0    0  501    0  0.00000000000E+00  0.00000000000E+00  0.12665324822E+04  0.12665324822E+04  0.25500000920E-02 0. -1.
       -2   -1    0    0    0  501  0.00000000000E+00  0.00000000000E+00 -0.14401235294E+04  0.14401235294E+04  0.25500000920E-02 0.  1.
    10030    2    1    2    0    0  0.00000000000E+00  0.00000000000E+00 -0.17359104718E+03  0.27066560116E+04  0.27010836554E+04 0.  0.
        5    1    3    3  502    0 -0.11329341433E+04  0.32224446356E+03 -0.74888538274E+03  0.13957910567E+04  0.46999998093E+01 0.  1.
       -5    1    3    3    0  502  0.11329341433E+04 -0.32224446356E+03  0.57529433557E+03  0.13108649549E+04  0.46999998093E+01 0. -1.
</event>
<event>
 5   0  0.1971600E-07  0.2692472E+04  0.7818609E-02  0.8337452E-01
        1   -1    0    0  501    0  0.00000000000E+00  0.00000000000E+00  0.10989766301E+04  0.10989766301E+04  0.50400001928E-02 0.  1.
       -1   -1    0    0    0  501  0.00000000000E+00  0.00000000000E+00 -0.16491264932E+04  0.16491264932E+04  0.50400001928E-02 0. -1.
    10030    2    1    2    0    0  0.00000000000E+00  0.00000000000E+00 -0.55014986314E+03  0.27481031233E+04  0.26924720805E+04 0.  0.
        5    1    3    3  502    0 -0.14095313321E+03 -0.12964613154E+04 -0.61611901205E+03  0.14423260571E+04  0.46999998093E+01 0. -1.
       -5    1    3    3    0  502  0.14095313321E+03  0.12964613154E+04  0.65969148904E+02  0.13057770662E+04  0.46999998093E+01 0.  1.
</event>
<event>
 5   0  0.1641625E-07  0.2701632E+04  0.7818609E-02  0.8334476E-01
        3   -1    0    0  501    0  0.00000000000E+00  0.00000000000E+00  0.13243062399E+04  0.13243062437E+04  0.10100000352E+00 0.  1.
       -3   -1    0    0    0  501  0.00000000000E+00  0.00000000000E+00 -0.13778563286E+04  0.13778563323E+04  0.10100000352E+00 0. -1.
    10030    2    1    2    0    0  0.00000000000E+00  0.00000000000E+00 -0.53550088710E+02  0.27021625760E+04  0.27016319097E+04 0.  0.
        4    1    3    3  502    0 -0.13237395185E+03 -0.39047023284E+03  0.12598338242E+04  0.13255839254E+04  0.12699999809E+01 0.  1.
       -4    1    3    3    0  502  0.13237395185E+03  0.39047023284E+03 -0.13133839129E+04  0.13765786506E+04  0.12699999809E+01 0. -1.
</event>
<event>
 5   0  0.4735120E-07  0.2699991E+04  0.7818609E-02  0.8335008E-01
        2   -1    0    0  501    0  0.00000000000E+00  0.00000000000E+00  0.15731557882E+04  0.15731557882E+04  0.25500000920E-02 0.  1.
       -2   -1    0    0    0  501  0.00000000000E+00  0.00000000000E+00 -0.11584918768E+04  0.11584918768E+04  0.25500000920E-02 0. -1.
    10030    2    1    2    0    0  0.00000000000E+00  0.00000000000E+00  0.41466391138E+03  0.27316476650E+04  0.26999912604E+04 0.  0.
        2    1    3    3  502    0  0.12477843030E+04 -0.37089650005E+03 -0.15457471669E+03  0.13108864267E+04  0.25500000920E-02 0. -1.
       -2    1    3    3    0  502 -0.12477843030E+04  0.37089650005E+03  0.56923862807E+03  0.14207612383E+04  0.25500000920E-02 0.  1.
</event>
<event>
 5   0  0.1937896E-07  0.2701411E+04  0.7818609E-02  0.8334547E-01
       -1   -1    0    0    0  501  0.00000000000E+00  0.00000000000E+00  0.10173857121E+04  0.10173857121E+04  0.50400001928E-02 0.  1.
        1   -1    0    0  501    0  0.00000000000E+00  0.00000000000E+00 -0.17932290311E+04  0.17932290311E+04  0.50400001928E-02 0. -1.
    10030    2    1    2    0    0  0.00000000000E+00  0.00000000000E+00 -0.77584331904E+03  0.28106147432E+04  0.27014111828E+04 0.  0.
        3    1    3    3  502    0 -0.85638495108E+03  0.42017663773E+03  0.60701047200E+03  0.11306658722E+04  0.10100000352E+00 0.  1.
       -3    1    3    3    0  502  0.85638495108E+03 -0.42017663773E+03 -0.13828537910E+04  0.16799488709E+04  0.10100000352E+00 0. -1.
</event>
<event>
 5   0  0.5043890E-07  0.2699663E+04  0.7818609E-02  0.8335114E-01
        2   -1    0    0  501    0  0.00000000000E+00  0.00000000000E+00  0.18769265820E+04  0.18769265820E+04  0.25500000920E-02 0. -1.
       -2   -1    0    0    0  501  0.00000000000E+00  0.00000000000E+00 -0.97075976725E+03  0.97075976725E+03  0.25500000920E-02 0.  1.
    10030    2    1    2    0    0  0.00000000000E+00  0.00000000000E+00  0.90616681475E+03  0.28476863492E+04  0.26996628026E+04 0.  0.
        3    1    3    3  502    0 -0.57897496940E+03  0.91897022812E+03  0.12984801162E+04  0.16928582096E+04  0.10100000352E+00 0. -1.
       -3    1    3    3    0  502  0.57897496940E+03 -0.91897022812E+03 -0.39231330150E+03  0.11548281396E+04  0.10100000352E+00 0.  1.
</event>
<event>
 5   0  0.4983208E-07  0.2684899E+04  0.7818609E-02  0.8339921E-01
        2   -1    0    0  501    0  0.00000000000E+00  0.00000000000E+00  0.26543557111E+04  0.26543557111E+04  0.25500000920E-02 0.  1.
       -2   -1    0    0    0  501  0.00000000000E+00  0.00000000000E+00 -0.67894858943E+03  0.67894858944E+03  0.25500000920E-02 0. -1.
    10030    2    1    2    0    0  0.00000000000E+00  0.00000000000E+00  0.19754071216E+04  0.33333043005E+04  0.26848993023E+04 0.  0.
        4    1    3    3  502    0 -0.12065970617E+04 -0.39228433042E+03  0.44313037628E+03  0.13439232152E+04  0.12699999809E+01 0. -1.
       -4    1    3    3    0  502  0.12065970617E+04  0.39228433042E+03  0.15322767453E+04  0.19893810853E+04  0.12699999809E+01 0.  1.
</event>
<event>
 5   0  0.4983208E-07  0.2698475E+04  0.7818609E-02  0.8335500E-01
       -2   -1    0    0    0  501  0.00000000000E+00  0.00000000000E+00  0.90909117925E+03  0.90909117925E+03  0.25500000920E-02 0.  1.
        2   -1    0    0  501    0  0.00000000000E+00  0.00000000000E+00 -0.20024855941E+04  0.20024855941E+04  0.25500000920E-02 0. -1.
    10030    2    1    2    0    0  0.00000000000E+00  0.00000000000E+00 -0.10933944149E+04  0.29115767734E+04  0.26984751177E+04 0.  0.
        4    1    3    3  502    0 -0.10917651293E+04 -0.70651008899E+03 -0.15866826117E+03  0.13100705452E+04  0.12699999809E+01 0.  1.
       -4    1    3    3    0  502  0.10917651293E+04  0.70651008899E+03 -0.93472615372E+03  0.16015062282E+04  0.12699999809E+01 0. -1.
</event>
<event>
 5   0  0.1964242E-07  0.2699414E+04  0.7818609E-02  0.8335195E-01
       -1   -1    0    0    0  501  0.00000000000E+00  0.00000000000E+00  0.94520570067E+03  0.94520570068E+03  0.50400001928E-02 0.  1.
        1   -1    0    0  501    0  0.00000000000E+00  0.00000000000E+00 -0.19273147454E+04  0.19273147455E+04  0.50400001928E-02 0. -1.
    10030    2    1    2    0    0  0.00000000000E+00  0.00000000000E+00 -0.98210904478E+03  0.28725204461E+04  0.26994139248E+04 0.  0.
        2    1    3    3  502    0  0.12238249069E+04 -0.47345146292E+03 -0.82723324012E+03  0.15511990601E+04  0.25500000920E-02 0. -1.
       -2    1    3    3    0  502 -0.12238249069E+04  0.47345146292E+03 -0.15487580465E+03  0.13213213861E+04  0.25500000920E-02 0.  1.
</event>
<event>
 5   0  0.4992668E-07  0.2694199E+04  0.7818609E-02  0.8336890E-01
        2   -1    0    0  501    0  0.00000000000E+00  0.00000000000E+00  0.16720277384E+04  0.16720277384E+04  0.25500000920E-02 0.  1.
       -2   -1    0    0    0  501  0.00000000000E+00  0.00000000000E+00 -0.10853151556E+04  0.10853151556E+04  0.25500000920E-02 0. -1.
    10030    2    1    2    0    0  0.00000000000E+00  0.00000000000E+00  0.58671258279E+03  0.27573428941E+04  0.26941989868E+04 0.  0.
        1    1    3    3  502    0 -0.21809329147E+03  0.83358977755E+03  0.13531155040E+04  0.16041689962E+04  0.50400001928E-02 0.  1.
       -1    1    3    3    0  502  0.21809329147E+03 -0.83358977755E+03 -0.76640292125E+03  0.11531738979E+04  0.50400001928E-02 0. -1.
</event>
<event>
 5   0  0.1888149E-07  0.2700458E+04  0.7818609E-02  0.8334856E-01
        1   -1    0    0  501    0  0.00000000000E+00  0.00000000000E+00  0.15854440133E+04  0.15854440133E+04  0.50400001928E-02 0. -1.
       -1   -1    0    0    0  501  0.00000000000E+00  0.00000000000E+00 -0.11499099890E+04  0.11499099890E+04  0.50400001928E-02 0.  1.
    10030    2    1    2    0    0  0.00000000000E+00  0.00000000000E+00  0.43553402430E+03  0.27353540023E+04  0.27004576708E+04 0.  0.
        1    1    3    3  502    0 -0.10449981962E+04  0.49540153713E+03  0.92367580314E+03  0.14800746273E+04  0.50400001928E-02 0.  1.
       -1    1    3    3    0  502  0.10449981962E+04 -0.49540153713E+03 -0.48814177885E+03  0.12552793750E+04  0.50400001928E-02 0. -1.
</event>
<event>
 5   0  0.1971600E-07  0.2696272E+04  0.7818609E-02  0.8336216E-01
       -1   -1    0    0    0  501  0.00000000000E+00  0.00000000000E+00  0.10007245154E+04  0.10007245154E+04  0.50400001928E-02 0.  1.
        1   -1    0    0  501    0  0.00000000000E+00  0.00000000000E+00 -0.18161546621E+04  0.18161546621E+04  0.50400001928E-02 0. -1.
    10030    2    1    2    0    0  0.00000000000E+00  0.00000000000E+00 -0.81543014669E+03  0.28168791775E+04  0.26962718662E+04 0.  0.
        5    1    3    3  502    0  0.46858243009E+03 -0.41151695904E+03 -0.16563906946E+04  0.17699061909E+04  0.46999998093E+01 0. -1.
       -5    1    3    3    0  502 -0.46858243009E+03  0.41151695904E+03  0.84096054796E+03  0.10469729866E+04  0.46999998093E+01 0.  1.
</event>
<event>
 5   0  0.4992668E-07  0.2701858E+04  0.7818609E-02  0.8334402E-01
        2   -1    0    0  501    0  0.00000000000E+00  0.00000000000E+00  0.24655598552E+04  0.24655598552E+04  0.25500000920E-02 0.  1.
       -2   -1    0    0    0  501  0.00000000000E+00  0.00000000000E+00 -0.74020098019E+03  0.74020098019E+03  0.25500000920E-02 0. -1.
    10030    2    1    2    0    0  0.00000000000E+00  0.00000000000E+00  0.17253588751E+04  0.32057608354E+04  0.27018584875E+04 0.  0.
        1    1    3    3  502    0  0.25762908375E+03  0.11657206008E+04  0.16128383638E+04  0.20066202560E+04  0.50400001928E-02 0.  1.
       -1    1    3    3    0  502 -0.25762908375E+03 -0.11657206008E+04  0.11252051123E+03  0.11991405795E+04  0.50400001928E-02 0. -1.
</event>
<event>
 5   0  0.1971600E-07  0.2696840E+04  0.7818609E-02  0.8336031E-01
       -1   -1    0    0    0  501  0.00000000000E+00  0.00000000000E+00  0.12628217144E+04  0.12628217144E+04  0.50400001928E-02 0.  1.
        1   -1    0    0  501    0  0.00000000000E+00  0.00000000000E+00 -0.14398206974E+04  0.14398206975E+04  0.50400001928E-02 0. -1.
    10030    2    1    2    0    0  0.00000000000E+00  0.00000000000E+00 -0.17699898305E+03  0.27026424119E+04  0.26968402560E+04 0.  0.
        5    1    3    3  502    0  0.13452598770E+04  0.56042690273E+02 -0.16179939889E+03  0.13561216964E+04  0.46999998093E+01 0.  1.
       -5    1    3    3    0  502 -0.13452598770E+04 -0.56042690273E+02 -0.15199584168E+02  0.13465207155E+04  0.46999998093E+01 0. -1.
</event>
<event>
 5   0  0.1937896E-07  0.2706515E+04  0.7818609E-02  0.8332894E-01
        1   -1    0    0  501    0  0.00000000000E+00  0.00000000000E+00  0.11031021698E+04  0.11031021698E+04  0.50400001928E-02 0. -1.
       -1   -1    0    0    0  501  0.00000000000E+00  0.00000000000E+00 -0.16601415370E+04  0.16601415370E+04  0.50400001928E-02 0.  1.
    10030    2    1    2    0    0  0.00000000000E+00  0.00000000000E+00 -0.55703936716E+03  0.27632437068E+04  0.27065149042E+04 0.  0.
        3    1    3    3  502    0 -0.13308332644E+04 -0.14195195622E+03 -0.74230222137E+02  0.13404393576E+04  0.10100000352E+00 0. -1.
       -3    1    3    3    0  502  0.13308332644E+04  0.14195195622E+03 -0.48280914502E+03  0.14228043492E+04  0.10100000352E+00 0.  1.
</event>
<event>
 5   0  0.1965415E-07  0.2699296E+04  0.7818609E-02  0.8335234E-01
       -1   -1    0    0    0  501  0.00000000000E+00  0.00000000000E+00  0.93826658999E+03  0.93826659000E+03  0.50400001928E-02 0. -1.
        1   -1    0    0  501    0  0.00000000000E+00  0.00000000000E+00 -0.19413984105E+04  0.19413984105E+04  0.50400001928E-02 0.  1.
    10030    2    1    2    0    0  0.00000000000E+00  0.00000000000E+00 -0.10031318205E+04  0.28796650005E+04  0.26992956610E+04 0.  0.
        4    1    3    3  502    0 -0.83273021153E+03  0.68178075024E+03  0.36727640312E+03  0.11371711242E+04  0.12699999809E+01 0. -1.
       -4    1    3    3    0  502  0.83273021153E+03 -0.68178075024E+03 -0.13704082236E+04  0.17424938763E+04  0.12699999809E+01 0.  1.
</event>
<event>
 5   0  0.4843887E-07  0.2700366E+04  0.7818609E-02  0.8334886E-01
        2   -1    0    0  501    0  0.00000000000E+00  0.00000000000E+00  0.24316774041E+04  0.24316774041E+04  0.25500000920E-02 0.  1.
       -2   -1    0    0    0  501  0.00000000000E+00  0.00000000000E+00 -0.74968561774E+03  0.74968561774E+03  0.25500000920E-02 0. -1.
    10030    2    1    2    0    0  0.00000000000E+00  0.00000000000E+00  0.16819917864E+04  0.31813630219E+04  0.27003655877E+04 0.  0.
        5    1    3    3  502    0  0.11817957358E+04  0.38367601838E+01  0.16102260092E+04  0.19973747201E+04  0.46999998093E+01 0.  1.
       -5    1    3    3    0  502 -0.11817957358E+04 -0.38367601838E+01  0.71765777187E+02  0.11839883017E+04  0.46999998093E+01 0. -1.
</event>
<event>
 5   0  0.4992668E-07  0.2695968E+04  0.7818609E-02  0.8336314E-01
        2   -1    0    0  501    0  0.00000000000E+00  0.00000000000E+00  0.20457168153E+04  0.20457168153E+04  0.25500000920E-02 0.  1.
       -2   -1    0    0    0  501  0.00000000000E+00  0.00000000000E+00 -0.88822707463E+03  0.88822707463E+03  0.25500000920E-02 0. -1.
    10030    2    1    2    0    0  0.00000000000E+00  0.00000000000E+00  0.11574897407E+04  0.29339438899E+04  0.26959681470E+04 0.  0.
        1    1    3    3  502    0 -0.63231583676E+03 -0.81650623809E+03  0.15215640259E+04  0.18389298081E+04  0.50400001928E-02 0. -1.
       -1    1    3    3    0  502  0.63231583676E+03  0.81650623809E+03 -0.36407428519E+03  0.10950140818E+04  0.50400001928E-02 0.  1.
</event>
<event>
 5   0  0.1964242E-07  0.2699903E+04  0.7818609E-02  0.8335037E-01
       -1   -1    0    0    0  501  0.00000000000E+00  0.00000000000E+00  0.13954343658E+04  0.13954343658E+04  0.50400001928E-02 0. -1.
        1   -1    0    0  501    0  0.00000000000E+00  0.00000000000E+00 -0.13059508628E+04  0.13059508628E+04  0.50400001928E-02 0.  1.
    10030    2    1    2    0    0  0.00000000000E+00  0.00000000000E+00  0.89483502931E+02  0.27013852286E+04  0.26999027494E+04 0.  0.
        2    1    3    3  502    0 -0.64276320697E+03 -0.36776543462E+01 -0.11430118550E+04  0.13113482245E+04  0.25500000920E-02 0.  1.
       -2    1    3    3    0  502  0.64276320697E+03  0.36776543462E+01  0.12324953579E+04  0.13900370041E+04  0.25500000920E-02 0. -1.
</event>
<event>
 5   0  0.1971600E-07  0.2699797E+04  0.7818609E-02  0.8335071E-01
       -1   -1    0    0    0  501  0.00000000000E+00  0.00000000000E+00  0.86189330736E+03  0.86189330737E+03  0.50400001928E-02 0.  1.
        1   -1    0    0  501    0  0.00000000000E+00  0.00000000000E+00 -0.21142132867E+04  0.21142132867E+04  0.50400001928E-02 0. -1.
    10030    2    1    2    0    0  0.00000000000E+00  0.00000000000E+00 -0.12523199794E+04  0.29761065941E+04  0.26997972385E+04 0.  0.
        5    1    3    3  502    0 -0.12884997155E+04 -0.83878146632E+02 -0.10600654241E+04  0.16706369605E+04  0.46999998093E+01 0. -1.
       -5    1    3    3    0  502  0.12884997155E+04  0.83878146632E+02 -0.19225455525E+03  0.13054696336E+04  0.46999998093E+01 0.  1.
</event>
<event>
 5   0  0.5043890E-07  0.2700478E+04  0.7818609E-02  0.8334850E-01
       -2   -1    0    0    0  501  0.00000000000E+00  0.00000000000E+00  0.12694706525E+04  0.12694706525E+04  0.25500000920E-02 0. -1.
        2   -1    0    0  501    0  0.00000000000E+00  0.00000000000E+00 -0.14361459354E+04  0.14361459354E+04  0.25500000920E-02 0.  1.
    10030    2    1    2    0    0  0.00000000000E+00  0.00000000000E+00 -0.16667528289E+03  0.27056165880E+04  0.27004778227E+04 0.  0.
        3    1    3    3  502    0  0.32323268560E+03 -0.68006053374E+03 -0.12062662967E+04  0.14219845594E+04  0.10100000352E+00 0.  1.
       -3    1    3    3    0  502 -0.32323268560E+03  0.68006053374E+03  0.10395910138E+04  0.12836320285E+04  0.10100000352E+00 0. -1.
</event>
<event>
 5   0  0.4992668E-07  0.2700590E+04  0.7818609E-02  0.8334814E-01
        2   -1    0    0  501    0  0.00000000000E+00  0.00000000000E+00  0.20277150151E+04  0.20277150151E+04  0.25500000920E-02 0. -1.
       -2   -1    0    0    0  501  0.00000000000E+00  0.00000000000E+00 -0.89918764497E+03  0.89918764497E+03  0.25500000920E-02 0.  1.
    10030    2    1    2    0    0  0.00000000000E+00  0.00000000000E+00  0.11285273701E+04  0.29269026600E+04  0.27005897793E+04 0.  0.
        1    1    3    3  502    0  0.49797422009E+03 -0.57705737158E+03 -0.64373616310E+03  0.99768220475E+03  0.50400001928E-02 0.  1.
       -1    1    3    3    0  502 -0.49797422009E+03  0.57705737158E+03  0.17722635332E+04  0.19292204553E+04  0.50400001928E-02 0. -1.
</event>
<event>
 5   0  0.1641625E-07  0.2699971E+04  0.7818609E-02  0.8335014E-01
        3   -1    0    0  501    0  0.00000000000E+00  0.00000000000E+00  0.11968740961E+04  0.11968741004E+04  0.10100000352E+00 0. -1.
       -3   -1    0    0    0  501  0.00000000000E+00  0.00000000000E+00 -0.15226837566E+04  0.15226837600E+04  0.10100000352E+00 0.  1.
    10030    2    1    2    0    0  0.00000000000E+00  0.00000000000E+00 -0.32580966053E+03  0.27195578604E+04  0.26999709296E+04 0.  0.
        3    1    3    3  502    0 -0.35532628376E+03  0.30797609938E+03  0.11117217897E+04  0.12070755542E+04  0.10100000352E+00 0. -1.
       -3    1    3    3    0  502  0.35532628376E+03 -0.30797609938E+03 -0.14375314502E+04  0.15124823061E+04  0.10100000352E+00 0.  1.
</event>
<event>
 5   0  0.1964242E-07  0.2697217E+04  0.7818609E-02  0.8335909E-01
        1   -1    0    0  501    0  0.00000000000E+00  0.00000000000E+00  0.19398139832E+04  0.19398139832E+04  0.50400001928E-02 0.  1.
       -1   -1    0    0    0  501  0.00000000000E+00  0.00000000000E+00 -0.93758692532E+03  0.93758692533E+03  0.50400001928E-02 0. -1.
    10030    2    1    2    0    0  0.00000000000E+00  0.00000000000E+00  0.10022270579E+04  0.28774009086E+04  0.26972165121E+04 0.  0.
        2    1    3    3  502    0  0.36129810620E+03  0.10549705018E+04 -0.30800295388E+03  0.11568772194E+04  0.25500000920E-02 0. -1.
       -2    1    3    3    0  502 -0.36129810620E+03 -0.10549705018E+04  0.13102300118E+04  0.17205236892E+04  0.25500000920E-02 0.  1.
</event>
<event>
 5   0  0.1971600E-07  0.2699711E+04  0.7818609E-02  0.8335099E-01
        1   -1    0    0  501    0  0.00000000000E+00  0.00000000000E+00  0.18612452101E+04  0.18612452101E+04  0.50400001928E-02 0.  1.
       -1   -1    0    0    0  501  0.00000000000E+00  0.00000000000E+00 -0.97897360065E+03  0.97897360067E+03  0.50400001928E-02 0. -1.
    10030    2    1    2    0    0  0.00000000000E+00  0.00000000000E+00  0.88227160945E+03  0.28402188108E+04  0.26997110401E+04 0.  0.
        5    1    3    3  502    0 -0.68855418478E+03 -0.46723756455E+03  0.15593122000E+04  0.17674542241E+04  0.46999998093E+01 0.  1.
       -5    1    3    3    0  502  0.68855418478E+03  0.46723756455E+03 -0.67704059059E+03  0.10727645867E+04  0.46999998093E+01 0. -1.
</event>
<event>
 5   0  0.1964242E-07  0.2699116E+04  0.7818609E-02  0.8335292E-01
        1   -1    0    0  501    0  0.00000000000E+00  0.00000000000E+00  0.91276995647E+03  0.91276995649E+03  0.50400001928E-02 0. -1.
       -1   -1    0    0    0  501  0.00000000000E+00  0.00000000000E+00 -0.19953620300E+04  0.19953620300E+04  0.50400001928E-02 0.  1.
    10030    2    1    2    0    0  0.00000000000E+00  0.00000000000E+00 -0.10825920736E+04  0.29081319865E+04  0.26991157910E+04 0.  0.
        2    1    3    3  502    0 -0.30525215314E+02  0.46528298092E+03  0.82322240430E+03  0.94610526267E+03  0.25500000920E-02 0. -1.
       -2    1    3    3    0  502  0.30525215314E+02 -0.46528298092E+03 -0.19058144779E+04  0.19620267239E+04  0.25500000920E-02 0.  1.
</event>
<event>
 5   0  0.1971600E-07  0.2699129E+04  0.7818609E-02  0.8335288E-01
       -1   -1    0    0    0  501  0.00000000000E+00  0.00000000000E+00  0.10990104316E+04  0.10990104317E+04  0.50400001928E-02 0.  1.
        1   -1    0    0  501    0  0.00000000000E+00  0.00000000000E+00 -0.16572401612E+04  0.16572401612E+04  0.50400001928E-02 0. -1.
    10030    2    1    2    0    0  0.00000000000E+00  0.00000000000E+00 -0.55822972953E+03  0.27562505928E+04  0.26991289150E+04 0.  0.
        5    1    3    3  502    0 -0.93666228073E+03  0.14815199420E+03  0.70142332179E+03  0.11795346573E+04  0.46999998093E+01 0.  1.
       -5    1    3    3    0  502  0.93666228073E+03 -0.14815199420E+03 -0.12596530513E+04  0.15767159355E+04  0.46999998093E+01 0. -1.
</event>
<event>
 5   0  0.1964242E-07  0.2700856E+04  0.7818609E-02  0.8334727E-01
       -1   -1    0    0    0  501  0.00000000000E+00  0.00000000000E+00  0.96251120748E+03  0.96251120750E+03  0.50400001928E-02 0.  1.
        1   -1    0    0  501    0  0.00000000000E+00  0.00000000000E+00 -0.18946848703E+04  0.18946848703E+04  0.50400001928E-02 0. -1.
    10030    2    1    2    0    0  0.00000000000E+00  0.00000000000E+00 -0.93217366283E+03  0.28571960778E+04  0.27008557328E+04 0.  0.
        2    1    3    3  502    0 -0.38153524272E+03 -0.55135339239E+03  0.77398588245E+03  0.10240184818E+04  0.25500000920E-02 0.  1.
       -2    1    3    3    0  502  0.38153524272E+03  0.55135339239E+03 -0.17061595453E+04  0.18331775961E+04  0.25500000920E-02 0. -1.
</event>
<event>
 5   0  0.5043890E-07  0.2704326E+04  0.7818609E-02  0.8333603E-01
        2   -1    0    0  501    0  0.00000000000E+00  0.00000000000E+00  0.17287482651E+04  0.17287482651E+04  0.25500000920E-02 0. -1.
       -2   -1    0    0    0  501  0.00000000000E+00  0.00000000000E+00 -0.10576120018E+04  0.10576120019E+04  0.25500000920E-02 0.  1.
    10030    2    1    2    0    0  0.00000000000E+00  0.00000000000E+00  0.67113626328E+03  0.27863602670E+04  0.27043260997E+04 0.  0.
        3    1    3    3  502    0  0.10093346303E+04  0.69317853125E+03 -0.25549911209E+03  0.12508128072E+04  0.10100000352E+00 0.  1.
       -3    1    3    3    0  502 -0.10093346303E+04 -0.69317853125E+03  0.92663537537E+03  0.15355474598E+04  0.10100000352E+00 0. -1.
</event>
<event>
 5   0  0.4735120E-07  0.2699789E+04  0.7818609E-02  0.8335073E-01
       -2   -1    0    0    0  501  0.00000000000E+00  0.00000000000E+00  0.90972164645E+03  0.90972164645E+03  0.25500000920E-02 0.  1.
        2   -1    0    0  501    0  0.00000000000E+00  0.00000000000E+00 -0.20030470404E+04  0.20030470404E+04  0.25500000920E-02 0. -1.
    10030    2    1    2    0    0  0.00000000000E+00  0.00000000000E+00 -0.10933253939E+04  0.29127686868E+04  0.26997890669E+04 0.  0.
        2    1    3    3  502    0  0.12448150429E+04 -0.36216375898E+01  0.16675336187E+02  0.12449319958E+04  0.25500000920E-02 0. -1.
       -2    1    3    3    0  502 -0.12448150429E+04  0.36216375898E+01 -0.11100007301E+04  0.16678366911E+04  0.25500000920E-02 0.  1.
</event>
<event>
 5   0  0.4992668E-07  0.2699879E+04  0.7818609E-02  0.8335044E-01
        2   -1    0    0  501    0  0.00000000000E+00  0.00000000000E+00  0.13362372770E+04  0.13362372770E+04  0.25500000920E-02 0. -1.
       -2   -1    0    0    0  501  0.00000000000E+00  0.00000000000E+00 -0.13637825816E+04  0.13637825816E+04  0.25500000920E-02 0.  1.
    10030    2    1    2    0    0  0.00000000000E+00  0.00000000000E+00 -0.27545304667E+02  0.27000198586E+04  0.26998793479E+04 0.  0.
        1    1    3    3  502    0 -0.33853204715E+03  0.49115464251E+03 -0.12248271270E+04  0.13623649734E+04  0.50400001928E-02 0.  1.
       -1    1    3    3    0  502  0.33853204715E+03 -0.49115464251E+03  0.11972818223E+04  0.13376548852E+04  0.50400001928E-02 0. -1.
</event>
<event>
 5   0  0.1964242E-07  0.2699331E+04  0.7818609E-02  0.8335222E-01
        1   -1    0    0  501    0  0.00000000000E+00  0.00000000000E+00  0.23447924215E+04  0.23447924215E+04  0.50400001928E-02 0.  1.
       -1   -1    0    0    0  501  0.00000000000E+00  0.00000000000E+00 -0.77686936632E+03  0.77686936633E+03  0.50400001928E-02 0. -1.
    10030    2    1    2    0    0  0.00000000000E+00  0.00000000000E+00  0.15679230552E+04  0.31216617878E+04  0.26993313266E+04 0.  0.
        2    1    3    3  502    0 -0.64999266796E+03 -0.18617714012E+02 -0.58377140625E+03  0.87385704920E+03  0.25500000920E-02 0. -1.
       -2    1    3    3    0  502  0.64999266796E+03  0.18617714012E+02  0.21516944614E+04  0.22478047386E+04  0.25500000920E-02 0.  1.
</event>
<event>
 5   0  0.4983208E-07  0.2702004E+04  0.7818609E-02  0.8334355E-01
        2   -1    0    0  501    0  0.00000000000E+00  0.00000000000E+00  0.12624347971E+04  0.12624347971E+04  0.25500000920E-02 0. -1.
       -2   -1    0    0    0  501  0.00000000000E+00  0.00000000000E+00 -0.14457831058E+04  0.14457831058E+04  0.25500000920E-02 0.  1.
    10030    2    1    2    0    0  0.00000000000E+00  0.00000000000E+00 -0.18334830874E+03  0.27082179030E+04  0.27020043685E+04 0.  0.
        4    1    3    3  502    0 -0.98758645161E+03  0.57512182584E+03 -0.81382609649E+03  0.14029991597E+04  0.12699999809E+01 0.  1.
       -4    1    3    3    0  502  0.98758645161E+03 -0.57512182584E+03  0.63047778775E+03  0.13052187432E+04  0.12699999809E+01 0. -1.
</event>
<event>
 5   0  0.1888149E-07  0.2699906E+04  0.7818609E-02  0.8335036E-01
        1   -1    0    0  501    0  0.00000000000E+00  0.00000000000E+00  0.17254975899E+04  0.17254975899E+04  0.50400001928E-02 0. -1.
       -1   -1    0    0    0  501  0.00000000000E+00  0.00000000000E+00 -0.10561432752E+04  0.10561432752E+04  0.50400001928E-02 0.  1.
    10030    2    1    2    0    0  0.00000000000E+00  0.00000000000E+00  0.66935431473E+03  0.27816408651E+04  0.26999056843E+04 0.  0.
        1    1    3    3  502    0  0.13251917826E+04 -0.14612819716E+03  0.11640027116E+03  0.13382958319E+04  0.50400001928E-02 0.  1.
       -1    1    3    3    0  502 -0.13251917826E+04  0.14612819716E+03  0.55295404357E+03  0.14433450332E+04  0.50400001928E-02 0. -1.
</event>
<event>
 5   0  0.1965415E-07  0.2700944E+04  0.7818609E-02  0.8334699E-01
       -1   -1    0    0    0  501  0.00000000000E+00  0.00000000000E+00  0.17276781173E+04  0.17276781173E+04  0.50400001928E-02 0.  1.
        1   -1    0    0  501    0  0.00000000000E+00  0.00000000000E+00 -0.10556215043E+04  0.10556215043E+04  0.50400001928E-02 0. -1.
    10030    2    1    2    0    0  0.00000000000E+00  0.00000000000E+00  0.67205661302E+03  0.27832996216E+04  0.27009436671E+04 0.  0.
        4    1    3    3  502    0 -0.68520752329E+03  0.82179228292E+01  0.15352104297E+04  0.16812047943E+04  0.12699999809E+01 0.  1.
       -4    1    3    3    0  502  0.68520752329E+03 -0.82179228292E+01 -0.86315381665E+03  0.11020948273E+04  0.12699999809E+01 0. -1.
</event>
<event>
 5   0  0.5043890E-07  0.2700515E+04  0.7818609E-02  0.8334838E-01
        2   -1    0    0  501    0  0.00000000000E+00  0.00000000000E+00  0.14020289105E+04  0.14020289105E+04  0.25500000920E-02 0.  1.
       -2   -1    0    0    0  501  0.00000000000E+00  0.00000000000E+00 -0.13003982521E+04  0.13003982521E+04  0.25500000920E-02 0. -1.
    10030    2    1    2    0    0  0.00000000000E+00  0.00000000000E+00  0.10163065847E+03  0.27024271626E+04  0.27005154653E+04 0.  0.
        3    1    3    3  502    0 -0.32483501805E+03  0.12008642959E+04  0.57616609383E+03  0.13709705409E+04  0.10100000352E+00 0.  1.
       -3    1    3    3    0  502  0.32483501805E+03 -0.12008642959E+04 -0.47453543535E+03  0.13314566218E+04  0.10100000352E+00 0. -1.
</event>
<event>
 5   0  0.1971600E-07  0.2703738E+04  0.7818609E-02  0.8333793E-01
       -1   -1    0    0    0  501  0.00000000000E+00  0.00000000000E+00  0.13510977699E+04  0.13510977699E+04  0.50400001928E-02 0.  1.
        1   -1    0    0  501    0  0.00000000000E+00  0.00000000000E+00 -0.13526407278E+04  0.13526407278E+04  0.50400001928E-02 0. -1.
    10030    2    1    2    0    0  0.00000000000E+00  0.00000000000E+00 -0.15429578691E+01  0.27037384977E+04  0.27037380574E+04 0.  0.
        5    1    3    3  502    0  0.72959776520E+03 -0.11181134327E+04  0.21144833196E+03  0.13517481402E+04  0.46999998093E+01 0.  1.
       -5    1    3    3    0  502 -0.72959776520E+03  0.11181134327E+04 -0.21299128983E+03  0.13519903575E+04  0.46999998093E+01 0. -1.
</event>
<event>
 5   0  0.5043890E-07  0.2697317E+04  0.7818609E-02  0.8335876E-01
       -2   -1    0    0    0  501  0.00000000000E+00  0.00000000000E+00  0.10009054512E+04  0.10009054512E+04  0.25500000920E-02 0. -1.
        2   -1    0    0  501    0  0.00000000000E+00  0.00000000000E+00 -0.18172338272E+04  0.18172338272E+04  0.25500000920E-02 0.  1.
    10030    2    1    2    0    0  0.00000000000E+00  0.00000000000E+00 -0.81632837605E+03  0.28181392784E+04  0.26973166249E+04 0.  0.
        3    1    3    3  502    0 -0.37997071258E+03  0.10282513905E+04  0.41264778502E+03  0.11713056259E+04  0.10100000352E+00 0. -1.
       -3    1    3    3    0  502  0.37997071258E+03 -0.10282513905E+04 -0.12289761611E+04  0.16468336526E+04  0.10100000352E+00 0.  1.
</event>
<event>
 5   0  0.1965415E-07  0.2700045E+04  0.7818609E-02  0.8334990E-01
        1   -1    0    0  501    0  0.00000000000E+00  0.00000000000E+00  0.17797584745E+04  0.17797584746E+04  0.50400001928E-02 0.  1.
       -1   -1    0    0    0  501  0.00000000000E+00  0.00000000000E+00 -0.10240496732E+04  0.10240496732E+04  0.50400001928E-02 0. -1.
    10030    2    1    2    0    0  0.00000000000E+00  0.00000000000E+00  0.75570880136E+03  0.28038081477E+04  0.27000452472E+04 0.  0.
        4    1    3    3  502    0  0.72239795804E+03  0.89665976342E+03 -0.35400081996E+03  0.12046475562E+04  0.12699999809E+01 0. -1.
       -4    1    3    3    0  502 -0.72239795804E+03 -0.89665976342E+03  0.11097096213E+04  0.15991605916E+04  0.12699999809E+01 0.  1.
</event>
<event>
 5   0  0.1971600E-07  0.2699991E+04  0.7818609E-02  0.8335008E-01
       -1   -1    0    0    0  501  0.00000000000E+00  0.00000000000E+00  0.18621857582E+04  0.18621857583E+04  0.50400001928E-02 0.  1.
        1   -1    0    0  501    0  0.00000000000E+00  0.00000000000E+00 -0.97868179791E+03  0.97868179792E+03  0.50400001928E-02 0. -1.
    10030    2    1    2    0    0  0.00000000000E+00  0.00000000000E+00  0.88350396033E+03  0.28408675562E+04  0.26999905970E+04 0.  0.
        5    1    3    3  502    0 -0.78949239898E+03  0.38273810525E+03 -0.63778273814E+03  0.10847007036E+04  0.46999998093E+01 0. -1.
       -5    1    3    3    0  502  0.78949239898E+03 -0.38273810525E+03  0.15212866985E+04  0.17561668526E+04  0.46999998093E+01 0.  1.
</event>
<event>
 5   0  0.4843887E-07  0.2699269E+04  0.7818609E-02  0.8335242E-01
       -2   -1    0    0    0  501  0.00000000000E+00  0.00000000000E+00  0.11054803310E+04  0.11054803310E+04  0.25500000920E-02 0.  1.
        2   -1    0    0  501    0  0.00000000000E+00  0.00000000000E+00 -0.16477123820E+04  0.16477123820E+04  0.25500000920E-02 0. -1.
    10030    2    1    2    0    0  0.00000000000E+00  0.00000000000E+00 -0.54223205102E+03  0.27531927130E+04  0.26992692562E+04 0.  0.
        5    1    3    3  502    0 -0.39732737157E+03  0.12393736694E+04 -0.63542836725E+03  0.14483464477E+04  0.46999998093E+01 0.  1.
       -5    1    3    3    0  502  0.39732737157E+03 -0.12393736694E+04  0.93196316228E+02  0.13048462653E+04  0.46999998093E+01 0. -1.
</event>
<event>
 5   0  0.1888149E-07  0.2699244E+04  0.7818609E-02  0.8335250E-01
       -1   -1    0    0    0  501  0.00000000000E+00  0.00000000000E+00  0.81471497362E+03  0.81471497363E+03  0.50400001928E-02 0. -1.
        1   -1    0    0  501    0  0.00000000000E+00  0.00000000000E+00 -0.22357260746E+04  0.22357260746E+04  0.50400001928E-02 0.  1.
    10030    2    1    2    0    0  0.00000000000E+00  0.00000000000E+00 -0.14210111009E+04  0.30504410482E+04  0.26992439755E+04 0.  0.
        1    1    3    3  502    0  0.75299008276E+03 -0.47374590286E+03  0.43645823252E+03  0.99092130564E+03  0.50400001928E-02 0. -1.
       -1    1    3    3    0  502 -0.75299008276E+03  0.47374590286E+03 -0.18574693335E+04  0.20595197426E+04  0.50400001928E-02 0.  1.
</event>
<event>
 5   0  0.4843887E-07  0.2707534E+04  0.7818609E-02  0.8332565E-01
        2   -1    0    0  501    0  0.00000000000E+00  0.00000000000E+00  0.17048873491E+04  0.17048873491E+04  0.25500000920E-02 0.  1.
       -2   -1    0    0    0  501  0.00000000000E+00  0.00000000000E+00 -0.10749595437E+04  0.10749595437E+04  0.25500000920E-02 0. -1.
    10030    2    1    2    0    0  0.00000000000E+00  0.00000000000E+00  0.62992780534E+03  0.27798468928E+04  0.27075338793E+04 0.  0.
        5    1    3    3  502    0  0.57828437060E+03 -0.10522771349E+04  0.95693389130E+03  0.15353971943E+04  0.46999998093E+01 0.  1.
       -5    1    3    3    0  502 -0.57828437060E+03  0.10522771349E+04 -0.32700608597E+03  0.12444496985E+04  0.46999998093E+01 0. -1.
</event>
<event>
 5   0  0.1964242E-07  0.2699746E+04  0.7818609E-02  0.8335087E-01
       -1   -1    0    0    0  501  0.00000000000E+00  0.00000000000E+00  0.68729748907E+03  0.68729748909E+03  0.50400001928E-02 0. -1.
        1   -1    0    0  501    0  0.00000000000E+00  0.00000000000E+00 -0.26511909937E+04  0.26511909937E+04  0.50400001928E-02 0.  1.
    10030    2    1    2    0    0  0.00000000000E+00  0.00000000000E+00 -0.19638935046E+04  0.33384884828E+04  0.26997458496E+04 0.  0.
        2    1    3    3  502    0 -0.89928837306E+03  0.33952875766E+03  0.18998754558E+03  0.97984418286E+03  0.25500000920E-02 0. -1.
       -2    1    3    3    0  502  0.89928837306E+03 -0.33952875766E+03 -0.21538810502E+04  0.23586443000E+04  0.25500000920E-02 0.  1.
</event>
<event>
 5   0  0.1937896E-07  0.2699847E+04  0.7818609E-02  0.8335055E-01
        1   -1    0    0  501    0  0.00000000000E+00  0.00000000000E+00  0.34219084169E+04  0.34219084169E+04  0.50400001928E-02 0. -1.
       -1   -1    0    0    0  501  0.00000000000E+00  0.00000000000E+00 -0.53253730030E+03  0.53253730032E+03  0.50400001928E-02 0.  1.
    10030    2    1    2    0    0  0.00000000000E+00  0.00000000000E+00  0.28893711166E+04  0.39544457172E+04  0.26998473070E+04 0.  0.
        3    1    3    3  502    0 -0.12093600559E+04 -0.31036738063E+03  0.69294841271E+03  0.14279555906E+04  0.10100000352E+00 0.  1.
       -3    1    3    3    0  502  0.12093600559E+04  0.31036738063E+03  0.21964227038E+04  0.25264901266E+04  0.10100000352E+00 0. -1.
</event>
<event>
 5   0  0.1971600E-07  0.2699394E+04  0.7818609E-02  0.8335201E-01
       -1   -1    0    0    0  501  0.00000000000E+00  0.00000000000E+00  0.74956395955E+03  0.74956395956E+03  0.50400001928E-02 0.  1.
        1   -1    0    0  501    0  0.00000000000E+00  0.00000000000E+00 -0.24303230293E+04  0.24303230293E+04  0.50400001928E-02 0. -1.
    10030    2    1    2    0    0  0.00000000000E+00  0.00000000000E+00 -0.16807590698E+04  0.31798869889E+04  0.26993944157E+04 0.  0.
        5    1    3    3  502    0  0.10152062942E+04  0.80709309811E+03 -0.40021497388E+03  0.13572903905E+04  0.46999998093E+01 0.  1.
       -5    1    3    3    0  502 -0.10152062942E+04 -0.80709309811E+03 -0.12805440959E+04  0.18225965984E+04  0.46999998093E+01 0. -1.
</event>
<event>
 5   0  0.4735120E-07  0.2703028E+04  0.7818609E-02  0.8334023E-01
       -2   -1    0    0    0  501  0.00000000000E+00  0.00000000000E+00  0.81050216128E+03  0.81050216129E+03  0.25500000920E-02 0.  1.
        2   -1    0    0  501    0  0.00000000000E+00  0.00000000000E+00 -0.22536530876E+04  0.22536530876E+04  0.25500000920E-02 0. -1.
    10030    2    1    2    0    0  0.00000000000E+00  0.00000000000E+00 -0.14431509263E+04  0.30641552489E+04  0.27030284484E+04 0.  0.
        2    1    3    3  502    0  0.83813649230E+03 -0.14221978043E+03  0.46945627439E+03  0.97112740629E+03  0.25500000920E-02 0.  1.
       -2    1    3    3    0  502 -0.83813649230E+03  0.14221978043E+03 -0.19126072007E+04  0.20930278426E+04  0.25500000920E-02 0. -1.
</event>
<event>
 5   0  0.4992668E-07  0.2699511E+04  0.7818609E-02  0.8335164E-01
        2   -1    0    0  501    0  0.00000000000E+00  0.00000000000E+00  0.15871440002E+04  0.15871440002E+04  0.25500000920E-02 0.  1.
       -2   -1    0    0    0  501  0.00000000000E+00  0.00000000000E+00 -0.11478732641E+04  0.11478732641E+04  0.25500000920E-02 0. -1.
    10030    2    1    2    0    0  0.00000000000E+00  0.00000000000E+00  0.43927073608E+03  0.27350172643E+04  0.26995111885E+04 0.  0.
        1    1    3    3  502    0 -0.65702450802E+03 -0.11695352242E+04  0.37108838887E+03  0.13918334804E+04  0.50400001928E-02 0. -1.
       -1    1    3    3    0  502  0.65702450802E+03  0.11695352242E+04  0.68182347208E+02  0.13431837839E+04  0.50400001928E-02 0.  1.
</event>
<event>
 5   0  0.1888149E-07  0.2699597E+04  0.7818609E-02  0.8335136E-01
        1   -1    0    0  501    0  0.00000000000E+00  0.00000000000E+00  0.83450295652E+03  0.83450295654E+03  0.50400001928E-02 0. -1.
       -1   -1    0    0    0  501  0.00000000000E+00  0.00000000000E+00 -0.21832821443E+04  0.21832821443E+04  0.50400001928E-02 0.  1.
    10030    2    1    2    0    0  0.00000000000E+00  0.00000000000E+00 -0.13487791878E+04  0.30177851009E+04  0.26995965657E+04 0.  0.
        1    1    3    3  502    0 -0.12724529765E+03 -0.87483893533E+03  0.46584436682E+03  0.99927248670E+03  0.50400001928E-02 0. -1.
       -1    1    3    3    0  502  0.12724529765E+03  0.87483893533E+03 -0.18146235546E+04  0.20185126142E+04  0.50400001928E-02 0.  1.
</event>
<event>
 5   0  0.1937896E-07  0.2700257E+04  0.7818609E-02  0.8334922E-01
       -1   -1    0    0    0  501  0.00000000000E+00  0.00000000000E+00  0.12784689062E+04  0.12784689062E+04  0.50400001928E-02 0. -1.
        1   -1    0    0  501    0  0.00000000000E+00  0.00000000000E+00 -0.14258045954E+04  0.14258045954E+04  0.50400001928E-02 0.  1.
    10030    2    1    2    0    0  0.00000000000E+00  0.00000000000E+00 -0.14733568920E+03  0.27042735016E+04  0.27002569075E+04 0.  0.
        3    1    3    3  502    0  0.27645713650E+03  0.90110533495E+03  0.89442792613E+03  0.12993924343E+04  0.10100000352E+00 0. -1.
       -3    1    3    3    0  502 -0.27645713650E+03 -0.90110533495E+03 -0.10417636153E+04  0.14048810674E+04  0.10100000352E+00 0.  1.
</event>
<event>
 5   0  0.1937896E-07  0.2702579E+04  0.7818609E-02  0.8334169E-01
        1   -1    0    0  501    0  0.00000000000E+00  0.00000000000E+00  0.20073281237E+04  0.20073281237E+04  0.50400001928E-02 0.  1.
       -1   -1    0    0    0  501  0.00000000000E+00  0.00000000000E+00 -0.90965829881E+03  0.90965829882E+03  0.50400001928E-02 0. -1.
    10030    2    1    2    0    0  0.00000000000E+00  0.00000000000E+00  0.10976698249E+04  0.29169864225E+04  0.27025785363E+04 0.  0.
        3    1    3    3  502    0 -0.95845331962E+03 -0.25425561216E+03  0.15396522798E+04  0.18313404476E+04  0.10100000352E+00 0.  1.
       -3    1    3    3    0  502  0.95845331962E+03  0.25425561216E+03 -0.44198245490E+03  0.10856459749E+04  0.10100000352E+00 0. -1.
</event>
<event>
 5   0  0.1965415E-07  0.2701480E+04  0.7818609E-02  0.8334525E-01
       -1   -1    0    0    0  501  0.00000000000E+00  0.00000000000E+00  0.11788421960E+04  0.11788421960E+04  0.50400001928E-02 0.  1.
        1   -1    0    0  501    0  0.00000000000E+00  0.00000000000E+00 -0.15477038555E+04  0.15477038555E+04  0.50400001928E-02 0. -1.
    10030    2    1    2    0    0  0.00000000000E+00  0.00000000000E+00 -0.36886165944E+03  0.27265460515E+04  0.27014800475E+04 0.  0.
        4    1    3    3  502    0  0.11080509327E+04  0.57275385966E+03  0.33871552451E+03  0.12924990030E+04  0.12699999809E+01 0.  1.
       -4    1    3    3    0  502 -0.11080509327E+04 -0.57275385966E+03 -0.70757718395E+03  0.14340470485E+04  0.12699999809E+01 0. -1.
</event>
<event>
 5   0  0.4992668E-07  0.2700836E+04  0.7818609E-02  0.8334734E-01
       -2   -1    0    0    0  501  0.00000000000E+00  0.00000000000E+00  0.10087153103E+04  0.10087153103E+04  0.25500000920E-02 0. -1.
        2   -1    0    0  501    0  0.00000000000E+00  0.00000000000E+00 -0.18078726914E+04  0.18078726914E+04  0.25500000920E-02 0.  1.
    10030    2    1    2    0    0  0.00000000000E+00  0.00000000000E+00 -0.79915738118E+03  0.28165880017E+04  0.27008360653E+04 0.  0.
        1    1    3    3  502    0 -0.36469221868E+03  0.10503242768E+04  0.39972087989E+03  0.11815067849E+04  0.50400001928E-02 0. -1.
       -1    1    3    3    0  502  0.36469221868E+03 -0.10503242768E+04 -0.11988782611E+04  0.16350812168E+04  0.50400001928E-02 0.  1.
</event>
<event>
 5   0  0.5043890E-07  0.2693429E+04  0.7818609E-02  0.8337140E-01
        2   -1    0    0  501    0  0.00000000000E+00  0.00000000000E+00  0.13993728488E+04  0.13993728488E+04  0.25500000920E-02 0. -1.
       -2   -1    0    0    0  501  0.00000000000E+00  0.00000000000E+00 -0.12960375120E+04  0.12960375120E+04  0.25500000920E-02 0.  1.
    10030    2    1    2    0    0  0.00000000000E+00  0.00000000000E+00  0.10333533677E+03  0.26954103608E+04  0.26934288224E+04 0.  0.
        3    1    3    3  502    0  0.60400770588E+02  0.91295141977E+03 -0.93724511936E+03  0.13097927210E+04  0.10100000352E+00 0.  1.
       -3    1    3    3    0  502 -0.60400770588E+02 -0.91295141977E+03  0.10405804561E+04  0.13856176398E+04  0.10100000352E+00 0. -1.
</event>
<event>
 5   0  0.1937896E-07  0.2702160E+04  0.7818609E-02  0.8334304E-01
        1   -1    0    0  501    0  0.00000000000E+00  0.00000000000E+00  0.13614473419E+04  0.13614473420E+04  0.50400001928E-02 0.  1.
       -1   -1    0    0    0  501  0.00000000000E+00  0.00000000000E+00 -0.13407917648E+04  0.13407917648E+04  0.50400001928E-02 0. -1.
    10030    2    1    2    0    0  0.00000000000E+00  0.00000000000E+00  0.20655577138E+02  0.27022391068E+04  0.27021601613E+04 0.  0.
        3    1    3    3  502    0 -0.12333981155E+03 -0.13180616703E+04 -0.25971361391E+03  0.13490553907E+04  0.10100000352E+00 0. -1.
       -3    1    3    3    0  502  0.12333981155E+03  0.13180616703E+04  0.28036919105E+03  0.13531837160E+04  0.10100000352E+00 0.  1.
</event>
<event>
 5   0  0.4983208E-07  0.2699716E+04  0.7818609E-02  0.8335097E-01
        2   -1    0    0  501    0  0.00000000000E+00  0.00000000000E+00  0.10957349793E+04  0.10957349794E+04  0.25500000920E-02 0.  1.
       -2   -1    0    0    0  501  0.00000000000E+00  0.00000000000E+00 -0.16629171220E+04  0.16629171220E+04  0.25500000920E-02 0. -1.
    10030    2    1    2    0    0  0.00000000000E+00  0.00000000000E+00 -0.56718214264E+03  0.27586521013E+04  0.26997158801E+04 0.  0.
        4    1    3    3  502    0  0.19342351915E+03 -0.31013549928E+03  0.10442061058E+04  0.11063293768E+04  0.12699999809E+01 0.  1.
       -4    1    3    3    0  502 -0.19342351915E+03  0.31013549928E+03 -0.16113882485E+04  0.16523227245E+04  0.12699999809E+01 0. -1.
</event>
<event>
 5   0  0.1937896E-07  0.2700121E+04  0.7818609E-02  0.8334966E-01
        1   -1    0    0  501    0  0.00000000000E+00  0.00000000000E+00  0.11328498395E+04  0.11328498395E+04  0.50400001928E-02 0. -1.
       -1   -1    0    0    0  501  0.00000000000E+00  0.00000000000E+00 -0.16089191885E+04  0.16089191885E+04  0.50400001928E-02 0.  1.
    10030    2    1    2    0    0  0.00000000000E+00  0.00000000000E+00 -0.47606934900E+03  0.27417690280E+04  0.27001213636E+04 0.  0.
        3    1    3    3  502    0 -0.46470627178E+03  0.12314865125E+04  0.66851264283E+02  0.13179453901E+04  0.10100000352E+00 0. -1.
       -3    1    3    3    0  502  0.46470627178E+03 -0.12314865125E+04 -0.54292061328E+03  0.14238236380E+04  0.10100000352E+00 0.  1.
</event>
<event>
 5   0  0.1937896E-07  0.2700136E+04  0.7818609E-02  0.8334961E-01
        1   -1    0    0  501    0  0.00000000000E+00  0.00000000000E+00  0.13913974822E+04  0.13913974822E+04  0.50400001928E-02 0.  1.
       -1   -1    0    0    0  501  0.00000000000E+00  0.00000000000E+00 -0.13099665292E+04  0.13099665292E+04  0.50400001928E-02 0. -1.
    10030    2    1    2    0    0  0.00000000000E+00  0.00000000000E+00  0.81430952982E+02  0.27013640114E+04  0.27001363895E+04 0.  0.
        3    1    3    3  502    0 -0.79983793613E+03 -0.10084628602E+04  0.44826545559E+03  0.13629673486E+04  0.10100000352E+00 0. -1.
       -3    1    3    3    0  502  0.79983793613E+03  0.10084628602E+04 -0.36683450260E+03  0.13383966628E+04  0.10100000352E+00 0.  1.
</event>
<event>
 5   0  0.4843887E-07  0.2700587E+04  0.7818609E-02  0.8334815E-01
        2   -1    0    0  501    0  0.00000000000E+00  0.00000000000E+00  0.30051609233E+04  0.30051609233E+04  0.25500000920E-02 0.  1.
       -2   -1    0    0    0  501  0.00000000000E+00  0.00000000000E+00 -0.60672030962E+03  0.60672030963E+03  0.25500000920E-02 0. -1.
    10030    2    1    2    0    0  0.00000000000E+00  0.00000000000E+00  0.23984406137E+04  0.36118812330E+04  0.27005867258E+04 0.  0.
        5    1    3    3  502    0  0.61787537283E+03 -0.11877182974E+04  0.96440342922E+03  0.16500123620E+04  0.46999998093E+01 0. -1.
       -5    1    3    3    0  502 -0.61787537283E+03  0.11877182974E+04  0.14340371845E+04  0.19618688710E+04  0.46999998093E+01 0.  1.
</event>
<event>
 5   0  0.1965415E-07  0.2700626E+04  0.7818609E-02  0.8334802E-01
       -1   -1    0    0    0  501  0.00000000000E+00  0.00000000000E+00  0.16677210230E+04  0.16677210230E+04  0.50400001928E-02 0. -1.
        1   -1    0    0  501    0  0.00000000000E+00  0.00000000000E+00 -0.10933152732E+04  0.10933152732E+04  0.50400001928E-02 0.  1.
    10030    2    1    2    0    0  0.00000000000E+00  0.00000000000E+00  0.57440574985E+03  0.27610362962E+04  0.27006257540E+04 0.  0.
        4    1    3    3  502    0 -0.74008994104E+03  0.11243125738E+04  0.17741657818E+03  0.13576782165E+04  0.12699999809E+01 0. -1.
       -4    1    3    3    0  502  0.74008994104E+03 -0.11243125738E+04  0.39698917166E+03  0.14033580797E+04  0.12699999809E+01 0.  1.
</event>
<event>
 5   0  0.1937896E-07  0.2700353E+04  0.7818609E-02  0.8334890E-01
        1   -1    0    0  501    0  0.00000000000E+00  0.00000000000E+00  0.13830879562E+04  0.13830879562E+04  0.50400001928E-02 0. -1.
       -1   -1    0    0    0  501  0.00000000000E+00  0.00000000000E+00 -0.13180482106E+04  0.13180482106E+04  0.50400001928E-02 0.  1.
    10030    2    1    2    0    0  0.00000000000E+00  0.00000000000E+00  0.65039745587E+02  0.27011361668E+04  0.27003530182E+04 0.  0.
        3    1    3    3  502    0  0.37358191775E+03 -0.53361949538E+03  0.12155138587E+04  0.13790529961E+04  0.10100000352E+00 0. -1.
       -3    1    3    3    0  502 -0.37358191775E+03  0.53361949538E+03 -0.11504741131E+04  0.13220831707E+04  0.10100000352E+00 0.  1.
</event>
<event>
 5   0  0.4735120E-07  0.2699314E+04  0.7818609E-02  0.8335228E-01
       -2   -1    0    0    0  501  0.00000000000E+00  0.00000000000E+00  0.11911848778E+04  0.11911848778E+04  0.25500000920E-02 0. -1.
        2   -1    0    0  501    0  0.00000000000E+00  0.00000000000E+00 -0.15292115741E+04  0.15292115741E+04  0.25500000920E-02 0.  1.
    10030    2    1    2    0    0  0.00000000000E+00  0.00000000000E+00 -0.33802669629E+03  0.27203964519E+04  0.26993137662E+04 0.  0.
        2    1    3    3  502    0 -0.96865619523E+03 -0.31326051922E+03  0.72399237418E+03  0.12492365410E+04  0.25500000920E-02 0. -1.
       -2    1    3    3    0  502  0.96865619523E+03  0.31326051922E+03 -0.10620190705E+04  0.14711599109E+04  0.25500000920E-02 0.  1.
</event>
<event>
 5   0  0.1888149E-07  0.2700244E+04  0.7818609E-02  0.8334926E-01
       -1   -1    0    0    0  501  0.00000000000E+00  0.00000000000E+00  0.94224357531E+03  0.94224357532E+03  0.50400001928E-02 0.  1.
        1   -1    0    0  501    0  0.00000000000E+00  0.00000000000E+00 -0.19345627495E+04  0.19345627495E+04  0.50400001928E-02 0. -1.
    10030    2    1    2    0    0  0.00000000000E+00  0.00000000000E+00 -0.99231917417E+03  0.28768063248E+04  0.27002439310E+04 0.  0.
        1    1    3    3  502    0  0.10346211866E+04  0.35237256852E+03 -0.13405905717E+04  0.17296793078E+04  0.50400001928E-02 0. -1.
       -1    1    3    3    0  502 -0.10346211866E+04 -0.35237256852E+03  0.34827139750E+03  0.11471270170E+04  0.50400001928E-02 0.  1.
</event>
<event>
 5   0  0.4992668E-07  0.2700114E+04  0.7818609E-02  0.8334968E-01
       -2   -1    0    0    0  501  0.00000000000E+00  0.00000000000E+00  0.15469497889E+04  0.15469497889E+04  0.25500000920E-02 0. -1.
        2   -1    0    0  501    0  0.00000000000E+00  0.00000000000E+00 -0.11782241236E+04  0.11782241236E+04  0.25500000920E-02 0.  1.
    10030    2    1    2    0    0  0.00000000000E+00  0.00000000000E+00  0.36872566531E+03  0.27251739125E+04  0.27001137452E+04 0.  0.
        1    1    3    3  502    0  0.29429497261E+03  0.51854378101E+03  0.14068670494E+04  0.15279960990E+04  0.50400001928E-02 0. -1.
       -1    1    3    3    0  502 -0.29429497261E+03 -0.51854378101E+03 -0.10381413841E+04  0.11971778135E+04  0.50400001928E-02 0.  1.
</event>
<event>
 5   0  0.1964242E-07  0.2700812E+04  0.7818609E-02  0.8334741E-01
       -1   -1    0    0    0  501  0.00000000000E+00  0.00000000000E+00  0.85725945935E+03  0.85725945936E+03  0.50400001928E-02 0.  1.
        1   -1    0    0  501    0  0.00000000000E+00  0.00000000000E+00 -0.21272401474E+04  0.21272401474E+04  0.50400001928E-02 0. -1.
    10030    2    1    2    0    0  0.00000000000E+00  0.00000000000E+00 -0.12699806881E+04  0.29844996068E+04  0.27008122769E+04 0.  0.
        2    1    3    3  502    0  0.12634551726E+04  0.47310521337E+03 -0.69988930540E+03  0.15198659664E+04  0.25500000920E-02 0.  1.
       -2    1    3    3    0  502 -0.12634551726E+04 -0.47310521337E+03 -0.57009138268E+03  0.14646336404E+04  0.25500000920E-02 0. -1.
</event>
<event>
 5   0  0.1965415E-07  0.2699900E+04  0.7818609E-02  0.8335038E-01
        1   -1    0    0  501    0  0.00000000000E+00  0.00000000000E+00  0.27498776603E+04  0.27498776603E+04  0.50400001928E-02 0. -1.
       -1   -1    0    0    0  501  0.00000000000E+00  0.00000000000E+00 -0.66270746930E+03  0.66270746932E+03  0.50400001928E-02 0.  1.
    10030    2    1    2    0    0  0.00000000000E+00  0.00000000000E+00  0.20871701910E+04  0.34125851296E+04  0.26998996020E+04 0.  0.
        4    1    3    3  502    0 -0.13140805249E+03 -0.39023123171E+03  0.26685647138E+04  0.27001458729E+04  0.12699999809E+01 0. -1.
       -4    1    3    3    0  502  0.13140805249E+03  0.39023123171E+03 -0.58139452279E+03  0.71243925670E+03  0.12699999809E+01 0.  1.
</event>
<event>
 5   0  0.5043890E-07  0.2699730E+04  0.7818609E-02  0.8335093E-01
        2   -1    0    0  501    0  0.00000000000E+00  0.00000000000E+00  0.15062350280E+04  0.15062350280E+04  0.25500000920E-02 0.  1.
       -2   -1    0    0    0  501  0.00000000000E+00  0.00000000000E+00 -0.12097284217E+04  0.12097284217E+04  0.25500000920E-02 0. -1.
    10030    2    1    2    0    0  0.00000000000E+00  0.00000000000E+00  0.29650660629E+03  0.27159634496E+04  0.26997298554E+04 0.  0.
        3    1    3    3  502    0 -0.53778620717E+03  0.21058100195E+03 -0.10791555648E+04  0.12239832949E+04  0.10100000352E+00 0. -1.
       -3    1    3    3    0  502  0.53778620717E+03 -0.21058100195E+03  0.13756621711E+04  0.14919801547E+04  0.10100000352E+00 0.  1.
</event>
<event>
 5   0  0.1937896E-07  0.2698535E+04  0.7818609E-02  0.8335480E-01
        1   -1    0    0  501    0  0.00000000000E+00  0.00000000000E+00  0.17967588078E+04  0.17967588078E+04  0.50400001928E-02 0.  1.
       -1   -1    0    0    0  501  0.00000000000E+00  0.00000000000E+00 -0.10132260887E+04  0.10132260887E+04  0.50400001928E-02 0. -1.
    10030    2    1    2    0    0  0.00000000000E+00  0.00000000000E+00  0.78353271915E+03  0.28099848965E+04  0.26985350834E+04 0.  0.
        3    1    3    3  502    0  0.87466692113E+03 -0.82924713864E+03  0.10233042345E+04  0.15810896895E+04  0.10100000352E+00 0.  1.
       -3    1    3    3    0  502 -0.87466692113E+03  0.82924713864E+03 -0.23977151533E+03  0.12288952069E+04  0.10100000352E+00 0. -1.
</event>
<event>
 5   0  0.4735120E-07  0.2698959E+04  0.7818609E-02  0.8335343E-01
       -2   -1    0    0    0  501  0.00000000000E+00  0.00000000000E+00  0.14888491331E+04  0.14888491331E+04  0.25500000920E-02 0.  1.
        2   -1    0    0  501    0  0.00000000000E+00  0.00000000000E+00 -0.12231562560E+04  0.12231562560E+04  0.25500000920E-02 0. -1.
    10030    2    1    2    0    0  0.00000000000E+00  0.00000000000E+00  0.26569287707E+03  0.27120053891E+04  0.26989591559E+04 0.  0.
        2    1    3    3  502    0  0.17932925697E+03  0.26838532381E+03  0.14494875986E+04  0.14849929168E+04  0.25500000920E-02 0.  1.
       -2    1    3    3    0  502 -0.17932925697E+03 -0.26838532381E+03 -0.11837947215E+04  0.12270124723E+04  0.25500000920E-02 0. -1.
</event>
<event>
 5   0  0.5043890E-07  0.2700186E+04  0.7818609E-02  0.8334945E-01
       -2   -1    0    0    0  501  0.00000000000E+00  0.00000000000E+00  0.10188411862E+04  0.10188411862E+04  0.25500000920E-02 0.  1.
        2   -1    0    0  501    0  0.00000000000E+00  0.00000000000E+00 -0.17890434906E+04  0.17890434906E+04  0.25500000920E-02 0. -1.
    10030    2    1    2    0    0  0.00000000000E+00  0.00000000000E+00 -0.77020230440E+03  0.28078846768E+04  0.27001860619E+04 0.  0.
        3    1    3    3  502    0 -0.94816833294E+03  0.52659696165E+03  0.45097182926E+03  0.11746076573E+04  0.10100000352E+00 0.  1.
       -3    1    3    3    0  502  0.94816833294E+03 -0.52659696165E+03 -0.12211741337E+04  0.16332770195E+04  0.10100000352E+00 0. -1.
</event>
<event>
 5   0  0.4735120E-07  0.2700248E+04  0.7818609E-02  0.8334924E-01
        2   -1    0    0  501    0  0.00000000000E+00  0.00000000000E+00  0.67753584307E+03  0.67753584307E+03  0.25500000920E-02 0.  1.
       -2   -1    0    0    0  501  0.00000000000E+00  0.00000000000E+00 -0.26903894585E+04  0.26903894585E+04  0.25500000920E-02 0. -1.
    10030    2    1    2    0    0  0.00000000000E+00  0.00000000000E+00 -0.20128536154E+04  0.33679253016E+04  0.27002483515E+04 0.  0.
        2    1    3    3  502    0 -0.10771871723E+04 -0.80782841299E+03 -0.88222312648E+03  0.16097318391E+04  0.25500000920E-02 0.  1.
       -2    1    3    3    0  502  0.10771871723E+04  0.80782841299E+03 -0.11306304889E+04  0.17581934625E+04  0.25500000920E-02 0. -1.
</event>
<event>
 5   0  0.4735120E-07  0.2693230E+04  0.7818609E-02  0.8337205E-01
       -2   -1    0    0    0  501  0.00000000000E+00  0.00000000000E+00  0.73543592792E+03  0.73543592792E+03  0.25500000920E-02 0.  1.
        2   -1    0    0  501    0  0.00000000000E+00  0.00000000000E+00 -0.24657100003E+04  0.24657100003E+04  0.25500000920E-02 0. -1.
    10030    2    1    2    0    0  0.00000000000E+00  0.00000000000E+00 -0.17302740724E+04  0.32011459283E+04  0.26932298246E+04 0.  0.
        2    1    3    3  502    0 -0.65088972909E+03  0.11786023895E+04 -0.83576443002E+03  0.15846965686E+04  0.25500000920E-02 0.  1.
       -2    1    3    3    0  502  0.65088972909E+03 -0.11786023895E+04 -0.89450964239E+03  0.16164493597E+04  0.25500000920E-02 0. -1.
</event>
<event>
 5   0  0.1971600E-07  0.2701000E+04  0.7818609E-02  0.8334680E-01
       -1   -1    0    0    0  501  0.00000000000E+00  0.00000000000E+00  0.77118630797E+03  0.77118630799E+03  0.50400001928E-02 0.  1.
        1   -1    0    0  501    0  0.00000000000E+00  0.00000000000E+00 -0.23649936280E+04  0.23649936281E+04  0.50400001928E-02 0. -1.
    10030    2    1    2    0    0  0.00000000000E+00  0.00000000000E+00 -0.15938073201E+04  0.31361799360E+04  0.27010003365E+04 0.  0.
        5    1    3    3  502    0 -0.89571242073E+03 -0.77812909740E+03 -0.15458409137E+04  0.19487000419E+04  0.46999998093E+01 0. -1.
       -5    1    3    3    0  502  0.89571242073E+03  0.77812909740E+03 -0.47966406401E+02  0.11874798942E+04  0.46999998093E+01 0.  1.
</event>
<event>
 5   0  0.1888149E-07  0.2700964E+04  0.7818609E-02  0.8334692E-01
       -1   -1    0    0    0  501  0.00000000000E+00  0.00000000000E+00  0.82477858850E+03  0.82477858851E+03  0.50400001928E-02 0. -1.
        1   -1    0    0  501    0  0.00000000000E+00  0.00000000000E+00 -0.22112614334E+04  0.22112614334E+04  0.50400001928E-02 0.  1.
    10030    2    1    2    0    0  0.00000000000E+00  0.00000000000E+00 -0.13864828449E+04  0.30360400219E+04  0.27009635939E+04 0.  0.
        1    1    3    3  502    0 -0.12398417837E+03 -0.12822922107E+04 -0.23781655867E+03  0.13100389711E+04  0.50400001928E-02 0. -1.
       -1    1    3    3    0  502  0.12398417837E+03  0.12822922107E+04 -0.11486662862E+04  0.17260010508E+04  0.50400001928E-02 0.  1.
</event>
<event>
 5   0  0.4735120E-07  0.2701187E+04  0.7818609E-02  0.8334620E-01
       -2   -1    0    0    0  501  0.00000000000E+00  0.00000000000E+00  0.16226537548E+04  0.16226537548E+04  0.25500000920E-02 0. -1.
        2   -1    0    0  501    0  0.00000000000E+00  0.00000000000E+00 -0.11241480405E+04  0.11241480405E+04  0.25500000920E-02 0.  1.
    10030    2    1    2    0    0  0.00000000000E+00  0.00000000000E+00  0.49850571423E+03  0.27468017953E+04  0.27011871752E+04 0.  0.
        2    1    3    3  502    0 -0.47603715172E+03 -0.12325012004E+04  0.53404012028E+03  0.14250857619E+04  0.25500000920E-02 0. -1.
       -2    1    3    3    0  502  0.47603715172E+03  0.12325012004E+04 -0.35534406046E+02  0.13217160334E+04  0.25500000920E-02 0.  1.
</event>
<event>
 5   0  0.4735120E-07  0.2698827E+04  0.7818609E-02  0.8335386E-01
        2   -1    0    0  501    0  0.00000000000E+00  0.00000000000E+00  0.19478534156E+04  0.19478534156E+04  0.25500000920E-02 0.  1.
       -2   -1    0    0    0  501  0.00000000000E+00  0.00000000000E+00 -0.93483231097E+03  0.93483231098E+03  0.25500000920E-02 0. -1.
    10030    2    1    2    0    0  0.00000000000E+00  0.00000000000E+00  0.10130211047E+04  0.28826857266E+04  0.26988266413E+04 0.  0.
        2    1    3    3  502    0  0.83853632695E+03 -0.58013031245E+03  0.14505921454E+04  0.17731079841E+04  0.25500000920E-02 0.  1.
       -2    1    3    3    0  502 -0.83853632695E+03  0.58013031245E+03 -0.43757104070E+03  0.11095777425E+04  0.25500000920E-02 0. -1.
</event>
<event>
 5   0  0.5043890E-07  0.2701219E+04  0.7818609E-02  0.8334609E-01
        2   -1    0    0  501    0  0.00000000000E+00  0.00000000000E+00  0.22322717067E+04  0.22322717067E+04  0.25500000920E-02 0. -1.
       -2   -1    0    0    0  501  0.00000000000E+00  0.00000000000E+00 -0.81717045092E+03  0.81717045092E+03  0.25500000920E-02 0.  1.
    10030    2    1    2    0    0  0.00000000000E+00  0.00000000000E+00  0.14151012558E+04  0.30494421576E+04  0.27012193374E+04 0.  0.
        3    1    3    3  502    0 -0.54822973435E+03  0.12291739570E+04  0.83488287275E+03  0.15838099253E+04  0.10100000352E+00 0. -1.
       -3    1    3    3    0  502  0.54822973435E+03 -0.12291739570E+04  0.58021838300E+03  0.14656322323E+04  0.10100000352E+00 0.  1.
</event>
<event>
 5   0  0.1964242E-07  0.2700515E+04  0.7818609E-02  0.8334838E-01
        1   -1    0    0  501    0  0.00000000000E+00  0.00000000000E+00  0.16275922932E+04  0.16275922932E+04  0.50400001928E-02 0.  1.
       -1   -1    0    0    0  501  0.00000000000E+00  0.00000000000E+00 -0.11201797002E+04  0.11201797002E+04  0.50400001928E-02 0. -1.
    10030    2    1    2    0    0  0.00000000000E+00  0.00000000000E+00  0.50741259308E+03  0.27477719934E+04  0.27005153931E+04 0.  0.
        2    1    3    3  502    0  0.81609705586E+03  0.10199132164E+04  0.60168276896E+03  0.14381444740E+04  0.25500000920E-02 0.  1.
       -2    1    3    3    0  502 -0.81609705586E+03 -0.10199132164E+04 -0.94270175876E+02  0.13096275194E+04  0.25500000920E-02 0. -1.
</event>
<event>
 5   0  0.1888149E-07  0.2703749E+04  0.7818609E-02  0.8333789E-01
       -1   -1    0    0    0  501  0.00000000000E+00  0.00000000000E+00  0.10811069841E+04  0.10811069841E+04  0.50400001928E-02 0.  1.
        1   -1    0    0  501    0  0.00000000000E+00  0.00000000000E+00 -0.16904573430E+04  0.16904573430E+04  0.50400001928E-02 0. -1.
    10030    2    1    2    0    0  0.00000000000E+00  0.00000000000E+00 -0.60935035890E+03  0.27715643270E+04  0.27037494261E+04 0.  0.
        1    1    3    3  502    0 -0.25661848199E+03 -0.11559809356E+04  0.36392673005E+03  0.12387847406E+04  0.50400001928E-02 0.  1.
       -1    1    3    3    0  502  0.25661848199E+03  0.11559809356E+04 -0.97327708895E+03  0.15327795864E+04  0.50400001928E-02 0. -1.
</event>
<event>
 5   0  0.4735120E-07  0.2699532E+04  0.7818609E-02  0.8335157E-01
       -2   -1    0    0    0  501  0.00000000000E+00  0.00000000000E+00  0.12966157067E+04  0.12966157067E+04  0.25500000920E-02 0.  1.
        2   -1    0    0  501    0  0.00000000000E+00  0.00000000000E+00 -0.14050953096E+04  0.14050953096E+04  0.25500000920E-02 0. -1.
    10030    2    1    2    0    0  0.00000000000E+00  0.00000000000E+00 -0.10847960292E+03  0.27017110163E+04  0.26995322912E+04 0.  0.
        2    1    3    3  502    0  0.86641939592E+03 -0.87969106991E+03  0.49147974938E+03  0.13289436753E+04  0.25500000920E-02 0.  1.
       -2    1    3    3    0  502 -0.86641939592E+03  0.87969106991E+03 -0.59995935230E+03  0.13727673410E+04  0.25500000920E-02 0. -1.
</event>
<event>
 5   0  0.4843887E-07  0.2699594E+04  0.7818609E-02  0.8335137E-01
        2   -1    0    0  501    0  0.00000000000E+00  0.00000000000E+00  0.16968961823E+04  0.16968961823E+04  0.25500000920E-02 0. -1.
       -2   -1    0    0    0  501  0.00000000000E+00  0.00000000000E+00 -0.10736965843E+04  0.10736965843E+04  0.25500000920E-02 0.  1.
    10030    2    1    2    0    0  0.00000000000E+00  0.00000000000E+00  0.62319959801E+03  0.27705927665E+04  0.26995937730E+04 0.  0.
        5    1    3    3  502    0 -0.56578553830E+03  0.36900964075E+03  0.15109435852E+04  0.16550691822E+04  0.46999998093E+01 0. -1.
       -5    1    3    3    0  502  0.56578553830E+03 -0.36900964075E+03 -0.88774398719E+03  0.11155235843E+04  0.46999998093E+01 0.  1.
</event>
<event>
 5   0  0.1964242E-07  0.2698271E+04  0.7818609E-02  0.8335566E-01
        1   -1    0    0  501    0  0.00000000000E+00  0.00000000000E+00  0.13404133274E+04  0.13404133275E+04  0.50400001928E-02 0.  1.
       -1   -1    0    0    0  501  0.00000000000E+00  0.00000000000E+00 -0.13579141247E+04  0.13579141247E+04  0.50400001928E-02 0. -1.
    10030    2    1    2    0    0  0.00000000000E+00  0.00000000000E+00 -0.17500797229E+02  0.26983274521E+04  0.26982706982E+04 0.  0.
        2    1    3    3  502    0  0.81245838937E+03  0.11385433492E+03  0.10623065570E+04  0.13422170708E+04  0.25500000920E-02 0.  1.
       -2    1    3    3    0  502 -0.81245838937E+03 -0.11385433492E+03 -0.10798073543E+04  0.13561103813E+04  0.25500000920E-02 0. -1.
</event>
<event>
 5   0  0.1971600E-07  0.2698338E+04  0.7818609E-02  0.8335544E-01
       -1   -1    0    0    0  501  0.00000000000E+00  0.00000000000E+00  0.91176999163E+03  0.91176999164E+03  0.50400001928E-02 0.  1.
        1   -1    0    0  501    0  0.00000000000E+00  0.00000000000E+00 -0.19963991668E+04  0.19963991668E+04  0.50400001928E-02 0. -1.
    10030    2    1    2    0    0  0.00000000000E+00  0.00000000000E+00 -0.10846291752E+04  0.29081691585E+04  0.26983378971E+04 0.  0.
        5    1    3    3  502    0 -0.10624782821E+04 -0.70010515470E+03 -0.10257816882E+04  0.16343982041E+04  0.46999998093E+01 0. -1.
       -5    1    3    3    0  502  0.10624782821E+04  0.70010515470E+03 -0.58847487014E+02  0.12737709544E+04  0.46999998093E+01 0.  1.
</event>
<event>
 5   0  0.4983208E-07  0.2699704E+04  0.7818609E-02  0.8335101E-01
        2   -1    0    0  501    0  0.00000000000E+00  0.00000000000E+00  0.20070969959E+04  0.20070969959E+04  0.25500000920E-02 0.  1.
       -2   -1    0    0    0  501  0.00000000000E+00  0.00000000000E+00 -0.90782857152E+03  0.90782857152E+03  0.25500000920E-02 0. -1.
    10030    2    1    2    0    0  0.00000000000E+00  0.00000000000E+00  0.10992684244E+04  0.29149255674E+04  0.26997036865E+04 0.  0.
        4    1    3    3  502    0  0.98205492481E+03  0.91916048840E+03  0.42742764952E+03  0.14113765930E+04  0.12699999809E+01 0. -1.
       -4    1    3    3    0  502 -0.98205492481E+03 -0.91916048840E+03  0.67184077485E+03  0.15035489744E+04  0.12699999809E+01 0.  1.
</event>
<event>
 5   0  0.1937896E-07  0.2700378E+04  0.7818609E-02  0.8334882E-01
        1   -1    0    0  501    0  0.00000000000E+00  0.00000000000E+00  0.20130339415E+04  0.20130339415E+04  0.50400001928E-02 0. -1.
       -1   -1    0    0    0  501  0.00000000000E+00  0.00000000000E+00 -0.90560316369E+03  0.90560316371E+03  0.50400001928E-02 0.  1.
    10030    2    1    2    0    0  0.00000000000E+00  0.00000000000E+00  0.11074307778E+04  0.29186371052E+04  0.27003776818E+04 0.  0.
        3    1    3    3  502    0  0.76220716411E+03  0.10765224335E+04  0.24205211195E+03  0.13410628419E+04  0.10100000352E+00 0.  1.
       -3    1    3    3    0  502 -0.76220716411E+03 -0.10765224335E+04  0.86537866583E+03  0.15775742633E+04  0.10100000352E+00 0. -1.
</event>
<event>
 5   0  0.1964242E-07  0.2700556E+04  0.7818609E-02  0.8334825E-01
       -1   -1    0    0    0  501  0.00000000000E+00  0.00000000000E+00  0.12099019402E+04  0.12099019402E+04  0.50400001928E-02 0.  1.
        1   -1    0    0  501    0  0.00000000000E+00  0.00000000000E+00 -0.15069409409E+04  0.15069409409E+04  0.50400001928E-02 0. -1.
    10030    2    1    2    0    0  0.00000000000E+00  0.00000000000E+00 -0.29703900069E+03  0.27168428811E+04  0.27005560673E+04 0.  0.
        2    1    3    3  502    0 -0.87605275391E+03 -0.16147877396E+03  0.87234510415E+03  0.12468078452E+04  0.25500000920E-02 0.  1.
       -2    1    3    3    0  502  0.87605275391E+03  0.16147877396E+03 -0.11693841048E+04  0.14700350359E+04  0.25500000920E-02 0. -1.
</event>
<event>
 5   0  0.4735120E-07  0.2701163E+04  0.7818609E-02  0.8334628E-01
       -2   -1    0    0    0  501  0.00000000000E+00  0.00000000000E+00  0.10946426371E+04  0.10946426372E+04  0.25500000920E-02 0.  1.
        2   -1    0    0  501    0  0.00000000000E+00  0.00000000000E+00 -0.16663610855E+04  0.16663610855E+04  0.25500000920E-02 0. -1.
    10030    2    1    2    0    0  0.00000000000E+00  0.00000000000E+00 -0.57171844833E+03  0.27610037226E+04  0.27011626334E+04 0.  0.
        2    1    3    3  502    0 -0.82226271925E+02  0.12892540029E+04  0.11673555942E+03  0.12971369375E+04  0.25500000920E-02 0.  1.
       -2    1    3    3    0  502  0.82226271925E+02 -0.12892540029E+04 -0.68845400775E+03  0.14638667851E+04  0.25500000920E-02 0. -1.
</event>
<event>
 5   0  0.4843887E-07  0.2699804E+04  0.7818609E-02  0.8335069E-01
       -2   -1    0    0    0  501  0.00000000000E+00  0.00000000000E+00  0.12814644963E+04  0.12814644963E+04  0.25500000920E-02 0. -1.
        2   -1    0    0  501    0  0.00000000000E+00  0.00000000000E+00 -0.14219943305E+04  0.14219943305E+04  0.25500000920E-02 0.  1.
    10030    2    1    2    0    0  0.00000000000E+00  0.00000000000E+00 -0.14052983420E+03  0.27034588268E+04  0.26998038806E+04 0.  0.
        5    1    3    3  502    0  0.16575100308E+03  0.72942590543E+03 -0.11954754337E+04  0.14102195394E+04  0.46999998093E+01 0.  1.
       -5    1    3    3    0  502 -0.16575100308E+03 -0.72942590543E+03  0.10549455995E+04  0.12932392874E+04  0.46999998093E+01 0. -1.
</event>
<event>
 5   0  0.1965415E-07  0.2694381E+04  0.7818609E-02  0.8336830E-01
        1   -1    0    0  501    0  0.00000000000E+00  0.00000000000E+00  0.14890966441E+04  0.14890966441E+04  0.50400001928E-02 0. -1.
       -1   -1    0    0    0  501  0.00000000000E+00  0.00000000000E+00 -0.12188074543E+04  0.12188074543E+04  0.50400001928E-02 0.  1.
    10030    2    1    2    0    0  0.00000000000E+00  0.00000000000E+00  0.27028918979E+03  0.27079040984E+04  0.26943808862E+04 0.  0.
        4    1    3    3  502    0  0.80983302230E+03 -0.49178917058E+03 -0.82738579278E+03  0.12578771702E+04  0.12699999809E+01 0.  1.
       -4    1    3    3    0  502 -0.80983302230E+03  0.49178917058E+03  0.10976749826E+04  0.14500269282E+04  0.12699999809E+01 0. -1.
</event>
<event>
 5   0  0.4843887E-07  0.2699758E+04  0.7818609E-02  0.8335083E-01
       -2   -1    0    0    0  501  0.00000000000E+00  0.00000000000E+00  0.10418518438E+04  0.10418518438E+04  0.25500000920E-02 0.  1.
        2   -1    0    0  501    0  0.00000000000E+00  0.00000000000E+00 -0.17489755883E+04  0.17489755883E+04  0.25500000920E-02 0. -1.
    10030    2    1    2    0    0  0.00000000000E+00  0.00000000000E+00 -0.70712374451E+03  0.27908274321E+04  0.26997580940E+04 0.  0.
        5    1    3    3  502    0 -0.75666003209E+01 -0.24541020679E+03  0.10185666952E+04  0.10477517004E+04  0.46999998093E+01 0.  1.
       -5    1    3    3    0  502  0.75666003209E+01  0.24541020679E+03 -0.17256904397E+04  0.17430757318E+04  0.46999998093E+01 0. -1.
</event>
<event>
 5   0  0.1937896E-07  0.2699938E+04  0.7818609E-02  0.8335025E-01
       -1   -1    0    0    0  501  0.00000000000E+00  0.00000000000E+00  0.13497039163E+04  0.13497039163E+04  0.50400001928E-02 0. -1.
        1   -1    0    0  501    0  0.00000000000E+00  0.00000000000E+00 -0.13502341216E+04  0.13502341216E+04  0.50400001928E-02 0.  1.
    10030    2    1    2    0    0  0.00000000000E+00  0.00000000000E+00 -0.53020523827E+00  0.26999380379E+04  0.26999379858E+04 0.  0.
        3    1    3    3  502    0 -0.31258636960E+02 -0.10471384655E+04  0.85116911756E+03  0.13498018170E+04  0.10100000352E+00 0. -1.
       -3    1    3    3    0  502  0.31258636960E+02  0.10471384655E+04 -0.85169932280E+03  0.13501362209E+04  0.10100000352E+00 0.  1.
</event>
<event>
 5   0  0.4735120E-07  0.2699916E+04  0.7818609E-02  0.8335032E-01
        2   -1    0    0  501    0  0.00000000000E+00  0.00000000000E+00  0.13371038462E+04  0.13371038462E+04  0.25500000920E-02 0. -1.
       -2   -1    0    0    0  501  0.00000000000E+00  0.00000000000E+00 -0.13629359727E+04  0.13629359727E+04  0.25500000920E-02 0.  1.
    10030    2    1    2    0    0  0.00000000000E+00  0.00000000000E+00 -0.25832126544E+02  0.27000398190E+04  0.26999162441E+04 0.  0.
        2    1    3    3  502    0  0.47323876925E+03 -0.75821064791E+01 -0.12772422982E+04  0.13621161145E+04  0.25500000920E-02 0.  1.
       -2    1    3    3    0  502 -0.47323876925E+03  0.75821064791E+01  0.12514101717E+04  0.13379237044E+04  0.25500000920E-02 0. -1.
</event>
<event>
 5   0  0.5043890E-07  0.2699241E+04  0.7818609E-02  0.8335251E-01
        2   -1    0    0  501    0  0.00000000000E+00  0.00000000000E+00  0.20087308200E+04  0.20087308200E+04  0.25500000920E-02 0. -1.
       -2   -1    0    0    0  501  0.00000000000E+00  0.00000000000E+00 -0.90677925992E+03  0.90677925992E+03  0.25500000920E-02 0.  1.
    10030    2    1    2    0    0  0.00000000000E+00  0.00000000000E+00  0.11019515601E+04  0.29155100799E+04  0.26992409647E+04 0.  0.
        3    1    3    3  502    0  0.13105255321E+04  0.19747595440E+03  0.27559436672E+03  0.13536713737E+04  0.10100000352E+00 0.  1.
       -3    1    3    3    0  502 -0.13105255321E+04 -0.19747595440E+03  0.82635719335E+03  0.15618387062E+04  0.10100000352E+00 0. -1.
</event>
<event>
 5   0  0.4992668E-07  0.2689241E+04  0.7818609E-02  0.8338504E-01
       -2   -1    0    0    0  501  0.00000000000E+00  0.00000000000E+00  0.93334384977E+03  0.93334384978E+03  0.25500000920E-02 0. -1.
        2   -1    0    0  501    0  0.00000000000E+00  0.00000000000E+00 -0.19371254509E+04  0.19371254509E+04  0.25500000920E-02 0.  1.
    10030    2    1    2    0    0  0.00000000000E+00  0.00000000000E+00 -0.10037816011E+04  0.28704693007E+04  0.26892408786E+04 0.  0.
        1    1    3    3  502    0  0.50666496318E+03 -0.11600739028E+04 -0.17992926193E+02  0.12660191903E+04  0.50400001928E-02 0.  1.
       -1    1    3    3    0  502 -0.50666496318E+03  0.11600739028E+04 -0.98578867491E+03  0.16044501103E+04  0.50400001928E-02 0. -1.
</event>
<event>
 5   0  0.1888149E-07  0.2700455E+04  0.7818609E-02  0.8334858E-01
       -1   -1    0    0    0  501  0.00000000000E+00  0.00000000000E+00  0.12644630573E+04  0.12644630573E+04  0.50400001928E-02 0. -1.
        1   -1    0    0  501    0  0.00000000000E+00  0.00000000000E+00 -0.14418085701E+04  0.14418085701E+04  0.50400001928E-02 0.  1.
    10030    2    1    2    0    0  0.00000000000E+00  0.00000000000E+00 -0.17734551277E+03  0.27062716274E+04  0.27004545341E+04 0.  0.
        1    1    3    3  502    0 -0.70280783029E+03  0.60779396794E+03 -0.10704571765E+04  0.14174734285E+04  0.50400001928E-02 0.  1.
       -1    1    3    3    0  502  0.70280783029E+03 -0.60779396794E+03  0.89311166370E+03  0.12887981990E+04  0.50400001928E-02 0. -1.
</event>
<event>
 5   0  0.5043890E-07  0.2705726E+04  0.7818609E-02  0.8333150E-01
       -2   -1    0    0    0  501  0.00000000000E+00  0.00000000000E+00  0.20312550364E+04  0.20312550364E+04  0.25500000920E-02 0. -1.
        2   -1    0    0  501    0  0.00000000000E+00  0.00000000000E+00 -0.90103809713E+03  0.90103809713E+03  0.25500000920E-02 0.  1.
    10030    2    1    2    0    0  0.00000000000E+00  0.00000000000E+00  0.11302169393E+04  0.29322931336E+04  0.27057259084E+04 0.  0.
        3    1    3    3  502    0 -0.87832486146E+03  0.47907286357E+03 -0.42178958171E+03  0.10857586437E+04  0.10100000352E+00 0.  1.
       -3    1    3    3    0  502  0.87832486146E+03 -0.47907286357E+03  0.15520065210E+04  0.18465344899E+04  0.10100000352E+00 0. -1.
</event>
<event>
 5   0  0.1965415E-07  0.2702856E+04  0.7818609E-02  0.8334079E-01
        1   -1    0    0  501    0  0.00000000000E+00  0.00000000000E+00  0.18482023082E+04  0.18482023082E+04  0.50400001928E-02 0. -1.
       -1   -1    0    0    0  501  0.00000000000E+00  0.00000000000E+00 -0.98818086375E+03  0.98818086376E+03  0.50400001928E-02 0.  1.
    10030    2    1    2    0    0  0.00000000000E+00  0.00000000000E+00  0.86002144448E+03  0.28363831720E+04  0.27028563805E+04 0.  0.
        4    1    3    3  502    0  0.30343705207E+03  0.14235672054E+03  0.18038929342E+04  0.18347672363E+04  0.12699999809E+01 0. -1.
       -4    1    3    3    0  502 -0.30343705207E+03 -0.14235672054E+03 -0.94387148977E+03  0.10016159357E+04  0.12699999809E+01 0.  1.
</event>
<event>
 5   0  0.4843887E-07  0.2700976E+04  0.7818609E-02  0.8334688E-01
        2   -1    0    0  501    0  0.00000000000E+00  0.00000000000E+00  0.11839090763E+04  0.11839090763E+04  0.25500000920E-02 0.  1.
       -2   -1    0    0    0  501  0.00000000000E+00  0.00000000000E+00 -0.15405047169E+04  0.15405047169E+04  0.25500000920E-02 0. -1.
    10030    2    1    2    0    0  0.00000000000E+00  0.00000000000E+00 -0.35659564063E+03  0.27244137932E+04  0.27009757618E+04 0.  0.
        5    1    3    3  502    0 -0.89406469127E+03  0.24454636185E+03 -0.11689819454E+04  0.14918764942E+04  0.46999998093E+01 0. -1.
       -5    1    3    3    0  502  0.89406469127E+03 -0.24454636185E+03  0.81238630477E+03  0.12325372990E+04  0.46999998093E+01 0.  1.
</event>
<event>
 5   0  0.1965415E-07  0.2700893E+04  0.7818609E-02  0.8334715E-01
        1   -1    0    0  501    0  0.00000000000E+00  0.00000000000E+00  0.14369674881E+04  0.14369674881E+04  0.50400001928E-02 0.  1.
       -1   -1    0    0    0  501  0.00000000000E+00  0.00000000000E+00 -0.12691353386E+04  0.12691353386E+04  0.50400001928E-02 0. -1.
    10030    2    1    2    0    0  0.00000000000E+00  0.00000000000E+00  0.16783214951E+03  0.27061028267E+04  0.27008933482E+04 0.  0.
        4    1    3    3  502    0 -0.55391213303E+03  0.48673872497E+03 -0.10496242837E+04  0.12827493860E+04  0.12699999809E+01 0. -1.
       -4    1    3    3    0  502  0.55391213303E+03 -0.48673872497E+03  0.12174564332E+04  0.14233534407E+04  0.12699999809E+01 0.  1.
</event>
<event>
 5   0  0.1971600E-07  0.2700229E+04  0.7818609E-02  0.8334931E-01
        1   -1    0    0  501    0  0.00000000000E+00  0.00000000000E+00  0.16345494226E+04  0.16345494226E+04  0.50400001928E-02 0.  1.
       -1   -1    0    0    0  501  0.00000000000E+00  0.00000000000E+00 -0.11151755795E+04  0.11151755795E+04  0.50400001928E-02 0. -1.
    10030    2    1    2    0    0  0.00000000000E+00  0.00000000000E+00  0.51937384313E+03  0.27497250021E+04  0.27002293233E+04 0.  0.
        5    1    3    3  502    0  0.79436078745E+03  0.92618090611E+03 -0.32880517801E+03  0.12637068753E+04  0.46999998093E+01 0. -1.
       -5    1    3    3    0  502 -0.79436078745E+03 -0.92618090611E+03  0.84817902114E+03  0.14860181269E+04  0.46999998093E+01 0.  1.
</event>
<event>
 5   0  0.4992668E-07  0.2700776E+04  0.7818609E-02  0.8334753E-01
        2   -1    0    0  501    0  0.00000000000E+00  0.00000000000E+00  0.12661426716E+04  0.12661426716E+04  0.25500000920E-02 0. -1.
       -2   -1    0    0    0  501  0.00000000000E+00  0.00000000000E+00 -0.14402389079E+04  0.14402389079E+04  0.25500000920E-02 0.  1.
    10030    2    1    2    0    0  0.00000000000E+00  0.00000000000E+00 -0.17409623631E+03  0.27063815796E+04  0.27007761393E+04 0.  0.
        1    1    3    3  502    0  0.31528874015E+03 -0.46375236073E+03 -0.13180417589E+04  0.14323782042E+04  0.50400001928E-02 0.  1.
       -1    1    3    3    0  502 -0.31528874015E+03  0.46375236073E+03  0.11439455226E+04  0.12740033753E+04  0.50400001928E-02 0. -1.
</event>
<event>
 5   0  0.4983208E-07  0.2699135E+04  0.7818609E-02  0.8335286E-01
       -2   -1    0    0    0  501  0.00000000000E+00  0.00000000000E+00  0.11988619371E+04  0.11988619371E+04  0.25500000920E-02 0.  1.
        2   -1    0    0  501    0  0.00000000000E+00  0.00000000000E+00 -0.15192179818E+04  0.15192179818E+04  0.25500000920E-02 0. -1.
    10030    2    1    2    0    0  0.00000000000E+00  0.00000000000E+00 -0.32035604465E+03  0.27180799189E+04  0.26991351300E+04 0.  0.
        4    1    3    3  502    0  0.12414015157E+04 -0.21820475390E+03 -0.64589105114E+03  0.14162866591E+04  0.12699999809E+01 0. -1.
       -4    1    3    3    0  502 -0.12414015157E+04  0.21820475390E+03  0.32553500650E+03  0.13017932598E+04  0.12699999809E+01 0.  1.
</event>
<event>
 5   0  0.5043890E-07  0.2689701E+04  0.7818609E-02  0.8338354E-01
       -2   -1    0    0    0  501  0.00000000000E+00  0.00000000000E+00  0.63924244564E+03  0.63924244564E+03  0.25500000920E-02 0.  1.
        2   -1    0    0  501    0  0.00000000000E+00  0.00000000000E+00 -0.28293214593E+04  0.28293214593E+04  0.25500000920E-02 0. -1.
    10030    2    1    2    0    0  0.00000000000E+00  0.00000000000E+00 -0.21900790136E+04  0.34685639049E+04  0.26897006295E+04 0.  0.
        3    1    3    3  502    0 -0.85561147751E+03 -0.10272447620E+04 -0.90674621509E+03  0.16153920609E+04  0.10100000352E+00 0. -1.
       -3    1    3    3    0  502  0.85561147751E+03  0.10272447620E+04 -0.12833327985E+04  0.18531718440E+04  0.10100000352E+00 0.  1.
</event>
<event>
 5   0  0.1965415E-07  0.2697693E+04  0.7818609E-02  0.8335754E-01
       -1   -1    0    0    0  501  0.00000000000E+00  0.00000000000E+00  0.10991917640E+04  0.10991917640E+04  0.50400001928E-02 0. -1.
        1   -1    0    0  501    0  0.00000000000E+00  0.00000000000E+00 -0.16552038108E+04  0.16552038109E+04  0.50400001928E-02 0.  1.
    10030    2    1    2    0    0  0.00000000000E+00  0.00000000000E+00 -0.55601204682E+03  0.27543955749E+04  0.26976926413E+04 0.  0.
        4    1    3    3  502    0 -0.50890662794E+03 -0.34947374208E+03 -0.15024913701E+04  0.16243767367E+04  0.12699999809E+01 0.  1.
       -4    1    3    3    0  502  0.50890662794E+03  0.34947374208E+03  0.94647932332E+03  0.11300188382E+04  0.12699999809E+01 0. -1.
</event>
<event>
 5   0  0.1964242E-07  0.2701268E+04  0.7818609E-02  0.8334594E-01
        1   -1    0    0  501    0  0.00000000000E+00  0.00000000000E+00  0.21879036202E+04  0.21879036202E+04  0.50400001928E-02 0. -1.
       -1   -1    0    0    0  501  0.00000000000E+00  0.00000000000E+00 -0.83377187355E+03  0.83377187356E+03  0.50400001928E-02 0.  1.
    10030    2    1    2    0    0  0.00000000000E+00  0.00000000000E+00  0.13541317467E+04  0.30216754938E+04  0.27012682211E+04 0.  0.
        2    1    3    3  502    0 -0.63692706499E+03  0.84536145367E+03 -0.26143726099E+03  0.10902575452E+04  0.25500000920E-02 0.  1.
       -2    1    3    3    0  502  0.63692706499E+03 -0.84536145367E+03  0.16155690077E+04  0.19314179486E+04  0.25500000920E-02 0. -1.
</event>
<event>
 5   0  0.4843887E-07  0.2699821E+04  0.7818609E-02  0.8335063E-01
        2   -1    0    0  501    0  0.00000000000E+00  0.00000000000E+00  0.25628616653E+04  0.25628616653E+04  0.25500000920E-02 0. -1.
       -2   -1    0    0    0  501  0.00000000000E+00  0.00000000000E+00 -0.71102475814E+03  0.71102475814E+03  0.25500000920E-02 0.  1.
    10030    2    1    2    0    0  0.00000000000E+00  0.00000000000E+00  0.18518369072E+04  0.32738864235E+04  0.26998208057E+04 0.  0.
        5    1    3    3  502    0 -0.98709189190E+03  0.81293051891E+03  0.14503439664E+04  0.19335785845E+04  0.46999998093E+01 0.  1.
       -5    1    3    3    0  502  0.98709189190E+03 -0.81293051891E+03  0.40149294077E+03  0.13403078389E+04  0.46999998093E+01 0. -1.
</event>
<event>
 5   0  0.1888149E-07  0.2698757E+04  0.7818609E-02  0.8335408E-01
       -1   -1    0    0    0  501  0.00000000000E+00  0.00000000000E+00  0.69553285279E+03  0.69553285281E+03  0.50400001928E-02 0.  1.
        1   -1    0    0  501    0  0.00000000000E+00  0.00000000000E+00 -0.26178815145E+04  0.26178815145E+04  0.50400001928E-02 0. -1.
    10030    2    1    2    0    0  0.00000000000E+00  0.00000000000E+00 -0.19223486617E+04  0.33134143674E+04  0.26987571941E+04 0.  0.
        1    1    3    3  502    0  0.13266788245E+04  0.22554519637E+03 -0.10831817348E+04  0.17274924051E+04  0.50400001928E-02 0. -1.
       -1    1    3    3    0  502 -0.13266788245E+04 -0.22554519637E+03 -0.83916692693E+03  0.15859219622E+04  0.50400001928E-02 0.  1.
</event>
<event>
 5   0  0.5043890E-07  0.2700545E+04  0.7818609E-02  0.8334828E-01
        2   -1    0    0  501    0  0.00000000000E+00  0.00000000000E+00  0.21342194460E+04  0.21342194460E+04  0.25500000920E-02 0.  1.
       -2   -1    0    0    0  501  0.00000000000E+00  0.00000000000E+00 -0.85428711348E+03  0.85428711348E+03  0.25500000920E-02 0. -1.
    10030    2    1    2    0    0  0.00000000000E+00  0.00000000000E+00  0.12799323325E+04  0.29885065595E+04  0.27005452561E+04 0.  0.
        3    1    3    3  502    0 -0.48894262556E+01  0.56456858548E+03  0.19973265786E+04  0.20755902934E+04  0.10100000352E+00 0.  1.
       -3    1    3    3    0  502  0.48894262556E+01 -0.56456858548E+03 -0.71739424614E+03  0.91291626604E+03  0.10100000352E+00 0. -1.
</event>
<event>
 5   0  0.1964242E-07  0.2699175E+04  0.7818609E-02  0.8335273E-01
        1   -1    0    0  501    0  0.00000000000E+00  0.00000000000E+00  0.19538541839E+04  0.19538541839E+04  0.50400001928E-02 0.  1.
       -1   -1    0    0    0  501  0.00000000000E+00  0.00000000000E+00 -0.93220214960E+03  0.93220214961E+03  0.50400001928E-02 0. -1.
    10030    2    1    2    0    0  0.00000000000E+00  0.00000000000E+00  0.10216520343E+04  0.28860563335E+04  0.26991754817E+04 0.  0.
        2    1    3    3  502    0  0.21551981036E+03 -0.12810039473E+03 -0.90708310946E+03  0.94109418618E+03  0.25500000920E-02 0. -1.
       -2    1    3    3    0  502 -0.21551981036E+03  0.12810039473E+03  0.19287351437E+04  0.19449621473E+04  0.25500000920E-02 0.  1.
</event>
<event>
 5   0  0.1965415E-07  0.2697360E+04  0.7818609E-02  0.8335862E-01
       -1   -1    0    0    0  501  0.00000000000E+00  0.00000000000E+00  0.13573542164E+04  0.13573542164E+04  0.50400001928E-02 0. -1.
        1   -1    0    0  501    0  0.00000000000E+00  0.00000000000E+00 -0.13400607569E+04  0.13400607569E+04  0.50400001928E-02 0.  1.
    10030    2    1    2    0    0  0.00000000000E+00  0.00000000000E+00  0.17293459517E+02  0.26974149733E+04  0.26973595375E+04 0.  0.
        4    1    3    3  502    0 -0.12202105311E+03  0.43618839820E+03  0.12790216284E+04  0.13568520166E+04  0.12699999809E+01 0. -1.
       -4    1    3    3    0  502  0.12202105311E+03 -0.43618839820E+03 -0.12617281688E+04  0.13405629568E+04  0.12699999809E+01 0.  1.
</event>
<event>
 5   0  0.1641625E-07  0.2700354E+04  0.7818609E-02  0.8334890E-01
       -3   -1    0    0    0  501  0.00000000000E+00  0.00000000000E+00  0.14006050505E+04  0.14006050542E+04  0.10100000352E+00 0.  1.
        3   -1    0    0  501    0  0.00000000000E+00  0.00000000000E+00 -0.13015646517E+04  0.13015646556E+04  0.10100000352E+00 0. -1.
    10030    2    1    2    0    0  0.00000000000E+00  0.00000000000E+00  0.99040398836E+02  0.27021697098E+04  0.27003540767E+04 0.  0.
        5    1    3    3  502    0 -0.10905139421E+03  0.10780634735E+04 -0.75652924184E+03  0.13215413892E+04  0.46999998093E+01 0.  1.
       -5    1    3    3    0  502  0.10905139421E+03 -0.10780634735E+04  0.85556964068E+03  0.13806283206E+04  0.46999998093E+01 0. -1.
</event>
<event>
 5   0  0.4983208E-07  0.2697796E+04  0.7818609E-02  0.8335720E-01
       -2   -1    0    0    0  501  0.00000000000E+00  0.00000000000E+00  0.16319834012E+04  0.16319834012E+04  0.25500000920E-02 0.  1.
        2   -1    0    0  501    0  0.00000000000E+00  0.00000000000E+00 -0.11149170820E+04  0.11149170820E+04  0.25500000920E-02 0. -1.
    10030    2    1    2    0    0  0.00000000000E+00  0.00000000000E+00  0.51706631917E+03  0.27469004832E+04  0.26977962647E+04 0.  0.
        4    1    3    3  502    0 -0.95280781683E+02 -0.39105617301E+03 -0.10523480032E+04  0.11266948524E+04  0.12699999809E+01 0. -1.
       -4    1    3    3    0  502  0.95280781683E+02  0.39105617301E+03  0.15694143223E+04  0.16202056307E+04  0.12699999809E+01 0.  1.
</event>
<event>
 5   0  0.1971600E-07  0.2699760E+04  0.7818609E-02  0.8335083E-01
       -1   -1    0    0    0  501  0.00000000000E+00  0.00000000000E+00  0.14460697764E+04  0.14460697764E+04  0.50400001928E-02 0.  1.
        1   -1    0    0  501    0  0.00000000000E+00  0.00000000000E+00 -0.12600884923E+04  0.12600884923E+04  0.50400001928E-02 0. -1.
    10030    2    1    2    0    0  0.00000000000E+00  0.00000000000E+00  0.18598128410E+03  0.27061582687E+04  0.26997599036E+04 0.  0.
        5    1    3    3  502    0 -0.13042121994E+04 -0.23413882295E+03 -0.16523072910E+03  0.13353328175E+04  0.46999998093E+01 0. -1.
       -5    1    3    3    0  502  0.13042121994E+04  0.23413882295E+03  0.35121201320E+03  0.13708254512E+04  0.46999998093E+01 0.  1.
</event>
<event>
 5   0  0.4735120E-07  0.2700347E+04  0.7818609E-02  0.8334892E-01
       -2   -1    0    0    0  501  0.00000000000E+00  0.00000000000E+00  0.79733515229E+03  0.79733515229E+03  0.25500000920E-02 0. -1.
        2   -1    0    0  501    0  0.00000000000E+00  0.00000000000E+00 -0.22863273257E+04  0.22863273257E+04  0.25500000920E-02 0.  1.
    10030    2    1    2    0    0  0.00000000000E+00  0.00000000000E+00 -0.14889921734E+04  0.30836624780E+04  0.27003474935E+04 0.  0.
        2    1    3    3  502    0  0.80158137053E+02 -0.46677115734E+03 -0.21883604291E+04  0.22390225563E+04  0.25500000920E-02 0.  1.
       -2    1    3    3    0  502 -0.80158137053E+02  0.46677115734E+03  0.69936825565E+03  0.84463992167E+03  0.25500000920E-02 0. -1.
</event>
<event>
 5   0  0.1965415E-07  0.2701055E+04  0.7818609E-02  0.8334663E-01
       -1   -1    0    0    0  501  0.00000000000E+00  0.00000000000E+00  0.96722246539E+03  0.96722246540E+03  0.50400001928E-02 0. -1.
        1   -1    0    0  501    0  0.00000000000E+00  0.00000000000E+00 -0.18857343088E+04  0.18857343088E+04  0.50400001928E-02 0.  1.
    10030    2    1    2    0    0  0.00000000000E+00  0.00000000000E+00 -0.91851184344E+03  0.28529567742E+04  0.27010550437E+04 0.  0.
        4    1    3    3  502    0 -0.27298280434E+03  0.89511127247E+03  0.56925039385E+03  0.10953499100E+04  0.12699999809E+01 0. -1.
       -4    1    3    3    0  502  0.27298280434E+03 -0.89511127247E+03 -0.14877622373E+04  0.17576068642E+04  0.12699999809E+01 0.  1.
</event>
<event>
 5   0  0.1888149E-07  0.2699813E+04  0.7818609E-02  0.8335066E-01
        1   -1    0    0  501    0  0.00000000000E+00  0.00000000000E+00  0.85130802567E+03  0.85130802569E+03  0.50400001928E-02 0.  1.
       -1   -1    0    0    0  501  0.00000000000E+00  0.00000000000E+00 -0.21405270673E+04  0.21405270673E+04  0.50400001928E-02 0. -1.
    10030    2    1    2    0    0  0.00000000000E+00  0.00000000000E+00 -0.12892190416E+04  0.29918350930E+04  0.26998132317E+04 0.  0.
        1    1    3    3  502    0 -0.47952318920E+02 -0.10132130182E+04 -0.16316517837E+04  0.19212463633E+04  0.50400001928E-02 0. -1.
       -1    1    3    3    0  502  0.47952318920E+02  0.10132130182E+04  0.34243274215E+03  0.10705887296E+04  0.50400001928E-02 0.  1.
</event>
<event>
 5   0  0.4735120E-07  0.2708897E+04  0.7818609E-02  0.8332124E-01
       -2   -1    0    0    0  501  0.00000000000E+00  0.00000000000E+00  0.98324300883E+03  0.98324300883E+03  0.25500000920E-02 0. -1.
        2   -1    0    0  501    0  0.00000000000E+00  0.00000000000E+00 -0.18657954775E+04  0.18657954775E+04  0.25500000920E-02 0.  1.
    10030    2    1    2    0    0  0.00000000000E+00  0.00000000000E+00 -0.88255246870E+03  0.28490384864E+04  0.27088967195E+04 0.  0.
        2    1    3    3  502    0 -0.93960529253E+03  0.95934275733E+03 -0.25510529117E+03  0.13668486900E+04  0.25500000920E-02 0.  1.
       -2    1    3    3    0  502  0.93960529253E+03 -0.95934275733E+03 -0.62744717753E+03  0.14821897963E+04  0.25500000920E-02 0. -1.
</event>
<event>
 5   0  0.4983208E-07  0.2699727E+04  0.7818609E-02  0.8335094E-01
       -2   -1    0    0    0  501  0.00000000000E+00  0.00000000000E+00  0.12243966135E+04  0.12243966135E+04  0.25500000920E-02 0. -1.
        2   -1    0    0  501    0  0.00000000000E+00  0.00000000000E+00 -0.14881872165E+04  0.14881872165E+04  0.25500000920E-02 0.  1.
    10030    2    1    2    0    0  0.00000000000E+00  0.00000000000E+00 -0.26379060303E+03  0.27125838299E+04  0.26997269403E+04 0.  0.
        4    1    3    3  502    0  0.59184197451E+03 -0.37417797899E+03  0.10276559723E+04  0.12435290479E+04  0.12699999809E+01 0. -1.
       -4    1    3    3    0  502 -0.59184197451E+03  0.37417797899E+03 -0.12914465753E+04  0.14690547820E+04  0.12699999809E+01 0.  1.
</event>
<event>
 5   0  0.1964242E-07  0.2700567E+04  0.7818609E-02  0.8334821E-01
        1   -1    0    0  501    0  0.00000000000E+00  0.00000000000E+00  0.13074674936E+04  0.13074674936E+04  0.50400001928E-02 0. -1.
       -1   -1    0    0    0  501  0.00000000000E+00  0.00000000000E+00 -0.13945012718E+04  0.13945012719E+04  0.50400001928E-02 0.  1.
    10030    2    1    2    0    0  0.00000000000E+00  0.00000000000E+00 -0.87033778290E+02  0.27019687654E+04  0.27005666685E+04 0.  0.
        2    1    3    3  502    0  0.75201017505E+02  0.13324169794E+04 -0.24923220471E+03  0.13576107292E+04  0.25500000920E-02 0.  1.
       -2    1    3    3    0  502 -0.75201017505E+02 -0.13324169794E+04  0.16219842642E+03  0.13443580363E+04  0.25500000920E-02 0. -1.
</event>
<event>
 5   0  0.1888149E-07  0.2700092E+04  0.7818609E-02  0.8334975E-01
       -1   -1    0    0    0  501  0.00000000000E+00  0.00000000000E+00  0.55816278840E+03  0.55816278842E+03  0.50400001928E-02 0.  1.
        1   -1    0    0  501    0  0.00000000000E+00  0.00000000000E+00 -0.32653993657E+04  0.32653993657E+04  0.50400001928E-02 0. -1.
    10030    2    1    2    0    0  0.00000000000E+00  0.00000000000E+00 -0.27072365773E+04  0.38235621541E+04  0.27000921579E+04 0.  0.
        1    1    3    3  502    0 -0.11354630071E+04 -0.40509331906E+03 -0.49312320338E+03  0.13025157701E+04  0.50400001928E-02 0.  1.
       -1    1    3    3    0  502  0.11354630071E+04  0.40509331906E+03 -0.22141133739E+04  0.25210463840E+04  0.50400001928E-02 0. -1.
</event>
<event>
 5   0  0.1888149E-07  0.2698939E+04  0.7818609E-02  0.8335349E-01
       -1   -1    0    0    0  501  0.00000000000E+00  0.00000000000E+00  0.11416391205E+04  0.11416391205E+04  0.50400001928E-02 0.  1.
        1   -1    0    0  501    0  0.00000000000E+00  0.00000000000E+00 -0.15951350069E+04  0.15951350069E+04  0.50400001928E-02 0. -1.
    10030    2    1    2    0    0  0.00000000000E+00  0.00000000000E+00 -0.45349588638E+03  0.27367741275E+04  0.26989394409E+04 0.  0.
        1    1    3    3  502    0  0.59001113483E+03 -0.12164235419E+03 -0.14512180475E+04  0.15712873140E+04  0.50400001928E-02 0. -1.
       -1    1    3    3    0  502 -0.59001113483E+03  0.12164235419E+03  0.99772216114E+03  0.11654868135E+04  0.50400001928E-02 0.  1.
</event>
<event>
 5   0  0.4983208E-07  0.2699463E+04  0.7818609E-02  0.8335179E-01
        2   -1    0    0  501    0  0.00000000000E+00  0.00000000000E+00  0.17415151141E+04  0.17415151141E+04  0.25500000920E-02 0. -1.
       -2   -1    0    0    0  501  0.00000000000E+00  0.00000000000E+00 -0.10460861293E+04  0.10460861293E+04  0.25500000920E-02 0.  1.
    10030    2    1    2    0    0  0.00000000000E+00  0.00000000000E+00  0.69542898487E+03  0.27876012434E+04  0.26994627649E+04 0.  0.
        4    1    3    3  502    0  0.29104041102E+03 -0.11705352314E+04 -0.27779888139E+03  0.12377524309E+04  0.12699999809E+01 0.  1.
       -4    1    3    3    0  502 -0.29104041102E+03  0.11705352314E+04  0.97322786625E+03  0.15498488124E+04  0.12699999809E+01 0. -1.
</event>
<event>
 5   0  0.1937896E-07  0.2699810E+04  0.7818609E-02  0.8335067E-01
       -1   -1    0    0    0  501  0.00000000000E+00  0.00000000000E+00  0.17890428100E+04  0.17890428100E+04  0.50400001928E-02 0. -1.
        1   -1    0    0  501    0  0.00000000000E+00  0.00000000000E+00 -0.10185574796E+04  0.10185574796E+04  0.50400001928E-02 0.  1.
    10030    2    1    2    0    0  0.00000000000E+00  0.00000000000E+00  0.77048533040E+03  0.28076002895E+04  0.26998095750E+04 0.  0.
        3    1    3    3  502    0  0.66496017631E+03  0.21246757388E+03  0.15867630259E+04  0.17335314871E+04  0.10100000352E+00 0. -1.
       -3    1    3    3    0  502 -0.66496017631E+03 -0.21246757388E+03 -0.81627769552E+03  0.10740688025E+04  0.10100000352E+00 0.  1.
</event>
<event>
 5   0  0.1888149E-07  0.2700193E+04  0.7818609E-02  0.8334942E-01
       -1   -1    0    0    0  501  0.00000000000E+00  0.00000000000E+00  0.18235006969E+04  0.18235006969E+04  0.50400001928E-02 0. -1.
        1   -1    0    0  501    0  0.00000000000E+00  0.00000000000E+00 -0.99959443768E+03  0.99959443770E+03  0.50400001928E-02 0.  1.
    10030    2    1    2    0    0  0.00000000000E+00  0.00000000000E+00  0.82390625923E+03  0.28230951346E+04  0.27001934403E+04 0.  0.
        1    1    3    3  502    0  0.31375045495E+03  0.29707619711E+03  0.17492605353E+04  0.18018340754E+04  0.50400001928E-02 0. -1.
       -1    1    3    3    0  502 -0.31375045495E+03 -0.29707619711E+03 -0.92535427606E+03  0.10212610592E+04  0.50400001928E-02 0.  1.
</event>
<event>
 5   0  0.1888149E-07  0.2699076E+04  0.7818609E-02  0.8335305E-01
       -1   -1    0    0    0  501  0.00000000000E+00  0.00000000000E+00  0.12571024001E+04  0.12571024001E+04  0.50400001928E-02 0.  1.
        1   -1    0    0  501    0  0.00000000000E+00  0.00000000000E+00 -0.14487706591E+04  0.14487706591E+04  0.50400001928E-02 0. -1.
    10030    2    1    2    0    0  0.00000000000E+00  0.00000000000E+00 -0.19166825901E+03  0.27058730592E+04  0.26990761921E+04 0.  0.
        1    1    3    3  502    0  0.10894442174E+03  0.65246714649E+02 -0.14427676513E+04  0.14483454410E+04  0.50400001928E-02 0. -1.
       -1    1    3    3    0  502 -0.10894442174E+03 -0.65246714649E+02  0.12510993923E+04  0.12575276181E+04  0.50400001928E-02 0.  1.
</event>
<event>
 5   0  0.4983208E-07  0.2701431E+04  0.7818609E-02  0.8334541E-01
       -2   -1    0    0    0  501  0.00000000000E+00  0.00000000000E+00  0.99352518506E+03  0.99352518506E+03  0.25500000920E-02 0. -1.
        2   -1    0    0  501    0  0.00000000000E+00  0.00000000000E+00 -0.18363216321E+04  0.18363216321E+04  0.25500000920E-02 0.  1.
    10030    2    1    2    0    0  0.00000000000E+00  0.00000000000E+00 -0.84279644705E+03  0.28298468172E+04  0.27014305761E+04 0.  0.
        4    1    3    3  502    0 -0.37032613366E+02  0.61743689978E+03 -0.16792405677E+04  0.17895391129E+04  0.12699999809E+01 0.  1.
       -4    1    3    3    0  502  0.37032613366E+02 -0.61743689978E+03  0.83644412063E+03  0.10403077042E+04  0.12699999809E+01 0. -1.
</event>
<event>
 5   0  0.5043890E-07  0.2700483E+04  0.7818609E-02  0.8334848E-01
        2   -1    0    0  501    0  0.00000000000E+00  0.00000000000E+00  0.16754103517E+04  0.16754103517E+04  0.25500000920E-02 0.  1.
       -2   -1    0    0    0  501  0.00000000000E+00  0.00000000000E+00 -0.10881826666E+04  0.10881826666E+04  0.25500000920E-02 0. -1.
    10030    2    1    2    0    0  0.00000000000E+00  0.00000000000E+00  0.58722768514E+03  0.27635930183E+04  0.27004832931E+04 0.  0.
        3    1    3    3  502    0 -0.10313546085E+04 -0.58237854783E+03  0.95706645200E+03  0.15227715867E+04  0.10100000352E+00 0.  1.
       -3    1    3    3    0  502  0.10313546085E+04  0.58237854783E+03 -0.36983876686E+03  0.12408214316E+04  0.10100000352E+00 0. -1.
</event>
<event>
 5   0  0.4843887E-07  0.2697759E+04  0.7818609E-02  0.8335732E-01
       -2   -1    0    0    0  501  0.00000000000E+00  0.00000000000E+00  0.12819382099E+04  0.12819382099E+04  0.25500000920E-02 0. -1.
        2   -1    0    0  501    0  0.00000000000E+00  0.00000000000E+00 -0.14193168381E+04  0.14193168381E+04  0.25500000920E-02 0.  1.
    10030    2    1    2    0    0  0.00000000000E+00  0.00000000000E+00 -0.13737862819E+03  0.27012550479E+04  0.26977594308E+04 0.  0.
        5    1    3    3  502    0 -0.49088195135E+03 -0.48300364293E+03  0.10926397171E+04  0.12915654264E+04  0.46999998093E+01 0. -1.
       -5    1    3    3    0  502  0.49088195135E+03  0.48300364293E+03 -0.12300183453E+04  0.14096896215E+04  0.46999998093E+01 0.  1.
</event>
<event>
 5   0  0.5043890E-07  0.2700357E+04  0.7818609E-02  0.8334889E-01
        2   -1    0    0  501    0  0.00000000000E+00  0.00000000000E+00  0.12405471743E+04  0.12405471743E+04  0.25500000920E-02 0. -1.
       -2   -1    0    0    0  501  0.00000000000E+00  0.00000000000E+00 -0.14694982747E+04  0.14694982747E+04  0.25500000920E-02 0.  1.
    10030    2    1    2    0    0  0.00000000000E+00  0.00000000000E+00 -0.22895110041E+03  0.27100454490E+04  0.27003569634E+04 0.  0.
        3    1    3    3  502    0  0.18759311234E+03 -0.97412385175E+03  0.80471092539E+03  0.12773676597E+04  0.10100000352E+00 0. -1.
       -3    1    3    3    0  502 -0.18759311234E+03  0.97412385175E+03 -0.10336620258E+04  0.14326777894E+04  0.10100000352E+00 0.  1.
</event>
<event>
 5   0  0.1971600E-07  0.2700515E+04  0.7818609E-02  0.8334838E-01
       -1   -1    0    0    0  501  0.00000000000E+00  0.00000000000E+00  0.81574713884E+03  0.81574713886E+03  0.50400001928E-02 0. -1.
        1   -1    0    0  501    0  0.00000000000E+00  0.00000000000E+00 -0.22350012032E+04  0.22350012033E+04  0.50400001928E-02 0.  1.
    10030    2    1    2    0    0  0.00000000000E+00  0.00000000000E+00 -0.14192540644E+04  0.30507483421E+04  0.27005153855E+04 0.  0.
        5    1    3    3  502    0 -0.13080861675E+04 -0.27088182415E+03 -0.48736948462E+03  0.14219766134E+04  0.46999998093E+01 0. -1.
       -5    1    3    3    0  502  0.13080861675E+04  0.27088182415E+03 -0.93188457979E+03  0.16287717288E+04  0.46999998093E+01 0.  1.
</event>
<event>
 5   0  0.4843887E-07  0.2699531E+04  0.7818609E-02  0.8335157E-01
       -2   -1    0    0    0  501  0.00000000000E+00  0.00000000000E+00  0.10541085512E+04  0.10541085512E+04  0.25500000920E-02 0. -1.
        2   -1    0    0  501    0  0.00000000000E+00  0.00000000000E+00 -0.17283480612E+04  0.17283480612E+04  0.25500000920E-02 0.  1.
    10030    2    1    2    0    0  0.00000000000E+00  0.00000000000E+00 -0.67423951004E+03  0.27824566124E+04  0.26995306783E+04 0.  0.
        5    1    3    3  502    0  0.50329669094E+03  0.39787011993E+03  0.88689333221E+03  0.10946278199E+04  0.46999998093E+01 0. -1.
       -5    1    3    3    0  502 -0.50329669094E+03 -0.39787011993E+03 -0.15611328423E+04  0.16878287924E+04  0.46999998093E+01 0.  1.
</event>
<event>
 5   0  0.4735120E-07  0.2700162E+04  0.7818609E-02  0.8334952E-01
       -2   -1    0    0    0  501  0.00000000000E+00  0.00000000000E+00  0.59772820924E+03  0.59772820925E+03  0.25500000920E-02 0. -1.
        2   -1    0    0  501    0  0.00000000000E+00  0.00000000000E+00 -0.30494113642E+04  0.30494113642E+04  0.25500000920E-02 0.  1.
    10030    2    1    2    0    0  0.00000000000E+00  0.00000000000E+00 -0.24516831550E+04  0.36471395735E+04  0.27001623610E+04 0.  0.
        2    1    3    3  502    0  0.63822800818E+03  0.86682889995E+03 -0.23264780061E+04  0.25634405094E+04  0.25500000920E-02 0.  1.
       -2    1    3    3    0  502 -0.63822800818E+03 -0.86682889995E+03 -0.12520514888E+03  0.10836990641E+04  0.25500000920E-02 0. -1.
</event>
<event>
 5   0  0.4843887E-07  0.2700275E+04  0.7818609E-02  0.8334916E-01
        2   -1    0    0  501    0  0.00000000000E+00  0.00000000000E+00  0.82425130221E+03  0.82425130222E+03  0.25500000920E-02 0. -1.
       -2   -1    0    0    0  501  0.00000000000E+00  0.00000000000E+00 -0.22115485151E+04  0.22115485151E+04  0.25500000920E-02 0.  1.
    10030    2    1    2    0    0  0.00000000000E+00  0.00000000000E+00 -0.13872972129E+04  0.30357998173E+04  0.27002753515E+04 0.  0.
        5    1    3    3  502    0  0.12513654063E+04 -0.31541599716E+03 -0.11397486894E+04  0.17217583443E+04  0.46999998093E+01 0.  1.
       -5    1    3    3    0  502 -0.12513654063E+04  0.31541599716E+03 -0.24754852347E+03  0.13140414730E+04  0.46999998093E+01 0. -1.
</event>
<event>
 5   0  0.1888149E-07  0.2702508E+04  0.7818609E-02  0.8334192E-01
        1   -1    0    0  501    0  0.00000000000E+00  0.00000000000E+00  0.17917087678E+04  0.17917087678E+04  0.50400001928E-02 0.  1.
       -1   -1    0    0    0  501  0.00000000000E+00  0.00000000000E+00 -0.10190756550E+04  0.10190756550E+04  0.50400001928E-02 0. -1.
    10030    2    1    2    0    0  0.00000000000E+00  0.00000000000E+00  0.77263311276E+03  0.28107844228E+04  0.27025075661E+04 0.  0.
        1    1    3    3  502    0 -0.84256293526E+03 -0.48189024841E+03  0.13640644178E+04  0.16741571752E+04  0.50400001928E-02 0.  1.
       -1    1    3    3    0  502  0.84256293526E+03  0.48189024841E+03 -0.59143130505E+03  0.11366272476E+04  0.50400001928E-02 0. -1.
</event>
<event>
 5   0  0.4735120E-07  0.2699024E+04  0.7818609E-02  0.8335322E-01
        2   -1    0    0  501    0  0.00000000000E+00  0.00000000000E+00  0.30425081066E+04  0.30425081066E+04  0.25500000920E-02 0. -1.
       -2   -1    0    0    0  501  0.00000000000E+00  0.00000000000E+00 -0.59857944522E+03  0.59857944523E+03  0.25500000920E-02 0.  1.
    10030    2    1    2    0    0  0.00000000000E+00  0.00000000000E+00  0.24439286613E+04  0.36410875518E+04  0.26990241307E+04 0.  0.
        2    1    3    3  502    0  0.12473101643E+03  0.10975268836E+04  0.17608117244E+03  0.11185381827E+04  0.25500000920E-02 0.  1.
       -2    1    3    3    0  502 -0.12473101643E+03 -0.10975268836E+04  0.22678474889E+04  0.25225493691E+04  0.25500000920E-02 0. -1.
</event>
<event>
 5   0  0.1971600E-07  0.2700234E+04  0.7818609E-02  0.8334929E-01
        1   -1    0    0  501    0  0.00000000000E+00  0.00000000000E+00  0.18785022553E+04  0.18785022553E+04  0.50400001928E-02 0.  1.
       -1   -1    0    0    0  501  0.00000000000E+00  0.00000000000E+00 -0.97035569921E+03  0.97035569922E+03  0.50400001928E-02 0. -1.
    10030    2    1    2    0    0  0.00000000000E+00  0.00000000000E+00  0.90814655608E+03  0.28488579545E+04  0.27002335969E+04 0.  0.
        5    1    3    3  502    0  0.40708283514E+03  0.37041442812E+03  0.17547599196E+04  0.18390562114E+04  0.46999998093E+01 0.  1.
       -5    1    3    3    0  502 -0.40708283514E+03 -0.37041442812E+03 -0.84661336349E+03  0.10098017431E+04  0.46999998093E+01 0. -1.
</event>
<event>
 5   0  0.1937896E-07  0.2698079E+04  0.7818609E-02  0.8335628E-01
       -1   -1    0    0    0  501  0.00000000000E+00  0.00000000000E+00  0.15558009527E+04  0.15558009527E+04  0.50400001928E-02 0.  1.
        1   -1    0    0  501    0  0.00000000000E+00  0.00000000000E+00 -0.11697564478E+04  0.11697564478E+04  0.50400001928E-02 0. -1.
    10030    2    1    2    0    0  0.00000000000E+00  0.00000000000E+00  0.38604450488E+03  0.27255574005E+04  0.26980794621E+04 0.  0.
        3    1    3    3  502    0  0.46112241983E+03 -0.10801865674E+04  0.86346144523E+03  0.14577388600E+04  0.10100000352E+00 0.  1.
       -3    1    3    3    0  502 -0.46112241983E+03  0.10801865674E+04 -0.47741694035E+03  0.12678185405E+04  0.10100000352E+00 0. -1.
</event>
<event>
 5   0  0.4983208E-07  0.2699159E+04  0.7818609E-02  0.8335278E-01
        2   -1    0    0  501    0  0.00000000000E+00  0.00000000000E+00  0.14694291745E+04  0.14694291745E+04  0.25500000920E-02 0. -1.
       -2   -1    0    0    0  501  0.00000000000E+00  0.00000000000E+00 -0.12395052010E+04  0.12395052010E+04  0.25500000920E-02 0.  1.
    10030    2    1    2    0    0  0.00000000000E+00  0.00000000000E+00  0.22992397358E+03  0.27089343755E+04  0.26991592056E+04 0.  0.
        4    1    3    3  502    0  0.59006886864E+03 -0.53787626009E+03  0.12069609807E+04  0.14471518796E+04  0.12699999809E+01 0. -1.
       -4    1    3    3    0  502 -0.59006886864E+03  0.53787626009E+03 -0.97703700708E+03  0.12617824959E+04  0.12699999809E+01 0.  1.
</event>
<event>
 5   0  0.1971600E-07  0.2701584E+04  0.7818609E-02  0.8334491E-01
       -1   -1    0    0    0  501  0.00000000000E+00  0.00000000000E+00  0.25671022652E+04  0.25671022652E+04  0.50400001928E-02 0.  1.
        1   -1    0    0  501    0  0.00000000000E+00  0.00000000000E+00 -0.71077753600E+03  0.71077753601E+03  0.50400001928E-02 0. -1.
    10030    2    1    2    0    0  0.00000000000E+00  0.00000000000E+00  0.18563247292E+04  0.32778798012E+04  0.27015837005E+04 0.  0.
        5    1    3    3  502    0 -0.73133936823E+03 -0.65641156540E+03  0.20526161994E+04  0.22757391693E+04  0.46999998093E+01 0.  1.
       -5    1    3    3    0  502  0.73133936823E+03  0.65641156540E+03 -0.19629147025E+03  0.10021406319E+04  0.46999998093E+01 0. -1.
</event>
<event>
 5   0  0.1888149E-07  0.2700230E+04  0.7818609E-02  0.8334930E-01
       -1   -1    0    0    0  501  0.00000000000E+00  0.00000000000E+00  0.59404265830E+03  0.59404265832E+03  0.50400001928E-02 0.  1.
        1   -1    0    0  501    0  0.00000000000E+00  0.00000000000E+00 -0.30684845040E+04  0.30684845040E+04  0.50400001928E-02 0. -1.
    10030    2    1    2    0    0  0.00000000000E+00  0.00000000000E+00 -0.24744418457E+04  0.36625271623E+04  0.27002301322E+04 0.  0.
        1    1    3    3  502    0 -0.80670588179E+03 -0.25349767455E+03 -0.26648188283E+04  0.27957637308E+04  0.50400001928E-02 0. -1.
       -1    1    3    3    0  502  0.80670588179E+03  0.25349767455E+03  0.19037698260E+03  0.86676343153E+03  0.50400001928E-02 0.  1.
</event>
<event>
 5   0  0.1971600E-07  0.2700478E+04  0.7818609E-02  0.8334850E-01
        1   -1    0    0  501    0  0.00000000000E+00  0.00000000000E+00  0.95218354062E+03  0.95218354064E+03  0.50400001928E-02 0.  1.
       -1   -1    0    0    0  501  0.00000000000E+00  0.00000000000E+00 -0.19146992920E+04  0.19146992920E+04  0.50400001928E-02 0. -1.
    10030    2    1    2    0    0  0.00000000000E+00  0.00000000000E+00 -0.96251575140E+03  0.28668828327E+04  0.27004778474E+04 0.  0.
        5    1    3    3  502    0  0.27391228840E+03  0.13793859123E+03 -0.18772255760E+04  0.19021180168E+04  0.46999998093E+01 0. -1.
       -5    1    3    3    0  502 -0.27391228840E+03 -0.13793859123E+03  0.91470982460E+03  0.96476481585E+03  0.46999998093E+01 0.  1.
</event>
<event>
 5   0  0.4843887E-07  0.2699496E+04  0.7818609E-02  0.8335168E-01
       -2   -1    0    0    0  501  0.00000000000E+00  0.00000000000E+00  0.16903211886E+04  0.16903211886E+04  0.25500000920E-02 0.  1.
        2   -1    0    0  501    0  0.00000000000E+00  0.00000000000E+00 -0.10777952434E+04  0.10777952434E+04  0.25500000920E-02 0. -1.
    10030    2    1    2    0    0  0.00000000000E+00  0.00000000000E+00  0.61252594521E+03  0.27681164321E+04  0.26994963508E+04 0.  0.
        5    1    3    3  502    0  0.46614491568E+03 -0.32624944976E+03  0.15613314161E+04  0.16617784650E+04  0.46999998093E+01 0.  1.
       -5    1    3    3    0  502 -0.46614491568E+03  0.32624944976E+03 -0.94880547086E+03  0.11063379671E+04  0.46999998093E+01 0. -1.
</event>
<event>
 5   0  0.1888149E-07  0.2703862E+04  0.7818609E-02  0.8333753E-01
        1   -1    0    0  501    0  0.00000000000E+00  0.00000000000E+00  0.18229574803E+04  0.18229574803E+04  0.50400001928E-02 0.  1.
       -1   -1    0    0    0  501  0.00000000000E+00  0.00000000000E+00 -0.10026112086E+04  0.10026112086E+04  0.50400001928E-02 0. -1.
    10030    2    1    2    0    0  0.00000000000E+00  0.00000000000E+00  0.82034627167E+03  0.28255686889E+04  0.27038621286E+04 0.  0.
        1    1    3    3  502    0 -0.10094432486E+04 -0.86499128111E+03  0.15306614300E+03  0.13381385700E+04  0.50400001928E-02 0. -1.
       -1    1    3    3    0  502  0.10094432486E+04  0.86499128111E+03  0.66728012867E+03  0.14874301189E+04  0.50400001928E-02 0.  1.
</event>
<event>
 5   0  0.1641625E-07  0.2698625E+04  0.7818609E-02  0.8335451E-01
        3   -1    0    0  501    0  0.00000000000E+00  0.00000000000E+00  0.21634719533E+04  0.21634719556E+04  0.10100000352E+00 0.  1.
       -3   -1    0    0    0  501  0.00000000000E+00  0.00000000000E+00 -0.84153787091E+03  0.84153787697E+03  0.10100000352E+00 0. -1.
    10030    2    1    2    0    0  0.00000000000E+00  0.00000000000E+00  0.13219340824E+04  0.30050098326E+04  0.26986245341E+04 0.  0.
        1    1    3    3  502    0 -0.36077545346E+03 -0.97515322181E+03  0.16185808334E+04  0.19237688656E+04  0.50400001928E-02 0.  1.
       -1    1    3    3    0  502  0.36077545346E+03  0.97515322181E+03 -0.29664675105E+03  0.10812409670E+04  0.50400001928E-02 0. -1.
</event>
<event>
 5   0  0.4843887E-07  0.2696916E+04  0.7818609E-02  0.8336006E-01
       -2   -1    0    0    0  501  0.00000000000E+00  0.00000000000E+00  0.13250773907E+04  0.13250773907E+04  0.25500000920E-02 0.  1.
        2   -1    0    0  501    0  0.00000000000E+00  0.00000000000E+00 -0.13722508831E+04  0.13722508831E+04  0.25500000920E-02 0. -1.
    10030    2    1    2    0    0  0.00000000000E+00  0.00000000000E+00 -0.47173492405E+02  0.26973282738E+04  0.26969157343E+04 0.  0.
        5    1    3    3  502    0  0.13266533956E+04  0.22387608170E+03  0.66908017297E+02  0.13470814767E+04  0.46999998093E+01 0. -1.
       -5    1    3    3    0  502 -0.13266533956E+04 -0.22387608170E+03 -0.11408150970E+03  0.13502467971E+04  0.46999998093E+01 0.  1.
</event>
<event>
 5   0  0.1971600E-07  0.2703266E+04  0.7818609E-02  0.8333946E-01
        1   -1    0    0  501    0  0.00000000000E+00  0.00000000000E+00  0.17501306938E+04  0.17501306938E+04  0.50400001928E-02 0. -1.
       -1   -1    0    0    0  501  0.00000000000E+00  0.00000000000E+00 -0.10438715649E+04  0.10438715649E+04  0.50400001928E-02 0.  1.
    10030    2    1    2    0    0  0.00000000000E+00  0.00000000000E+00  0.70625912882E+03  0.27940022587E+04  0.27032659256E+04 0.  0.
        5    1    3    3  502    0  0.81866873499E+03  0.37134960722E+03  0.13963502100E+04  0.16607031725E+04  0.46999998093E+01 0. -1.
       -5    1    3    3    0  502 -0.81866873499E+03 -0.37134960722E+03 -0.69009108115E+03  0.11332990862E+04  0.46999998093E+01 0.  1.
</event>
<event>
 5   0  0.4983208E-07  0.2699594E+04  0.7818609E-02  0.8335137E-01
        2   -1    0    0  501    0  0.00000000000E+00  0.00000000000E+00  0.13947752859E+04  0.13947752859E+04  0.25500000920E-02 0.  1.
       -2   -1    0    0    0  501  0.00000000000E+00  0.00000000000E+00 -0.13062692746E+04  0.13062692746E+04  0.25500000920E-02 0. -1.
    10030    2    1    2    0    0  0.00000000000E+00  0.00000000000E+00  0.88506011262E+02  0.27010445605E+04  0.26995941183E+04 0.  0.
        4    1    3    3  502    0  0.53357801958E+03 -0.83243417711E+03 -0.87509775517E+03  0.13203976129E+04  0.12699999809E+01 0. -1.
       -4    1    3    3    0  502 -0.53357801958E+03  0.83243417711E+03  0.96360376644E+03  0.13806469476E+04  0.12699999809E+01 0.  1.
</event>
<event>
 5   0  0.1965415E-07  0.2699378E+04  0.7818609E-02  0.8335207E-01
        1   -1    0    0  501    0  0.00000000000E+00  0.00000000000E+00  0.27475379484E+04  0.27475379485E+04  0.50400001928E-02 0. -1.
       -1   -1    0    0    0  501  0.00000000000E+00  0.00000000000E+00 -0.66301533261E+03  0.66301533263E+03  0.50400001928E-02 0.  1.
    10030    2    1    2    0    0  0.00000000000E+00  0.00000000000E+00  0.20845226158E+04  0.34105532811E+04  0.26993775481E+04 0.  0.
        4    1    3    3  502    0 -0.15644590990E+03 -0.16953280330E+03  0.27224441824E+04  0.27322006942E+04  0.12699999809E+01 0. -1.
       -4    1    3    3    0  502  0.15644590990E+03  0.16953280330E+03 -0.63792156658E+03  0.67835258688E+03  0.12699999809E+01 0.  1.
</event>
<event>
 5   0  0.1964242E-07  0.2700385E+04  0.7818609E-02  0.8334880E-01
       -1   -1    0    0    0  501  0.00000000000E+00  0.00000000000E+00  0.97481243693E+03  0.97481243694E+03  0.50400001928E-02 0. -1.
        1   -1    0    0  501    0  0.00000000000E+00  0.00000000000E+00 -0.18701236068E+04  0.18701236068E+04  0.50400001928E-02 0.  1.
    10030    2    1    2    0    0  0.00000000000E+00  0.00000000000E+00 -0.89531116986E+03  0.28449360437E+04  0.27003849729E+04 0.  0.
        2    1    3    3  502    0  0.16541049352E+03  0.89254802151E+03 -0.15006675272E+04  0.17538545063E+04  0.25500000920E-02 0.  1.
       -2    1    3    3    0  502 -0.16541049352E+03 -0.89254802151E+03  0.60535635730E+03  0.10910815375E+04  0.25500000920E-02 0. -1.
</event>
<event>
 5   0  0.1937896E-07  0.2700421E+04  0.7818609E-02  0.8334868E-01
       -1   -1    0    0    0  501  0.00000000000E+00  0.00000000000E+00  0.10365506410E+04  0.10365506410E+04  0.50400001928E-02 0.  1.
        1   -1    0    0  501    0  0.00000000000E+00  0.00000000000E+00 -0.17587837800E+04  0.17587837800E+04  0.50400001928E-02 0. -1.
    10030    2    1    2    0    0  0.00000000000E+00  0.00000000000E+00 -0.72223313894E+03  0.27953344210E+04  0.27004210446E+04 0.  0.
        3    1    3    3  502    0 -0.74684974086E+03 -0.14885611285E+03  0.79302696409E+03  0.10994700786E+04  0.10100000352E+00 0.  1.
       -3    1    3    3    0  502  0.74684974086E+03  0.14885611285E+03 -0.15152601030E+04  0.16958643424E+04  0.10100000352E+00 0. -1.
</event>
<event>
 5   0  0.5043890E-07  0.2699742E+04  0.7818609E-02  0.8335089E-01
       -2   -1    0    0    0  501  0.00000000000E+00  0.00000000000E+00  0.85639512523E+03  0.85639512524E+03  0.25500000920E-02 0. -1.
        2   -1    0    0  501    0  0.00000000000E+00  0.00000000000E+00 -0.21276998976E+04  0.21276998976E+04  0.25500000920E-02 0.  1.
    10030    2    1    2    0    0  0.00000000000E+00  0.00000000000E+00 -0.12713047724E+04  0.29840950228E+04  0.26997420768E+04 0.  0.
        3    1    3    3  502    0  0.74520711498E+03  0.99685130325E+03 -0.58014444826E+02  0.12459582060E+04  0.10100000352E+00 0. -1.
       -3    1    3    3    0  502 -0.74520711498E+03 -0.99685130325E+03 -0.12132903275E+04  0.17381368169E+04  0.10100000352E+00 0.  1.
</event>
<event>
 5   0  0.1964242E-07  0.2700329E+04  0.7818609E-02  0.8334898E-01
        1   -1    0    0  501    0  0.00000000000E+00  0.00000000000E+00  0.17827135193E+04  0.17827135193E+04  0.50400001928E-02 0. -1.
       -1   -1    0    0    0  501  0.00000000000E+00  0.00000000000E+00 -0.10225673501E+04  0.10225673501E+04  0.50400001928E-02 0.  1.
    10030    2    1    2    0    0  0.00000000000E+00  0.00000000000E+00  0.76014616928E+03  0.28052808694E+04  0.27003293424E+04 0.  0.
        2    1    3    3  502    0 -0.95238291662E+03  0.42530123410E+03  0.12707336615E+04  0.16439824811E+04  0.25500000920E-02 0. -1.
       -2    1    3    3    0  502  0.95238291662E+03 -0.42530123410E+03 -0.51058749221E+03  0.11612983884E+04  0.25500000920E-02 0.  1.
</event>
<event>
 5   0  0.1964242E-07  0.2700695E+04  0.7818609E-02  0.8334779E-01
       -1   -1    0    0    0  501  0.00000000000E+00  0.00000000000E+00  0.15645541276E+04  0.15645541276E+04  0.50400001928E-02 0.  1.
        1   -1    0    0  501    0  0.00000000000E+00  0.00000000000E+00 -0.11654685048E+04  0.11654685048E+04  0.50400001928E-02 0. -1.
    10030    2    1    2    0    0  0.00000000000E+00  0.00000000000E+00  0.39908562286E+03  0.27300226324E+04  0.27006951400E+04 0.  0.
        2    1    3    3  502    0 -0.87314853932E+03  0.96386000224E+03  0.56683971430E+03  0.14187042459E+04  0.25500000920E-02 0.  1.
       -2    1    3    3    0  502  0.87314853932E+03 -0.96386000224E+03 -0.16775409144E+03  0.13113183865E+04  0.25500000920E-02 0. -1.
</event>
<event>
 5   0  0.4843887E-07  0.2700183E+04  0.7818609E-02  0.8334946E-01
       -2   -1    0    0    0  501  0.00000000000E+00  0.00000000000E+00  0.80214190620E+03  0.80214190620E+03  0.25500000920E-02 0.  1.
        2   -1    0    0  501    0  0.00000000000E+00  0.00000000000E+00 -0.22723499061E+04  0.22723499061E+04  0.25500000920E-02 0. -1.
    10030    2    1    2    0    0  0.00000000000E+00  0.00000000000E+00 -0.14702079999E+04  0.30744918123E+04  0.27001830199E+04 0.  0.
        5    1    3    3  502    0 -0.42496537421E+03  0.13604869256E+03  0.71574548234E+03  0.84345628311E+03  0.46999998093E+01 0.  1.
       -5    1    3    3    0  502  0.42496537421E+03 -0.13604869256E+03 -0.21859534823E+04  0.22310355292E+04  0.46999998093E+01 0. -1.
</event>
<event>
 5   0  0.4983208E-07  0.2698704E+04  0.7818609E-02  0.8335425E-01
        2   -1    0    0  501    0  0.00000000000E+00  0.00000000000E+00  0.11937863109E+04  0.11937863109E+04  0.25500000920E-02 0. -1.
       -2   -1    0    0    0  501  0.00000000000E+00  0.00000000000E+00 -0.15251902817E+04  0.15251902817E+04  0.25500000920E-02 0.  1.
    10030    2    1    2    0    0  0.00000000000E+00  0.00000000000E+00 -0.33140397076E+03  0.27189765927E+04  0.26987043409E+04 0.  0.
        4    1    3    3  502    0  0.69800089041E+03  0.11475496637E+04 -0.35603399497E+02  0.13436311580E+04  0.12699999809E+01 0.  1.
       -4    1    3    3    0  502 -0.69800089041E+03 -0.11475496637E+04 -0.29580057126E+03  0.13753454347E+04  0.12699999809E+01 0. -1.
</event>
<event>
 5   0  0.1964242E-07  0.2699925E+04  0.7818609E-02  0.8335029E-01
       -1   -1    0    0    0  501  0.00000000000E+00  0.00000000000E+00  0.12676566051E+04  0.12676566051E+04  0.50400001928E-02 0. -1.
        1   -1    0    0  501    0  0.00000000000E+00  0.00000000000E+00 -0.14376124583E+04  0.14376124583E+04  0.50400001928E-02 0.  1.
    10030    2    1    2    0    0  0.00000000000E+00  0.00000000000E+00 -0.16995585320E+03  0.27052690635E+04  0.26999251311E+04 0.  0.
        2    1    3    3  502    0  0.31007737616E+03  0.12817928541E+04 -0.37409371310E+03  0.13707979451E+04  0.25500000920E-02 0. -1.
       -2    1    3    3    0  502 -0.31007737616E+03 -0.12817928541E+04  0.20413785990E+03  0.13344711184E+04  0.25500000920E-02 0.  1.
</event>
<event>
 5   0  0.1937896E-07  0.2699906E+04  0.7818609E-02  0.8335036E-01
       -1   -1    0    0    0  501  0.00000000000E+00  0.00000000000E+00  0.80645120306E+03  0.80645120307E+03  0.50400001928E-02 0. -1.
        1   -1    0    0  501    0  0.00000000000E+00  0.00000000000E+00 -0.22597432561E+04  0.22597432561E+04  0.50400001928E-02 0.  1.
    10030    2    1    2    0    0  0.00000000000E+00  0.00000000000E+00 -0.14532920530E+04  0.30661944591E+04  0.26999056780E+04 0.  0.
        3    1    3    3  502    0  0.11041070905E+04 -0.66439942477E+03 -0.26969891659E+03  0.13165168358E+04  0.10100000352E+00 0. -1.
       -3    1    3    3    0  502 -0.11041070905E+04  0.66439942477E+03 -0.11835931364E+04  0.17496776234E+04  0.10100000352E+00 0.  1.
</event>
<event>
 5   0  0.1937896E-07  0.2700257E+04  0.7818609E-02  0.8334922E-01
       -1   -1    0    0    0  501  0.00000000000E+00  0.00000000000E+00  0.15498786525E+04  0.15498786525E+04  0.50400001928E-02 0. -1.
        1   -1    0    0  501    0  0.00000000000E+00  0.00000000000E+00 -0.11761225913E+04  0.11761225913E+04  0.50400001928E-02 0.  1.
    10030    2    1    2    0    0  0.00000000000E+00  0.00000000000E+00  0.37375606123E+03  0.27260012438E+04  0.27002572447E+04 0.  0.
        3    1    3    3  502    0 -0.21576903530E+03 -0.43508018126E+03  0.14586488602E+04  0.15373703355E+04  0.10100000352E+00 0. -1.
       -3    1    3    3    0  502  0.21576903530E+03  0.43508018126E+03 -0.10848927990E+04  0.11886309083E+04  0.10100000352E+00 0.  1.
</event>
<event>
 5   0  0.4735120E-07  0.2701874E+04  0.7818609E-02  0.8334397E-01
        2   -1    0    0  501    0  0.00000000000E+00  0.00000000000E+00  0.16785032438E+04  0.16785032438E+04  0.25500000920E-02 0.  1.
       -2   -1    0    0    0  501  0.00000000000E+00  0.00000000000E+00 -0.10872966940E+04  0.10872966940E+04  0.25500000920E-02 0. -1.
    10030    2    1    2    0    0  0.00000000000E+00  0.00000000000E+00  0.59120654985E+03  0.27657999378E+04  0.27018741849E+04 0.  0.
        2    1    3    3  502    0  0.11678276503E+04  0.59415246216E+03 -0.41105268293E+02  0.13109264709E+04  0.25500000920E-02 0. -1.
       -2    1    3    3    0  502 -0.11678276503E+04 -0.59415246216E+03  0.63231181815E+03  0.14548734668E+04  0.25500000920E-02 0.  1.
</event>
<event>
 5   0  0.1888149E-07  0.2701810E+04  0.7818609E-02  0.8334418E-01
       -1   -1    0    0    0  501  0.00000000000E+00  0.00000000000E+00  0.13229356733E+04  0.13229356733E+04  0.50400001928E-02 0. -1.
        1   -1    0    0  501    0  0.00000000000E+00  0.00000000000E+00 -0.13794661066E+04  0.13794661066E+04  0.50400001928E-02 0.  1.
    10030    2    1    2    0    0  0.00000000000E+00  0.00000000000E+00 -0.56530433314E+02  0.27024017799E+04  0.27018104467E+04 0.  0.
        1    1    3    3  502    0 -0.67869425311E+03  0.10782464089E+04  0.42094744629E+03  0.13418039947E+04  0.50400001928E-02 0. -1.
       -1    1    3    3    0  502  0.67869425311E+03 -0.10782464089E+04 -0.47747787961E+03  0.13605977852E+04  0.50400001928E-02 0.  1.
</event>
<event>
 5   0  0.4843887E-07  0.2698967E+04  0.7818609E-02  0.8335340E-01
        2   -1    0    0  501    0  0.00000000000E+00  0.00000000000E+00  0.13332411504E+04  0.13332411504E+04  0.25500000920E-02 0.  1.
       -2   -1    0    0    0  501  0.00000000000E+00  0.00000000000E+00 -0.13659237321E+04  0.13659237321E+04  0.25500000920E-02 0. -1.
    10030    2    1    2    0    0  0.00000000000E+00  0.00000000000E+00 -0.32682581763E+02  0.26991648825E+04  0.26989670083E+04 0.  0.
        5    1    3    3  502    0 -0.11386189574E+04 -0.72431299062E+03 -0.15246033788E+02  0.13495691794E+04  0.46999998093E+01 0.  1.
       -5    1    3    3    0  502  0.11386189574E+04  0.72431299062E+03 -0.17436547975E+02  0.13495957031E+04  0.46999998093E+01 0. -1.
</event>
<event>
 5   0  0.1937896E-07  0.2700501E+04  0.7818609E-02  0.8334842E-01
       -1   -1    0    0    0  501  0.00000000000E+00  0.00000000000E+00  0.10973585910E+04  0.10973585910E+04  0.50400001928E-02 0.  1.
        1   -1    0    0  501    0  0.00000000000E+00  0.00000000000E+00 -0.16614224729E+04  0.16614224729E+04  0.50400001928E-02 0. -1.
    10030    2    1    2    0    0  0.00000000000E+00  0.00000000000E+00 -0.56406388186E+03  0.27587810639E+04  0.27005008602E+04 0.  0.
        3    1    3    3  502    0 -0.59425443539E+03 -0.43741424349E+03 -0.14372351320E+04  0.16155848443E+04  0.10100000352E+00 0. -1.
       -3    1    3    3    0  502  0.59425443539E+03  0.43741424349E+03  0.87317125010E+03  0.11431962196E+04  0.10100000352E+00 0.  1.
</event>
<event>
 5   0  0.4735120E-07  0.2694804E+04  0.7818609E-02  0.8336693E-01
        2   -1    0    0  501    0  0.00000000000E+00  0.00000000000E+00  0.12235850271E+04  0.12235850271E+04  0.25500000920E-02 0. -1.
       -2   -1    0    0    0  501  0.00000000000E+00  0.00000000000E+00 -0.14837477218E+04  0.14837477218E+04  0.25500000920E-02 0.  1.
    10030    2    1    2    0    0  0.00000000000E+00  0.00000000000E+00 -0.26016269474E+03  0.27073327489E+04  0.26948035152E+04 0.  0.
        2    1    3    3  502    0  0.82803531531E+03  0.10194856441E+04 -0.43230893521E+03  0.13827091080E+04  0.25500000920E-02 0.  1.
       -2    1    3    3    0  502 -0.82803531531E+03 -0.10194856441E+04  0.17214624048E+03  0.13246236409E+04  0.25500000920E-02 0. -1.
</event>
<event>
 5   0  0.4843887E-07  0.2700228E+04  0.7818609E-02  0.8334931E-01
       -2   -1    0    0    0  501  0.00000000000E+00  0.00000000000E+00  0.10113337431E+04  0.10113337431E+04  0.25500000920E-02 0. -1.
        2   -1    0    0  501    0  0.00000000000E+00  0.00000000000E+00 -0.18023795316E+04  0.18023795316E+04  0.25500000920E-02 0.  1.
    10030    2    1    2    0    0  0.00000000000E+00  0.00000000000E+00 -0.79104578852E+03  0.28137132746E+04  0.27002275742E+04 0.  0.
        5    1    3    3  502    0  0.43227981075E+03 -0.12749493011E+04 -0.28913598470E+03  0.13769470806E+04  0.46999998093E+01 0.  1.
       -5    1    3    3    0  502 -0.43227981075E+03  0.12749493011E+04 -0.50190980382E+03  0.14367661940E+04  0.46999998093E+01 0. -1.
</event>
<event>
 5   0  0.1888149E-07  0.2699990E+04  0.7818609E-02  0.8335008E-01
       -1   -1    0    0    0  501  0.00000000000E+00  0.00000000000E+00  0.10116207994E+04  0.10116207995E+04  0.50400001928E-02 0. -1.
        1   -1    0    0  501    0  0.00000000000E+00  0.00000000000E+00 -0.18015513964E+04  0.18015513964E+04  0.50400001928E-02 0.  1.
    10030    2    1    2    0    0  0.00000000000E+00  0.00000000000E+00 -0.78993059699E+03  0.28131721959E+04  0.26999902696E+04 0.  0.
        1    1    3    3  502    0  0.75100970216E+03  0.24944980843E+03  0.74461355573E+03  0.10865956594E+04  0.50400001928E-02 0. -1.
       -1    1    3    3    0  502 -0.75100970216E+03 -0.24944980843E+03 -0.15345441527E+04  0.17265765365E+04  0.50400001928E-02 0.  1.
</event>
<event>
 5   0  0.1965415E-07  0.2700287E+04  0.7818609E-02  0.8334912E-01
        1   -1    0    0  501    0  0.00000000000E+00  0.00000000000E+00  0.11459997675E+04  0.11459997675E+04  0.50400001928E-02 0.  1.
       -1   -1    0    0    0  501  0.00000000000E+00  0.00000000000E+00 -0.15906525685E+04  0.15906525685E+04  0.50400001928E-02 0. -1.
    10030    2    1    2    0    0  0.00000000000E+00  0.00000000000E+00 -0.44465280097E+03  0.27366523360E+04  0.27002870023E+04 0.  0.
        4    1    3    3  502    0  0.71524371000E+03  0.10392900878E+04  0.26496946971E+03  0.12891500627E+04  0.12699999809E+01 0.  1.
       -4    1    3    3    0  502 -0.71524371000E+03 -0.10392900878E+04 -0.70962227068E+03  0.14475022733E+04  0.12699999809E+01 0. -1.
</event>
<event>
 5   0  0.5043890E-07  0.2699712E+04  0.7818609E-02  0.8335098E-01
       -2   -1    0    0    0  501  0.00000000000E+00  0.00000000000E+00  0.11615155549E+04  0.11615155549E+04  0.25500000920E-02 0.  1.
        2   -1    0    0  501    0  0.00000000000E+00  0.00000000000E+00 -0.15687358298E+04  0.15687358298E+04  0.25500000920E-02 0. -1.
    10030    2    1    2    0    0  0.00000000000E+00  0.00000000000E+00 -0.40722027494E+03  0.27302513847E+04  0.26997118868E+04 0.  0.
        3    1    3    3  502    0 -0.90818095458E+03  0.64399764240E+03 -0.97551723385E+03  0.14802565634E+04  0.10100000352E+00 0. -1.
       -3    1    3    3    0  502  0.90818095458E+03 -0.64399764240E+03  0.56829695891E+03  0.12499948213E+04  0.10100000352E+00 0.  1.
</event>
<event>
 5   0  0.1971600E-07  0.2701259E+04  0.7818609E-02  0.8334597E-01
       -1   -1    0    0    0  501  0.00000000000E+00  0.00000000000E+00  0.13797242412E+04  0.13797242412E+04  0.50400001928E-02 0.  1.
        1   -1    0    0  501    0  0.00000000000E+00  0.00000000000E+00 -0.13221479752E+04  0.13221479752E+04  0.50400001928E-02 0. -1.
    10030    2    1    2    0    0  0.00000000000E+00  0.00000000000E+00  0.57576265994E+02  0.27018722163E+04  0.27012586783E+04 0.  0.
        5    1    3    3  502    0  0.71010762517E+03  0.67027211831E+03 -0.90451541972E+03  0.13310476274E+04  0.46999998093E+01 0. -1.
       -5    1    3    3    0  502 -0.71010762517E+03 -0.67027211831E+03  0.96209168572E+03  0.13708245889E+04  0.46999998093E+01 0.  1.
</event>
<event>
 5   0  0.4992668E-07  0.2698851E+04  0.7818609E-02  0.8335378E-01
        2   -1    0    0  501    0  0.00000000000E+00  0.00000000000E+00  0.97962961509E+03  0.97962961509E+03  0.25500000920E-02 0. -1.
       -2   -1    0    0    0  501  0.00000000000E+00  0.00000000000E+00 -0.18588141391E+04  0.18588141391E+04  0.25500000920E-02 0.  1.
    10030    2    1    2    0    0  0.00000000000E+00  0.00000000000E+00 -0.87918452403E+03  0.28384437542E+04  0.26988511479E+04 0.  0.
        1    1    3    3  502    0  0.24911589834E+03  0.41152733370E+03  0.88638638802E+03  0.10085109350E+04  0.50400001928E-02 0. -1.
       -1    1    3    3    0  502 -0.24911589834E+03 -0.41152733370E+03 -0.17655709121E+04  0.18299328192E+04  0.50400001928E-02 0.  1.
</event>
<event>
 5   0  0.1888149E-07  0.2701076E+04  0.7818609E-02  0.8334656E-01
       -1   -1    0    0    0  501  0.00000000000E+00  0.00000000000E+00  0.17650214625E+04  0.17650214625E+04  0.50400001928E-02 0.  1.
        1   -1    0    0  501    0  0.00000000000E+00  0.00000000000E+00 -0.10333881299E+04  0.10333881299E+04  0.50400001928E-02 0. -1.
    10030    2    1    2    0    0  0.00000000000E+00  0.00000000000E+00  0.73163333259E+03  0.27984095924E+04  0.27010755105E+04 0.  0.
        1    1    3    3  502    0 -0.64281785558E+03 -0.11589918662E+04  0.96696076968E+02  0.13288442621E+04  0.50400001928E-02 0.  1.
       -1    1    3    3    0  502  0.64281785558E+03  0.11589918662E+04  0.63493725562E+03  0.14695653303E+04  0.50400001928E-02 0. -1.
</event>
<event>
 5   0  0.4735120E-07  0.2700152E+04  0.7818609E-02  0.8334956E-01
        2   -1    0    0  501    0  0.00000000000E+00  0.00000000000E+00  0.26161948550E+04  0.26161948550E+04  0.25500000920E-02 0. -1.
       -2   -1    0    0    0  501  0.00000000000E+00  0.00000000000E+00 -0.69670061519E+03  0.69670061520E+03  0.25500000920E-02 0.  1.
    10030    2    1    2    0    0  0.00000000000E+00  0.00000000000E+00  0.19194942398E+04  0.33128954702E+04  0.27001515253E+04 0.  0.
        2    1    3    3  502    0  0.71114135846E+03 -0.47185848199E+03 -0.32374783904E+03  0.91278974689E+03  0.25500000920E-02 0.  1.
       -2    1    3    3    0  502 -0.71114135846E+03  0.47185848199E+03  0.22432420788E+04  0.24001057233E+04  0.25500000920E-02 0. -1.
</event>
<event>
 5   0  0.1937896E-07  0.2700467E+04  0.7818609E-02  0.8334853E-01
        1   -1    0    0  501    0  0.00000000000E+00  0.00000000000E+00  0.13730438209E+04  0.13730438209E+04  0.50400001928E-02 0.  1.
       -1   -1    0    0    0  501  0.00000000000E+00  0.00000000000E+00 -0.13278021561E+04  0.13278021561E+04  0.50400001928E-02 0. -1.
    10030    2    1    2    0    0  0.00000000000E+00  0.00000000000E+00  0.45241664762E+02  0.27008459771E+04  0.27004670306E+04 0.  0.
        3    1    3    3  502    0  0.12785062280E+04  0.27293919289E+03 -0.31514916366E+03  0.13447650291E+04  0.10100000352E+00 0. -1.
       -3    1    3    3    0  502 -0.12785062280E+04 -0.27293919289E+03  0.36039082842E+03  0.13560809479E+04  0.10100000352E+00 0.  1.
</event>
<event>
 5   0  0.4983208E-07  0.2699772E+04  0.7818609E-02  0.8335079E-01
        2   -1    0    0  501    0  0.00000000000E+00  0.00000000000E+00  0.10260620669E+04  0.10260620669E+04  0.25500000920E-02 0.  1.
       -2   -1    0    0    0  501  0.00000000000E+00  0.00000000000E+00 -0.17759083148E+04  0.17759083148E+04  0.25500000920E-02 0. -1.
    10030    2    1    2    0    0  0.00000000000E+00  0.00000000000E+00 -0.74984624793E+03  0.28019703817E+04  0.26997719578E+04 0.  0.
        4    1    3    3  502    0 -0.30741680133E+03 -0.11619301960E+04  0.26283289094E+03  0.12303128104E+04  0.12699999809E+01 0.  1.
       -4    1    3    3    0  502  0.30741680133E+03  0.11619301960E+04 -0.10126791389E+04  0.15716575712E+04  0.12699999809E+01 0. -1.
</event>
<event>
 5   0  0.4992668E-07  0.2700248E+04  0.7818609E-02  0.8334924E-01
       -2   -1    0    0    0  501  0.00000000000E+00  0.00000000000E+00  0.17743636627E+04  0.17743636627E+04  0.25500000920E-02 0. -1.
        2   -1    0    0  501    0  0.00000000000E+00  0.00000000000E+00 -0.10273176714E+04  0.10273176714E+04  0.25500000920E-02 0.  1.
    10030    2    1    2    0    0  0.00000000000E+00  0.00000000000E+00  0.74704599124E+03  0.28016813341E+04  0.27002482450E+04 0.  0.
        1    1    3    3  502    0 -0.31202387081E+03  0.36951590348E+03 -0.93435733099E+03  0.10521048051E+04  0.50400001928E-02 0.  1.
       -1    1    3    3    0  502  0.31202387081E+03 -0.36951590348E+03  0.16814033222E+04  0.17495765290E+04  0.50400001928E-02 0. -1.
</event>
<event>
 5   0  0.1937896E-07  0.2699584E+04  0.7818609E-02  0.8335140E-01
        1   -1    0    0  501    0  0.00000000000E+00  0.00000000000E+00  0.27903627311E+04  0.27903627311E+04  0.50400001928E-02 0.  1.
       -1   -1    0    0    0  501  0.00000000000E+00  0.00000000000E+00 -0.65293943367E+03  0.65293943369E+03  0.50400001928E-02 0. -1.
    10030    2    1    2    0    0  0.00000000000E+00  0.00000000000E+00  0.21374232975E+04  0.34433021648E+04  0.26995835690E+04 0.  0.
        3    1    3    3  502    0 -0.52472197141E+03  0.62055747279E+03 -0.30593292053E+03  0.86834306952E+03  0.10100000352E+00 0. -1.
       -3    1    3    3    0  502  0.52472197141E+03 -0.62055747279E+03  0.24433562180E+04  0.25749590953E+04  0.10100000352E+00 0.  1.
</event>
<event>
 5   0  0.1971600E-07  0.2700819E+04  0.7818609E-02  0.8334739E-01
       -1   -1    0    0    0  501  0.00000000000E+00  0.00000000000E+00  0.12743438947E+04  0.12743438947E+04  0.50400001928E-02 0. -1.
        1   -1    0    0  501    0  0.00000000000E+00  0.00000000000E+00 -0.14310154754E+04  0.14310154754E+04  0.50400001928E-02 0.  1.
    10030    2    1    2    0    0  0.00000000000E+00  0.00000000000E+00 -0.15667158067E+03  0.27053593702E+04  0.27008190124E+04 0.  0.
        5    1    3    3  502    0  0.13400404045E+04 -0.18257600840E+01 -0.24556591910E+03  0.13623642427E+04  0.46999998093E+01 0.  1.
       -5    1    3    3    0  502 -0.13400404045E+04  0.18257600840E+01  0.88894338434E+02  0.13429951275E+04  0.46999998093E+01 0. -1.
</event>
<event>
 5   0  0.1937896E-07  0.2698812E+04  0.7818609E-02  0.8335391E-01
        1   -1    0    0  501    0  0.00000000000E+00  0.00000000000E+00  0.11307554792E+04  0.11307554792E+04  0.50400001928E-02 0. -1.
       -1   -1    0    0    0  501  0.00000000000E+00  0.00000000000E+00 -0.16103357057E+04  0.16103357057E+04  0.50400001928E-02 0.  1.
    10030    2    1    2    0    0  0.00000000000E+00  0.00000000000E+00 -0.47958022651E+03  0.27410911849E+04  0.26988115329E+04 0.  0.
        3    1    3    3  502    0 -0.79475607149E+03 -0.68856272426E+03 -0.10986977875E+04  0.15208197384E+04  0.10100000352E+00 0.  1.
       -3    1    3    3    0  502  0.79475607149E+03  0.68856272426E+03  0.61911756097E+03  0.12202714464E+04  0.10100000352E+00 0. -1.
</event>
<event>
 5   0  0.1641625E-07  0.2698189E+04  0.7818609E-02  0.8335593E-01
        3   -1    0    0  501    0  0.00000000000E+00  0.00000000000E+00  0.55788943934E+03  0.55788944848E+03  0.10100000352E+00 0. -1.
       -3   -1    0    0    0  501  0.00000000000E+00  0.00000000000E+00 -0.32623954786E+04  0.32623954802E+04  0.10100000352E+00 0.  1.
    10030    2    1    2    0    0  0.00000000000E+00  0.00000000000E+00 -0.27045060393E+04  0.38202849287E+04  0.26981890259E+04 0.  0.
        4    1    3    3  502    0 -0.55995416452E+03 -0.19194227341E+03  0.36420187427E+03  0.69500728112E+03  0.12699999809E+01 0. -1.
       -4    1    3    3    0  502  0.55995416452E+03  0.19194227341E+03 -0.30687079135E+04  0.31252776475E+04  0.12699999809E+01 0.  1.
</event>
<event>
 5   0  0.4735120E-07  0.2699518E+04  0.7818609E-02  0.8335161E-01
        2   -1    0    0  501    0  0.00000000000E+00  0.00000000000E+00  0.20815101844E+04  0.20815101844E+04  0.25500000920E-02 0. -1.
       -2   -1    0    0    0  501  0.00000000000E+00  0.00000000000E+00 -0.87525371218E+03  0.87525371218E+03  0.25500000920E-02 0.  1.
    10030    2    1    2    0    0  0.00000000000E+00  0.00000000000E+00  0.12062564722E+04  0.29567638966E+04  0.26995181169E+04 0.  0.
        2    1    3    3  502    0 -0.51602404341E+03  0.11923376411E+03 -0.75669142767E+03  0.92362298618E+03  0.25500000920E-02 0.  1.
       -2    1    3    3    0  502  0.51602404341E+03 -0.11923376411E+03  0.19629478999E+04  0.20331409104E+04  0.25500000920E-02 0. -1.
</event>
<event>
 5   0  0.1937896E-07  0.2700033E+04  0.7818609E-02  0.8334994E-01
        1   -1    0    0  501    0  0.00000000000E+00  0.00000000000E+00  0.12308959821E+04  0.12308959821E+04  0.50400001928E-02 0.  1.
       -1   -1    0    0    0  501  0.00000000000E+00  0.00000000000E+00 -0.14806648921E+04  0.14806648921E+04  0.50400001928E-02 0. -1.
    10030    2    1    2    0    0  0.00000000000E+00  0.00000000000E+00 -0.24976891006E+03  0.27115608742E+04  0.27000329380E+04 0.  0.
        3    1    3    3  502    0 -0.12171419888E+04  0.51737599118E+03  0.14725576793E+03  0.13307128948E+04  0.10100000352E+00 0.  1.
       -3    1    3    3    0  502  0.12171419888E+04 -0.51737599118E+03 -0.39702467799E+03  0.13808479794E+04  0.10100000352E+00 0. -1.
</event>
<event>
 5   0  0.4992668E-07  0.2699426E+04  0.7818609E-02  0.8335191E-01
        2   -1    0    0  501    0  0.00000000000E+00  0.00000000000E+00  0.16003941001E+04  0.16003941001E+04  0.25500000920E-02 0. -1.
       -2   -1    0    0    0  501  0.00000000000E+00  0.00000000000E+00 -0.11382976415E+04  0.11382976415E+04  0.25500000920E-02 0.  1.
    10030    2    1    2    0    0  0.00000000000E+00  0.00000000000E+00  0.46209645857E+03  0.27386917416E+04  0.26994257387E+04 0.  0.
        1    1    3    3  502    0 -0.77690334865E+03 -0.43617224382E+03  0.12596497366E+04  0.15429006768E+04  0.50400001928E-02 0. -1.
       -1    1    3    3    0  502  0.77690334865E+03  0.43617224382E+03 -0.79755327803E+03  0.11957910648E+04  0.50400001928E-02 0.  1.
</event>
<event>
 5   0  0.4983208E-07  0.2693007E+04  0.7818609E-02  0.8337277E-01
        2   -1    0    0  501    0  0.00000000000E+00  0.00000000000E+00  0.29788424395E+04  0.29788424395E+04  0.25500000920E-02 0.  1.
       -2   -1    0    0    0  501  0.00000000000E+00  0.00000000000E+00 -0.60864983580E+03  0.60864983580E+03  0.25500000920E-02 0. -1.
    10030    2    1    2    0    0  0.00000000000E+00  0.00000000000E+00  0.23701926037E+04  0.35874922753E+04  0.26930072125E+04 0.  0.
        4    1    3    3  502    0 -0.62521849418E+03  0.43330110941E+03 -0.29498421916E+03  0.81588315299E+03  0.12699999809E+01 0. -1.
       -4    1    3    3    0  502  0.62521849418E+03 -0.43330110941E+03  0.26651768229E+04  0.27716091223E+04  0.12699999809E+01 0.  1.
</event>
<event>
 5   0  0.1971600E-07  0.2698627E+04  0.7818609E-02  0.8335451E-01
       -1   -1    0    0    0  501  0.00000000000E+00  0.00000000000E+00  0.13482553367E+04  0.13482553367E+04  0.50400001928E-02 0. -1.
        1   -1    0    0  501    0  0.00000000000E+00  0.00000000000E+00 -0.13503720284E+04  0.13503720284E+04  0.50400001928E-02 0.  1.
    10030    2    1    2    0    0  0.00000000000E+00  0.00000000000E+00 -0.21166917538E+01  0.26986273651E+04  0.26986265350E+04 0.  0.
        5    1    3    3  502    0 -0.10666160877E+04 -0.71230110240E+03  0.41796620341E+03  0.13489850170E+04  0.46999998093E+01 0. -1.
       -5    1    3    3    0  502  0.10666160877E+04  0.71230110240E+03 -0.42008289516E+03  0.13496423481E+04  0.46999998093E+01 0.  1.
</event>
<event>
 5   0  0.5043890E-07  0.2701245E+04  0.7818609E-02  0.8334601E-01
        2   -1    0    0  501    0  0.00000000000E+00  0.00000000000E+00  0.17321549448E+04  0.17321549448E+04  0.25500000920E-02 0.  1.
       -2   -1    0    0    0  501  0.00000000000E+00  0.00000000000E+00 -0.10531279629E+04  0.10531279629E+04  0.25500000920E-02 0. -1.
    10030    2    1    2    0    0  0.00000000000E+00  0.00000000000E+00  0.67902698189E+03  0.27852829078E+04  0.27012447565E+04 0.  0.
        3    1    3    3  502    0 -0.26097633149E+03  0.12331560867E+04  0.83978637441E+03  0.15146034942E+04  0.10100000352E+00 0. -1.
       -3    1    3    3    0  502  0.26097633149E+03 -0.12331560867E+04 -0.16075939252E+03  0.12706794136E+04  0.10100000352E+00 0.  1.
</event>
<event>
 5   0  0.5043890E-07  0.2699002E+04  0.7818609E-02  0.8335329E-01
        2   -1    0    0  501    0  0.00000000000E+00  0.00000000000E+00  0.87243487290E+03  0.87243487290E+03  0.25500000920E-02 0. -1.
       -2   -1    0    0    0  501  0.00000000000E+00  0.00000000000E+00 -0.20874369647E+04  0.20874369647E+04  0.25500000920E-02 0.  1.
    10030    2    1    2    0    0  0.00000000000E+00  0.00000000000E+00 -0.12150020918E+04  0.29598718376E+04  0.26990018918E+04 0.  0.
        3    1    3    3  502    0  0.34903648549E+03 -0.13030992079E+04 -0.64640954252E+03  0.14959075241E+04  0.10100000352E+00 0.  1.
       -3    1    3    3    0  502 -0.34903648549E+03  0.13030992079E+04 -0.56859254930E+03  0.14639643135E+04  0.10100000352E+00 0. -1.
</event>
<event>
 5   0  0.1964242E-07  0.2702884E+04  0.7818609E-02  0.8334070E-01
       -1   -1    0    0    0  501  0.00000000000E+00  0.00000000000E+00  0.12635199623E+04  0.12635199624E+04  0.50400001928E-02 0.  1.
        1   -1    0    0  501    0  0.00000000000E+00  0.00000000000E+00 -0.14454824687E+04  0.14454824687E+04  0.50400001928E-02 0. -1.
    10030    2    1    2    0    0  0.00000000000E+00  0.00000000000E+00 -0.18196250637E+03  0.27090024311E+04  0.27028843515E+04 0.  0.
        2    1    3    3  502    0  0.13656646899E+03  0.32054578030E+03  0.12177293093E+04  0.12665957005E+04  0.25500000920E-02 0.  1.
       -2    1    3    3    0  502 -0.13656646899E+03 -0.32054578030E+03 -0.13996918156E+04  0.14424067306E+04  0.25500000920E-02 0. -1.
</event>
<event>
 5   0  0.1971600E-07  0.2698404E+04  0.7818609E-02  0.8335523E-01
        1   -1    0    0  501    0  0.00000000000E+00  0.00000000000E+00  0.19458155399E+04  0.19458155399E+04  0.50400001928E-02 0.  1.
       -1   -1    0    0    0  501  0.00000000000E+00  0.00000000000E+00 -0.93551859316E+03  0.93551859317E+03  0.50400001928E-02 0. -1.
    10030    2    1    2    0    0  0.00000000000E+00  0.00000000000E+00  0.10102969467E+04  0.28813341331E+04  0.26984044296E+04 0.  0.
        5    1    3    3  502    0 -0.13377222257E+04 -0.11601556870E+02  0.69220773074E+03  0.15062566122E+04  0.46999998093E+01 0.  1.
       -5    1    3    3    0  502  0.13377222257E+04  0.11601556870E+02  0.31808921601E+03  0.13750775209E+04  0.46999998093E+01 0. -1.
</event>
<event>
 5   0  0.1888149E-07  0.2696984E+04  0.7818609E-02  0.8335984E-01
       -1   -1    0    0    0  501  0.00000000000E+00  0.00000000000E+00  0.83132635753E+03  0.83132635755E+03  0.50400001928E-02 0. -1.
        1   -1    0    0  501    0  0.00000000000E+00  0.00000000000E+00 -0.21873849902E+04  0.21873849902E+04  0.50400001928E-02 0.  1.
    10030    2    1    2    0    0  0.00000000000E+00  0.00000000000E+00 -0.13560586327E+04  0.30187113478E+04  0.26969840908E+04 0.  0.
        1    1    3    3  502    0 -0.13356778523E+04 -0.92836378554E+02 -0.49832506085E+03  0.14286293377E+04  0.50400001928E-02 0. -1.
       -1    1    3    3    0  502  0.13356778523E+04  0.92836378554E+02 -0.85773357186E+03  0.15900820101E+04  0.50400001928E-02 0.  1.
</event>
<event>
 5   0  0.4843887E-07  0.2700539E+04  0.7818609E-02  0.8334830E-01
        2   -1    0    0  501    0  0.00000000000E+00  0.00000000000E+00  0.12358930088E+04  0.12358930088E+04  0.25500000920E-02 0. -1.
       -2   -1    0    0    0  501  0.00000000000E+00  0.00000000000E+00 -0.14752309340E+04  0.14752309340E+04  0.25500000920E-02 0.  1.
    10030    2    1    2    0    0  0.00000000000E+00  0.00000000000E+00 -0.23933792523E+03  0.27111239428E+04  0.27005389074E+04 0.  0.
        5    1    3    3  502    0  0.24223922821E+03  0.33565690755E+03  0.11706157919E+04  0.12416556791E+04  0.46999998093E+01 0. -1.
       -5    1    3    3    0  502 -0.24223922821E+03 -0.33565690755E+03 -0.14099537171E+04  0.14694682636E+04  0.46999998093E+01 0.  1.
</event>
<event>
 5   0  0.5043890E-07  0.2699804E+04  0.7818609E-02  0.8335069E-01
       -2   -1    0    0    0  501  0.00000000000E+00  0.00000000000E+00  0.10670959448E+04  0.10670959448E+04  0.25500000920E-02 0.  1.
        2   -1    0    0  501    0  0.00000000000E+00  0.00000000000E+00 -0.17076579819E+04  0.17076579819E+04  0.25500000920E-02 0. -1.
    10030    2    1    2    0    0  0.00000000000E+00  0.00000000000E+00 -0.64056203706E+03  0.27747539267E+04  0.26998036282E+04 0.  0.
        3    1    3    3  502    0 -0.36175880492E+03  0.81165130566E+02  0.10137428465E+04  0.10794127017E+04  0.10100000352E+00 0.  1.
       -3    1    3    3    0  502  0.36175880492E+03 -0.81165130566E+02 -0.16543048836E+04  0.16953412251E+04  0.10100000352E+00 0. -1.
</event>
<event>
 5   0  0.4983208E-07  0.2698962E+04  0.7818609E-02  0.8335342E-01
        2   -1    0    0  501    0  0.00000000000E+00  0.00000000000E+00  0.10936360593E+04  0.10936360593E+04  0.25500000920E-02 0. -1.
       -2   -1    0    0    0  501  0.00000000000E+00  0.00000000000E+00 -0.16651780534E+04  0.16651780534E+04  0.25500000920E-02 0.  1.
    10030    2    1    2    0    0  0.00000000000E+00  0.00000000000E+00 -0.57154199409E+03  0.27588141126E+04  0.26989618480E+04 0.  0.
        4    1    3    3  502    0 -0.10153613152E+04  0.44113043230E+03  0.50305655401E+03  0.12159860888E+04  0.12699999809E+01 0. -1.
       -4    1    3    3    0  502  0.10153613152E+04 -0.44113043230E+03 -0.10745985481E+04  0.15428280238E+04  0.12699999809E+01 0.  1.
</event>
<event>
 5   0  0.5043890E-07  0.2702671E+04  0.7818609E-02  0.8334139E-01
        2   -1    0    0  501    0  0.00000000000E+00  0.00000000000E+00  0.21631848466E+04  0.21631848466E+04  0.25500000920E-02 0. -1.
       -2   -1    0    0    0  501  0.00000000000E+00  0.00000000000E+00 -0.84417538535E+03  0.84417538535E+03  0.25500000920E-02 0.  1.
    10030    2    1    2    0    0  0.00000000000E+00  0.00000000000E+00  0.13190094613E+04  0.30073602320E+04  0.27026708283E+04 0.  0.
        3    1    3    3  502    0 -0.78966668079E+03  0.27817458126E+03 -0.52081062247E+03  0.98600115572E+03  0.10100000352E+00 0.  1.
       -3    1    3    3    0  502  0.78966668079E+03 -0.27817458126E+03  0.18398200837E+04  0.20213590762E+04  0.10100000352E+00 0. -1.
</event>
<event>
 5   0  0.1971600E-07  0.2699949E+04  0.7818609E-02  0.8335022E-01
       -1   -1    0    0    0  501  0.00000000000E+00  0.00000000000E+00  0.14077145443E+04  0.14077145443E+04  0.50400001928E-02 0.  1.
        1   -1    0    0  501    0  0.00000000000E+00  0.00000000000E+00 -0.12946023100E+04  0.12946023100E+04  0.50400001928E-02 0. -1.
    10030    2    1    2    0    0  0.00000000000E+00  0.00000000000E+00  0.11311223433E+03  0.27023168544E+04  0.26999485187E+04 0.  0.
        5    1    3    3  502    0  0.82227335480E+03  0.98811873129E+03 -0.35599024773E+03  0.13338902667E+04  0.46999998093E+01 0. -1.
       -5    1    3    3    0  502 -0.82227335480E+03 -0.98811873129E+03  0.46910248206E+03  0.13684265877E+04  0.46999998093E+01 0.  1.
</event>
<event>
 5   0  0.1965415E-07  0.2699308E+04  0.7818609E-02  0.8335230E-01
       -1   -1    0    0    0  501  0.00000000000E+00  0.00000000000E+00  0.80083303390E+03  0.80083303392E+03  0.50400001928E-02 0. -1.
        1   -1    0    0  501    0  0.00000000000E+00  0.00000000000E+00 -0.22745888872E+04  0.22745888872E+04  0.50400001928E-02 0.  1.
    10030    2    1    2    0    0  0.00000000000E+00  0.00000000000E+00 -0.14737558533E+04  0.30754219211E+04  0.26993079998E+04 0.  0.
        4    1    3    3  502    0 -0.25825879217E+03 -0.10253650685E+04 -0.16924912790E+04  0.19956451262E+04  0.12699999809E+01 0.  1.
       -4    1    3    3    0  502  0.25825879217E+03  0.10253650685E+04  0.21873542569E+03  0.10797767949E+04  0.12699999809E+01 0. -1.
</event>
<event>
 5   0  0.1971600E-07  0.2699254E+04  0.7818609E-02  0.8335247E-01
        1   -1    0    0  501    0  0.00000000000E+00  0.00000000000E+00  0.14369591645E+04  0.14369591645E+04  0.50400001928E-02 0.  1.
       -1   -1    0    0    0  501  0.00000000000E+00  0.00000000000E+00 -0.12676027896E+04  0.12676027896E+04  0.50400001928E-02 0. -1.
    10030    2    1    2    0    0  0.00000000000E+00  0.00000000000E+00  0.16935637485E+03  0.27045619541E+04  0.26992543011E+04 0.  0.
        5    1    3    3  502    0  0.23642255737E+03 -0.12745693856E+04  0.46098106508E+03  0.13758446048E+04  0.46999998093E+01 0.  1.
       -5    1    3    3    0  502 -0.23642255737E+03  0.12745693856E+04 -0.29162469023E+03  0.13287173493E+04  0.46999998093E+01 0. -1.
</event>
<event>
 5   0  0.1965415E-07  0.2701393E+04  0.7818609E-02  0.8334553E-01
       -1   -1    0    0    0  501  0.00000000000E+00  0.00000000000E+00  0.18342105470E+04  0.18342105470E+04  0.50400001928E-02 0.  1.
        1   -1    0    0  501    0  0.00000000000E+00  0.00000000000E+00 -0.99464118560E+03  0.99464118562E+03  0.50400001928E-02 0. -1.
    10030    2    1    2    0    0  0.00000000000E+00  0.00000000000E+00  0.83956936136E+03  0.28288517326E+04  0.27013932354E+04 0.  0.
        4    1    3    3  502    0  0.31544046311E+03  0.47637717374E+03 -0.86186653473E+03  0.10340471140E+04  0.12699999809E+01 0. -1.
       -4    1    3    3    0  502 -0.31544046311E+03 -0.47637717374E+03  0.17014358961E+04  0.17948046186E+04  0.12699999809E+01 0.  1.
</event>
<event>
 5   0  0.5043890E-07  0.2700202E+04  0.7818609E-02  0.8334939E-01
       -2   -1    0    0    0  501  0.00000000000E+00  0.00000000000E+00  0.11679800678E+04  0.11679800678E+04  0.25500000920E-02 0.  1.
        2   -1    0    0  501    0  0.00000000000E+00  0.00000000000E+00 -0.15606202564E+04  0.15606202564E+04  0.25500000920E-02 0. -1.
    10030    2    1    2    0    0  0.00000000000E+00  0.00000000000E+00 -0.39264018854E+03  0.27286003242E+04  0.27002024760E+04 0.  0.
        3    1    3    3  502    0 -0.84745549642E+03 -0.38614668160E+03  0.79144832661E+03  0.12221622405E+04  0.10100000352E+00 0.  1.
       -3    1    3    3    0  502  0.84745549642E+03  0.38614668160E+03 -0.11840885152E+04  0.15064380837E+04  0.10100000352E+00 0. -1.
</event>
<event>
 5   0  0.1937896E-07  0.2700066E+04  0.7818609E-02  0.8334984E-01
        1   -1    0    0  501    0  0.00000000000E+00  0.00000000000E+00  0.16034962157E+04  0.16034962157E+04  0.50400001928E-02 0. -1.
       -1   -1    0    0    0  501  0.00000000000E+00  0.00000000000E+00 -0.11366346219E+04  0.11366346219E+04  0.50400001928E-02 0.  1.
    10030    2    1    2    0    0  0.00000000000E+00  0.00000000000E+00  0.46686159376E+03  0.27401308376E+04  0.27000661583E+04 0.  0.
        3    1    3    3  502    0  0.63304978952E+03  0.49786296059E+02  0.14424771752E+04  0.15760619031E+04  0.10100000352E+00 0. -1.
       -3    1    3    3    0  502 -0.63304978952E+03 -0.49786296059E+02 -0.97561558144E+03  0.11640689345E+04  0.10100000352E+00 0.  1.
</event>
<event>
 5   0  0.1641625E-07  0.2700044E+04  0.7818609E-02  0.8334991E-01
       -4   -1    0    0    0  501  0.00000000000E+00  0.00000000000E+00  0.13757203061E+04  0.13757208923E+04  0.12699999809E+01 0. -1.
        4   -1    0    0  501    0  0.00000000000E+00  0.00000000000E+00 -0.13248022377E+04  0.13248028465E+04  0.12699999809E+01 0.  1.
    10030    2    1    2    0    0  0.00000000000E+00  0.00000000000E+00  0.50918068392E+02  0.27005237388E+04  0.27000436689E+04 0.  0.
        2    1    3    3  502    0  0.45646295753E+03 -0.13554489257E+03  0.12889445440E+04  0.13740847452E+04  0.25500000920E-02 0. -1.
       -2    1    3    3    0  502 -0.45646295753E+03  0.13554489257E+03 -0.12380264756E+04  0.13264389936E+04  0.25500000920E-02 0.  1.
</event>
<event>
 5   0  0.5043890E-07  0.2700190E+04  0.7818609E-02  0.8334943E-01
        2   -1    0    0  501    0  0.00000000000E+00  0.00000000000E+00  0.11627382706E+04  0.11627382706E+04  0.25500000920E-02 0. -1.
       -2   -1    0    0    0  501  0.00000000000E+00  0.00000000000E+00 -0.15676414128E+04  0.15676414128E+04  0.25500000920E-02 0.  1.
    10030    2    1    2    0    0  0.00000000000E+00  0.00000000000E+00 -0.40490314220E+03  0.27303796834E+04  0.27001901157E+04 0.  0.
        3    1    3    3  502    0  0.14852499880E+03 -0.29843759758E+03  0.11204693869E+04  0.11690065577E+04  0.10100000352E+00 0. -1.
       -3    1    3    3    0  502 -0.14852499880E+03  0.29843759758E+03 -0.15253725291E+04  0.15613731257E+04  0.10100000352E+00 0.  1.
</event>
<event>
 5   0  0.1937896E-07  0.2699752E+04  0.7818609E-02  0.8335085E-01
        1   -1    0    0  501    0  0.00000000000E+00  0.00000000000E+00  0.14104557763E+04  0.14104557763E+04  0.50400001928E-02 0.  1.
       -1   -1    0    0    0  501  0.00000000000E+00  0.00000000000E+00 -0.12918982826E+04  0.12918982826E+04  0.50400001928E-02 0. -1.
    10030    2    1    2    0    0  0.00000000000E+00  0.00000000000E+00  0.11855749372E+03  0.27023540589E+04  0.26997521332E+04 0.  0.
        3    1    3    3  502    0  0.17470708183E+03  0.80866933610E+03 -0.10083779048E+04  0.13043368694E+04  0.10100000352E+00 0. -1.
       -3    1    3    3    0  502 -0.17470708183E+03 -0.80866933610E+03  0.11269353986E+04  0.13980171896E+04  0.10100000352E+00 0.  1.
</event>
<event>
 5   0  0.4983208E-07  0.2700245E+04  0.7818609E-02  0.8334925E-01
        2   -1    0    0  501    0  0.00000000000E+00  0.00000000000E+00  0.13635694336E+04  0.13635694336E+04  0.25500000920E-02 0.  1.
       -2   -1    0    0    0  501  0.00000000000E+00  0.00000000000E+00 -0.13368086315E+04  0.13368086315E+04  0.25500000920E-02 0. -1.
    10030    2    1    2    0    0  0.00000000000E+00  0.00000000000E+00  0.26760802004E+02  0.27003780651E+04  0.27002454618E+04 0.  0.
        4    1    3    3  502    0  0.62697275131E+03 -0.79720734317E+03 -0.87783977444E+03  0.13413570223E+04  0.12699999809E+01 0. -1.
       -4    1    3    3    0  502 -0.62697275131E+03  0.79720734317E+03  0.90460057644E+03  0.13590210428E+04  0.12699999809E+01 0.  1.
</event>
<event>
 5   0  0.1641625E-07  0.2697907E+04  0.7818609E-02  0.8335684E-01
       -4   -1    0    0    0  501  0.00000000000E+00  0.00000000000E+00  0.17819208137E+04  0.17819212663E+04  0.12699999809E+01 0.  1.
        4   -1    0    0  501    0  0.00000000000E+00  0.00000000000E+00 -0.10211869103E+04  0.10211877000E+04  0.12699999809E+01 0. -1.
    10030    2    1    2    0    0  0.00000000000E+00  0.00000000000E+00  0.76073390343E+03  0.28031089663E+04  0.26979073011E+04 0.  0.
        3    1    3    3  502    0  0.48267770630E+03  0.76960204248E+03 -0.65571924647E+03  0.11203717295E+04  0.10100000352E+00 0. -1.
       -3    1    3    3    0  502 -0.48267770630E+03 -0.76960204248E+03  0.14164531499E+04  0.16827372368E+04  0.10100000352E+00 0.  1.
</event>
<event>
 5   0  0.1964242E-07  0.2702088E+04  0.7818609E-02  0.8334328E-01
        1   -1    0    0  501    0  0.00000000000E+00  0.00000000000E+00  0.15096105257E+04  0.15096105258E+04  0.50400001928E-02 0. -1.
       -1   -1    0    0    0  501  0.00000000000E+00  0.00000000000E+00 -0.12091327230E+04  0.12091327230E+04  0.50400001928E-02 0.  1.
    10030    2    1    2    0    0  0.00000000000E+00  0.00000000000E+00  0.30047780273E+03  0.27187432488E+04  0.27020877008E+04 0.  0.
        2    1    3    3  502    0 -0.36407289391E+03  0.39583622593E+03  0.13972670350E+04  0.14971942282E+04  0.25500000920E-02 0. -1.
       -2    1    3    3    0  502  0.36407289391E+03 -0.39583622593E+03 -0.10967892322E+04  0.12215490206E+04  0.25500000920E-02 0.  1.
</event>
<event>
 5   0  0.1965415E-07  0.2705665E+04  0.7818609E-02  0.8333169E-01
       -1   -1    0    0    0  501  0.00000000000E+00  0.00000000000E+00  0.15013313151E+04  0.15013313151E+04  0.50400001928E-02 0.  1.
        1   -1    0    0  501    0  0.00000000000E+00  0.00000000000E+00 -0.12190222501E+04  0.12190222501E+04  0.50400001928E-02 0. -1.
    10030    2    1    2    0    0  0.00000000000E+00  0.00000000000E+00  0.28230906498E+03  0.27203535653E+04  0.27056653732E+04 0.  0.
        4    1    3    3  502    0 -0.94582859342E+03 -0.95205556640E+03  0.31282433374E+03  0.13779920923E+04  0.12699999809E+01 0.  1.
       -4    1    3    3    0  502  0.94582859342E+03  0.95205556640E+03 -0.30515268757E+02  0.13423614730E+04  0.12699999809E+01 0. -1.
</event>
<event>
 5   0  0.1937896E-07  0.2696056E+04  0.7818609E-02  0.8336286E-01
       -1   -1    0    0    0  501  0.00000000000E+00  0.00000000000E+00  0.11919111478E+04  0.11919111478E+04  0.50400001928E-02 0. -1.
        1   -1    0    0  501    0  0.00000000000E+00  0.00000000000E+00 -0.15245929724E+04  0.15245929724E+04  0.50400001928E-02 0.  1.
    10030    2    1    2    0    0  0.00000000000E+00  0.00000000000E+00 -0.33268182464E+03  0.27165041202E+04  0.26960559042E+04 0.  0.
        3    1    3    3  502    0  0.21977277753E+03 -0.24190552320E+03  0.11513858506E+04  0.11968741551E+04  0.10100000352E+00 0. -1.
       -3    1    3    3    0  502 -0.21977277753E+03  0.24190552320E+03 -0.14840676753E+04  0.15196299651E+04  0.10100000352E+00 0.  1.
</event>
<event>
 5   0  0.1971600E-07  0.2700285E+04  0.7818609E-02  0.8334913E-01
        1   -1    0    0  501    0  0.00000000000E+00  0.00000000000E+00  0.14515293755E+04  0.14515293755E+04  0.50400001928E-02 0.  1.
       -1   -1    0    0    0  501  0.00000000000E+00  0.00000000000E+00 -0.12558370503E+04  0.12558370503E+04  0.50400001928E-02 0. -1.
    10030    2    1    2    0    0  0.00000000000E+00  0.00000000000E+00  0.19569232517E+03  0.27073664258E+04  0.27002847031E+04 0.  0.
        5    1    3    3  502    0  0.13071908128E+04 -0.11708447854E+02 -0.24064458307E+03  0.13292166167E+04  0.46999998093E+01 0. -1.
       -5    1    3    3    0  502 -0.13071908128E+04  0.11708447854E+02  0.43633690824E+03  0.13781498091E+04  0.46999998093E+01 0.  1.
</event>
<event>
 5   0  0.5043890E-07  0.2703566E+04  0.7818609E-02  0.8333849E-01
        2   -1    0    0  501    0  0.00000000000E+00  0.00000000000E+00  0.21598155017E+04  0.21598155017E+04  0.25500000920E-02 0. -1.
       -2   -1    0    0    0  501  0.00000000000E+00  0.00000000000E+00 -0.84605225305E+03  0.84605225305E+03  0.25500000920E-02 0.  1.
    10030    2    1    2    0    0  0.00000000000E+00  0.00000000000E+00  0.13137632487E+04  0.30058677548E+04  0.27035656244E+04 0.  0.
        3    1    3    3  502    0 -0.63213837418E+03 -0.98761421000E+03  0.14046438716E+04  0.18297554941E+04  0.10100000352E+00 0. -1.
       -3    1    3    3    0  502  0.63213837418E+03  0.98761421000E+03 -0.90880622932E+02  0.11761122607E+04  0.10100000352E+00 0.  1.
</event>
<event>
 5   0  0.1888149E-07  0.2699883E+04  0.7818609E-02  0.8335043E-01
        1   -1    0    0  501    0  0.00000000000E+00  0.00000000000E+00  0.10970634409E+04  0.10970634409E+04  0.50400001928E-02 0.  1.
       -1   -1    0    0    0  501  0.00000000000E+00  0.00000000000E+00 -0.16611094326E+04  0.16611094326E+04  0.50400001928E-02 0. -1.
    10030    2    1    2    0    0  0.00000000000E+00  0.00000000000E+00 -0.56404599165E+03  0.27581728735E+04  0.26998832789E+04 0.  0.
        1    1    3    3  502    0 -0.10214679026E+04 -0.36866655861E+03 -0.11012275447E+04  0.15466136598E+04  0.50400001928E-02 0. -1.
       -1    1    3    3    0  502  0.10214679026E+04  0.36866655861E+03  0.53718155304E+03  0.12115592137E+04  0.50400001928E-02 0.  1.
</event>
<event>
 5   0  0.4992668E-07  0.2699369E+04  0.7818609E-02  0.8335210E-01
        2   -1    0    0  501    0  0.00000000000E+00  0.00000000000E+00  0.17815340766E+04  0.17815340766E+04  0.25500000920E-02 0.  1.
       -2   -1    0    0    0  501  0.00000000000E+00  0.00000000000E+00 -0.10225166254E+04  0.10225166254E+04  0.25500000920E-02 0. -1.
    10030    2    1    2    0    0  0.00000000000E+00  0.00000000000E+00  0.75901745120E+03  0.28040507020E+04  0.26993689722E+04 0.  0.
        1    1    3    3  502    0 -0.12776337849E+04  0.42713575053E+03  0.29350191132E+03  0.13787445049E+04  0.50400001928E-02 0. -1.
       -1    1    3    3    0  502  0.12776337849E+04 -0.42713575053E+03  0.46551553988E+03  0.14253061972E+04  0.50400001928E-02 0.  1.
</event>
<event>
 5   0  0.1937896E-07  0.2699344E+04  0.7818609E-02  0.8335218E-01
       -1   -1    0    0    0  501  0.00000000000E+00  0.00000000000E+00  0.88709197431E+03  0.88709197433E+03  0.50400001928E-02 0. -1.
        1   -1    0    0  501    0  0.00000000000E+00  0.00000000000E+00 -0.20534671436E+04  0.20534671436E+04  0.50400001928E-02 0.  1.
    10030    2    1    2    0    0  0.00000000000E+00  0.00000000000E+00 -0.11663751693E+04  0.29405591179E+04  0.26993437889E+04 0.  0.
        3    1    3    3  502    0  0.74661862501E+03  0.10451903290E+04 -0.10346510787E+04  0.16493529216E+04  0.10100000352E+00 0.  1.
       -3    1    3    3    0  502 -0.74661862501E+03 -0.10451903290E+04 -0.13172409052E+03  0.12912061963E+04  0.10100000352E+00 0. -1.
</event>
<event>
 5   0  0.1964242E-07  0.2700400E+04  0.7818609E-02  0.8334875E-01
        1   -1    0    0  501    0  0.00000000000E+00  0.00000000000E+00  0.20664394416E+04  0.20664394416E+04  0.50400001928E-02 0.  1.
       -1   -1    0    0    0  501  0.00000000000E+00  0.00000000000E+00 -0.88221296386E+03  0.88221296387E+03  0.50400001928E-02 0. -1.
    10030    2    1    2    0    0  0.00000000000E+00  0.00000000000E+00  0.11842264777E+04  0.29486524054E+04  0.27003997218E+04 0.  0.
        2    1    3    3  502    0  0.12801453356E+04 -0.35265714572E+03  0.32486747659E+03  0.13669959840E+04  0.25500000920E-02 0. -1.
       -2    1    3    3    0  502 -0.12801453356E+04  0.35265714572E+03  0.85935900111E+03  0.15816564215E+04  0.25500000920E-02 0.  1.
</event>
<event>
 5   0  0.1971600E-07  0.2699886E+04  0.7818609E-02  0.8335042E-01
        1   -1    0    0  501    0  0.00000000000E+00  0.00000000000E+00  0.59807559289E+03  0.59807559291E+03  0.50400001928E-02 0.  1.
       -1   -1    0    0    0  501  0.00000000000E+00  0.00000000000E+00 -0.30470158007E+04  0.30470158007E+04  0.50400001928E-02 0. -1.
    10030    2    1    2    0    0  0.00000000000E+00  0.00000000000E+00 -0.24489402078E+04  0.36450913936E+04  0.26998857617E+04 0.  0.
        5    1    3    3  502    0  0.77315183981E+03  0.27140705229E+03  0.22390641925E+03  0.84945966945E+03  0.46999998093E+01 0.  1.
       -5    1    3    3    0  502 -0.77315183981E+03 -0.27140705229E+03 -0.26728466270E+04  0.27956317242E+04  0.46999998093E+01 0. -1.
</event>
<event>
 5   0  0.4843887E-07  0.2700104E+04  0.7818609E-02  0.8334971E-01
        2   -1    0    0  501    0  0.00000000000E+00  0.00000000000E+00  0.19509299128E+04  0.19509299128E+04  0.25500000920E-02 0. -1.
       -2   -1    0    0    0  501  0.00000000000E+00  0.00000000000E+00 -0.93424185655E+03  0.93424185655E+03  0.25500000920E-02 0.  1.
    10030    2    1    2    0    0  0.00000000000E+00  0.00000000000E+00  0.10166880562E+04  0.28851717693E+04  0.27001039859E+04 0.  0.
        5    1    3    3  502    0  0.76310372404E+03 -0.67608039775E+03  0.14539915070E+04  0.17758168234E+04  0.46999998093E+01 0. -1.
       -5    1    3    3    0  502 -0.76310372404E+03  0.67608039775E+03 -0.43730345081E+03  0.11093549459E+04  0.46999998093E+01 0.  1.
</event>
<event>
 5   0  0.4843887E-07  0.2699760E+04  0.7818609E-02  0.8335083E-01
        2   -1    0    0  501    0  0.00000000000E+00  0.00000000000E+00  0.19364643560E+04  0.19364643560E+04  0.25500000920E-02 0.  1.
       -2   -1    0    0    0  501  0.00000000000E+00  0.00000000000E+00 -0.94098097193E+03  0.94098097194E+03  0.25500000920E-02 0. -1.
    10030    2    1    2    0    0  0.00000000000E+00  0.00000000000E+00  0.99548338408E+03  0.28774453280E+04  0.26997600722E+04 0.  0.
        5    1    3    3  502    0  0.67131046575E+03  0.43056755592E+03  0.16585058849E+04  0.18403016117E+04  0.46999998093E+01 0.  1.
       -5    1    3    3    0  502 -0.67131046575E+03 -0.43056755592E+03 -0.66302250082E+03  0.10371437163E+04  0.46999998093E+01 0. -1.
</event>
<event>
 5   0  0.4843887E-07  0.2700147E+04  0.7818609E-02  0.8334957E-01
       -2   -1    0    0    0  501  0.00000000000E+00  0.00000000000E+00  0.14400228266E+04  0.14400228266E+04  0.25500000920E-02 0.  1.
        2   -1    0    0  501    0  0.00000000000E+00  0.00000000000E+00 -0.12657428402E+04  0.12657428402E+04  0.25500000920E-02 0. -1.
    10030    2    1    2    0    0  0.00000000000E+00  0.00000000000E+00  0.17427998637E+03  0.27057656668E+04  0.27001470942E+04 0.  0.
        5    1    3    3  502    0  0.90234058847E+03 -0.82565509678E+03 -0.48567137735E+03  0.13159877101E+04  0.46999998093E+01 0. -1.
       -5    1    3    3    0  502 -0.90234058847E+03  0.82565509678E+03  0.65995136372E+03  0.13897779567E+04  0.46999998093E+01 0.  1.
</event>
<event>
 5   0  0.1965415E-07  0.2700083E+04  0.7818609E-02  0.8334978E-01
       -1   -1    0    0    0  501  0.00000000000E+00  0.00000000000E+00  0.16023164281E+04  0.16023164281E+04  0.50400001928E-02 0.  1.
        1   -1    0    0  501    0  0.00000000000E+00  0.00000000000E+00 -0.11374854512E+04  0.11374854512E+04  0.50400001928E-02 0. -1.
    10030    2    1    2    0    0  0.00000000000E+00  0.00000000000E+00  0.46483097689E+03  0.27398018793E+04  0.27000826841E+04 0.  0.
        4    1    3    3  502    0  0.90410706582E+03  0.42995037063E+03 -0.68663603982E+03  0.12139759354E+04  0.12699999809E+01 0. -1.
       -4    1    3    3    0  502 -0.90410706582E+03 -0.42995037063E+03  0.11514670167E+04  0.15258259439E+04  0.12699999809E+01 0.  1.
</event>
<event>
 5   0  0.4735120E-07  0.2701341E+04  0.7818609E-02  0.8334570E-01
        2   -1    0    0  501    0  0.00000000000E+00  0.00000000000E+00  0.16337890735E+04  0.16337890735E+04  0.25500000920E-02 0.  1.
       -2   -1    0    0    0  501  0.00000000000E+00  0.00000000000E+00 -0.11166130450E+04  0.11166130451E+04  0.25500000920E-02 0. -1.
    10030    2    1    2    0    0  0.00000000000E+00  0.00000000000E+00  0.51717602848E+03  0.27504021186E+04  0.27013405504E+04 0.  0.
        2    1    3    3  502    0 -0.49616461148E+03  0.70831911838E+03 -0.79775923505E+03  0.11765692042E+04  0.25500000920E-02 0. -1.
       -2    1    3    3    0  502  0.49616461148E+03 -0.70831911838E+03  0.13149352635E+04  0.15738329144E+04  0.25500000920E-02 0.  1.
</event>
<event>
 5   0  0.5043890E-07  0.2700628E+04  0.7818609E-02  0.8334801E-01
       -2   -1    0    0    0  501  0.00000000000E+00  0.00000000000E+00  0.12070262571E+04  0.12070262571E+04  0.25500000920E-02 0.  1.
        2   -1    0    0  501    0  0.00000000000E+00  0.00000000000E+00 -0.15106111380E+04  0.15106111380E+04  0.25500000920E-02 0. -1.
    10030    2    1    2    0    0  0.00000000000E+00  0.00000000000E+00 -0.30358488091E+03  0.27176373950E+04  0.27006275624E+04 0.  0.
        3    1    3    3  502    0  0.13217942971E+04  0.18294385040E+03 -0.35982790302E+03  0.13820581559E+04  0.10100000352E+00 0. -1.
       -3    1    3    3    0  502 -0.13217942971E+04 -0.18294385040E+03  0.56243022103E+02  0.13355792391E+04  0.10100000352E+00 0.  1.
</event>
<event>
 5   0  0.1937896E-07  0.2701653E+04  0.7818609E-02  0.8334469E-01
        1   -1    0    0  501    0  0.00000000000E+00  0.00000000000E+00  0.17220000867E+04  0.17220000867E+04  0.50400001928E-02 0.  1.
       -1   -1    0    0    0  501  0.00000000000E+00  0.00000000000E+00 -0.10596588382E+04  0.10596588382E+04  0.50400001928E-02 0. -1.
    10030    2    1    2    0    0  0.00000000000E+00  0.00000000000E+00  0.66234124850E+03  0.27816589249E+04  0.27016532800E+04 0.  0.
        3    1    3    3  502    0  0.44107056494E+03  0.26238896643E+03 -0.95536910225E+03  0.10844912838E+04  0.10100000352E+00 0. -1.
       -3    1    3    3    0  502 -0.44107056494E+03 -0.26238896643E+03  0.16177103507E+04  0.16971676411E+04  0.10100000352E+00 0.  1.
</event>
<event>
 5   0  0.5043890E-07  0.2700347E+04  0.7818609E-02  0.8334892E-01
       -2   -1    0    0    0  501  0.00000000000E+00  0.00000000000E+00  0.12611537992E+04  0.12611537992E+04  0.25500000920E-02 0.  1.
        2   -1    0    0  501    0  0.00000000000E+00  0.00000000000E+00 -0.14454772001E+04  0.14454772001E+04  0.25500000920E-02 0. -1.
    10030    2    1    2    0    0  0.00000000000E+00  0.00000000000E+00 -0.18432340089E+03  0.27066309993E+04  0.27003474314E+04 0.  0.
        3    1    3    3  502    0  0.15227446537E+03 -0.11006269874E+04 -0.86102015349E+03  0.14056752801E+04  0.10100000352E+00 0. -1.
       -3    1    3    3    0  502 -0.15227446537E+03  0.11006269874E+04  0.67669675260E+03  0.13009557192E+04  0.10100000352E+00 0.  1.
</event>
<event>
 5   0  0.1888149E-07  0.2698445E+04  0.7818609E-02  0.8335510E-01
       -1   -1    0    0    0  501  0.00000000000E+00  0.00000000000E+00  0.14285320438E+04  0.14285320438E+04  0.50400001928E-02 0. -1.
        1   -1    0    0  501    0  0.00000000000E+00  0.00000000000E+00 -0.12743161500E+04  0.12743161500E+04  0.50400001928E-02 0.  1.
    10030    2    1    2    0    0  0.00000000000E+00  0.00000000000E+00  0.15421589379E+03  0.27028481938E+04  0.26984450738E+04 0.  0.
        1    1    3    3  502    0  0.19587976678E+03  0.80764411849E+02 -0.12575488235E+04  0.12752728401E+04  0.50400001928E-02 0.  1.
       -1    1    3    3    0  502 -0.19587976678E+03 -0.80764411849E+02  0.14117647173E+04  0.14275753536E+04  0.50400001928E-02 0. -1.
</event>
<event>
 5   0  0.4843887E-07  0.2698557E+04  0.7818609E-02  0.8335473E-01
        2   -1    0    0  501    0  0.00000000000E+00  0.00000000000E+00  0.22126673166E+04  0.22126673166E+04  0.25500000920E-02 0. -1.
       -2   -1    0    0    0  501  0.00000000000E+00  0.00000000000E+00 -0.82278612238E+03  0.82278612239E+03  0.25500000920E-02 0.  1.
    10030    2    1    2    0    0  0.00000000000E+00  0.00000000000E+00  0.13898811943E+04  0.30354534390E+04  0.26985566228E+04 0.  0.
        5    1    3    3  502    0 -0.45170642382E+03  0.95995169220E+03 -0.24279288037E+03  0.10883549134E+04  0.46999998093E+01 0.  1.
       -5    1    3    3    0  502  0.45170642382E+03 -0.95995169220E+03  0.16326740746E+04  0.19470985257E+04  0.46999998093E+01 0. -1.
</event>
<event>
 5   0  0.1937896E-07  0.2701658E+04  0.7818609E-02  0.8334467E-01
       -1   -1    0    0    0  501  0.00000000000E+00  0.00000000000E+00  0.10264547584E+04  0.10264547584E+04  0.50400001928E-02 0.  1.
        1   -1    0    0  501    0  0.00000000000E+00  0.00000000000E+00 -0.17777095598E+04  0.17777095598E+04  0.50400001928E-02 0. -1.
    10030    2    1    2    0    0  0.00000000000E+00  0.00000000000E+00 -0.75125480139E+03  0.28041643182E+04  0.27016575924E+04 0.  0.
        3    1    3    3  502    0 -0.10860219939E+04  0.79048856615E+03 -0.52395686043E+03  0.14418206359E+04  0.10100000352E+00 0.  1.
       -3    1    3    3    0  502  0.10860219939E+04 -0.79048856615E+03 -0.22729794096E+03  0.13623436822E+04  0.10100000352E+00 0. -1.
</event>
<event>
 5   0  0.4735120E-07  0.2699221E+04  0.7818609E-02  0.8335258E-01
        2   -1    0    0  501    0  0.00000000000E+00  0.00000000000E+00  0.70013781377E+03  0.70013781378E+03  0.25500000920E-02 0.  1.
       -2   -1    0    0    0  501  0.00000000000E+00  0.00000000000E+00 -0.26015567381E+04  0.26015567381E+04  0.25500000920E-02 0. -1.
    10030    2    1    2    0    0  0.00000000000E+00  0.00000000000E+00 -0.19014189243E+04  0.33016945519E+04  0.26992208113E+04 0.  0.
        2    1    3    3  502    0  0.67081934754E+03 -0.73585442188E+03  0.16365982085E+03  0.10090911080E+04  0.25500000920E-02 0.  1.
       -2    1    3    3    0  502 -0.67081934754E+03  0.73585442188E+03 -0.20650787452E+04  0.22926034439E+04  0.25500000920E-02 0. -1.
</event>
<event>
 5   0  0.1971600E-07  0.2696389E+04  0.7818609E-02  0.8336177E-01
       -1   -1    0    0    0  501  0.00000000000E+00  0.00000000000E+00  0.89461856704E+03  0.89461856705E+03  0.50400001928E-02 0.  1.
        1   -1    0    0  501    0  0.00000000000E+00  0.00000000000E+00 -0.20317360389E+04  0.20317360389E+04  0.50400001928E-02 0. -1.
    10030    2    1    2    0    0  0.00000000000E+00  0.00000000000E+00 -0.11371174718E+04  0.29263546059E+04  0.26963892773E+04 0.  0.
        5    1    3    3  502    0 -0.45873231374E+03  0.12158188843E+04 -0.17882787429E+03  0.13117364040E+04  0.46999998093E+01 0.  1.
       -5    1    3    3    0  502  0.45873231374E+03 -0.12158188843E+04 -0.95828959752E+03  0.16146182019E+04  0.46999998093E+01 0. -1.
</event>
<event>
 5   0  0.1964242E-07  0.2697683E+04  0.7818609E-02  0.8335757E-01
        1   -1    0    0  501    0  0.00000000000E+00  0.00000000000E+00  0.21766125400E+04  0.21766125400E+04  0.50400001928E-02 0.  1.
       -1   -1    0    0    0  501  0.00000000000E+00  0.00000000000E+00 -0.83587388252E+03  0.83587388254E+03  0.50400001928E-02 0. -1.
    10030    2    1    2    0    0  0.00000000000E+00  0.00000000000E+00  0.13407386575E+04  0.30124864226E+04  0.26976831353E+04 0.  0.
        2    1    3    3  502    0 -0.46981230312E+03 -0.42037757578E+03  0.20019689939E+04  0.20988855993E+04  0.25500000920E-02 0.  1.
       -2    1    3    3    0  502  0.46981230312E+03  0.42037757578E+03 -0.66123033644E+03  0.91360082323E+03  0.25500000920E-02 0. -1.
</event>
<event>
 5   0  0.1971600E-07  0.2699228E+04  0.7818609E-02  0.8335255E-01
        1   -1    0    0  501    0  0.00000000000E+00  0.00000000000E+00  0.14279636481E+04  0.14279636481E+04  0.50400001928E-02 0. -1.
       -1   -1    0    0    0  501  0.00000000000E+00  0.00000000000E+00 -0.12755632470E+04  0.12755632470E+04  0.50400001928E-02 0.  1.
    10030    2    1    2    0    0  0.00000000000E+00  0.00000000000E+00  0.15240040110E+03  0.27035268951E+04  0.26992279989E+04 0.  0.
        5    1    3    3  502    0  0.13396010810E+04 -0.69587565162E+02  0.22497083882E+03  0.13601497909E+04  0.46999998093E+01 0. -1.
       -5    1    3    3    0  502 -0.13396010810E+04  0.69587565162E+02 -0.72570437716E+02  0.13433771041E+04  0.46999998093E+01 0.  1.
</event>
<event>
 5   0  0.4843887E-07  0.2700237E+04  0.7818609E-02  0.8334928E-01
       -2   -1    0    0    0  501  0.00000000000E+00  0.00000000000E+00  0.76225290521E+03  0.76225290521E+03  0.25500000920E-02 0.  1.
        2   -1    0    0  501    0  0.00000000000E+00  0.00000000000E+00 -0.23913581714E+04  0.23913581714E+04  0.25500000920E-02 0. -1.
    10030    2    1    2    0    0  0.00000000000E+00  0.00000000000E+00 -0.16291052662E+04  0.31536110767E+04  0.27002368145E+04 0.  0.
        5    1    3    3  502    0  0.75604784523E+03  0.76809626600E+03 -0.17642350929E+04  0.20673963750E+04  0.46999998093E+01 0. -1.
       -5    1    3    3    0  502 -0.75604784523E+03 -0.76809626600E+03  0.13512982669E+03  0.10862147017E+04  0.46999998093E+01 0.  1.
</event>
<event>
 5   0  0.1971600E-07  0.2700803E+04  0.7818609E-02  0.8334745E-01
        1   -1    0    0  501    0  0.00000000000E+00  0.00000000000E+00  0.21233458107E+04  0.21233458107E+04  0.50400001928E-02 0.  1.
       -1   -1    0    0    0  501  0.00000000000E+00  0.00000000000E+00 -0.85882563841E+03  0.85882563842E+03  0.50400001928E-02 0. -1.
    10030    2    1    2    0    0  0.00000000000E+00  0.00000000000E+00  0.12645201723E+04  0.29821714491E+04  0.27008027114E+04 0.  0.
        5    1    3    3  502    0  0.12594577842E+04  0.28359176519E+03  0.19488291922E+03  0.13056261492E+04  0.46999998093E+01 0.  1.
       -5    1    3    3    0  502 -0.12594577842E+04 -0.28359176519E+03  0.10696372530E+04  0.16765452999E+04  0.46999998093E+01 0. -1.
</event>
<event>
 5   0  0.4992668E-07  0.2700618E+04  0.7818609E-02  0.8334804E-01
        2   -1    0    0  501    0  0.00000000000E+00  0.00000000000E+00  0.14915223077E+04  0.14915223077E+04  0.25500000920E-02 0.  1.
       -2   -1    0    0    0  501  0.00000000000E+00  0.00000000000E+00 -0.12224653523E+04  0.12224653523E+04  0.25500000920E-02 0. -1.
    10030    2    1    2    0    0  0.00000000000E+00  0.00000000000E+00  0.26905695541E+03  0.27139876600E+04  0.27006179613E+04 0.  0.
        1    1    3    3  502    0 -0.29279010763E+03 -0.50255294107E+03 -0.10901302587E+04  0.12355846740E+04  0.50400001928E-02 0. -1.
       -1    1    3    3    0  502  0.29279010763E+03  0.50255294107E+03  0.13591872141E+04  0.14784029859E+04  0.50400001928E-02 0.  1.
</event>
<event>
 5   0  0.4843887E-07  0.2700995E+04  0.7818609E-02  0.8334682E-01
        2   -1    0    0  501    0  0.00000000000E+00  0.00000000000E+00  0.14217939884E+04  0.14217939884E+04  0.25500000920E-02 0. -1.
       -2   -1    0    0    0  501  0.00000000000E+00  0.00000000000E+00 -0.12827758241E+04  0.12827758241E+04  0.25500000920E-02 0.  1.
    10030    2    1    2    0    0  0.00000000000E+00  0.00000000000E+00  0.13901816432E+03  0.27045698125E+04  0.27009945984E+04 0.  0.
        5    1    3    3  502    0  0.12715279565E+04  0.25759029082E+03 -0.30606707376E+03  0.13329798369E+04  0.46999998093E+01 0.  1.
       -5    1    3    3    0  502 -0.12715279565E+04 -0.25759029082E+03  0.44508523808E+03  0.13715899756E+04  0.46999998093E+01 0. -1.
</event>
<event>
 5   0  0.4843887E-07  0.2696497E+04  0.7818609E-02  0.8336143E-01
        2   -1    0    0  501    0  0.00000000000E+00  0.00000000000E+00  0.19329359796E+04  0.19329359796E+04  0.25500000920E-02 0. -1.
       -2   -1    0    0    0  501  0.00000000000E+00  0.00000000000E+00 -0.94042101624E+03  0.94042101624E+03  0.25500000920E-02 0.  1.
    10030    2    1    2    0    0  0.00000000000E+00  0.00000000000E+00  0.99251496337E+03  0.28733569959E+04  0.26964967037E+04 0.  0.
        5    1    3    3  502    0 -0.45975975564E+03  0.22773637149E+03  0.18248330569E+04  0.18955950684E+04  0.46999998093E+01 0. -1.
       -5    1    3    3    0  502  0.45975975564E+03 -0.22773637149E+03 -0.83231809357E+03  0.97776192741E+03  0.46999998093E+01 0.  1.
</event>
<event>
 5   0  0.1971600E-07  0.2699457E+04  0.7818609E-02  0.8335181E-01
        1   -1    0    0  501    0  0.00000000000E+00  0.00000000000E+00  0.19853199414E+04  0.19853199414E+04  0.50400001928E-02 0. -1.
       -1   -1    0    0    0  501  0.00000000000E+00  0.00000000000E+00 -0.91761875425E+03  0.91761875426E+03  0.50400001928E-02 0.  1.
    10030    2    1    2    0    0  0.00000000000E+00  0.00000000000E+00  0.10677011872E+04  0.29029386957E+04  0.26994568427E+04 0.  0.
        5    1    3    3  502    0  0.60382268380E+03  0.43958960632E+02  0.18311027024E+04  0.19285988231E+04  0.46999998093E+01 0. -1.
       -5    1    3    3    0  502 -0.60382268380E+03 -0.43958960632E+02 -0.76340151528E+03  0.97433987254E+03  0.46999998093E+01 0.  1.
</event>
<event>
 5   0  0.1971600E-07  0.2699749E+04  0.7818609E-02  0.8335086E-01
        1   -1    0    0  501    0  0.00000000000E+00  0.00000000000E+00  0.11875949175E+04  0.11875949175E+04  0.50400001928E-02 0. -1.
       -1   -1    0    0    0  501  0.00000000000E+00  0.00000000000E+00 -0.15343291314E+04  0.15343291314E+04  0.50400001928E-02 0.  1.
    10030    2    1    2    0    0  0.00000000000E+00  0.00000000000E+00 -0.34673421389E+03  0.27219240490E+04  0.26997492315E+04 0.  0.
        5    1    3    3  502    0 -0.10363408440E+04 -0.62120884445E+03  0.43343733309E+03  0.12836638131E+04  0.46999998093E+01 0. -1.
       -5    1    3    3    0  502  0.10363408440E+04  0.62120884445E+03 -0.78017154698E+03  0.14382602359E+04  0.46999998093E+01 0.  1.
</event>
<event>
 5   0  0.4843887E-07  0.2700089E+04  0.7818609E-02  0.8334976E-01
        2   -1    0    0  501    0  0.00000000000E+00  0.00000000000E+00  0.11991755493E+04  0.11991755493E+04  0.25500000920E-02 0. -1.
       -2   -1    0    0    0  501  0.00000000000E+00  0.00000000000E+00 -0.15198948502E+04  0.15198948502E+04  0.25500000920E-02 0.  1.
    10030    2    1    2    0    0  0.00000000000E+00  0.00000000000E+00 -0.32071930090E+03  0.27190703995E+04  0.27000894369E+04 0.  0.
        5    1    3    3  502    0 -0.45520455103E+03  0.21246160568E+02  0.11193751187E+04  0.12085881553E+04  0.46999998093E+01 0. -1.
       -5    1    3    3    0  502  0.45520455103E+03 -0.21246160568E+02 -0.14400944196E+04  0.15104822442E+04  0.46999998093E+01 0.  1.
</event>
<event>
 5   0  0.1965415E-07  0.2699586E+04  0.7818609E-02  0.8335139E-01
       -1   -1    0    0    0  501  0.00000000000E+00  0.00000000000E+00  0.59512754289E+03  0.59512754291E+03  0.50400001928E-02 0. -1.
        1   -1    0    0  501    0  0.00000000000E+00  0.00000000000E+00 -0.30614308354E+04  0.30614308354E+04  0.50400001928E-02 0.  1.
    10030    2    1    2    0    0  0.00000000000E+00  0.00000000000E+00 -0.24663032925E+04  0.36565583783E+04  0.26995864949E+04 0.  0.
        4    1    3    3  502    0 -0.40661064018E+03 -0.10952318259E+04 -0.31741813140E+03  0.12106282866E+04  0.12699999809E+01 0. -1.
       -4    1    3    3    0  502  0.40661064018E+03  0.10952318259E+04 -0.21488851611E+04  0.24459300918E+04  0.12699999809E+01 0.  1.
</event>
<event>
 5   0  0.4992668E-07  0.2699976E+04  0.7818609E-02  0.8335013E-01
        2   -1    0    0  501    0  0.00000000000E+00  0.00000000000E+00  0.10984261528E+04  0.10984261528E+04  0.25500000920E-02 0.  1.
       -2   -1    0    0    0  501  0.00000000000E+00  0.00000000000E+00 -0.16591625073E+04  0.16591625073E+04  0.25500000920E-02 0. -1.
    10030    2    1    2    0    0  0.00000000000E+00  0.00000000000E+00 -0.56073635448E+03  0.27575886601E+04  0.26999759182E+04 0.  0.
        1    1    3    3  502    0  0.34271417252E+03 -0.10856300660E+04 -0.10213994658E+04  0.15294778563E+04  0.50400001928E-02 0. -1.
       -1    1    3    3    0  502 -0.34271417252E+03  0.10856300660E+04  0.46066311133E+03  0.12281108038E+04  0.50400001928E-02 0.  1.
</event>
<event>
 5   0  0.1971600E-07  0.2700468E+04  0.7818609E-02  0.8334853E-01
        1   -1    0    0  501    0  0.00000000000E+00  0.00000000000E+00  0.17208661538E+04  0.17208661538E+04  0.50400001928E-02 0.  1.
       -1   -1    0    0    0  501  0.00000000000E+00  0.00000000000E+00 -0.10594266616E+04  0.10594266616E+04  0.50400001928E-02 0. -1.
    10030    2    1    2    0    0  0.00000000000E+00  0.00000000000E+00  0.66143949218E+03  0.27802928154E+04  0.27004677257E+04 0.  0.
        5    1    3    3  502    0 -0.80965700932E+03  0.14952141340E+03  0.14324969532E+04  0.16522623087E+04  0.46999998093E+01 0.  1.
       -5    1    3    3    0  502  0.80965700932E+03 -0.14952141340E+03 -0.77105746102E+03  0.11280305067E+04  0.46999998093E+01 0. -1.
</event>
<event>
 5   0  0.1888149E-07  0.2699242E+04  0.7818609E-02  0.8335251E-01
       -1   -1    0    0    0  501  0.00000000000E+00  0.00000000000E+00  0.95077122514E+03  0.95077122515E+03  0.50400001928E-02 0. -1.
        1   -1    0    0  501    0  0.00000000000E+00  0.00000000000E+00 -0.19157883193E+04  0.19157883193E+04  0.50400001928E-02 0.  1.
    10030    2    1    2    0    0  0.00000000000E+00  0.00000000000E+00 -0.96501709415E+03  0.28665595445E+04  0.26992416768E+04 0.  0.
        1    1    3    3  502    0 -0.13095788871E+04  0.31485156100E+03 -0.57354282828E+03  0.14639261398E+04  0.50400001928E-02 0.  1.
       -1    1    3    3    0  502  0.13095788871E+04 -0.31485156100E+03 -0.39147426587E+03  0.14026334046E+04  0.50400001928E-02 0. -1.
</event>
<event>
 5   0  0.1888149E-07  0.2696555E+04  0.7818609E-02  0.8336124E-01
        1   -1    0    0  501    0  0.00000000000E+00  0.00000000000E+00  0.10688023932E+04  0.10688023932E+04  0.50400001928E-02 0.  1.
       -1   -1    0    0    0  501  0.00000000000E+00  0.00000000000E+00 -0.17008312683E+04  0.17008312683E+04  0.50400001928E-02 0. -1.
    10030    2    1    2    0    0  0.00000000000E+00  0.00000000000E+00 -0.63202887510E+03  0.27696336616E+04  0.26965552322E+04 0.  0.
        1    1    3    3  502    0  0.82088183184E+03 -0.31271910163E+03  0.73455054780E+03  0.11450784801E+04  0.50400001928E-02 0.  1.
       -1    1    3    3    0  502 -0.82088183184E+03  0.31271910163E+03 -0.13665794229E+04  0.16245551814E+04  0.50400001928E-02 0. -1.
</event>
<event>
 5   0  0.1965415E-07  0.2699816E+04  0.7818609E-02  0.8335065E-01
        1   -1    0    0  501    0  0.00000000000E+00  0.00000000000E+00  0.17074285025E+04  0.17074285025E+04  0.50400001928E-02 0. -1.
       -1   -1    0    0    0  501  0.00000000000E+00  0.00000000000E+00 -0.10672493917E+04  0.10672493918E+04  0.50400001928E-02 0.  1.
    10030    2    1    2    0    0  0.00000000000E+00  0.00000000000E+00  0.64017911074E+03  0.27746778942E+04  0.26998163128E+04 0.  0.
        4    1    3    3  502    0  0.66739436455E+03  0.36199256555E+03  0.14671912495E+04  0.16520004936E+04  0.12699999809E+01 0. -1.
       -4    1    3    3    0  502 -0.66739436455E+03 -0.36199256555E+03 -0.82701213877E+03  0.11226774006E+04  0.12699999809E+01 0.  1.
</event>
<event>
 5   0  0.4983208E-07  0.2702457E+04  0.7818609E-02  0.8334208E-01
       -2   -1    0    0    0  501  0.00000000000E+00  0.00000000000E+00  0.28777594893E+04  0.28777594893E+04  0.25500000920E-02 0.  1.
        2   -1    0    0  501    0  0.00000000000E+00  0.00000000000E+00 -0.63445815863E+03  0.63445815863E+03  0.25500000920E-02 0. -1.
    10030    2    1    2    0    0  0.00000000000E+00  0.00000000000E+00  0.22433013307E+04  0.35122176480E+04  0.27024566502E+04 0.  0.
        4    1    3    3  502    0 -0.19916718184E+03 -0.86887747384E+03 -0.19810730397E+03  0.91316140285E+03  0.12699999809E+01 0. -1.
       -4    1    3    3    0  502  0.19916718184E+03  0.86887747384E+03  0.24414086347E+04  0.25990562451E+04  0.12699999809E+01 0.  1.
</event>
<event>
 5   0  0.5043890E-07  0.2698611E+04  0.7818609E-02  0.8335456E-01
        2   -1    0    0  501    0  0.00000000000E+00  0.00000000000E+00  0.23862809254E+04  0.23862809254E+04  0.25500000920E-02 0.  1.
       -2   -1    0    0    0  501  0.00000000000E+00  0.00000000000E+00 -0.76295511086E+03  0.76295511086E+03  0.25500000920E-02 0. -1.
    10030    2    1    2    0    0  0.00000000000E+00  0.00000000000E+00  0.16233258145E+04  0.31492360363E+04  0.26986109227E+04 0.  0.
        3    1    3    3  502    0 -0.39267729533E+03  0.12606338956E+04  0.11359752019E+04  0.17417901557E+04  0.10100000352E+00 0. -1.
       -3    1    3    3    0  502  0.39267729533E+03 -0.12606338956E+04  0.48735061260E+03  0.14074458806E+04  0.10100000352E+00 0.  1.
</event>
<event>
 5   0  0.1888149E-07  0.2700776E+04  0.7818609E-02  0.8334753E-01
       -1   -1    0    0    0  501  0.00000000000E+00  0.00000000000E+00  0.91500376229E+03  0.91500376231E+03  0.50400001928E-02 0. -1.
        1   -1    0    0  501    0  0.00000000000E+00  0.00000000000E+00 -0.19929401191E+04  0.19929401191E+04  0.50400001928E-02 0.  1.
    10030    2    1    2    0    0  0.00000000000E+00  0.00000000000E+00 -0.10779363568E+04  0.29079438814E+04  0.27007759678E+04 0.  0.
        1    1    3    3  502    0 -0.82577002961E+03 -0.85701294693E+03 -0.12260221889E+04  0.17086537802E+04  0.50400001928E-02 0.  1.
       -1    1    3    3    0  502  0.82577002961E+03  0.85701294693E+03  0.14808583213E+03  0.11992901011E+04  0.50400001928E-02 0. -1.
</event>
<event>
 5   0  0.4843887E-07  0.2699012E+04  0.7818609E-02  0.8335326E-01
        2   -1    0    0  501    0  0.00000000000E+00  0.00000000000E+00  0.20236588509E+04  0.20236588509E+04  0.25500000920E-02 0.  1.
       -2   -1    0    0    0  501  0.00000000000E+00  0.00000000000E+00 -0.89993739508E+03  0.89993739509E+03  0.25500000920E-02 0. -1.
    10030    2    1    2    0    0  0.00000000000E+00  0.00000000000E+00  0.11237214558E+04  0.29235962459E+04  0.26990118746E+04 0.  0.
        5    1    3    3  502    0 -0.33671705047E+03  0.12341401771E+04  0.96378047129E+02  0.12828839256E+04  0.46999998093E+01 0. -1.
       -5    1    3    3    0  502  0.33671705047E+03 -0.12341401771E+04  0.10273434086E+04  0.16407123203E+04  0.46999998093E+01 0.  1.
</event>
<event>
 5   0  0.5043890E-07  0.2703321E+04  0.7818609E-02  0.8333928E-01
       -2   -1    0    0    0  501  0.00000000000E+00  0.00000000000E+00  0.13925139232E+04  0.13925139232E+04  0.25500000920E-02 0. -1.
        2   -1    0    0  501    0  0.00000000000E+00  0.00000000000E+00 -0.13120054266E+04  0.13120054266E+04  0.25500000920E-02 0.  1.
    10030    2    1    2    0    0  0.00000000000E+00  0.00000000000E+00  0.80508496563E+02  0.27045193499E+04  0.27033207904E+04 0.  0.
        3    1    3    3  502    0 -0.75611414826E+03  0.80554011848E+03 -0.73879654813E+03  0.13290687858E+04  0.10100000352E+00 0.  1.
       -3    1    3    3    0  502  0.75611414826E+03 -0.80554011848E+03  0.81930504469E+03  0.13754505640E+04  0.10100000352E+00 0. -1.
</event>
<event>
 5   0  0.4983208E-07  0.2699963E+04  0.7818609E-02  0.8335017E-01
       -2   -1    0    0    0  501  0.00000000000E+00  0.00000000000E+00  0.62476720459E+03  0.62476720459E+03  0.25500000920E-02 0.  1.
        2   -1    0    0  501    0  0.00000000000E+00  0.00000000000E+00 -0.29170061802E+04  0.29170061802E+04  0.25500000920E-02 0. -1.
    10030    2    1    2    0    0  0.00000000000E+00  0.00000000000E+00 -0.22922389756E+04  0.35417733848E+04  0.26999628123E+04 0.  0.
        4    1    3    3  502    0  0.17655515470E+03 -0.78194000263E+03  0.27875202525E+03  0.84870854529E+03  0.12699999809E+01 0.  1.
       -4    1    3    3    0  502 -0.17655515470E+03  0.78194000263E+03 -0.25709910009E+04  0.26930648395E+04  0.12699999809E+01 0. -1.
</event>
<event>
 5   0  0.4735120E-07  0.2700168E+04  0.7818609E-02  0.8334950E-01
       -2   -1    0    0    0  501  0.00000000000E+00  0.00000000000E+00  0.16426999898E+04  0.16426999898E+04  0.25500000920E-02 0.  1.
        2   -1    0    0  501    0  0.00000000000E+00  0.00000000000E+00 -0.11095919892E+04  0.11095919892E+04  0.25500000920E-02 0. -1.
    10030    2    1    2    0    0  0.00000000000E+00  0.00000000000E+00  0.53310800059E+03  0.27522919790E+04  0.27001679572E+04 0.  0.
        2    1    3    3  502    0 -0.68549369234E+02 -0.12118009590E+04 -0.33610052599E+03  0.12594142067E+04  0.25500000920E-02 0. -1.
       -2    1    3    3    0  502  0.68549369234E+02  0.12118009590E+04  0.86920852658E+03  0.14928777723E+04  0.25500000920E-02 0.  1.
</event>
<event>
 5   0  0.4735120E-07  0.2699188E+04  0.7818609E-02  0.8335269E-01
       -2   -1    0    0    0  501  0.00000000000E+00  0.00000000000E+00  0.12270927178E+04  0.12270927178E+04  0.25500000920E-02 0. -1.
        2   -1    0    0  501    0  0.00000000000E+00  0.00000000000E+00 -0.14843244768E+04  0.14843244768E+04  0.25500000920E-02 0.  1.
    10030    2    1    2    0    0  0.00000000000E+00  0.00000000000E+00 -0.25723175900E+03  0.27114171946E+04  0.26991878455E+04 0.  0.
        2    1    3    3  502    0  0.68599630865E+03  0.28035460647E+03  0.10044191609E+04  0.12482177261E+04  0.25500000920E-02 0. -1.
       -2    1    3    3    0  502 -0.68599630865E+03 -0.28035460647E+03 -0.12616509199E+04  0.14631994685E+04  0.25500000920E-02 0.  1.
</event>
<event>
 5   0  0.4735120E-07  0.2700027E+04  0.7818609E-02  0.8334996E-01
        2   -1    0    0  501    0  0.00000000000E+00  0.00000000000E+00  0.20828381679E+04  0.20828381679E+04  0.25500000920E-02 0. -1.
       -2   -1    0    0    0  501  0.00000000000E+00  0.00000000000E+00 -0.87502575822E+03  0.87502575822E+03  0.25500000920E-02 0.  1.
    10030    2    1    2    0    0  0.00000000000E+00  0.00000000000E+00  0.12078124097E+04  0.29578639261E+04  0.27000274422E+04 0.  0.
        2    1    3    3  502    0 -0.22174649565E+03 -0.11980121030E+04 -0.33114423222E+02  0.12188113358E+04  0.25500000920E-02 0.  1.
       -2    1    3    3    0  502  0.22174649565E+03  0.11980121030E+04  0.12409268329E+04  0.17390525903E+04  0.25500000920E-02 0. -1.
</event>
<event>
 5   0  0.5043890E-07  0.2708546E+04  0.7818609E-02  0.8332238E-01
       -2   -1    0    0    0  501  0.00000000000E+00  0.00000000000E+00  0.78602570827E+03  0.78602570828E+03  0.25500000920E-02 0.  1.
        2   -1    0    0  501    0  0.00000000000E+00  0.00000000000E+00 -0.23333266758E+04  0.23333266758E+04  0.25500000920E-02 0. -1.
    10030    2    1    2    0    0  0.00000000000E+00  0.00000000000E+00 -0.15473009675E+04  0.31193523841E+04  0.27085455529E+04 0.  0.
        3    1    3    3  502    0 -0.35640021661E+03  0.10377586083E+04  0.14052554470E+03  0.11062149350E+04  0.10100000352E+00 0.  1.
       -3    1    3    3    0  502  0.35640021661E+03 -0.10377586083E+04 -0.16878265122E+04  0.20131374491E+04  0.10100000352E+00 0. -1.
</event>
<event>
 5   0  0.4983208E-07  0.2700410E+04  0.7818609E-02  0.8334872E-01
       -2   -1    0    0    0  501  0.00000000000E+00  0.00000000000E+00  0.10964784831E+04  0.10964784831E+04  0.25500000920E-02 0. -1.
        2   -1    0    0  501    0  0.00000000000E+00  0.00000000000E+00 -0.16626443791E+04  0.16626443791E+04  0.25500000920E-02 0.  1.
    10030    2    1    2    0    0  0.00000000000E+00  0.00000000000E+00 -0.56616589603E+03  0.27591228621E+04  0.27004101812E+04 0.  0.
        4    1    3    3  502    0  0.63352617038E+03 -0.11839352179E+04 -0.42755802601E+03  0.14092073969E+04  0.12699999809E+01 0.  1.
       -4    1    3    3    0  502 -0.63352617038E+03  0.11839352179E+04 -0.13860787002E+03  0.13499154653E+04  0.12699999809E+01 0. -1.
</event>
<event>
 5   0  0.4992668E-07  0.2699709E+04  0.7818609E-02  0.8335099E-01
        2   -1    0    0  501    0  0.00000000000E+00  0.00000000000E+00  0.12692192995E+04  0.12692192995E+04  0.25500000920E-02 0. -1.
       -2   -1    0    0    0  501  0.00000000000E+00  0.00000000000E+00 -0.14356127571E+04  0.14356127571E+04  0.25500000920E-02 0.  1.
    10030    2    1    2    0    0  0.00000000000E+00  0.00000000000E+00 -0.16639345756E+03  0.27048320566E+04  0.26997091828E+04 0.  0.
        1    1    3    3  502    0 -0.83920244789E+03 -0.58469530889E+01 -0.11424694752E+04  0.14175794289E+04  0.50400001928E-02 0.  1.
       -1    1    3    3    0  502  0.83920244789E+03  0.58469530889E+01  0.97607601765E+03  0.12872526278E+04  0.50400001928E-02 0. -1.
</event>
<event>
 5   0  0.1888149E-07  0.2706481E+04  0.7818609E-02  0.8332905E-01
       -1   -1    0    0    0  501  0.00000000000E+00  0.00000000000E+00  0.84527105548E+03  0.84527105550E+03  0.50400001928E-02 0.  1.
        1   -1    0    0  501    0  0.00000000000E+00  0.00000000000E+00 -0.21664760128E+04  0.21664760128E+04  0.50400001928E-02 0. -1.
    10030    2    1    2    0    0  0.00000000000E+00  0.00000000000E+00 -0.13212049573E+04  0.30117470683E+04  0.27064807157E+04 0.  0.
        1    1    3    3  502    0  0.89331469846E+03  0.68104432660E+03  0.17911378482E+03  0.11375035267E+04  0.50400001928E-02 0.  1.
       -1    1    3    3    0  502 -0.89331469846E+03 -0.68104432660E+03 -0.15003187422E+04  0.18742435416E+04  0.50400001928E-02 0. -1.
</event>
<event>
 5   0  0.1937896E-07  0.2701538E+04  0.7818609E-02  0.8334506E-01
       -1   -1    0    0    0  501  0.00000000000E+00  0.00000000000E+00  0.90747342049E+03  0.90747342050E+03  0.50400001928E-02 0. -1.
        1   -1    0    0  501    0  0.00000000000E+00  0.00000000000E+00 -0.20106121470E+04  0.20106121470E+04  0.50400001928E-02 0.  1.
    10030    2    1    2    0    0  0.00000000000E+00  0.00000000000E+00 -0.11031387265E+04  0.29180855675E+04  0.27015381414E+04 0.  0.
        3    1    3    3  502    0 -0.37759146702E+03  0.77148031459E+03  0.57450146063E+03  0.10333485038E+04  0.10100000352E+00 0. -1.
       -3    1    3    3    0  502  0.37759146702E+03 -0.77148031459E+03 -0.16776401872E+04  0.18847370638E+04  0.10100000352E+00 0.  1.
</event>
<event>
 5   0  0.1888149E-07  0.2700474E+04  0.7818609E-02  0.8334851E-01
       -1   -1    0    0    0  501  0.00000000000E+00  0.00000000000E+00  0.17958605569E+04  0.17958605569E+04  0.50400001928E-02 0.  1.
        1   -1    0    0  501    0  0.00000000000E+00  0.00000000000E+00 -0.10151902477E+04  0.10151902477E+04  0.50400001928E-02 0. -1.
    10030    2    1    2    0    0  0.00000000000E+00  0.00000000000E+00  0.78067030919E+03  0.28110508045E+04  0.27004741239E+04 0.  0.
        1    1    3    3  502    0 -0.10830806402E+04  0.31505995685E+03  0.11628930425E+04  0.16200761333E+04  0.50400001928E-02 0.  1.
       -1    1    3    3    0  502  0.10830806402E+04 -0.31505995685E+03 -0.38222273331E+03  0.11909746712E+04  0.50400001928E-02 0. -1.
</event>
<event>
 5   0  0.4983208E-07  0.2700485E+04  0.7818609E-02  0.8334848E-01
        2   -1    0    0  501    0  0.00000000000E+00  0.00000000000E+00  0.17342564412E+04  0.17342564412E+04  0.25500000920E-02 0. -1.
       -2   -1    0    0    0  501  0.00000000000E+00  0.00000000000E+00 -0.10512603220E+04  0.10512603220E+04  0.25500000920E-02 0.  1.
    10030    2    1    2    0    0  0.00000000000E+00  0.00000000000E+00  0.68299611924E+03  0.27855167632E+04  0.27004851304E+04 0.  0.
        4    1    3    3  502    0 -0.11186709254E+03 -0.65116747641E+03  0.15561244780E+04  0.16905792890E+04  0.12699999809E+01 0. -1.
       -4    1    3    3    0  502  0.11186709254E+03  0.65116747641E+03 -0.87312835872E+03  0.10949374742E+04  0.12699999809E+01 0.  1.
</event>
<event>
 5   0  0.4735120E-07  0.2699936E+04  0.7818609E-02  0.8335026E-01
       -2   -1    0    0    0  501  0.00000000000E+00  0.00000000000E+00  0.17689290155E+04  0.17689290155E+04  0.25500000920E-02 0. -1.
        2   -1    0    0  501    0  0.00000000000E+00  0.00000000000E+00 -0.10302358299E+04  0.10302358299E+04  0.25500000920E-02 0.  1.
    10030    2    1    2    0    0  0.00000000000E+00  0.00000000000E+00  0.73869318564E+03  0.27991648455E+04  0.26999363343E+04 0.  0.
        2    1    3    3  502    0  0.73839195170E+03  0.23295456876E+02  0.15407612544E+04  0.17087160665E+04  0.25500000920E-02 0. -1.
       -2    1    3    3    0  502 -0.73839195170E+03 -0.23295456876E+02 -0.80206806879E+03  0.10904487790E+04  0.25500000920E-02 0.  1.
</event>
<event>
 5   0  0.4735120E-07  0.2694009E+04  0.7818609E-02  0.8336951E-01
        2   -1    0    0  501    0  0.00000000000E+00  0.00000000000E+00  0.11739265440E+04  0.11739265440E+04  0.25500000920E-02 0.  1.
       -2   -1    0    0    0  501  0.00000000000E+00  0.00000000000E+00 -0.15456002296E+04  0.15456002296E+04  0.25500000920E-02 0. -1.
    10030    2    1    2    0    0  0.00000000000E+00  0.00000000000E+00 -0.37167368562E+03  0.27195267736E+04  0.26940090096E+04 0.  0.
        2    1    3    3  502    0 -0.55168086194E+03 -0.83730567448E+03 -0.10937942746E+04  0.14838525807E+04  0.25500000920E-02 0. -1.
       -2    1    3    3    0  502  0.55168086194E+03  0.83730567448E+03  0.72212058900E+03  0.12356741929E+04  0.25500000920E-02 0.  1.
</event>
<event>
 5   0  0.4992668E-07  0.2699651E+04  0.7818609E-02  0.8335118E-01
        2   -1    0    0  501    0  0.00000000000E+00  0.00000000000E+00  0.22498885639E+04  0.22498885639E+04  0.25500000920E-02 0.  1.
       -2   -1    0    0    0  501  0.00000000000E+00  0.00000000000E+00 -0.80983085358E+03  0.80983085359E+03  0.25500000920E-02 0. -1.
    10030    2    1    2    0    0  0.00000000000E+00  0.00000000000E+00  0.14400577103E+04  0.30597194175E+04  0.26996512191E+04 0.  0.
        1    1    3    3  502    0  0.71959786564E+03 -0.93236119273E+03 -0.27407102138E+02  0.11780787882E+04  0.50400001928E-02 0. -1.
       -1    1    3    3    0  502 -0.71959786564E+03  0.93236119273E+03  0.14674648124E+04  0.18816406293E+04  0.50400001928E-02 0.  1.
</event>
<event>
 5   0  0.4843887E-07  0.2700011E+04  0.7818609E-02  0.8335001E-01
        2   -1    0    0  501    0  0.00000000000E+00  0.00000000000E+00  0.17279747587E+04  0.17279747587E+04  0.25500000920E-02 0. -1.
       -2   -1    0    0    0  501  0.00000000000E+00  0.00000000000E+00 -0.10547114384E+04  0.10547114384E+04  0.25500000920E-02 0.  1.
    10030    2    1    2    0    0  0.00000000000E+00  0.00000000000E+00  0.67326332036E+03  0.27826861971E+04  0.27000109209E+04 0.  0.
        5    1    3    3  502    0 -0.63450208653E+03 -0.10241824329E+03  0.15601695621E+04  0.16873747500E+04  0.46999998093E+01 0. -1.
       -5    1    3    3    0  502  0.63450208653E+03  0.10241824329E+03 -0.88690624179E+03  0.10953114471E+04  0.46999998093E+01 0.  1.
</event>
<event>
 5   0  0.1964242E-07  0.2694347E+04  0.7818609E-02  0.8336841E-01
       -1   -1    0    0    0  501  0.00000000000E+00  0.00000000000E+00  0.86018444811E+03  0.86018444812E+03  0.50400001928E-02 0. -1.
        1   -1    0    0  501    0  0.00000000000E+00  0.00000000000E+00 -0.21098696624E+04  0.21098696624E+04  0.50400001928E-02 0.  1.
    10030    2    1    2    0    0  0.00000000000E+00  0.00000000000E+00 -0.12496852143E+04  0.29700541105E+04  0.26943474692E+04 0.  0.
        2    1    3    3  502    0 -0.47055648805E+03  0.20253454182E+03  0.74862129959E+03  0.90712595557E+03  0.25500000920E-02 0. -1.
       -2    1    3    3    0  502  0.47055648805E+03 -0.20253454182E+03 -0.19983065138E+04  0.20629281549E+04  0.25500000920E-02 0.  1.
</event>
<event>
 5   0  0.1937896E-07  0.2695973E+04  0.7818609E-02  0.8336313E-01
        1   -1    0    0  501    0  0.00000000000E+00  0.00000000000E+00  0.98804157561E+03  0.98804157562E+03  0.50400001928E-02 0.  1.
       -1   -1    0    0    0  501  0.00000000000E+00  0.00000000000E+00 -0.18390593750E+04  0.18390593750E+04  0.50400001928E-02 0. -1.
    10030    2    1    2    0    0  0.00000000000E+00  0.00000000000E+00 -0.85101779937E+03  0.28271009506E+04  0.26959726427E+04 0.  0.
        3    1    3    3  502    0  0.80046930850E+03  0.31674697570E+03  0.66224191909E+03  0.10861142344E+04  0.10100000352E+00 0.  1.
       -3    1    3    3    0  502 -0.80046930850E+03 -0.31674697570E+03 -0.15132597185E+04  0.17409867163E+04  0.10100000352E+00 0. -1.
</event>
<event>
 5   0  0.1888149E-07  0.2699719E+04  0.7818609E-02  0.8335096E-01
        1   -1    0    0  501    0  0.00000000000E+00  0.00000000000E+00  0.60272218394E+03  0.60272218396E+03  0.50400001928E-02 0. -1.
       -1   -1    0    0    0  501  0.00000000000E+00  0.00000000000E+00 -0.30231512293E+04  0.30231512293E+04  0.50400001928E-02 0.  1.
    10030    2    1    2    0    0  0.00000000000E+00  0.00000000000E+00 -0.24204290454E+04  0.36258734133E+04  0.26997187345E+04 0.  0.
        1    1    3    3  502    0  0.61433006896E+03 -0.61979500910E+03 -0.25933489963E+04  0.27362394456E+04  0.50400001928E-02 0.  1.
       -1    1    3    3    0  502 -0.61433006896E+03  0.61979500910E+03  0.17291995097E+03  0.88963396766E+03  0.50400001928E-02 0. -1.
</event>
<event>
 5   0  0.1964242E-07  0.2700284E+04  0.7818609E-02  0.8334913E-01
        1   -1    0    0  501    0  0.00000000000E+00  0.00000000000E+00  0.27137067062E+04  0.27137067062E+04  0.50400001928E-02 0. -1.
       -1   -1    0    0    0  501  0.00000000000E+00  0.00000000000E+00 -0.67173174301E+03  0.67173174302E+03  0.50400001928E-02 0.  1.
    10030    2    1    2    0    0  0.00000000000E+00  0.00000000000E+00  0.20419749631E+04  0.33854384492E+04  0.27002836412E+04 0.  0.
        2    1    3    3  502    0 -0.10892385890E+04  0.34415911951E+03  0.11864989732E+03  0.11484615803E+04  0.25500000920E-02 0.  1.
       -2    1    3    3    0  502  0.10892385890E+04 -0.34415911951E+03  0.19233250658E+04  0.22369768689E+04  0.25500000920E-02 0. -1.
</event>
<event>
 5   0  0.5043890E-07  0.2696900E+04  0.7818609E-02  0.8336011E-01
       -2   -1    0    0    0  501  0.00000000000E+00  0.00000000000E+00  0.20928786347E+04  0.20928786347E+04  0.25500000920E-02 0.  1.
        2   -1    0    0  501    0  0.00000000000E+00  0.00000000000E+00 -0.86881181615E+03  0.86881181616E+03  0.25500000920E-02 0. -1.
    10030    2    1    2    0    0  0.00000000000E+00  0.00000000000E+00  0.12240668186E+04  0.29616904509E+04  0.26969002114E+04 0.  0.
        3    1    3    3  502    0 -0.10670097819E+04 -0.44833612838E+03 -0.14786056547E+03  0.11667810058E+04  0.10100000352E+00 0. -1.
       -3    1    3    3    0  502  0.10670097819E+04  0.44833612838E+03  0.13719273840E+04  0.17949094450E+04  0.10100000352E+00 0.  1.
</event>
<event>
 5   0  0.1964242E-07  0.2699231E+04  0.7818609E-02  0.8335254E-01
        1   -1    0    0  501    0  0.00000000000E+00  0.00000000000E+00  0.74651835927E+03  0.74651835929E+03  0.50400001928E-02 0. -1.
       -1   -1    0    0    0  501  0.00000000000E+00  0.00000000000E+00 -0.24399432093E+04  0.24399432093E+04  0.50400001928E-02 0.  1.
    10030    2    1    2    0    0  0.00000000000E+00  0.00000000000E+00 -0.16934248500E+04  0.31864615686E+04  0.26992312990E+04 0.  0.
        2    1    3    3  502    0 -0.30219801831E+03 -0.36985161859E+03  0.64341695327E+03  0.80131094951E+03  0.25500000920E-02 0. -1.
       -2    1    3    3    0  502  0.30219801831E+03  0.36985161859E+03 -0.23368418033E+04  0.23851506191E+04  0.25500000920E-02 0.  1.
</event>
<event>
 5   0  0.4843887E-07  0.2698869E+04  0.7818609E-02  0.8335372E-01
        2   -1    0    0  501    0  0.00000000000E+00  0.00000000000E+00  0.14764726252E+04  0.14764726252E+04  0.25500000920E-02 0. -1.
       -2   -1    0    0    0  501  0.00000000000E+00  0.00000000000E+00 -0.12333268440E+04  0.12333268440E+04  0.25500000920E-02 0.  1.
    10030    2    1    2    0    0  0.00000000000E+00  0.00000000000E+00  0.24314578114E+03  0.27097994692E+04  0.26988688913E+04 0.  0.
        5    1    3    3  502    0 -0.51277231318E+03  0.11987720474E+04  0.47077648701E+03  0.13862331902E+04  0.46999998093E+01 0. -1.
       -5    1    3    3    0  502  0.51277231318E+03 -0.11987720474E+04 -0.22763070587E+03  0.13235662790E+04  0.46999998093E+01 0.  1.
</event>
<event>
 5   0  0.4992668E-07  0.2699698E+04  0.7818609E-02  0.8335103E-01
        2   -1    0    0  501    0  0.00000000000E+00  0.00000000000E+00  0.14185352901E+04  0.14185352901E+04  0.25500000920E-02 0.  1.
       -2   -1    0    0    0  501  0.00000000000E+00  0.00000000000E+00 -0.12844882321E+04  0.12844882321E+04  0.25500000920E-02 0. -1.
    10030    2    1    2    0    0  0.00000000000E+00  0.00000000000E+00  0.13404705793E+03  0.27030235222E+04  0.26996976771E+04 0.  0.
        1    1    3    3  502    0 -0.10835812726E+02 -0.40440660117E+03 -0.12223633163E+04  0.12875691014E+04  0.50400001928E-02 0. -1.
       -1    1    3    3    0  502  0.10835812726E+02  0.40440660117E+03  0.13564103742E+04  0.14154544208E+04  0.50400001928E-02 0.  1.
</event>
<event>
 5   0  0.1971600E-07  0.2700284E+04  0.7818609E-02  0.8334913E-01
        1   -1    0    0  501    0  0.00000000000E+00  0.00000000000E+00  0.22494748153E+04  0.22494748153E+04  0.50400001928E-02 0.  1.
       -1   -1    0    0    0  501  0.00000000000E+00  0.00000000000E+00 -0.81035933838E+03  0.81035933840E+03  0.50400001928E-02 0. -1.
    10030    2    1    2    0    0  0.00000000000E+00  0.00000000000E+00  0.14391154769E+04  0.30598341537E+04  0.27002836318E+04 0.  0.
        5    1    3    3  502    0  0.45902067361E+03 -0.30412027449E+03  0.21164515514E+04  0.21869106931E+04  0.46999998093E+01 0.  1.
       -5    1    3    3    0  502 -0.45902067361E+03  0.30412027449E+03 -0.67733607452E+03  0.87292346057E+03  0.46999998093E+01 0. -1.
</event>
<event>
 5   0  0.1937896E-07  0.2699503E+04  0.7818609E-02  0.8335166E-01
       -1   -1    0    0    0  501  0.00000000000E+00  0.00000000000E+00  0.92007396356E+03  0.92007396358E+03  0.50400001928E-02 0.  1.
        1   -1    0    0  501    0  0.00000000000E+00  0.00000000000E+00 -0.19800902548E+04  0.19800902548E+04  0.50400001928E-02 0. -1.
    10030    2    1    2    0    0  0.00000000000E+00  0.00000000000E+00 -0.10600162912E+04  0.29001642183E+04  0.26995032795E+04 0.  0.
        3    1    3    3  502    0 -0.84671164110E+03 -0.85550520864E+03 -0.11861603961E+04  0.16899071752E+04  0.10100000352E+00 0. -1.
       -3    1    3    3    0  502  0.84671164110E+03  0.85550520864E+03  0.12614410489E+03  0.12102570432E+04  0.10100000352E+00 0.  1.
</event>
<event>
 5   0  0.1888149E-07  0.2700267E+04  0.7818609E-02  0.8334918E-01
       -1   -1    0    0    0  501  0.00000000000E+00  0.00000000000E+00  0.80970273293E+03  0.80970273295E+03  0.50400001928E-02 0. -1.
        1   -1    0    0  501    0  0.00000000000E+00  0.00000000000E+00 -0.22512712816E+04  0.22512712817E+04  0.50400001928E-02 0.  1.
    10030    2    1    2    0    0  0.00000000000E+00  0.00000000000E+00 -0.14415685487E+04  0.30609740146E+04  0.27002670308E+04 0.  0.
        1    1    3    3  502    0  0.87720632827E+02  0.97991966905E+02 -0.22439924887E+04  0.22478433274E+04  0.50400001928E-02 0.  1.
       -1    1    3    3    0  502 -0.87720632827E+02 -0.97991966905E+02  0.80242394000E+03  0.81313068723E+03  0.50400001928E-02 0. -1.
</event>
<event>
 5   0  0.1971600E-07  0.2702493E+04  0.7818609E-02  0.8334196E-01
        1   -1    0    0  501    0  0.00000000000E+00  0.00000000000E+00  0.15247423859E+04  0.15247423859E+04  0.50400001928E-02 0. -1.
       -1   -1    0    0    0  501  0.00000000000E+00  0.00000000000E+00 -0.11974924381E+04  0.11974924381E+04  0.50400001928E-02 0.  1.
    10030    2    1    2    0    0  0.00000000000E+00  0.00000000000E+00  0.32724994778E+03  0.27222348240E+04  0.27024932763E+04 0.  0.
        5    1    3    3  502    0 -0.28100635545E+03  0.12421275164E+04  0.61858799429E+03  0.14158102046E+04  0.46999998093E+01 0.  1.
       -5    1    3    3    0  502  0.28100635545E+03 -0.12421275164E+04 -0.29133804651E+03  0.13064246194E+04  0.46999998093E+01 0. -1.
</event>
<event>
 5   0  0.4735120E-07  0.2698298E+04  0.7818609E-02  0.8335557E-01
        2   -1    0    0  501    0  0.00000000000E+00  0.00000000000E+00  0.19312971056E+04  0.19312971056E+04  0.25500000920E-02 0. -1.
       -2   -1    0    0    0  501  0.00000000000E+00  0.00000000000E+00 -0.94247703345E+03  0.94247703345E+03  0.25500000920E-02 0.  1.
    10030    2    1    2    0    0  0.00000000000E+00  0.00000000000E+00  0.98882007211E+03  0.28737741390E+04  0.26982981057E+04 0.  0.
        2    1    3    3  502    0  0.47075902152E+03 -0.94444170985E+03  0.13896827516E+04  0.17449362022E+04  0.25500000920E-02 0. -1.
       -2    1    3    3    0  502 -0.47075902152E+03  0.94444170985E+03 -0.40086267953E+03  0.11288379368E+04  0.25500000920E-02 0.  1.
</event>
<event>
 5   0  0.1964242E-07  0.2699713E+04  0.7818609E-02  0.8335098E-01
       -1   -1    0    0    0  501  0.00000000000E+00  0.00000000000E+00  0.72994692831E+03  0.72994692832E+03  0.50400001928E-02 0. -1.
        1   -1    0    0  501    0  0.00000000000E+00  0.00000000000E+00 -0.24962265941E+04  0.24962265941E+04  0.50400001928E-02 0.  1.
    10030    2    1    2    0    0  0.00000000000E+00  0.00000000000E+00 -0.17662796658E+04  0.32261735225E+04  0.26997132698E+04 0.  0.
        2    1    3    3  502    0  0.44273891171E+03 -0.10251797008E+04  0.23098512076E+02  0.11169354073E+04  0.25500000920E-02 0. -1.
       -2    1    3    3    0  502 -0.44273891171E+03  0.10251797008E+04 -0.17893781779E+04  0.21092381151E+04  0.25500000920E-02 0.  1.
</event>
<event>
 5   0  0.4843887E-07  0.2699627E+04  0.7818609E-02  0.8335126E-01
        2   -1    0    0  501    0  0.00000000000E+00  0.00000000000E+00  0.78583292920E+03  0.78583292920E+03  0.25500000920E-02 0. -1.
       -2   -1    0    0    0  501  0.00000000000E+00  0.00000000000E+00 -0.23185546162E+04  0.23185546162E+04  0.25500000920E-02 0.  1.
    10030    2    1    2    0    0  0.00000000000E+00  0.00000000000E+00 -0.15327216870E+04  0.31043875454E+04  0.26996270598E+04 0.  0.
        5    1    3    3  502    0  0.86256566781E+03  0.30432489491E+03 -0.19078334760E+04  0.21157702700E+04  0.46999998093E+01 0.  1.
       -5    1    3    3    0  502 -0.86256566781E+03 -0.30432489491E+03  0.37511178907E+03  0.98861727541E+03  0.46999998093E+01 0. -1.
</event>
<event>
 5   0  0.1888149E-07  0.2700443E+04  0.7818609E-02  0.8334861E-01
        1   -1    0    0  501    0  0.00000000000E+00  0.00000000000E+00  0.13020480803E+04  0.13020480803E+04  0.50400001928E-02 0. -1.
       -1   -1    0    0    0  501  0.00000000000E+00  0.00000000000E+00 -0.14001776294E+04  0.14001776294E+04  0.50400001928E-02 0.  1.
    10030    2    1    2    0    0  0.00000000000E+00  0.00000000000E+00 -0.98129549171E+02  0.27022257097E+04  0.27004433669E+04 0.  0.
        1    1    3    3  502    0 -0.22671278367E+03  0.66465059971E+03  0.11049264028E+04  0.13092064243E+04  0.50400001928E-02 0. -1.
       -1    1    3    3    0  502  0.22671278367E+03 -0.66465059971E+03 -0.12030559519E+04  0.13930192854E+04  0.50400001928E-02 0.  1.
</event>
<event>
 5   0  0.5043890E-07  0.2697453E+04  0.7818609E-02  0.8335832E-01
       -2   -1    0    0    0  501  0.00000000000E+00  0.00000000000E+00  0.98513005123E+03  0.98513005124E+03  0.25500000920E-02 0. -1.
        2   -1    0    0  501    0  0.00000000000E+00  0.00000000000E+00 -0.18465206112E+04  0.18465206113E+04  0.25500000920E-02 0.  1.
    10030    2    1    2    0    0  0.00000000000E+00  0.00000000000E+00 -0.86139056002E+03  0.28316506625E+04  0.26974528314E+04 0.  0.
        3    1    3    3  502    0 -0.63222435371E+02 -0.12959422656E+04 -0.81725345473E+03  0.15334166595E+04  0.10100000352E+00 0. -1.
       -3    1    3    3    0  502  0.63222435371E+02  0.12959422656E+04 -0.44137105289E+02  0.12982340030E+04  0.10100000352E+00 0.  1.
</event>
<event>
 5   0  0.4843887E-07  0.2699699E+04  0.7818609E-02  0.8335103E-01
        2   -1    0    0  501    0  0.00000000000E+00  0.00000000000E+00  0.16829750265E+04  0.16829750265E+04  0.25500000920E-02 0.  1.
       -2   -1    0    0    0  501  0.00000000000E+00  0.00000000000E+00 -0.10826623476E+04  0.10826623476E+04  0.25500000920E-02 0. -1.
    10030    2    1    2    0    0  0.00000000000E+00  0.00000000000E+00  0.60031267892E+03  0.27656373742E+04  0.26996990152E+04 0.  0.
        5    1    3    3  502    0  0.76253789619E+03 -0.36840384548E+03  0.13769652868E+04  0.16165521729E+04  0.46999998093E+01 0.  1.
       -5    1    3    3    0  502 -0.76253789619E+03  0.36840384548E+03 -0.77665260790E+03  0.11490852013E+04  0.46999998093E+01 0. -1.
</event>
<event>
 5   0  0.4843887E-07  0.2698448E+04  0.7818609E-02  0.8335509E-01
       -2   -1    0    0    0  501  0.00000000000E+00  0.00000000000E+00  0.14010000662E+04  0.14010000662E+04  0.25500000920E-02 0.  1.
        2   -1    0    0  501    0  0.00000000000E+00  0.00000000000E+00 -0.12993615673E+04  0.12993615673E+04  0.25500000920E-02 0. -1.
    10030    2    1    2    0    0  0.00000000000E+00  0.00000000000E+00  0.10163849887E+03  0.27003616335E+04  0.26984481776E+04 0.  0.
        5    1    3    3  502    0 -0.11384638294E+04  0.48444029432E+03 -0.48770848192E+03  0.13299112538E+04  0.46999998093E+01 0. -1.
       -5    1    3    3    0  502  0.11384638294E+04 -0.48444029432E+03  0.58934698079E+03  0.13704503798E+04  0.46999998093E+01 0.  1.
</event>
<event>
 5   0  0.5043890E-07  0.2699932E+04  0.7818609E-02  0.8335027E-01
        2   -1    0    0  501    0  0.00000000000E+00  0.00000000000E+00  0.20419596052E+04  0.20419596052E+04  0.25500000920E-02 0. -1.
       -2   -1    0    0    0  501  0.00000000000E+00  0.00000000000E+00 -0.89248021912E+03  0.89248021912E+03  0.25500000920E-02 0.  1.
    10030    2    1    2    0    0  0.00000000000E+00  0.00000000000E+00  0.11494793861E+04  0.29344398244E+04  0.26999322628E+04 0.  0.
        3    1    3    3  502    0  0.12135870069E+04  0.56976446346E+03  0.74653039851E+03  0.15345138035E+04  0.10100000352E+00 0.  1.
       -3    1    3    3    0  502 -0.12135870069E+04 -0.56976446346E+03  0.40294898762E+03  0.13999260209E+04  0.10100000352E+00 0. -1.
</event>
<event>
 5   0  0.1888149E-07  0.2698217E+04  0.7818609E-02  0.8335584E-01
        1   -1    0    0  501    0  0.00000000000E+00  0.00000000000E+00  0.13046083011E+04  0.13046083011E+04  0.50400001928E-02 0.  1.
       -1   -1    0    0    0  501  0.00000000000E+00  0.00000000000E+00 -0.13951262241E+04  0.13951262241E+04  0.50400001928E-02 0. -1.
    10030    2    1    2    0    0  0.00000000000E+00  0.00000000000E+00 -0.90517922999E+02  0.26997345253E+04  0.26982166356E+04 0.  0.
        1    1    3    3  502    0 -0.15462694108E+03 -0.40883551509E+02  0.12950887104E+04  0.13049274783E+04  0.50400001928E-02 0.  1.
       -1    1    3    3    0  502  0.15462694108E+03  0.40883551509E+02 -0.13856066334E+04  0.13948070470E+04  0.50400001928E-02 0. -1.
</event>
<event>
 5   0  0.1965415E-07  0.2701135E+04  0.7818609E-02  0.8334637E-01
        1   -1    0    0  501    0  0.00000000000E+00  0.00000000000E+00  0.22138935279E+04  0.22138935280E+04  0.50400001928E-02 0. -1.
       -1   -1    0    0    0  501  0.00000000000E+00  0.00000000000E+00 -0.82390228336E+03  0.82390228337E+03  0.50400001928E-02 0.  1.
    10030    2    1    2    0    0  0.00000000000E+00  0.00000000000E+00  0.13899912446E+04  0.30377958113E+04  0.27011345267E+04 0.  0.
        4    1    3    3  502    0  0.57124316184E+03 -0.10538316462E+04 -0.47694129667E+01  0.11987094096E+04  0.12699999809E+01 0.  1.
       -4    1    3    3    0  502 -0.57124316184E+03  0.10538316462E+04  0.13947606576E+04  0.18390864018E+04  0.12699999809E+01 0. -1.
</event>
<event>
 5   0  0.1971600E-07  0.2700447E+04  0.7818609E-02  0.8334860E-01
        1   -1    0    0  501    0  0.00000000000E+00  0.00000000000E+00  0.11862200408E+04  0.11862200408E+04  0.50400001928E-02 0. -1.
       -1   -1    0    0    0  501  0.00000000000E+00  0.00000000000E+00 -0.15369020664E+04  0.15369020664E+04  0.50400001928E-02 0.  1.
    10030    2    1    2    0    0  0.00000000000E+00  0.00000000000E+00 -0.35068202560E+03  0.27231221072E+04  0.27004473940E+04 0.  0.
        5    1    3    3  502    0  0.74652441509E+03  0.10287180458E+04  0.28403033982E+03  0.13024034874E+04  0.46999998093E+01 0. -1.
       -5    1    3    3    0  502 -0.74652441509E+03 -0.10287180458E+04 -0.63471236543E+03  0.14207186199E+04  0.46999998093E+01 0.  1.
</event>
<event>
 5   0  0.4735120E-07  0.2701879E+04  0.7818609E-02  0.8334396E-01
       -2   -1    0    0    0  501  0.00000000000E+00  0.00000000000E+00  0.17081050899E+04  0.17081050900E+04  0.25500000920E-02 0. -1.
        2   -1    0    0  501    0  0.00000000000E+00  0.00000000000E+00 -0.10684575013E+04  0.10684575013E+04  0.25500000920E-02 0.  1.
    10030    2    1    2    0    0  0.00000000000E+00  0.00000000000E+00  0.63964758860E+03  0.27765625913E+04  0.27018791212E+04 0.  0.
        2    1    3    3  502    0 -0.63656291810E+03  0.11331358037E+04  0.69856029470E+03  0.14755323052E+04  0.25500000920E-02 0. -1.
       -2    1    3    3    0  502  0.63656291810E+03 -0.11331358037E+04 -0.58912706093E+02  0.13010302861E+04  0.25500000920E-02 0.  1.
</event>
<event>
 5   0  0.1937896E-07  0.2701150E+04  0.7818609E-02  0.8334632E-01
       -1   -1    0    0    0  501  0.00000000000E+00  0.00000000000E+00  0.12094777067E+04  0.12094777067E+04  0.50400001928E-02 0.  1.
        1   -1    0    0  501    0  0.00000000000E+00  0.00000000000E+00 -0.15081325337E+04  0.15081325337E+04  0.50400001928E-02 0. -1.
    10030    2    1    2    0    0  0.00000000000E+00  0.00000000000E+00 -0.29865482700E+03  0.27176102405E+04  0.27011498872E+04 0.  0.
        3    1    3    3  502    0  0.35947991732E+03 -0.11924654149E+04  0.37620913669E+03  0.13010506913E+04  0.10100000352E+00 0.  1.
       -3    1    3    3    0  502 -0.35947991732E+03  0.11924654149E+04 -0.67486396369E+03  0.14165595492E+04  0.10100000352E+00 0. -1.
</event>
<event>
 5   0  0.1965415E-07  0.2699586E+04  0.7818609E-02  0.8335139E-01
       -1   -1    0    0    0  501  0.00000000000E+00  0.00000000000E+00  0.14044548344E+04  0.14044548344E+04  0.50400001928E-02 0.  1.
        1   -1    0    0  501    0  0.00000000000E+00  0.00000000000E+00 -0.12972587389E+04  0.12972587389E+04  0.50400001928E-02 0. -1.
    10030    2    1    2    0    0  0.00000000000E+00  0.00000000000E+00  0.10719609547E+03  0.27017135732E+04  0.26995861218E+04 0.  0.
        4    1    3    3  502    0 -0.13430590176E+04 -0.47868652840E+02  0.17955732143E+03  0.13558544823E+04  0.12699999809E+01 0.  1.
       -4    1    3    3    0  502  0.13430590176E+04  0.47868652840E+02 -0.72361225952E+02  0.13458590909E+04  0.12699999809E+01 0. -1.
</event>
<event>
 5   0  0.4983208E-07  0.2698831E+04  0.7818609E-02  0.8335384E-01
        2   -1    0    0  501    0  0.00000000000E+00  0.00000000000E+00  0.87310178562E+03  0.87310178562E+03  0.25500000920E-02 0.  1.
       -2   -1    0    0    0  501  0.00000000000E+00  0.00000000000E+00 -0.20855790156E+04  0.20855790156E+04  0.25500000920E-02 0. -1.
    10030    2    1    2    0    0  0.00000000000E+00  0.00000000000E+00 -0.12124772300E+04  0.29586808012E+04  0.26988314231E+04 0.  0.
        4    1    3    3  502    0 -0.10363399805E+04  0.16744946481E+03  0.32326469389E+03  0.10984268540E+04  0.12699999809E+01 0.  1.
       -4    1    3    3    0  502  0.10363399805E+04 -0.16744946481E+03 -0.15357419239E+04  0.18602539472E+04  0.12699999809E+01 0. -1.
</event>
<event>
 5   0  0.1965415E-07  0.2700289E+04  0.7818609E-02  0.8334911E-01
       -1   -1    0    0    0  501  0.00000000000E+00  0.00000000000E+00  0.10106537266E+04  0.10106537266E+04  0.50400001928E-02 0. -1.
        1   -1    0    0  501    0  0.00000000000E+00  0.00000000000E+00 -0.18036738305E+04  0.18036738305E+04  0.50400001928E-02 0.  1.
    10030    2    1    2    0    0  0.00000000000E+00  0.00000000000E+00 -0.79302010392E+03  0.28143275572E+04  0.27002886353E+04 0.  0.
        4    1    3    3  502    0 -0.17925543863E+03  0.59891117659E+03  0.85071609445E+03  0.10557208892E+04  0.12699999809E+01 0. -1.
       -4    1    3    3    0  502  0.17925543863E+03 -0.59891117659E+03 -0.16437361984E+04  0.17586066679E+04  0.12699999809E+01 0.  1.
</event>
<event>
 5   0  0.1965415E-07  0.2705264E+04  0.7818609E-02  0.8333299E-01
       -1   -1    0    0    0  501  0.00000000000E+00  0.00000000000E+00  0.14024688577E+04  0.14024688577E+04  0.50400001928E-02 0. -1.
        1   -1    0    0  501    0  0.00000000000E+00  0.00000000000E+00 -0.13045659549E+04  0.13045659549E+04  0.50400001928E-02 0.  1.
    10030    2    1    2    0    0  0.00000000000E+00  0.00000000000E+00  0.97902902833E+02  0.27070348126E+04  0.27052638500E+04 0.  0.
        4    1    3    3  502    0  0.10358940066E+04  0.28203140439E+03  0.87228617311E+03  0.13832942155E+04  0.12699999809E+01 0. -1.
       -4    1    3    3    0  502 -0.10358940066E+04 -0.28203140439E+03 -0.77438327027E+03  0.13237405970E+04  0.12699999809E+01 0.  1.
</event>
<event>
 5   0  0.1888149E-07  0.2699589E+04  0.7818609E-02  0.8335138E-01
       -1   -1    0    0    0  501  0.00000000000E+00  0.00000000000E+00  0.83161200195E+03  0.83161200196E+03  0.50400001928E-02 0. -1.
        1   -1    0    0  501    0  0.00000000000E+00  0.00000000000E+00 -0.21908604488E+04  0.21908604488E+04  0.50400001928E-02 0.  1.
    10030    2    1    2    0    0  0.00000000000E+00  0.00000000000E+00 -0.13592484468E+04  0.30224724507E+04  0.26995894827E+04 0.  0.
        1    1    3    3  502    0  0.58272111841E+03  0.91995609805E+02  0.67963220402E+03  0.89995945844E+03  0.50400001928E-02 0. -1.
       -1    1    3    3    0  502 -0.58272111841E+03 -0.91995609805E+02 -0.20388806509E+04  0.21225129923E+04  0.50400001928E-02 0.  1.
</event>
<event>
 5   0  0.4992668E-07  0.2700610E+04  0.7818609E-02  0.8334807E-01
       -2   -1    0    0    0  501  0.00000000000E+00  0.00000000000E+00  0.64712410783E+03  0.64712410784E+03  0.25500000920E-02 0. -1.
        2   -1    0    0  501    0  0.00000000000E+00  0.00000000000E+00 -0.28175799205E+04  0.28175799205E+04  0.25500000920E-02 0.  1.
    10030    2    1    2    0    0  0.00000000000E+00  0.00000000000E+00 -0.21704558126E+04  0.34647040283E+04  0.27006102216E+04 0.  0.
        1    1    3    3  502    0 -0.18331984658E+03 -0.10312152085E+04 -0.21785953011E+04  0.24172894858E+04  0.50400001928E-02 0.  1.
       -1    1    3    3    0  502  0.18331984658E+03  0.10312152085E+04  0.81394884342E+01  0.10474145425E+04  0.50400001928E-02 0. -1.
</event>
<event>
 5   0  0.1937896E-07  0.2700882E+04  0.7818609E-02  0.8334719E-01
       -1   -1    0    0    0  501  0.00000000000E+00  0.00000000000E+00  0.97312853847E+03  0.97312853849E+03  0.50400001928E-02 0. -1.
        1   -1    0    0  501    0  0.00000000000E+00  0.00000000000E+00 -0.18740497885E+04  0.18740497885E+04  0.50400001928E-02 0.  1.
    10030    2    1    2    0    0  0.00000000000E+00  0.00000000000E+00 -0.90092125002E+03  0.28471783270E+04  0.27008823238E+04 0.  0.
        3    1    3    3  502    0  0.11218553984E+04 -0.72129645240E+03 -0.22717837475E+03  0.13529368541E+04  0.10100000352E+00 0.  1.
       -3    1    3    3    0  502 -0.11218553984E+04  0.72129645240E+03 -0.67374287527E+03  0.14942414729E+04  0.10100000352E+00 0. -1.
</event>
<event>
 5   0  0.4735120E-07  0.2699869E+04  0.7818609E-02  0.8335048E-01
        2   -1    0    0  501    0  0.00000000000E+00  0.00000000000E+00  0.14400043720E+04  0.14400043720E+04  0.25500000920E-02 0. -1.
       -2   -1    0    0    0  501  0.00000000000E+00  0.00000000000E+00 -0.12654979544E+04  0.12654979544E+04  0.25500000920E-02 0.  1.
    10030    2    1    2    0    0  0.00000000000E+00  0.00000000000E+00  0.17450641758E+03  0.27055023264E+04  0.26998685798E+04 0.  0.
        2    1    3    3  502    0 -0.37148188094E+03  0.91996012645E+03  0.10045852469E+04  0.14119195942E+04  0.25500000920E-02 0. -1.
       -2    1    3    3    0  502  0.37148188094E+03 -0.91996012645E+03 -0.83007882931E+03  0.12935827322E+04  0.25500000920E-02 0.  1.
</event>
<event>
 5   0  0.5043890E-07  0.2700937E+04  0.7818609E-02  0.8334701E-01
       -2   -1    0    0    0  501  0.00000000000E+00  0.00000000000E+00  0.13278857711E+04  0.13278857711E+04  0.25500000920E-02 0. -1.
        2   -1    0    0  501    0  0.00000000000E+00  0.00000000000E+00 -0.13734357897E+04  0.13734357897E+04  0.25500000920E-02 0.  1.
    10030    2    1    2    0    0  0.00000000000E+00  0.00000000000E+00 -0.45550018570E+02  0.27013215607E+04  0.27009374984E+04 0.  0.
        3    1    3    3  502    0  0.43384272493E+03  0.12788420857E+04 -0.33228391805E+02  0.13508370466E+04  0.10100000352E+00 0.  1.
       -3    1    3    3    0  502 -0.43384272493E+03 -0.12788420857E+04 -0.12321626765E+02  0.13504845141E+04  0.10100000352E+00 0. -1.
</event>
<event>
 5   0  0.1971600E-07  0.2700029E+04  0.7818609E-02  0.8334996E-01
        1   -1    0    0  501    0  0.00000000000E+00  0.00000000000E+00  0.17259677054E+04  0.17259677054E+04  0.50400001928E-02 0.  1.
       -1   -1    0    0    0  501  0.00000000000E+00  0.00000000000E+00 -0.10559518259E+04  0.10559518259E+04  0.50400001928E-02 0. -1.
    10030    2    1    2    0    0  0.00000000000E+00  0.00000000000E+00  0.67001587956E+03  0.27819195313E+04  0.27000287035E+04 0.  0.
        5    1    3    3  502    0  0.90686197364E+03  0.33740875627E+03 -0.63496591496E+03  0.11573448541E+04  0.46999998093E+01 0. -1.
       -5    1    3    3    0  502 -0.90686197364E+03 -0.33740875627E+03  0.13049817945E+04  0.16245746773E+04  0.46999998093E+01 0.  1.
</event>
<event>
 5   0  0.4983208E-07  0.2701610E+04  0.7818609E-02  0.8334483E-01
        2   -1    0    0  501    0  0.00000000000E+00  0.00000000000E+00  0.16042401710E+04  0.16042401710E+04  0.25500000920E-02 0.  1.
       -2   -1    0    0    0  501  0.00000000000E+00  0.00000000000E+00 -0.11374068021E+04  0.11374068021E+04  0.25500000920E-02 0. -1.
    10030    2    1    2    0    0  0.00000000000E+00  0.00000000000E+00  0.46683336893E+03  0.27416469731E+04  0.27016096555E+04 0.  0.
        4    1    3    3  502    0 -0.63686050019E+03 -0.11835263555E+04  0.95961454168E+02  0.13474183257E+04  0.12699999809E+01 0.  1.
       -4    1    3    3    0  502  0.63686050019E+03  0.11835263555E+04  0.37087191476E+03  0.13942286473E+04  0.12699999809E+01 0. -1.
</event>
<event>
 5   0  0.4983208E-07  0.2700619E+04  0.7818609E-02  0.8334804E-01
       -2   -1    0    0    0  501  0.00000000000E+00  0.00000000000E+00  0.16688800273E+04  0.16688800273E+04  0.25500000920E-02 0. -1.
        2   -1    0    0  501    0  0.00000000000E+00  0.00000000000E+00 -0.10925506747E+04  0.10925506747E+04  0.25500000920E-02 0.  1.
    10030    2    1    2    0    0  0.00000000000E+00  0.00000000000E+00  0.57632935264E+03  0.27614307020E+04  0.27006191882E+04 0.  0.
        4    1    3    3  502    0  0.13203479348E+04 -0.60840458151E+02  0.56940098969E+01  0.13217618034E+04  0.12699999809E+01 0.  1.
       -4    1    3    3    0  502 -0.13203479348E+04  0.60840458151E+02  0.57063534275E+03  0.14396688986E+04  0.12699999809E+01 0. -1.
</event>
<event>
 5   0  0.4735120E-07  0.2698493E+04  0.7818609E-02  0.8335494E-01
        2   -1    0    0  501    0  0.00000000000E+00  0.00000000000E+00  0.11258160692E+04  0.11258160692E+04  0.25500000920E-02 0.  1.
       -2   -1    0    0    0  501  0.00000000000E+00  0.00000000000E+00 -0.16170191484E+04  0.16170191484E+04  0.25500000920E-02 0. -1.
    10030    2    1    2    0    0  0.00000000000E+00  0.00000000000E+00 -0.49120307920E+03  0.27428352177E+04  0.26984930177E+04 0.  0.
        2    1    3    3  502    0  0.11238889289E+04  0.71077039382E+02 -0.10009740424E+04  0.15066941639E+04  0.25500000920E-02 0. -1.
       -2    1    3    3    0  502 -0.11238889289E+04 -0.71077039382E+02  0.50977096319E+03  0.12361410538E+04  0.25500000920E-02 0.  1.
</event>
<event>
 5   0  0.1971600E-07  0.2703760E+04  0.7818609E-02  0.8333786E-01
       -1   -1    0    0    0  501  0.00000000000E+00  0.00000000000E+00  0.79655428729E+03  0.79655428730E+03  0.50400001928E-02 0.  1.
        1   -1    0    0  501    0  0.00000000000E+00  0.00000000000E+00 -0.22943570155E+04  0.22943570155E+04  0.50400001928E-02 0. -1.
    10030    2    1    2    0    0  0.00000000000E+00  0.00000000000E+00 -0.14978027282E+04  0.30909113028E+04  0.27037602832E+04 0.  0.
        5    1    3    3  502    0  0.51998471114E+03  0.95686685563E+03 -0.16645811228E+04  0.19891783941E+04  0.46999998093E+01 0. -1.
       -5    1    3    3    0  502 -0.51998471114E+03 -0.95686685563E+03  0.16677839457E+03  0.11017329087E+04  0.46999998093E+01 0.  1.
</event>
<event>
 5   0  0.5043890E-07  0.2700090E+04  0.7818609E-02  0.8334976E-01
        2   -1    0    0  501    0  0.00000000000E+00  0.00000000000E+00  0.27695337149E+04  0.27695337149E+04  0.25500000920E-02 0.  1.
       -2   -1    0    0    0  501  0.00000000000E+00  0.00000000000E+00 -0.65809702252E+03  0.65809702252E+03  0.25500000920E-02 0. -1.
    10030    2    1    2    0    0  0.00000000000E+00  0.00000000000E+00  0.21114366924E+04  0.34276307374E+04  0.27000902885E+04 0.  0.
        3    1    3    3  502    0 -0.16210955977E+03  0.12646054796E+04  0.16193248134E+04  0.20609996094E+04  0.10100000352E+00 0. -1.
       -3    1    3    3    0  502  0.16210955977E+03 -0.12646054796E+04  0.49211187893E+03  0.13666311280E+04  0.10100000352E+00 0.  1.
</event>
<event>
 5   0  0.1641625E-07  0.2701220E+04  0.7818609E-02  0.8334609E-01
       -3   -1    0    0    0  501  0.00000000000E+00  0.00000000000E+00  0.16965081068E+04  0.16965081098E+04  0.10100000352E+00 0. -1.
        3   -1    0    0  501    0  0.00000000000E+00  0.00000000000E+00 -0.10752366491E+04  0.10752366539E+04  0.10100000352E+00 0.  1.
    10030    2    1    2    0    0  0.00000000000E+00  0.00000000000E+00  0.62127145764E+03  0.27717447637E+04  0.27012202448E+04 0.  0.
        5    1    3    3  502    0  0.81260565404E+03  0.18661448403E+03 -0.77963652403E+03  0.11414938082E+04  0.46999998093E+01 0.  1.
       -5    1    3    3    0  502 -0.81260565404E+03 -0.18661448403E+03  0.14009079817E+04  0.16302509554E+04  0.46999998093E+01 0. -1.
</event>
<event>
 5   0  0.1937896E-07  0.2698994E+04  0.7818609E-02  0.8335331E-01
        1   -1    0    0  501    0  0.00000000000E+00  0.00000000000E+00  0.16503000695E+04  0.16503000695E+04  0.50400001928E-02 0. -1.
       -1   -1    0    0    0  501  0.00000000000E+00  0.00000000000E+00 -0.11035217827E+04  0.11035217827E+04  0.50400001928E-02 0.  1.
    10030    2    1    2    0    0  0.00000000000E+00  0.00000000000E+00  0.54677828685E+03  0.27538218522E+04  0.26989939419E+04 0.  0.
        3    1    3    3  502    0  0.38674794763E+02  0.69083688949E+03 -0.90876307664E+03  0.11421916158E+04  0.10100000352E+00 0.  1.
       -3    1    3    3    0  502 -0.38674794763E+02 -0.69083688949E+03  0.14555413635E+04  0.16116302363E+04  0.10100000352E+00 0. -1.
</event>
<event>
 5   0  0.4983208E-07  0.2700455E+04  0.7818609E-02  0.8334857E-01
        2   -1    0    0  501    0  0.00000000000E+00  0.00000000000E+00  0.15831242899E+04  0.15831242899E+04  0.25500000920E-02 0. -1.
       -2   -1    0    0    0  501  0.00000000000E+00  0.00000000000E+00 -0.11515926518E+04  0.11515926518E+04  0.25500000920E-02 0.  1.
    10030    2    1    2    0    0  0.00000000000E+00  0.00000000000E+00  0.43153163810E+03  0.27347169417E+04  0.27004549980E+04 0.  0.
        4    1    3    3  502    0  0.34384040252E+03 -0.38377705587E+03  0.14796393948E+04  0.15667946268E+04  0.12699999809E+01 0. -1.
       -4    1    3    3    0  502 -0.34384040252E+03  0.38377705587E+03 -0.10481077567E+04  0.11679223149E+04  0.12699999809E+01 0.  1.
</event>
<event>
 5   0  0.1965415E-07  0.2700420E+04  0.7818609E-02  0.8334869E-01
       -1   -1    0    0    0  501  0.00000000000E+00  0.00000000000E+00  0.92573591211E+03  0.92573591213E+03  0.50400001928E-02 0.  1.
        1   -1    0    0  501    0  0.00000000000E+00  0.00000000000E+00 -0.19693161955E+04  0.19693161955E+04  0.50400001928E-02 0. -1.
    10030    2    1    2    0    0  0.00000000000E+00  0.00000000000E+00 -0.10435802834E+04  0.28950521076E+04  0.27004197633E+04 0.  0.
        4    1    3    3  502    0  0.97370051122E+03  0.59700016859E+02  0.47898373815E+03  0.10867767995E+04  0.12699999809E+01 0.  1.
       -4    1    3    3    0  502 -0.97370051122E+03 -0.59700016859E+02 -0.15225640215E+04  0.18082753082E+04  0.12699999809E+01 0. -1.
</event>
<event>
 5   0  0.1937896E-07  0.2701005E+04  0.7818609E-02  0.8334679E-01
        1   -1    0    0  501    0  0.00000000000E+00  0.00000000000E+00  0.53467413182E+03  0.53467413185E+03  0.50400001928E-02 0.  1.
       -1   -1    0    0    0  501  0.00000000000E+00  0.00000000000E+00 -0.34111553113E+04  0.34111553114E+04  0.50400001928E-02 0. -1.
    10030    2    1    2    0    0  0.00000000000E+00  0.00000000000E+00 -0.28764811795E+04  0.39458294432E+04  0.27010046314E+04 0.  0.
        3    1    3    3  502    0 -0.80638622649E+03  0.10827985891E+04 -0.13888085184E+04  0.19368790984E+04  0.10100000352E+00 0.  1.
       -3    1    3    3    0  502  0.80638622649E+03 -0.10827985891E+04 -0.14876726612E+04  0.20089503448E+04  0.10100000352E+00 0. -1.
</event>
<event>
 5   0  0.4735120E-07  0.2695618E+04  0.7818609E-02  0.8336428E-01
       -2   -1    0    0    0  501  0.00000000000E+00  0.00000000000E+00  0.16339114532E+04  0.16339114532E+04  0.25500000920E-02 0. -1.
        2   -1    0    0  501    0  0.00000000000E+00  0.00000000000E+00 -0.11118036860E+04  0.11118036860E+04  0.25500000920E-02 0.  1.
    10030    2    1    2    0    0  0.00000000000E+00  0.00000000000E+00  0.52210776718E+03  0.27457151393E+04  0.26956177595E+04 0.  0.
        2    1    3    3  502    0  0.82939377337E+02  0.11653906012E+04  0.94553569785E+03  0.15030142879E+04  0.25500000920E-02 0. -1.
       -2    1    3    3    0  502 -0.82939377337E+02 -0.11653906012E+04 -0.42342793067E+03  0.12427008514E+04  0.25500000920E-02 0.  1.
</event>
<event>
 5   0  0.1937896E-07  0.2699505E+04  0.7818609E-02  0.8335166E-01
        1   -1    0    0  501    0  0.00000000000E+00  0.00000000000E+00  0.12337058367E+04  0.12337058367E+04  0.50400001928E-02 0. -1.
       -1   -1    0    0    0  501  0.00000000000E+00  0.00000000000E+00 -0.14767147856E+04  0.14767147856E+04  0.50400001928E-02 0.  1.
    10030    2    1    2    0    0  0.00000000000E+00  0.00000000000E+00 -0.24300894893E+03  0.27104206224E+04  0.26995048807E+04 0.  0.
        3    1    3    3  502    0  0.62873262400E+03  0.93876490184E+03  0.61989004675E+03  0.12887388927E+04  0.10100000352E+00 0. -1.
       -3    1    3    3    0  502 -0.62873262400E+03 -0.93876490184E+03 -0.86289899568E+03  0.14216817296E+04  0.10100000352E+00 0.  1.
</event>
<event>
 5   0  0.4983208E-07  0.2700855E+04  0.7818609E-02  0.8334728E-01
       -2   -1    0    0    0  501  0.00000000000E+00  0.00000000000E+00  0.10384220147E+04  0.10384220147E+04  0.25500000920E-02 0.  1.
        2   -1    0    0  501    0  0.00000000000E+00  0.00000000000E+00 -0.17561781764E+04  0.17561781764E+04  0.25500000920E-02 0. -1.
    10030    2    1    2    0    0  0.00000000000E+00  0.00000000000E+00 -0.71775616173E+03  0.27946001911E+04  0.27008547389E+04 0.  0.
        4    1    3    3  502    0  0.62341545325E+02 -0.12757770430E+04  0.94696543412E+02  0.12808054419E+04  0.12699999809E+01 0.  1.
       -4    1    3    3    0  502 -0.62341545325E+02  0.12757770430E+04 -0.81245270514E+03  0.15137947492E+04  0.12699999809E+01 0. -1.
</event>
<event>
 5   0  0.4992668E-07  0.2702038E+04  0.7818609E-02  0.8334344E-01
        2   -1    0    0  501    0  0.00000000000E+00  0.00000000000E+00  0.17165879235E+04  0.17165879235E+04  0.25500000920E-02 0.  1.
       -2   -1    0    0    0  501  0.00000000000E+00  0.00000000000E+00 -0.10633025373E+04  0.10633025373E+04  0.25500000920E-02 0. -1.
    10030    2    1    2    0    0  0.00000000000E+00  0.00000000000E+00  0.65328538624E+03  0.27798904608E+04  0.27020379676E+04 0.  0.
        1    1    3    3  502    0 -0.60311050982E+03 -0.71627442357E+03  0.13285924984E+04  0.16254074455E+04  0.50400001928E-02 0.  1.
       -1    1    3    3    0  502  0.60311050982E+03  0.71627442357E+03 -0.67530711220E+03  0.11544830153E+04  0.50400001928E-02 0. -1.
</event>
<event>
 5   0  0.5043890E-07  0.2697875E+04  0.7818609E-02  0.8335695E-01
       -2   -1    0    0    0  501  0.00000000000E+00  0.00000000000E+00  0.12103677501E+04  0.12103677501E+04  0.25500000920E-02 0. -1.
        2   -1    0    0  501    0  0.00000000000E+00  0.00000000000E+00 -0.15033713105E+04  0.15033713105E+04  0.25500000920E-02 0.  1.
    10030    2    1    2    0    0  0.00000000000E+00  0.00000000000E+00 -0.29300356040E+03  0.27137390606E+04  0.26978748308E+04 0.  0.
        3    1    3    3  502    0 -0.78486438265E+03 -0.36422482861E+03 -0.11874592319E+04  0.14692621491E+04  0.10100000352E+00 0.  1.
       -3    1    3    3    0  502  0.78486438265E+03  0.36422482861E+03  0.89445567154E+03  0.12444769116E+04  0.10100000352E+00 0. -1.
</event>
<event>
 5   0  0.5043890E-07  0.2700480E+04  0.7818609E-02  0.8334849E-01
        2   -1    0    0  501    0  0.00000000000E+00  0.00000000000E+00  0.12912883275E+04  0.12912883275E+04  0.25500000920E-02 0.  1.
       -2   -1    0    0    0  501  0.00000000000E+00  0.00000000000E+00 -0.14118829472E+04  0.14118829472E+04  0.25500000920E-02 0. -1.
    10030    2    1    2    0    0  0.00000000000E+00  0.00000000000E+00 -0.12059461974E+03  0.27031712747E+04  0.27004799347E+04 0.  0.
        3    1    3    3  502    0  0.19344891097E+03  0.81221199895E+03  0.10019092224E+04  0.13041981876E+04  0.10100000352E+00 0.  1.
       -3    1    3    3    0  502 -0.19344891097E+03 -0.81221199895E+03 -0.11225038422E+04  0.13989730870E+04  0.10100000352E+00 0. -1.
</event>
<event>
 5   0  0.4843887E-07  0.2698527E+04  0.7818609E-02  0.8335483E-01
        2   -1    0    0  501    0  0.00000000000E+00  0.00000000000E+00  0.11235716473E+04  0.11235716473E+04  0.25500000920E-02 0. -1.
       -2   -1    0    0    0  501  0.00000000000E+00  0.00000000000E+00 -0.16202898913E+04  0.16202898913E+04  0.25500000920E-02 0.  1.
    10030    2    1    2    0    0  0.00000000000E+00  0.00000000000E+00 -0.49671824397E+03  0.27438615386E+04  0.26985268443E+04 0.  0.
        5    1    3    3  502    0  0.30157119910E+03  0.10225810560E+04 -0.10892178099E+04  0.15241504951E+04  0.46999998093E+01 0.  1.
       -5    1    3    3    0  502 -0.30157119910E+03 -0.10225810560E+04  0.59249956591E+03  0.12197110436E+04  0.46999998093E+01 0. -1.
</event>
<event>
 5   0  0.1937896E-07  0.2700312E+04  0.7818609E-02  0.8334904E-01
        1   -1    0    0  501    0  0.00000000000E+00  0.00000000000E+00  0.13634492977E+04  0.13634492977E+04  0.50400001928E-02 0. -1.
       -1   -1    0    0    0  501  0.00000000000E+00  0.00000000000E+00 -0.13369926997E+04  0.13369926997E+04  0.50400001928E-02 0.  1.
    10030    2    1    2    0    0  0.00000000000E+00  0.00000000000E+00  0.26456597923E+02  0.27004419974E+04  0.27003123949E+04 0.  0.
        3    1    3    3  502    0 -0.70090609253E+03  0.80764185071E+02  0.11644262604E+04  0.13614994419E+04  0.10100000352E+00 0. -1.
       -3    1    3    3    0  502  0.70090609253E+03 -0.80764185071E+02 -0.11379696625E+04  0.13389425555E+04  0.10100000352E+00 0.  1.
</event>
<event>
 5   0  0.1965415E-07  0.2700029E+04  0.7818609E-02  0.8334996E-01
       -1   -1    0    0    0  501  0.00000000000E+00  0.00000000000E+00  0.70045500869E+03  0.70045500871E+03  0.50400001928E-02 0. -1.
        1   -1    0    0  501    0  0.00000000000E+00  0.00000000000E+00 -0.26019354842E+04  0.26019354842E+04  0.50400001928E-02 0.  1.
    10030    2    1    2    0    0  0.00000000000E+00  0.00000000000E+00 -0.19014804755E+04  0.33023904929E+04  0.27000286978E+04 0.  0.
        4    1    3    3  502    0  0.32784451720E+03  0.89972530795E+03  0.21316101610E+03  0.98103358194E+03  0.12699999809E+01 0. -1.
       -4    1    3    3    0  502 -0.32784451720E+03 -0.89972530795E+03 -0.21146414916E+04  0.23213569110E+04  0.12699999809E+01 0.  1.
</event>
<event>
 5   0  0.4983208E-07  0.2708533E+04  0.7818609E-02  0.8332242E-01
        2   -1    0    0  501    0  0.00000000000E+00  0.00000000000E+00  0.18504491386E+04  0.18504491386E+04  0.25500000920E-02 0.  1.
       -2   -1    0    0    0  501  0.00000000000E+00  0.00000000000E+00 -0.99113123646E+03  0.99113123647E+03  0.25500000920E-02 0. -1.
    10030    2    1    2    0    0  0.00000000000E+00  0.00000000000E+00  0.85931790209E+03  0.28415803750E+04  0.27085331401E+04 0.  0.
        4    1    3    3  502    0  0.10574748474E+04  0.84332761496E+03  0.50067301432E+03  0.14422654399E+04  0.12699999809E+01 0. -1.
       -4    1    3    3    0  502 -0.10574748474E+04 -0.84332761496E+03  0.35864488777E+03  0.13993149351E+04  0.12699999809E+01 0.  1.
</event>
<event>
 5   0  0.1937896E-07  0.2698267E+04  0.7818609E-02  0.8335568E-01
        1   -1    0    0  501    0  0.00000000000E+00  0.00000000000E+00  0.11830869843E+04  0.11830869843E+04  0.50400001928E-02 0. -1.
       -1   -1    0    0    0  501  0.00000000000E+00  0.00000000000E+00 -0.15384841816E+04  0.15384841816E+04  0.50400001928E-02 0.  1.
    10030    2    1    2    0    0  0.00000000000E+00  0.00000000000E+00 -0.35539719726E+03  0.27215711659E+04  0.26982665627E+04 0.  0.
        3    1    3    3  502    0  0.12772243634E+04  0.82951376812E+01 -0.61595070392E+03  0.14180148672E+04  0.10100000352E+00 0.  1.
       -3    1    3    3    0  502 -0.12772243634E+04 -0.82951376812E+01  0.26055350666E+03  0.13035562987E+04  0.10100000352E+00 0. -1.
</event>
<event>
 5   0  0.1965415E-07  0.2699230E+04  0.7818609E-02  0.8335255E-01
       -1   -1    0    0    0  501  0.00000000000E+00  0.00000000000E+00  0.12743733789E+04  0.12743733789E+04  0.50400001928E-02 0.  1.
        1   -1    0    0  501    0  0.00000000000E+00  0.00000000000E+00 -0.14292988189E+04  0.14292988189E+04  0.50400001928E-02 0. -1.
    10030    2    1    2    0    0  0.00000000000E+00  0.00000000000E+00 -0.15492544004E+03  0.27036721978E+04  0.26992297904E+04 0.  0.
        4    1    3    3  502    0  0.40212444088E+03  0.12698848227E+04  0.14002875433E+03  0.13393734333E+04  0.12699999809E+01 0.  1.
       -4    1    3    3    0  502 -0.40212444088E+03 -0.12698848227E+04 -0.29495419437E+03  0.13642987644E+04  0.12699999809E+01 0. -1.
</event>
<event>
 5   0  0.1971600E-07  0.2699644E+04  0.7818609E-02  0.8335120E-01
       -1   -1    0    0    0  501  0.00000000000E+00  0.00000000000E+00  0.29126510822E+04  0.29126510822E+04  0.50400001928E-02 0. -1.
        1   -1    0    0  501    0  0.00000000000E+00  0.00000000000E+00 -0.62555375833E+03  0.62555375835E+03  0.50400001928E-02 0.  1.
    10030    2    1    2    0    0  0.00000000000E+00  0.00000000000E+00  0.22870973239E+04  0.35382048406E+04  0.26996442960E+04 0.  0.
        5    1    3    3  502    0  0.21047966671E+03 -0.12989409861E+04  0.15377125098E+04  0.20238901226E+04  0.46999998093E+01 0.  1.
       -5    1    3    3    0  502 -0.21047966671E+03  0.12989409861E+04  0.74938481405E+03  0.15143147180E+04  0.46999998093E+01 0. -1.
</event>
<event>
 5   0  0.1937896E-07  0.2700074E+04  0.7818609E-02  0.8334981E-01
       -1   -1    0    0    0  501  0.00000000000E+00  0.00000000000E+00  0.17368477325E+04  0.17368477325E+04  0.50400001928E-02 0. -1.
        1   -1    0    0  501    0  0.00000000000E+00  0.00000000000E+00 -0.10493722154E+04  0.10493722154E+04  0.50400001928E-02 0.  1.
    10030    2    1    2    0    0  0.00000000000E+00  0.00000000000E+00  0.68747551704E+03  0.27862199479E+04  0.27000738900E+04 0.  0.
        3    1    3    3  502    0 -0.20677554629E+03  0.49591698047E+03  0.16217637387E+04  0.17084517589E+04  0.10100000352E+00 0. -1.
       -3    1    3    3    0  502  0.20677554629E+03 -0.49591698047E+03 -0.93428822164E+03  0.10777681891E+04  0.10100000352E+00 0.  1.
</event>
<event>
 5   0  0.1971600E-07  0.2699177E+04  0.7818609E-02  0.8335272E-01
       -1   -1    0    0    0  501  0.00000000000E+00  0.00000000000E+00  0.13055656037E+04  0.13055656038E+04  0.50400001928E-02 0. -1.
        1   -1    0    0  501    0  0.00000000000E+00  0.00000000000E+00 -0.13950963056E+04  0.13950963056E+04  0.50400001928E-02 0.  1.
    10030    2    1    2    0    0  0.00000000000E+00  0.00000000000E+00 -0.89530701852E+02  0.27006619094E+04  0.26991774677E+04 0.  0.
        5    1    3    3  502    0  0.53274338972E+03 -0.37910924536E+03 -0.12260197032E+04  0.13894911809E+04  0.46999998093E+01 0.  1.
       -5    1    3    3    0  502 -0.53274338972E+03  0.37910924536E+03  0.11364890013E+04  0.13111707285E+04  0.46999998093E+01 0. -1.
</event>
<event>
 5   0  0.1964242E-07  0.2700464E+04  0.7818609E-02  0.8334854E-01
       -1   -1    0    0    0  501  0.00000000000E+00  0.00000000000E+00  0.12660971346E+04  0.12660971346E+04  0.50400001928E-02 0. -1.
        1   -1    0    0  501    0  0.00000000000E+00  0.00000000000E+00 -0.14399576420E+04  0.14399576420E+04  0.50400001928E-02 0.  1.
    10030    2    1    2    0    0  0.00000000000E+00  0.00000000000E+00 -0.17386050742E+03  0.27060547767E+04  0.27004638450E+04 0.  0.
        2    1    3    3  502    0  0.10586119437E+04 -0.45966164659E+03  0.61536178257E+03  0.13079060365E+04  0.25500000920E-02 0. -1.
       -2    1    3    3    0  502 -0.10586119437E+04  0.45966164659E+03 -0.78922228999E+03  0.13981487402E+04  0.25500000920E-02 0.  1.
</event>
<event>
 5   0  0.1964242E-07  0.2699396E+04  0.7818609E-02  0.8335201E-01
       -1   -1    0    0    0  501  0.00000000000E+00  0.00000000000E+00  0.12719057385E+04  0.12719057385E+04  0.50400001928E-02 0.  1.
        1   -1    0    0  501    0  0.00000000000E+00  0.00000000000E+00 -0.14322481222E+04  0.14322481222E+04  0.50400001928E-02 0. -1.
    10030    2    1    2    0    0  0.00000000000E+00  0.00000000000E+00 -0.16034238364E+03  0.27041538607E+04  0.26993959366E+04 0.  0.
        2    1    3    3  502    0  0.22362992832E+03 -0.29210190893E+03  0.12207133762E+04  0.12749411817E+04  0.25500000920E-02 0.  1.
       -2    1    3    3    0  502 -0.22362992832E+03  0.29210190893E+03 -0.13810557598E+04  0.14292126790E+04  0.25500000920E-02 0. -1.
</event>
<event>
 5   0  0.4843887E-07  0.2700234E+04  0.7818609E-02  0.8334929E-01
        2   -1    0    0  501    0  0.00000000000E+00  0.00000000000E+00  0.15453249524E+04  0.15453249524E+04  0.25500000920E-02 0. -1.
       -2   -1    0    0    0  501  0.00000000000E+00  0.00000000000E+00 -0.11795678137E+04  0.11795678137E+04  0.25500000920E-02 0.  1.
    10030    2    1    2    0    0  0.00000000000E+00  0.00000000000E+00  0.36575713862E+03  0.27248927661E+04  0.27002337496E+04 0.  0.
        5    1    3    3  502    0 -0.50701644942E+03 -0.89195665368E+03  0.10684696111E+04  0.14813175730E+04  0.46999998093E+01 0. -1.
       -5    1    3    3    0  502  0.50701644942E+03  0.89195665368E+03 -0.70271247251E+03  0.12435751932E+04  0.46999998093E+01 0.  1.
</event>
<event>
 5   0  0.1937896E-07  0.2700470E+04  0.7818609E-02  0.8334853E-01
       -1   -1    0    0    0  501  0.00000000000E+00  0.00000000000E+00  0.11894968326E+04  0.11894968327E+04  0.50400001928E-02 0. -1.
        1   -1    0    0  501    0  0.00000000000E+00  0.00000000000E+00 -0.15326937432E+04  0.15326937432E+04  0.50400001928E-02 0.  1.
    10030    2    1    2    0    0  0.00000000000E+00  0.00000000000E+00 -0.34319691051E+03  0.27221905758E+04  0.27004698502E+04 0.  0.
        3    1    3    3  502    0  0.80353345030E+03  0.45838431938E+03  0.81985309109E+03  0.12360992238E+04  0.10100000352E+00 0. -1.
       -3    1    3    3    0  502 -0.80353345030E+03 -0.45838431938E+03 -0.11630500016E+04  0.14860913520E+04  0.10100000352E+00 0.  1.
</event>
<event>
 5   0  0.4843887E-07  0.2701411E+04  0.7818609E-02  0.8334547E-01
        2   -1    0    0  501    0  0.00000000000E+00  0.00000000000E+00  0.20653979638E+04  0.20653979638E+04  0.25500000920E-02 0. -1.
       -2   -1    0    0    0  501  0.00000000000E+00  0.00000000000E+00 -0.88331892686E+03  0.88331892687E+03  0.25500000920E-02 0.  1.
    10030    2    1    2    0    0  0.00000000000E+00  0.00000000000E+00  0.11820790369E+04  0.29487168907E+04  0.27014108262E+04 0.  0.
        5    1    3    3  502    0  0.11285899750E+04  0.54167364878E+03  0.37400950133E+02  0.12524163024E+04  0.46999998093E+01 0.  1.
       -5    1    3    3    0  502 -0.11285899750E+04 -0.54167364878E+03  0.11446780868E+04  0.16963005883E+04  0.46999998093E+01 0. -1.
</event>
<event>
 5   0  0.1937896E-07  0.2704027E+04  0.7818609E-02  0.8333700E-01
        1   -1    0    0  501    0  0.00000000000E+00  0.00000000000E+00  0.18235396561E+04  0.18235396562E+04  0.50400001928E-02 0. -1.
       -1   -1    0    0    0  501  0.00000000000E+00  0.00000000000E+00 -0.10024132743E+04  0.10024132743E+04  0.50400001928E-02 0.  1.
    10030    2    1    2    0    0  0.00000000000E+00  0.00000000000E+00  0.82112638183E+03  0.28259529305E+04  0.27040268916E+04 0.  0.
        3    1    3    3  502    0 -0.13057901394E+04 -0.37252588763E+02  0.77479591805E+03  0.15188101818E+04  0.10100000352E+00 0.  1.
       -3    1    3    3    0  502  0.13057901394E+04  0.37252588763E+02  0.46330463778E+02  0.13071427487E+04  0.10100000352E+00 0. -1.
</event>
<event>
 5   0  0.4983208E-07  0.2700549E+04  0.7818609E-02  0.8334827E-01
       -2   -1    0    0    0  501  0.00000000000E+00  0.00000000000E+00  0.12695899375E+04  0.12695899375E+04  0.25500000920E-02 0.  1.
        2   -1    0    0  501    0  0.00000000000E+00  0.00000000000E+00 -0.14360863185E+04  0.14360863185E+04  0.25500000920E-02 0. -1.
    10030    2    1    2    0    0  0.00000000000E+00  0.00000000000E+00 -0.16649638102E+03  0.27056762559E+04  0.27005486400E+04 0.  0.
        4    1    3    3  502    0 -0.80239012831E+03 -0.14797278080E+03  0.99467251650E+03  0.12865072444E+04  0.12699999809E+01 0.  1.
       -4    1    3    3    0  502  0.80239012831E+03  0.14797278080E+03 -0.11611688975E+04  0.14191690115E+04  0.12699999809E+01 0. -1.
</event>
<event>
 5   0  0.1965415E-07  0.2700394E+04  0.7818609E-02  0.8334877E-01
        1   -1    0    0  501    0  0.00000000000E+00  0.00000000000E+00  0.14738596589E+04  0.14738596589E+04  0.50400001928E-02 0. -1.
       -1   -1    0    0    0  501  0.00000000000E+00  0.00000000000E+00 -0.12369099370E+04  0.12369099371E+04  0.50400001928E-02 0.  1.
    10030    2    1    2    0    0  0.00000000000E+00  0.00000000000E+00  0.23694972185E+03  0.27107695960E+04  0.27003937920E+04 0.  0.
        4    1    3    3  502    0 -0.38881881321E+03  0.12703267007E+04  0.36048217470E+03  0.13765387779E+04  0.12699999809E+01 0. -1.
       -4    1    3    3    0  502  0.38881881321E+03 -0.12703267007E+04 -0.12353245285E+03  0.13342308180E+04  0.12699999809E+01 0.  1.
</event>
<event>
 5   0  0.4983208E-07  0.2692028E+04  0.7818609E-02  0.8337596E-01
        2   -1    0    0  501    0  0.00000000000E+00  0.00000000000E+00  0.13613224737E+04  0.13613224737E+04  0.25500000920E-02 0. -1.
       -2   -1    0    0    0  501  0.00000000000E+00  0.00000000000E+00 -0.13308775359E+04  0.13308775359E+04  0.25500000920E-02 0.  1.
    10030    2    1    2    0    0  0.00000000000E+00  0.00000000000E+00  0.30444937809E+02  0.26922000096E+04  0.26920278597E+04 0.  0.
        4    1    3    3  502    0 -0.79716032341E+03 -0.87825433534E+03 -0.62118025081E+03  0.13389031988E+04  0.12699999809E+01 0.  1.
       -4    1    3    3    0  502  0.79716032341E+03  0.87825433534E+03  0.65162518862E+03  0.13532968108E+04  0.12699999809E+01 0. -1.
</event>
<event>
 5   0  0.4735120E-07  0.2698729E+04  0.7818609E-02  0.8335417E-01
       -2   -1    0    0    0  501  0.00000000000E+00  0.00000000000E+00  0.86303623373E+03  0.86303623373E+03  0.25500000920E-02 0. -1.
        2   -1    0    0  501    0  0.00000000000E+00  0.00000000000E+00 -0.21097429357E+04  0.21097429357E+04  0.25500000920E-02 0.  1.
    10030    2    1    2    0    0  0.00000000000E+00  0.00000000000E+00 -0.12467067019E+04  0.29727791694E+04  0.26987290322E+04 0.  0.
        2    1    3    3  502    0  0.41377362958E+03 -0.24666136269E+03  0.76509261782E+03  0.90411125324E+03  0.25500000920E-02 0. -1.
       -2    1    3    3    0  502 -0.41377362958E+03  0.24666136269E+03 -0.20117993197E+04  0.20686679162E+04  0.25500000920E-02 0.  1.
</event>
<event>
 5   0  0.1888149E-07  0.2701474E+04  0.7818609E-02  0.8334527E-01
       -1   -1    0    0    0  501  0.00000000000E+00  0.00000000000E+00  0.15907192482E+04  0.15907192482E+04  0.50400001928E-02 0.  1.
        1   -1    0    0  501    0  0.00000000000E+00  0.00000000000E+00 -0.11469594672E+04  0.11469594672E+04  0.50400001928E-02 0. -1.
    10030    2    1    2    0    0  0.00000000000E+00  0.00000000000E+00  0.44375978099E+03  0.27376787154E+04  0.27014740431E+04 0.  0.
        1    1    3    3  502    0  0.89392009690E+03  0.72606052888E+03 -0.49343642352E+03  0.12528912703E+04  0.50400001928E-02 0. -1.
       -1    1    3    3    0  502 -0.89392009690E+03 -0.72606052888E+03  0.93719620451E+03  0.14847874451E+04  0.50400001928E-02 0.  1.
</event>
<event>
 5   0  0.1888149E-07  0.2701032E+04  0.7818609E-02  0.8334670E-01
       -1   -1    0    0    0  501  0.00000000000E+00  0.00000000000E+00  0.93870693311E+03  0.93870693313E+03  0.50400001928E-02 0.  1.
        1   -1    0    0  501    0  0.00000000000E+00  0.00000000000E+00 -0.19429855424E+04  0.19429855424E+04  0.50400001928E-02 0. -1.
    10030    2    1    2    0    0  0.00000000000E+00  0.00000000000E+00 -0.10042786093E+04  0.28816924756E+04  0.27010323950E+04 0.  0.
        1    1    3    3  502    0 -0.11365676865E+03 -0.39475975211E+02  0.93297755672E+03  0.94070363826E+03  0.50400001928E-02 0.  1.
       -1    1    3    3    0  502  0.11365676865E+03  0.39475975211E+02 -0.19372561660E+04  0.19409888373E+04  0.50400001928E-02 0. -1.
</event>
<event>
 5   0  0.4843887E-07  0.2699611E+04  0.7818609E-02  0.8335131E-01
        2   -1    0    0  501    0  0.00000000000E+00  0.00000000000E+00  0.19531183333E+04  0.19531183333E+04  0.25500000920E-02 0.  1.
       -2   -1    0    0    0  501  0.00000000000E+00  0.00000000000E+00 -0.93285460154E+03  0.93285460155E+03  0.25500000920E-02 0. -1.
    10030    2    1    2    0    0  0.00000000000E+00  0.00000000000E+00  0.10202637318E+04  0.28859729349E+04  0.26996113977E+04 0.  0.
        5    1    3    3  502    0  0.26846007200E+03 -0.10584839687E+04 -0.33804587644E+03  0.11431343870E+04  0.46999998093E+01 0. -1.
       -5    1    3    3    0  502 -0.26846007200E+03  0.10584839687E+04  0.13583096082E+04  0.17428385479E+04  0.46999998093E+01 0.  1.
</event>
<event>
 5   0  0.5043890E-07  0.2700050E+04  0.7818609E-02  0.8334989E-01
       -2   -1    0    0    0  501  0.00000000000E+00  0.00000000000E+00  0.21213489290E+04  0.21213489290E+04  0.25500000920E-02 0.  1.
        2   -1    0    0  501    0  0.00000000000E+00  0.00000000000E+00 -0.85915466653E+03  0.85915466653E+03  0.25500000920E-02 0. -1.
    10030    2    1    2    0    0  0.00000000000E+00  0.00000000000E+00  0.12621942625E+04  0.29805035956E+04  0.27000495045E+04 0.  0.
        3    1    3    3  502    0  0.59955981495E+03 -0.44915524478E+03  0.18708539031E+04  0.20152684046E+04  0.10100000352E+00 0.  1.
       -3    1    3    3    0  502 -0.59955981495E+03  0.44915524478E+03 -0.60865964059E+03  0.96523519098E+03  0.10100000352E+00 0. -1.
</event>
<event>
 5   0  0.4843887E-07  0.2700231E+04  0.7818609E-02  0.8334930E-01
        2   -1    0    0  501    0  0.00000000000E+00  0.00000000000E+00  0.28755406497E+04  0.28755406497E+04  0.25500000920E-02 0. -1.
       -2   -1    0    0    0  501  0.00000000000E+00  0.00000000000E+00 -0.63390251079E+03  0.63390251080E+03  0.25500000920E-02 0.  1.
    10030    2    1    2    0    0  0.00000000000E+00  0.00000000000E+00  0.22416381389E+04  0.35094431605E+04  0.27002314254E+04 0.  0.
        5    1    3    3  502    0  0.28002233124E+03 -0.11373335483E+04  0.19934957661E+04  0.23121391752E+04  0.46999998093E+01 0. -1.
       -5    1    3    3    0  502 -0.28002233124E+03  0.11373335483E+04  0.24814237280E+03  0.11973039853E+04  0.46999998093E+01 0.  1.
</event>
<event>
 5   0  0.1964242E-07  0.2701382E+04  0.7818609E-02  0.8334557E-01
       -1   -1    0    0    0  501  0.00000000000E+00  0.00000000000E+00  0.61075659677E+03  0.61075659679E+03  0.50400001928E-02 0.  1.
        1   -1    0    0  501    0  0.00000000000E+00  0.00000000000E+00 -0.29870597717E+04  0.29870597717E+04  0.50400001928E-02 0. -1.
    10030    2    1    2    0    0  0.00000000000E+00  0.00000000000E+00 -0.23763031749E+04  0.35978163685E+04  0.27013822096E+04 0.  0.
        2    1    3    3  502    0 -0.22228588590E+03  0.52481598562E+03  0.44275698080E+03  0.72171779657E+03  0.25500000920E-02 0.  1.
       -2    1    3    3    0  502  0.22228588590E+03 -0.52481598562E+03 -0.28190601557E+04  0.28760985719E+04  0.25500000920E-02 0. -1.
</event>
<event>
 5   0  0.4983208E-07  0.2686132E+04  0.7818609E-02  0.8339519E-01
       -2   -1    0    0    0  501  0.00000000000E+00  0.00000000000E+00  0.11197117887E+04  0.11197117887E+04  0.25500000920E-02 0. -1.
        2   -1    0    0  501    0  0.00000000000E+00  0.00000000000E+00 -0.16109738316E+04  0.16109738316E+04  0.25500000920E-02 0.  1.
    10030    2    1    2    0    0  0.00000000000E+00  0.00000000000E+00 -0.49126204296E+03  0.27306856203E+04  0.26861320820E+04 0.  0.
        4    1    3    3  502    0  0.75997650592E+03  0.10399622497E+04 -0.63238708772E+03  0.14349218836E+04  0.12699999809E+01 0.  1.
       -4    1    3    3    0  502 -0.75997650592E+03 -0.10399622497E+04  0.14112504476E+03  0.12957637368E+04  0.12699999809E+01 0. -1.
</event>
<event>
 5   0  0.1937896E-07  0.2699855E+04  0.7818609E-02  0.8335052E-01
       -1   -1    0    0    0  501  0.00000000000E+00  0.00000000000E+00  0.82717376860E+03  0.82717376862E+03  0.50400001928E-02 0. -1.
        1   -1    0    0  501    0  0.00000000000E+00  0.00000000000E+00 -0.22030483764E+04  0.22030483764E+04  0.50400001928E-02 0.  1.
    10030    2    1    2    0    0  0.00000000000E+00  0.00000000000E+00 -0.13758746078E+04  0.30302221451E+04  0.26998546835E+04 0.  0.
        3    1    3    3  502    0 -0.43163989130E+03  0.11852736353E+04 -0.12275103436E+04  0.17601046106E+04  0.10100000352E+00 0.  1.
       -3    1    3    3    0  502  0.43163989130E+03 -0.11852736353E+04 -0.14836426425E+03  0.12701175345E+04  0.10100000352E+00 0. -1.
</event>
<event>
 5   0  0.5043890E-07  0.2699156E+04  0.7818609E-02  0.8335279E-01
        2   -1    0    0  501    0  0.00000000000E+00  0.00000000000E+00  0.12971093789E+04  0.12971093789E+04  0.25500000920E-02 0.  1.
       -2   -1    0    0    0  501  0.00000000000E+00  0.00000000000E+00 -0.14041693776E+04  0.14041693776E+04  0.25500000920E-02 0. -1.
    10030    2    1    2    0    0  0.00000000000E+00  0.00000000000E+00 -0.10705999871E+03  0.27012787565E+04  0.26991563639E+04 0.  0.
        3    1    3    3  502    0 -0.20111121926E+03  0.59520069739E+02  0.12806997986E+04  0.12977597411E+04  0.10100000352E+00 0.  1.
       -3    1    3    3    0  502  0.20111121926E+03 -0.59520069739E+02 -0.13877597974E+04  0.14035190154E+04  0.10100000352E+00 0. -1.
</event>
<event>
 5   0  0.1888149E-07  0.2699920E+04  0.7818609E-02  0.8335031E-01
       -1   -1    0    0    0  501  0.00000000000E+00  0.00000000000E+00  0.88687131342E+03  0.88687131343E+03  0.50400001928E-02 0.  1.
        1   -1    0    0  501    0  0.00000000000E+00  0.00000000000E+00 -0.20548553365E+04  0.20548553365E+04  0.50400001928E-02 0. -1.
    10030    2    1    2    0    0  0.00000000000E+00  0.00000000000E+00 -0.11679840231E+04  0.29417266500E+04  0.26999201849E+04 0.  0.
        1    1    3    3  502    0  0.16537275020E+03  0.29421976442E+03 -0.20081435085E+04  0.20363088585E+04  0.50400001928E-02 0. -1.
       -1    1    3    3    0  502 -0.16537275020E+03 -0.29421976442E+03  0.84015948538E+03  0.90541779152E+03  0.50400001928E-02 0.  1.
</event>
<event>
 5   0  0.4843887E-07  0.2700591E+04  0.7818609E-02  0.8334813E-01
       -2   -1    0    0    0  501  0.00000000000E+00  0.00000000000E+00  0.96080367335E+03  0.96080367336E+03  0.25500000920E-02 0. -1.
        2   -1    0    0  501    0  0.00000000000E+00  0.00000000000E+00 -0.18976796367E+04  0.18976796367E+04  0.25500000920E-02 0.  1.
    10030    2    1    2    0    0  0.00000000000E+00  0.00000000000E+00 -0.93687596333E+03  0.28584833100E+04  0.27005907248E+04 0.  0.
        5    1    3    3  502    0 -0.60652483304E+03  0.50705982212E+03  0.69022859650E+03  0.10494854176E+04  0.46999998093E+01 0. -1.
       -5    1    3    3    0  502  0.60652483304E+03 -0.50705982212E+03 -0.16271045598E+04  0.18089978925E+04  0.46999998093E+01 0.  1.
</event>
<event>
 5   0  0.1965415E-07  0.2699485E+04  0.7818609E-02  0.8335172E-01
       -1   -1    0    0    0  501  0.00000000000E+00  0.00000000000E+00  0.10852608322E+04  0.10852608323E+04  0.50400001928E-02 0. -1.
        1   -1    0    0  501    0  0.00000000000E+00  0.00000000000E+00 -0.16786789349E+04  0.16786789349E+04  0.50400001928E-02 0.  1.
    10030    2    1    2    0    0  0.00000000000E+00  0.00000000000E+00 -0.59341810269E+03  0.27639397672E+04  0.26994847642E+04 0.  0.
        4    1    3    3  502    0  0.14350224880E+03 -0.13419076357E+04 -0.31946324454E+03  0.13868552108E+04  0.12699999809E+01 0.  1.
       -4    1    3    3    0  502 -0.14350224880E+03  0.13419076357E+04 -0.27395485815E+03  0.13770845564E+04  0.12699999809E+01 0. -1.
</event>
<event>
 5   0  0.4735120E-07  0.2700370E+04  0.7818609E-02  0.8334885E-01
       -2   -1    0    0    0  501  0.00000000000E+00  0.00000000000E+00  0.15196089993E+04  0.15196089993E+04  0.25500000920E-02 0. -1.
        2   -1    0    0  501    0  0.00000000000E+00  0.00000000000E+00 -0.11996503382E+04  0.11996503382E+04  0.25500000920E-02 0.  1.
    10030    2    1    2    0    0  0.00000000000E+00  0.00000000000E+00  0.31995866118E+03  0.27192593375E+04  0.27003699376E+04 0.  0.
        2    1    3    3  502    0 -0.13321327419E+04 -0.20802224432E+03  0.23223467713E+03  0.13681315147E+04  0.25500000920E-02 0. -1.
       -2    1    3    3    0  502  0.13321327419E+04  0.20802224432E+03  0.87723984051E+02  0.13511278228E+04  0.25500000920E-02 0.  1.
</event>
<event>
 5   0  0.5043890E-07  0.2699193E+04  0.7818609E-02  0.8335267E-01
        2   -1    0    0  501    0  0.00000000000E+00  0.00000000000E+00  0.17299783389E+04  0.17299783389E+04  0.25500000920E-02 0. -1.
       -2   -1    0    0    0  501  0.00000000000E+00  0.00000000000E+00 -0.10528517540E+04  0.10528517540E+04  0.25500000920E-02 0.  1.
    10030    2    1    2    0    0  0.00000000000E+00  0.00000000000E+00  0.67712658490E+03  0.27828300929E+04  0.26991930117E+04 0.  0.
        3    1    3    3  502    0 -0.14333446116E+02 -0.10302746300E+04 -0.56007535327E+03  0.11727555894E+04  0.10100000352E+00 0.  1.
       -3    1    3    3    0  502  0.14333446116E+02  0.10302746300E+04  0.12372019382E+04  0.16100745035E+04  0.10100000352E+00 0. -1.
</event>
<event>
 5   0  0.1971600E-07  0.2699615E+04  0.7818609E-02  0.8335130E-01
       -1   -1    0    0    0  501  0.00000000000E+00  0.00000000000E+00  0.11897162451E+04  0.11897162451E+04  0.50400001928E-02 0. -1.
        1   -1    0    0  501    0  0.00000000000E+00  0.00000000000E+00 -0.15314416003E+04  0.15314416003E+04  0.50400001928E-02 0.  1.
    10030    2    1    2    0    0  0.00000000000E+00  0.00000000000E+00 -0.34172535519E+03  0.27211578454E+04  0.26996154914E+04 0.  0.
        5    1    3    3  502    0  0.11072444626E+04 -0.48780174789E+03 -0.77398341754E+03  0.14363193467E+04  0.46999998093E+01 0.  1.
       -5    1    3    3    0  502 -0.11072444626E+04  0.48780174789E+03  0.43225806235E+03  0.12848384987E+04  0.46999998093E+01 0. -1.
</event>
<event>
 5   0  0.1964242E-07  0.2700899E+04  0.7818609E-02  0.8334713E-01
       -1   -1    0    0    0  501  0.00000000000E+00  0.00000000000E+00  0.17303614683E+04  0.17303614683E+04  0.50400001928E-02 0. -1.
        1   -1    0    0  501    0  0.00000000000E+00  0.00000000000E+00 -0.10539500276E+04  0.10539500276E+04  0.50400001928E-02 0.  1.
    10030    2    1    2    0    0  0.00000000000E+00  0.00000000000E+00  0.67641144062E+03  0.27843114959E+04  0.27008994926E+04 0.  0.
        2    1    3    3  502    0  0.71932261345E+03 -0.72987073689E+02 -0.83761678055E+03  0.11065053123E+04  0.25500000920E-02 0.  1.
       -2    1    3    3    0  502 -0.71932261345E+03  0.72987073689E+02  0.15140282212E+04  0.16778061836E+04  0.25500000920E-02 0. -1.
</event>
<event>
 5   0  0.4983208E-07  0.2699646E+04  0.7818609E-02  0.8335120E-01
        2   -1    0    0  501    0  0.00000000000E+00  0.00000000000E+00  0.15877482847E+04  0.15877482847E+04  0.25500000920E-02 0. -1.
       -2   -1    0    0    0  501  0.00000000000E+00  0.00000000000E+00 -0.11475511997E+04  0.11475511997E+04  0.25500000920E-02 0.  1.
    10030    2    1    2    0    0  0.00000000000E+00  0.00000000000E+00  0.44019708498E+03  0.27352994844E+04  0.26996462353E+04 0.  0.
        4    1    3    3  502    0  0.48633825938E+03 -0.32091994269E+03  0.14537608718E+04  0.15661854288E+04  0.12699999809E+01 0. -1.
       -4    1    3    3    0  502 -0.48633825938E+03  0.32091994269E+03 -0.10135637868E+04  0.11691140556E+04  0.12699999809E+01 0.  1.
</event>
<event>
 5   0  0.4735120E-07  0.2700210E+04  0.7818609E-02  0.8334937E-01
       -2   -1    0    0    0  501  0.00000000000E+00  0.00000000000E+00  0.96618144118E+03  0.96618144119E+03  0.25500000920E-02 0.  1.
        2   -1    0    0  501    0  0.00000000000E+00  0.00000000000E+00 -0.18865851551E+04  0.18865851551E+04  0.25500000920E-02 0. -1.
    10030    2    1    2    0    0  0.00000000000E+00  0.00000000000E+00 -0.92040371387E+03  0.28527665962E+04  0.27002100393E+04 0.  0.
        2    1    3    3  502    0 -0.14040195987E+02 -0.13042934950E+04 -0.92084047466E+02  0.13076154328E+04  0.25500000920E-02 0.  1.
       -2    1    3    3    0  502  0.14040195987E+02  0.13042934950E+04 -0.82831966640E+03  0.15451511635E+04  0.25500000920E-02 0. -1.
</event>
<event>
 5   0  0.1964242E-07  0.2701090E+04  0.7818609E-02  0.8334652E-01
       -1   -1    0    0    0  501  0.00000000000E+00  0.00000000000E+00  0.15089815666E+04  0.15089815667E+04  0.50400001928E-02 0.  1.
        1   -1    0    0  501    0  0.00000000000E+00  0.00000000000E+00 -0.12087431774E+04  0.12087431774E+04  0.50400001928E-02 0. -1.
    10030    2    1    2    0    0  0.00000000000E+00  0.00000000000E+00  0.30023838923E+03  0.27177247441E+04  0.27010895384E+04 0.  0.
        2    1    3    3  502    0  0.41887620116E+02  0.46805453559E+02  0.15075111340E+04  0.15088191218E+04  0.25500000920E-02 0.  1.
       -2    1    3    3    0  502 -0.41887620116E+02 -0.46805453559E+02 -0.12072727448E+04  0.12089056223E+04  0.25500000920E-02 0. -1.
</event>
<event>
 5   0  0.4735120E-07  0.2700298E+04  0.7818609E-02  0.8334908E-01
        2   -1    0    0  501    0  0.00000000000E+00  0.00000000000E+00  0.15009874538E+04  0.15009874538E+04  0.25500000920E-02 0.  1.
       -2   -1    0    0    0  501  0.00000000000E+00  0.00000000000E+00 -0.12144685599E+04  0.12144685599E+04  0.25500000920E-02 0. -1.
    10030    2    1    2    0    0  0.00000000000E+00  0.00000000000E+00  0.28651889389E+03  0.27154560138E+04  0.27002978143E+04 0.  0.
        2    1    3    3  502    0  0.79734759820E+03 -0.80171969442E+03 -0.59870645546E+03  0.12794401434E+04  0.25500000920E-02 0. -1.
       -2    1    3    3    0  502 -0.79734759820E+03  0.80171969442E+03  0.88522534935E+03  0.14360158704E+04  0.25500000920E-02 0.  1.
</event>
<event>
 5   0  0.4843887E-07  0.2700755E+04  0.7818609E-02  0.8334760E-01
       -2   -1    0    0    0  501  0.00000000000E+00  0.00000000000E+00  0.94926213580E+03  0.94926213580E+03  0.25500000920E-02 0. -1.
        2   -1    0    0  501    0  0.00000000000E+00  0.00000000000E+00 -0.19209855017E+04  0.19209855017E+04  0.25500000920E-02 0.  1.
    10030    2    1    2    0    0  0.00000000000E+00  0.00000000000E+00 -0.97172336590E+03  0.28702476375E+04  0.27007545614E+04 0.  0.
        5    1    3    3  502    0 -0.59923450554E+03  0.17746028732E+03 -0.17580330325E+04  0.18658178849E+04  0.46999998093E+01 0.  1.
       -5    1    3    3    0  502  0.59923450554E+03 -0.17746028732E+03  0.78630966659E+03  0.10044297526E+04  0.46999998093E+01 0. -1.
</event>
<event>
 5   0  0.4983208E-07  0.2699758E+04  0.7818609E-02  0.8335083E-01
       -2   -1    0    0    0  501  0.00000000000E+00  0.00000000000E+00  0.80600844841E+03  0.80600844842E+03  0.25500000920E-02 0.  1.
        2   -1    0    0  501    0  0.00000000000E+00  0.00000000000E+00 -0.22607377101E+04  0.22607377101E+04  0.25500000920E-02 0. -1.
    10030    2    1    2    0    0  0.00000000000E+00  0.00000000000E+00 -0.14547292617E+04  0.30667461585E+04  0.26997582810E+04 0.  0.
        4    1    3    3  502    0 -0.10742812927E+04  0.82744993585E+02  0.19634222152E+03  0.10952072455E+04  0.12699999809E+01 0.  1.
       -4    1    3    3    0  502  0.10742812927E+04 -0.82744993585E+02 -0.16510714832E+04  0.19715389130E+04  0.12699999809E+01 0. -1.
</event>
<event>
 5   0  0.4735120E-07  0.2700140E+04  0.7818609E-02  0.8334959E-01
        2   -1    0    0  501    0  0.00000000000E+00  0.00000000000E+00  0.24460355078E+04  0.24460355078E+04  0.25500000920E-02 0. -1.
       -2   -1    0    0    0  501  0.00000000000E+00  0.00000000000E+00 -0.74516074129E+03  0.74516074129E+03  0.25500000920E-02 0.  1.
    10030    2    1    2    0    0  0.00000000000E+00  0.00000000000E+00  0.17008747665E+04  0.31911962491E+04  0.27001404646E+04 0.  0.
        2    1    3    3  502    0  0.78996471036E+03  0.87070927339E+03  0.66023248125E+02  0.11775134614E+04  0.25500000920E-02 0.  1.
       -2    1    3    3    0  502 -0.78996471036E+03 -0.87070927339E+03  0.16348515184E+04  0.20136827877E+04  0.25500000920E-02 0. -1.
</event>
<event>
 5   0  0.4843887E-07  0.2695700E+04  0.7818609E-02  0.8336401E-01
       -2   -1    0    0    0  501  0.00000000000E+00  0.00000000000E+00  0.72386290576E+03  0.72386290577E+03  0.25500000920E-02 0.  1.
        2   -1    0    0  501    0  0.00000000000E+00  0.00000000000E+00 -0.25097294514E+04  0.25097294514E+04  0.25500000920E-02 0. -1.
    10030    2    1    2    0    0  0.00000000000E+00  0.00000000000E+00 -0.17858665456E+04  0.32335923572E+04  0.26957003197E+04 0.  0.
        5    1    3    3  502    0 -0.12176727885E+04  0.56364051010E+02 -0.20304404063E+03  0.12357802793E+04  0.46999998093E+01 0.  1.
       -5    1    3    3    0  502  0.12176727885E+04 -0.56364051010E+02 -0.15828225050E+04  0.19978120779E+04  0.46999998093E+01 0. -1.
</event>
<event>
 5   0  0.1888149E-07  0.2696208E+04  0.7818609E-02  0.8336236E-01
       -1   -1    0    0    0  501  0.00000000000E+00  0.00000000000E+00  0.10380016287E+04  0.10380016288E+04  0.50400001928E-02 0.  1.
        1   -1    0    0  501    0  0.00000000000E+00  0.00000000000E+00 -0.17508490496E+04  0.17508490496E+04  0.50400001928E-02 0. -1.
    10030    2    1    2    0    0  0.00000000000E+00  0.00000000000E+00 -0.71284742089E+03  0.27888506784E+04  0.26962078297E+04 0.  0.
        1    1    3    3  502    0 -0.12014869576E+04 -0.61060824509E+03 -0.32419500795E+03  0.13861874842E+04  0.50400001928E-02 0.  1.
       -1    1    3    3    0  502  0.12014869576E+04  0.61060824509E+03 -0.38865241294E+03  0.14026631942E+04  0.50400001928E-02 0. -1.
</event>
<event>
 5   0  0.5043890E-07  0.2698742E+04  0.7818609E-02  0.8335413E-01
       -2   -1    0    0    0  501  0.00000000000E+00  0.00000000000E+00  0.12694820704E+04  0.12694820704E+04  0.25500000920E-02 0.  1.
        2   -1    0    0  501    0  0.00000000000E+00  0.00000000000E+00 -0.14342874084E+04  0.14342874084E+04  0.25500000920E-02 0. -1.
    10030    2    1    2    0    0  0.00000000000E+00  0.00000000000E+00 -0.16480533799E+03  0.27037694789E+04  0.26987420394E+04 0.  0.
        3    1    3    3  502    0 -0.31659008445E+03  0.11943890112E+04  0.46083224447E+03  0.13187724441E+04  0.10100000352E+00 0.  1.
       -3    1    3    3    0  502  0.31659008445E+03 -0.11943890112E+04 -0.62563758246E+03  0.13849970348E+04  0.10100000352E+00 0. -1.
</event>
<event>
 5   0  0.1888149E-07  0.2709676E+04  0.7818609E-02  0.8331872E-01
       -1   -1    0    0    0  501  0.00000000000E+00  0.00000000000E+00  0.13882946262E+04  0.13882946262E+04  0.50400001928E-02 0.  1.
        1   -1    0    0  501    0  0.00000000000E+00  0.00000000000E+00 -0.13221878298E+04  0.13221878298E+04  0.50400001928E-02 0. -1.
    10030    2    1    2    0    0  0.00000000000E+00  0.00000000000E+00  0.66106796396E+02  0.27104824560E+04  0.27096761865E+04 0.  0.
        1    1    3    3  502    0 -0.22708227665E+03  0.63800505928E+03 -0.11407391749E+04  0.13266132373E+04  0.50400001928E-02 0. -1.
       -1    1    3    3    0  502  0.22708227665E+03 -0.63800505928E+03  0.12068459713E+04  0.13838692188E+04  0.50400001928E-02 0.  1.
</event>
<event>
 5   0  0.4735120E-07  0.2699743E+04  0.7818609E-02  0.8335088E-01
       -2   -1    0    0    0  501  0.00000000000E+00  0.00000000000E+00  0.14045151585E+04  0.14045151585E+04  0.25500000920E-02 0. -1.
        2   -1    0    0  501    0  0.00000000000E+00  0.00000000000E+00 -0.12973541953E+04  0.12973541953E+04  0.25500000920E-02 0.  1.
    10030    2    1    2    0    0  0.00000000000E+00  0.00000000000E+00  0.10716096326E+03  0.27018693538E+04  0.26997434198E+04 0.  0.
        2    1    3    3  502    0 -0.74553299620E+03 -0.66598326546E+03  0.96137827102E+03  0.13869395583E+04  0.25500000920E-02 0. -1.
       -2    1    3    3    0  502  0.74553299620E+03  0.66598326546E+03 -0.85421730776E+03  0.13149297955E+04  0.25500000920E-02 0.  1.
</event>
<event>
 5   0  0.4843887E-07  0.2700345E+04  0.7818609E-02  0.8334893E-01
        2   -1    0    0  501    0  0.00000000000E+00  0.00000000000E+00  0.10416856626E+04  0.10416856626E+04  0.25500000920E-02 0. -1.
       -2   -1    0    0    0  501  0.00000000000E+00  0.00000000000E+00 -0.17500157349E+04  0.17500157349E+04  0.25500000920E-02 0.  1.
    10030    2    1    2    0    0  0.00000000000E+00  0.00000000000E+00 -0.70833007223E+03  0.27917013975E+04  0.27003453856E+04 0.  0.
        5    1    3    3  502    0  0.34476781149E+03  0.96193495604E+03  0.55816423241E+03  0.11643681135E+04  0.46999998093E+01 0. -1.
       -5    1    3    3    0  502 -0.34476781149E+03 -0.96193495604E+03 -0.12664943046E+04  0.16273332840E+04  0.46999998093E+01 0.  1.
</event>
<event>
 5   0  0.1937896E-07  0.2700662E+04  0.7818609E-02  0.8334790E-01
       -1   -1    0    0    0  501  0.00000000000E+00  0.00000000000E+00  0.11250909691E+04  0.11250909691E+04  0.50400001928E-02 0.  1.
        1   -1    0    0  501    0  0.00000000000E+00  0.00000000000E+00 -0.16206637832E+04  0.16206637832E+04  0.50400001928E-02 0. -1.
    10030    2    1    2    0    0  0.00000000000E+00  0.00000000000E+00 -0.49557281411E+03  0.27457547523E+04  0.27006622791E+04 0.  0.
        3    1    3    3  502    0 -0.10669901688E+04 -0.82347050603E+03 -0.33176385125E+03  0.13880342063E+04  0.10100000352E+00 0. -1.
       -3    1    3    3    0  502  0.10669901688E+04  0.82347050603E+03 -0.16380896287E+03  0.13577205460E+04  0.10100000352E+00 0.  1.
</event>
<event>
 5   0  0.1888149E-07  0.2700117E+04  0.7818609E-02  0.8334967E-01
       -1   -1    0    0    0  501  0.00000000000E+00  0.00000000000E+00  0.10680132792E+04  0.10680132792E+04  0.50400001928E-02 0. -1.
        1   -1    0    0  501    0  0.00000000000E+00  0.00000000000E+00 -0.17065877672E+04  0.17065877672E+04  0.50400001928E-02 0.  1.
    10030    2    1    2    0    0  0.00000000000E+00  0.00000000000E+00 -0.63857448799E+03  0.27746010463E+04  0.27001173289E+04 0.  0.
        1    1    3    3  502    0  0.73430093364E+03 -0.18991212841E+03 -0.14669643571E+04  0.16514384344E+04  0.50400001928E-02 0.  1.
       -1    1    3    3    0  502 -0.73430093364E+03  0.18991212841E+03  0.82838986907E+03  0.11231626119E+04  0.50400001928E-02 0. -1.
</event>
<event>
 5   0  0.1971600E-07  0.2699002E+04  0.7818609E-02  0.8335329E-01
        1   -1    0    0  501    0  0.00000000000E+00  0.00000000000E+00  0.17735013334E+04  0.17735013334E+04  0.50400001928E-02 0. -1.
       -1   -1    0    0    0  501  0.00000000000E+00  0.00000000000E+00 -0.10268684241E+04  0.10268684241E+04  0.50400001928E-02 0.  1.
    10030    2    1    2    0    0  0.00000000000E+00  0.00000000000E+00  0.74663290929E+03  0.28003697575E+04  0.26990016816E+04 0.  0.
        5    1    3    3  502    0  0.12630848205E+04  0.15433508542E+03 -0.92924405224E+02  0.12758760196E+04  0.46999998093E+01 0.  1.
       -5    1    3    3    0  502 -0.12630848205E+04 -0.15433508542E+03  0.83955731451E+03  0.15244937378E+04  0.46999998093E+01 0. -1.
</event>
<event>
 5   0  0.1641625E-07  0.2700034E+04  0.7818609E-02  0.8334994E-01
        3   -1    0    0  501    0  0.00000000000E+00  0.00000000000E+00  0.18732283112E+04  0.18732283139E+04  0.10100000352E+00 0. -1.
       -3   -1    0    0    0  501  0.00000000000E+00  0.00000000000E+00 -0.97294363013E+03  0.97294363537E+03  0.10100000352E+00 0.  1.
    10030    2    1    2    0    0  0.00000000000E+00  0.00000000000E+00  0.90028468107E+03  0.28461719493E+04  0.27000337513E+04 0.  0.
        5    1    3    3  502    0 -0.40494357051E+03 -0.11905377082E+03  0.18018779773E+04  0.18506591882E+04  0.46999998093E+01 0. -1.
       -5    1    3    3    0  502  0.40494357051E+03  0.11905377082E+03 -0.90159329626E+03  0.99551276110E+03  0.46999998093E+01 0.  1.
</event>
<event>
 5   0  0.1937896E-07  0.2698186E+04  0.7818609E-02  0.8335594E-01
        1   -1    0    0  501    0  0.00000000000E+00  0.00000000000E+00  0.11837764300E+04  0.11837764300E+04  0.50400001928E-02 0. -1.
       -1   -1    0    0    0  501  0.00000000000E+00  0.00000000000E+00 -0.15374965051E+04  0.15374965051E+04  0.50400001928E-02 0.  1.
    10030    2    1    2    0    0  0.00000000000E+00  0.00000000000E+00 -0.35372007511E+03  0.27212729350E+04  0.26981861491E+04 0.  0.
        3    1    3    3  502    0  0.10806014300E+04  0.22118262572E+03 -0.96031488097E+03  0.14624725246E+04  0.10100000352E+00 0.  1.
       -3    1    3    3    0  502 -0.10806014300E+04 -0.22118262572E+03  0.60659480585E+03  0.12588004104E+04  0.10100000352E+00 0. -1.
</event>
<event>
 5   0  0.4843887E-07  0.2699506E+04  0.7818609E-02  0.8335165E-01
        2   -1    0    0  501    0  0.00000000000E+00  0.00000000000E+00  0.17931602480E+04  0.17931602480E+04  0.25500000920E-02 0. -1.
       -2   -1    0    0    0  501  0.00000000000E+00  0.00000000000E+00 -0.10159903703E+04  0.10159903703E+04  0.25500000920E-02 0.  1.
    10030    2    1    2    0    0  0.00000000000E+00  0.00000000000E+00  0.77716987775E+03  0.28091506183E+04  0.26995062840E+04 0.  0.
        5    1    3    3  502    0  0.73102109471E+03  0.26509686728E+03  0.15366368680E+04  0.17221913784E+04  0.46999998093E+01 0. -1.
       -5    1    3    3    0  502 -0.73102109471E+03 -0.26509686728E+03 -0.75946699022E+03  0.10869592399E+04  0.46999998093E+01 0.  1.
</event>
<event>
 5   0  0.1641625E-07  0.2707860E+04  0.7818609E-02  0.8332459E-01
        3   -1    0    0  501    0  0.00000000000E+00  0.00000000000E+00  0.18427355825E+04  0.18427355853E+04  0.10100000352E+00 0.  1.
       -3   -1    0    0    0  501  0.00000000000E+00  0.00000000000E+00 -0.99478538255E+03  0.99478538768E+03  0.10100000352E+00 0. -1.
    10030    2    1    2    0    0  0.00000000000E+00  0.00000000000E+00  0.84795019997E+03  0.28375209730E+04  0.27078599909E+04 0.  0.
        5    1    3    3  502    0  0.10484070194E+04  0.74246780109E+03 -0.23912080840E+02  0.12849161808E+04  0.46999998093E+01 0. -1.
       -5    1    3    3    0  502 -0.10484070194E+04 -0.74246780109E+03  0.87186228081E+03  0.15526047922E+04  0.46999998093E+01 0.  1.
</event>
<event>
 5   0  0.4843887E-07  0.2699789E+04  0.7818609E-02  0.8335073E-01
       -2   -1    0    0    0  501  0.00000000000E+00  0.00000000000E+00  0.19081269803E+04  0.19081269803E+04  0.25500000920E-02 0.  1.
        2   -1    0    0  501    0  0.00000000000E+00  0.00000000000E+00 -0.95497569206E+03  0.95497569206E+03  0.25500000920E-02 0. -1.
    10030    2    1    2    0    0  0.00000000000E+00  0.00000000000E+00  0.95315128826E+03  0.28631026724E+04  0.26997887944E+04 0.  0.
        5    1    3    3  502    0  0.31333063651E+03 -0.51490072911E+03 -0.80433546660E+03  0.10051251074E+04  0.46999998093E+01 0. -1.
       -5    1    3    3    0  502 -0.31333063651E+03  0.51490072911E+03  0.17574867549E+04  0.18579775650E+04  0.46999998093E+01 0.  1.
</event>
<event>
 5   0  0.1888149E-07  0.2700911E+04  0.7818609E-02  0.8334710E-01
       -1   -1    0    0    0  501  0.00000000000E+00  0.00000000000E+00  0.12788929576E+04  0.12788929576E+04  0.50400001928E-02 0.  1.
        1   -1    0    0  501    0  0.00000000000E+00  0.00000000000E+00 -0.14260222373E+04  0.14260222373E+04  0.50400001928E-02 0. -1.
    10030    2    1    2    0    0  0.00000000000E+00  0.00000000000E+00 -0.14712927968E+03  0.27049151948E+04  0.27009108068E+04 0.  0.
        1    1    3    3  502    0 -0.11376303937E+04 -0.60584223853E+03  0.33012362739E+03  0.13304996580E+04  0.50400001928E-02 0.  1.
       -1    1    3    3    0  502  0.11376303937E+04  0.60584223853E+03 -0.47725290707E+03  0.13744155368E+04  0.50400001928E-02 0. -1.
</event>
<event>
 5   0  0.1971600E-07  0.2705256E+04  0.7818609E-02  0.8333302E-01
       -1   -1    0    0    0  501  0.00000000000E+00  0.00000000000E+00  0.10821437881E+04  0.10821437882E+04  0.50400001928E-02 0.  1.
        1   -1    0    0  501    0  0.00000000000E+00  0.00000000000E+00 -0.16907199903E+04  0.16907199903E+04  0.50400001928E-02 0. -1.
    10030    2    1    2    0    0  0.00000000000E+00  0.00000000000E+00 -0.60857620211E+03  0.27728637784E+04  0.27052557254E+04 0.  0.
        5    1    3    3  502    0 -0.54907700995E+03 -0.14188280730E+03  0.95439285339E+03  0.11101820132E+04  0.46999998093E+01 0.  1.
       -5    1    3    3    0  502  0.54907700995E+03  0.14188280730E+03 -0.15629690555E+04  0.16626817652E+04  0.46999998093E+01 0. -1.
</event>
<event>
 5   0  0.5043890E-07  0.2701781E+04  0.7818609E-02  0.8334427E-01
       -2   -1    0    0    0  501  0.00000000000E+00  0.00000000000E+00  0.10905636453E+04  0.10905636453E+04  0.25500000920E-02 0. -1.
        2   -1    0    0  501    0  0.00000000000E+00  0.00000000000E+00 -0.16733601754E+04  0.16733601754E+04  0.25500000920E-02 0.  1.
    10030    2    1    2    0    0  0.00000000000E+00  0.00000000000E+00 -0.58279653009E+03  0.27639238207E+04  0.27017814662E+04 0.  0.
        3    1    3    3  502    0 -0.78842777118E+03 -0.88882498213E+03 -0.94905120335E+03  0.15206335509E+04  0.10100000352E+00 0.  1.
       -3    1    3    3    0  502  0.78842777118E+03  0.88882498213E+03  0.36625467326E+03  0.12432902698E+04  0.10100000352E+00 0. -1.
</event>
<event>
 5   0  0.4843887E-07  0.2701406E+04  0.7818609E-02  0.8334549E-01
       -2   -1    0    0    0  501  0.00000000000E+00  0.00000000000E+00  0.19216115704E+04  0.19216115704E+04  0.25500000920E-02 0.  1.
        2   -1    0    0  501    0  0.00000000000E+00  0.00000000000E+00 -0.94941044916E+03  0.94941044916E+03  0.25500000920E-02 0. -1.
    10030    2    1    2    0    0  0.00000000000E+00  0.00000000000E+00  0.97220112123E+03  0.28710220195E+04  0.27014056372E+04 0.  0.
        5    1    3    3  502    0 -0.61496120812E+03  0.11059847045E+04 -0.15774717778E+02  0.12655632681E+04  0.46999998093E+01 0. -1.
       -5    1    3    3    0  502  0.61496120812E+03 -0.11059847045E+04  0.98797583900E+03  0.16054587514E+04  0.46999998093E+01 0.  1.
</event>
<event>
 5   0  0.4983208E-07  0.2700440E+04  0.7818609E-02  0.8334862E-01
        2   -1    0    0  501    0  0.00000000000E+00  0.00000000000E+00  0.74817097057E+03  0.74817097058E+03  0.25500000920E-02 0. -1.
       -2   -1    0    0    0  501  0.00000000000E+00  0.00000000000E+00 -0.24367344435E+04  0.24367344435E+04  0.25500000920E-02 0.  1.
    10030    2    1    2    0    0  0.00000000000E+00  0.00000000000E+00 -0.16885634730E+04  0.31849054141E+04  0.27004399447E+04 0.  0.
        4    1    3    3  502    0  0.61836489995E+03 -0.34420992269E+03 -0.22004595211E+04  0.23114669232E+04  0.12699999809E+01 0.  1.
       -4    1    3    3    0  502 -0.61836489995E+03  0.34420992269E+03  0.51189604812E+03  0.87343849088E+03  0.12699999809E+01 0. -1.
</event>
<event>
 5   0  0.1937896E-07  0.2700491E+04  0.7818609E-02  0.8334846E-01
        1   -1    0    0  501    0  0.00000000000E+00  0.00000000000E+00  0.10062794311E+04  0.10062794312E+04  0.50400001928E-02 0. -1.
       -1   -1    0    0    0  501  0.00000000000E+00  0.00000000000E+00 -0.18117858907E+04  0.18117858907E+04  0.50400001928E-02 0.  1.
    10030    2    1    2    0    0  0.00000000000E+00  0.00000000000E+00 -0.80550645958E+03  0.28180653219E+04  0.27004909742E+04 0.  0.
        3    1    3    3  502    0  0.49305012830E+03 -0.43571061291E+03 -0.16331642172E+04  0.17607292631E+04  0.10100000352E+00 0.  1.
       -3    1    3    3    0  502 -0.49305012830E+03  0.43571061291E+03  0.82765775766E+03  0.10573360588E+04  0.10100000352E+00 0. -1.
</event>
<event>
 5   0  0.1965415E-07  0.2700820E+04  0.7818609E-02  0.8334739E-01
        1   -1    0    0  501    0  0.00000000000E+00  0.00000000000E+00  0.16520548200E+04  0.16520548200E+04  0.50400001928E-02 0.  1.
       -1   -1    0    0    0  501  0.00000000000E+00  0.00000000000E+00 -0.11038419084E+04  0.11038419084E+04  0.50400001928E-02 0. -1.
    10030    2    1    2    0    0  0.00000000000E+00  0.00000000000E+00  0.54821291157E+03  0.27558967284E+04  0.27008201312E+04 0.  0.
        4    1    3    3  502    0  0.95748306885E+03 -0.87697927989E+03 -0.10459426416E+03  0.13026158518E+04  0.12699999809E+01 0.  1.
       -4    1    3    3    0  502 -0.95748306885E+03  0.87697927989E+03  0.65280717574E+03  0.14532808765E+04  0.12699999809E+01 0. -1.
</event>
<event>
 5   0  0.1965415E-07  0.2699848E+04  0.7818609E-02  0.8335054E-01
        1   -1    0    0  501    0  0.00000000000E+00  0.00000000000E+00  0.13864524968E+04  0.13864524969E+04  0.50400001928E-02 0.  1.
       -1   -1    0    0    0  501  0.00000000000E+00  0.00000000000E+00 -0.13143583908E+04  0.13143583909E+04  0.50400001928E-02 0. -1.
    10030    2    1    2    0    0  0.00000000000E+00  0.00000000000E+00  0.72094105999E+02  0.27008108877E+04  0.26998484941E+04 0.  0.
        4    1    3    3  502    0 -0.89291583351E+03  0.82473305255E+03  0.62346209687E+03  0.13660856096E+04  0.12699999809E+01 0. -1.
       -4    1    3    3    0  502  0.89291583351E+03 -0.82473305255E+03 -0.55136799087E+03  0.13347252781E+04  0.12699999809E+01 0.  1.
</event>
<event>
 5   0  0.1965415E-07  0.2701474E+04  0.7818609E-02  0.8334527E-01
        1   -1    0    0  501    0  0.00000000000E+00  0.00000000000E+00  0.11260137962E+04  0.11260137962E+04  0.50400001928E-02 0. -1.
       -1   -1    0    0    0  501  0.00000000000E+00  0.00000000000E+00 -0.16203090163E+04  0.16203090163E+04  0.50400001928E-02 0.  1.
    10030    2    1    2    0    0  0.00000000000E+00  0.00000000000E+00 -0.49429522011E+03  0.27463228124E+04  0.27014738987E+04 0.  0.
        4    1    3    3  502    0  0.42701200656E+03 -0.71862762806E+03  0.83146806446E+03  0.11790274283E+04  0.12699999809E+01 0. -1.
       -4    1    3    3    0  502 -0.42701200656E+03  0.71862762806E+03 -0.13257632846E+04  0.15672953841E+04  0.12699999809E+01 0.  1.
</event>
<event>
 5   0  0.1888149E-07  0.2699776E+04  0.7818609E-02  0.8335078E-01
       -1   -1    0    0    0  501  0.00000000000E+00  0.00000000000E+00  0.80499034372E+03  0.80499034374E+03  0.50400001928E-02 0. -1.
        1   -1    0    0  501    0  0.00000000000E+00  0.00000000000E+00 -0.22636273343E+04  0.22636273343E+04  0.50400001928E-02 0.  1.
    10030    2    1    2    0    0  0.00000000000E+00  0.00000000000E+00 -0.14586369906E+04  0.30686176781E+04  0.26997763952E+04 0.  0.
        1    1    3    3  502    0  0.12191937954E+04 -0.42807630945E+03 -0.28543223175E+03  0.13233119044E+04  0.50400001928E-02 0.  1.
       -1    1    3    3    0  502 -0.12191937954E+04  0.42807630945E+03 -0.11732047589E+04  0.17453057737E+04  0.50400001928E-02 0. -1.
</event>
<event>
 5   0  0.1971600E-07  0.2700768E+04  0.7818609E-02  0.8334756E-01
        1   -1    0    0  501    0  0.00000000000E+00  0.00000000000E+00  0.21071976124E+04  0.21071976124E+04  0.50400001928E-02 0.  1.
       -1   -1    0    0    0  501  0.00000000000E+00  0.00000000000E+00 -0.86538474372E+03  0.86538474374E+03  0.50400001928E-02 0. -1.
    10030    2    1    2    0    0  0.00000000000E+00  0.00000000000E+00  0.12418128687E+04  0.29725823562E+04  0.27007677915E+04 0.  0.
        5    1    3    3  502    0  0.31881477153E+03 -0.13033658842E+04  0.45359020669E+03  0.14163938902E+04  0.46999998093E+01 0.  1.
       -5    1    3    3    0  502 -0.31881477153E+03  0.13033658842E+04  0.78822266203E+03  0.15561884660E+04  0.46999998093E+01 0. -1.
</event>
<event>
 5   0  0.4983208E-07  0.2698468E+04  0.7818609E-02  0.8335502E-01
       -2   -1    0    0    0  501  0.00000000000E+00  0.00000000000E+00  0.11366787027E+04  0.11366787027E+04  0.25500000920E-02 0.  1.
        2   -1    0    0  501    0  0.00000000000E+00  0.00000000000E+00 -0.16015367405E+04  0.16015367405E+04  0.25500000920E-02 0. -1.
    10030    2    1    2    0    0  0.00000000000E+00  0.00000000000E+00 -0.46485803783E+03  0.27382154432E+04  0.26984682355E+04 0.  0.
        4    1    3    3  502    0 -0.19382743537E+03 -0.10717140337E+04 -0.10405838918E+04  0.15063055777E+04  0.12699999809E+01 0. -1.
       -4    1    3    3    0  502  0.19382743537E+03  0.10717140337E+04  0.57572585396E+03  0.12319098654E+04  0.12699999809E+01 0.  1.
</event>
<event>
 5   0  0.1971600E-07  0.2703792E+04  0.7818609E-02  0.8333776E-01
       -1   -1    0    0    0  501  0.00000000000E+00  0.00000000000E+00  0.14155638961E+04  0.14155638961E+04  0.50400001928E-02 0. -1.
        1   -1    0    0  501    0  0.00000000000E+00  0.00000000000E+00 -0.12910920185E+04  0.12910920185E+04  0.50400001928E-02 0.  1.
    10030    2    1    2    0    0  0.00000000000E+00  0.00000000000E+00  0.12447187766E+03  0.27066559146E+04  0.27037923351E+04 0.  0.
        5    1    3    3  502    0  0.62780883236E+03  0.53996353688E+03 -0.10074914316E+04  0.13041340521E+04  0.46999998093E+01 0.  1.
       -5    1    3    3    0  502 -0.62780883236E+03 -0.53996353688E+03  0.11319633093E+04  0.14025218625E+04  0.46999998093E+01 0. -1.
</event>
<event>
 5   0  0.4983208E-07  0.2701299E+04  0.7818609E-02  0.8334584E-01
        2   -1    0    0  501    0  0.00000000000E+00  0.00000000000E+00  0.24630425971E+04  0.24630425971E+04  0.25500000920E-02 0.  1.
       -2   -1    0    0    0  501  0.00000000000E+00  0.00000000000E+00 -0.74065038564E+03  0.74065038565E+03  0.25500000920E-02 0. -1.
    10030    2    1    2    0    0  0.00000000000E+00  0.00000000000E+00  0.17223922115E+04  0.32036929828E+04  0.27012985392E+04 0.  0.
        4    1    3    3  502    0  0.14261069136E+03  0.81414395222E+03 -0.40568846808E+03  0.92073499458E+03  0.12699999809E+01 0. -1.
       -4    1    3    3    0  502 -0.14261069136E+03 -0.81414395222E+03  0.21280806795E+04  0.22829579882E+04  0.12699999809E+01 0.  1.
</event>
<event>
 5   0  0.1888149E-07  0.2700045E+04  0.7818609E-02  0.8334990E-01
       -1   -1    0    0    0  501  0.00000000000E+00  0.00000000000E+00  0.68532572777E+03  0.68532572778E+03  0.50400001928E-02 0.  1.
        1   -1    0    0  501    0  0.00000000000E+00  0.00000000000E+00 -0.26594088751E+04  0.26594088751E+04  0.50400001928E-02 0. -1.
    10030    2    1    2    0    0  0.00000000000E+00  0.00000000000E+00 -0.19740831474E+04  0.33447346029E+04  0.27000454239E+04 0.  0.
        1    1    3    3  502    0  0.78528320856E+02 -0.13468459739E+04 -0.10477355801E+04  0.17081892812E+04  0.50400001928E-02 0. -1.
       -1    1    3    3    0  502 -0.78528320856E+02  0.13468459739E+04 -0.92634756725E+03  0.16365453217E+04  0.50400001928E-02 0.  1.
</event>
<event>
 5   0  0.4992668E-07  0.2699401E+04  0.7818609E-02  0.8335199E-01
       -2   -1    0    0    0  501  0.00000000000E+00  0.00000000000E+00  0.13856314473E+04  0.13856314473E+04  0.25500000920E-02 0. -1.
        2   -1    0    0  501    0  0.00000000000E+00  0.00000000000E+00 -0.13147008881E+04  0.13147008881E+04  0.25500000920E-02 0.  1.
    10030    2    1    2    0    0  0.00000000000E+00  0.00000000000E+00  0.70930559264E+02  0.27003323354E+04  0.26994005959E+04 0.  0.
        1    1    3    3  502    0  0.69200533170E+03  0.11339421737E+04  0.27428323087E+03  0.13564392811E+04  0.50400001928E-02 0. -1.
       -1    1    3    3    0  502 -0.69200533170E+03 -0.11339421737E+04 -0.20335267160E+03  0.13438930543E+04  0.50400001928E-02 0.  1.
</event>
<event>
 5   0  0.1937896E-07  0.2699771E+04  0.7818609E-02  0.8335079E-01
        1   -1    0    0  501    0  0.00000000000E+00  0.00000000000E+00  0.18331223686E+04  0.18331223686E+04  0.50400001928E-02 0. -1.
       -1   -1    0    0    0  501  0.00000000000E+00  0.00000000000E+00 -0.99403648116E+03  0.99403648117E+03  0.50400001928E-02 0.  1.
    10030    2    1    2    0    0  0.00000000000E+00  0.00000000000E+00  0.83908588744E+03  0.28271588498E+04  0.26997707376E+04 0.  0.
        3    1    3    3  502    0 -0.45874081183E+03  0.12617129333E+04  0.56699846215E+03  0.14573434478E+04  0.10100000352E+00 0.  1.
       -3    1    3    3    0  502  0.45874081183E+03 -0.12617129333E+04  0.27208742530E+03  0.13698154020E+04  0.10100000352E+00 0. -1.
</event>
<event>
 5   0  0.4735120E-07  0.2700116E+04  0.7818609E-02  0.8334967E-01
        2   -1    0    0  501    0  0.00000000000E+00  0.00000000000E+00  0.18529689412E+04  0.18529689412E+04  0.25500000920E-02 0. -1.
       -2   -1    0    0    0  501  0.00000000000E+00  0.00000000000E+00 -0.98364111344E+03  0.98364111344E+03  0.25500000920E-02 0.  1.
    10030    2    1    2    0    0  0.00000000000E+00  0.00000000000E+00  0.86932782781E+03  0.28366100547E+04  0.27001158735E+04 0.  0.
        2    1    3    3  502    0  0.21392845277E+03 -0.13232768954E+04  0.60350324341E+03  0.14700487372E+04  0.25500000920E-02 0.  1.
       -2    1    3    3    0  502 -0.21392845277E+03  0.13232768954E+04  0.26582458440E+03  0.13665613175E+04  0.25500000920E-02 0. -1.
</event>
<event>
 5   0  0.1888149E-07  0.2699082E+04  0.7818609E-02  0.8335303E-01
       -1   -1    0    0    0  501  0.00000000000E+00  0.00000000000E+00  0.11469770098E+04  0.11469770098E+04  0.50400001928E-02 0.  1.
        1   -1    0    0  501    0  0.00000000000E+00  0.00000000000E+00 -0.15878791735E+04  0.15878791735E+04  0.50400001928E-02 0. -1.
    10030    2    1    2    0    0  0.00000000000E+00  0.00000000000E+00 -0.44090216371E+03  0.27348561834E+04  0.26990819969E+04 0.  0.
        1    1    3    3  502    0 -0.48011792337E+03 -0.83278537634E+03  0.73931847164E+03  0.12126980275E+04  0.50400001928E-02 0.  1.
       -1    1    3    3    0  502  0.48011792337E+03  0.83278537634E+03 -0.11802206353E+04  0.15221581559E+04  0.50400001928E-02 0. -1.
</event>
<event>
 5   0  0.1937896E-07  0.2700304E+04  0.7818609E-02  0.8334906E-01
       -1   -1    0    0    0  501  0.00000000000E+00  0.00000000000E+00  0.89581243425E+03  0.89581243426E+03  0.50400001928E-02 0. -1.
        1   -1    0    0  501    0  0.00000000000E+00  0.00000000000E+00 -0.20349248560E+04  0.20349248560E+04  0.50400001928E-02 0.  1.
    10030    2    1    2    0    0  0.00000000000E+00  0.00000000000E+00 -0.11391124217E+04  0.29307372902E+04  0.27003044190E+04 0.  0.
        3    1    3    3  502    0 -0.68299232688E+03 -0.10400657499E+04 -0.71625967418E+00  0.12442732039E+04  0.10100000352E+00 0. -1.
       -3    1    3    3    0  502  0.68299232688E+03  0.10400657499E+04 -0.11383961620E+04  0.16864640864E+04  0.10100000352E+00 0.  1.
</event>
<event>
 5   0  0.1888149E-07  0.2700256E+04  0.7818609E-02  0.8334922E-01
       -1   -1    0    0    0  501  0.00000000000E+00  0.00000000000E+00  0.70031484925E+03  0.70031484927E+03  0.50400001928E-02 0. -1.
        1   -1    0    0  501    0  0.00000000000E+00  0.00000000000E+00 -0.26028946801E+04  0.26028946801E+04  0.50400001928E-02 0.  1.
    10030    2    1    2    0    0  0.00000000000E+00  0.00000000000E+00 -0.19025798309E+04  0.33032095294E+04  0.27002561327E+04 0.  0.
        1    1    3    3  502    0 -0.56171196332E+03 -0.25936686320E+03 -0.24192714584E+04  0.24971315322E+04  0.50400001928E-02 0.  1.
       -1    1    3    3    0  502  0.56171196332E+03  0.25936686320E+03  0.51669162759E+03  0.80607799717E+03  0.50400001928E-02 0. -1.
</event>
<event>
 5   0  0.4843887E-07  0.2702889E+04  0.7818609E-02  0.8334068E-01
       -2   -1    0    0    0  501  0.00000000000E+00  0.00000000000E+00  0.15095609257E+04  0.15095609257E+04  0.25500000920E-02 0.  1.
        2   -1    0    0  501    0  0.00000000000E+00  0.00000000000E+00 -0.12098897104E+04  0.12098897104E+04  0.25500000920E-02 0. -1.
    10030    2    1    2    0    0  0.00000000000E+00  0.00000000000E+00  0.29967121528E+03  0.27194506361E+04  0.27028889961E+04 0.  0.
        5    1    3    3  502    0 -0.66232351011E+03 -0.11359423964E+02 -0.10353374705E+04  0.12291245813E+04  0.46999998093E+01 0. -1.
       -5    1    3    3    0  502  0.66232351011E+03  0.11359423964E+02  0.13350086858E+04  0.14903260548E+04  0.46999998093E+01 0.  1.
</event>
<event>
 5   0  0.5043890E-07  0.2700801E+04  0.7818609E-02  0.8334745E-01
        2   -1    0    0  501    0  0.00000000000E+00  0.00000000000E+00  0.14975933864E+04  0.14975933864E+04  0.25500000920E-02 0.  1.
       -2   -1    0    0    0  501  0.00000000000E+00  0.00000000000E+00 -0.12176744695E+04  0.12176744695E+04  0.25500000920E-02 0. -1.
    10030    2    1    2    0    0  0.00000000000E+00  0.00000000000E+00  0.27991891699E+03  0.27152678559E+04  0.27008007941E+04 0.  0.
        3    1    3    3  502    0  0.10646157911E+04  0.27574978635E+03  0.92782585684E+03  0.14388556419E+04  0.10100000352E+00 0.  1.
       -3    1    3    3    0  502 -0.10646157911E+04 -0.27574978635E+03 -0.64790693985E+03  0.12764122140E+04  0.10100000352E+00 0. -1.
</event>
<event>
 5   0  0.4992668E-07  0.2698761E+04  0.7818609E-02  0.8335407E-01
        2   -1    0    0  501    0  0.00000000000E+00  0.00000000000E+00  0.10907707081E+04  0.10907707081E+04  0.25500000920E-02 0.  1.
       -2   -1    0    0    0  501  0.00000000000E+00  0.00000000000E+00 -0.16693038461E+04  0.16693038461E+04  0.25500000920E-02 0. -1.
    10030    2    1    2    0    0  0.00000000000E+00  0.00000000000E+00 -0.57853313802E+03  0.27600745543E+04  0.26987610034E+04 0.  0.
        1    1    3    3  502    0  0.90392228048E+03  0.22359023609E+03 -0.12880604224E+04  0.15893922532E+04  0.50400001928E-02 0. -1.
       -1    1    3    3    0  502 -0.90392228048E+03 -0.22359023609E+03  0.70952728434E+03  0.11706823011E+04  0.50400001928E-02 0.  1.
</event>
<event>
 5   0  0.1964242E-07  0.2700188E+04  0.7818609E-02  0.8334944E-01
       -1   -1    0    0    0  501  0.00000000000E+00  0.00000000000E+00  0.10768309996E+04  0.10768309996E+04  0.50400001928E-02 0.  1.
        1   -1    0    0  501    0  0.00000000000E+00  0.00000000000E+00 -0.16927015197E+04  0.16927015197E+04  0.50400001928E-02 0. -1.
    10030    2    1    2    0    0  0.00000000000E+00  0.00000000000E+00 -0.61587052010E+03  0.27695325192E+04  0.27001877486E+04 0.  0.
        2    1    3    3  502    0  0.68935945372E+03 -0.16455774448E+03 -0.14865578571E+04  0.16468606408E+04  0.25500000920E-02 0. -1.
       -2    1    3    3    0  502 -0.68935945372E+03  0.16455774448E+03  0.87068733702E+03  0.11226718784E+04  0.25500000920E-02 0.  1.
</event>
<event>
 5   0  0.1888149E-07  0.2685944E+04  0.7818609E-02  0.8339580E-01
        1   -1    0    0  501    0  0.00000000000E+00  0.00000000000E+00  0.12873738445E+04  0.12873738445E+04  0.50400001928E-02 0. -1.
       -1   -1    0    0    0  501  0.00000000000E+00  0.00000000000E+00 -0.14009711944E+04  0.14009711945E+04  0.50400001928E-02 0.  1.
    10030    2    1    2    0    0  0.00000000000E+00  0.00000000000E+00 -0.11359734997E+03  0.26883450389E+04  0.26859439105E+04 0.  0.
        1    1    3    3  502    0  0.42907613397E+03  0.11926096851E+04 -0.50121079016E+03  0.13629513733E+04  0.50400001928E-02 0.  1.
       -1    1    3    3    0  502 -0.42907613397E+03 -0.11926096851E+04  0.38761344019E+03  0.13253936656E+04  0.50400001928E-02 0. -1.
</event>
<event>
 5   0  0.4843887E-07  0.2696959E+04  0.7818609E-02  0.8335992E-01
       -2   -1    0    0    0  501  0.00000000000E+00  0.00000000000E+00  0.98156809201E+03  0.98156809202E+03  0.25500000920E-02 0.  1.
        2   -1    0    0  501    0  0.00000000000E+00  0.00000000000E+00 -0.18525433232E+04  0.18525433232E+04  0.25500000920E-02 0. -1.
    10030    2    1    2    0    0  0.00000000000E+00  0.00000000000E+00 -0.87097523121E+03  0.28341114152E+04  0.26969593361E+04 0.  0.
        5    1    3    3  502    0 -0.89683735272E+03 -0.61589208731E+02 -0.14917216175E+04  0.17416560917E+04  0.46999998093E+01 0. -1.
       -5    1    3    3    0  502  0.89683735272E+03  0.61589208731E+02  0.62074638624E+03  0.10924553235E+04  0.46999998093E+01 0.  1.
</event>
<event>
 5   0  0.1971600E-07  0.2698889E+04  0.7818609E-02  0.8335366E-01
        1   -1    0    0  501    0  0.00000000000E+00  0.00000000000E+00  0.18129619143E+04  0.18129619143E+04  0.50400001928E-02 0.  1.
       -1   -1    0    0    0  501  0.00000000000E+00  0.00000000000E+00 -0.10044336263E+04  0.10044336263E+04  0.50400001928E-02 0. -1.
    10030    2    1    2    0    0  0.00000000000E+00  0.00000000000E+00  0.80852828796E+03  0.28173955406E+04  0.26988885934E+04 0.  0.
        5    1    3    3  502    0  0.13256430052E+04  0.17957307038E+03  0.58925114417E+03  0.14617848219E+04  0.46999998093E+01 0.  1.
       -5    1    3    3    0  502 -0.13256430052E+04 -0.17957307038E+03  0.21927714379E+03  0.13556107187E+04  0.46999998093E+01 0. -1.
</event>
<event>
 5   0  0.1965415E-07  0.2696462E+04  0.7818609E-02  0.8336154E-01
       -1   -1    0    0    0  501  0.00000000000E+00  0.00000000000E+00  0.17045476145E+04  0.17045476145E+04  0.50400001928E-02 0. -1.
        1   -1    0    0  501    0  0.00000000000E+00  0.00000000000E+00 -0.10663984435E+04  0.10663984435E+04  0.50400001928E-02 0.  1.
    10030    2    1    2    0    0  0.00000000000E+00  0.00000000000E+00  0.63814917098E+03  0.27709460580E+04  0.26964620694E+04 0.  0.
        4    1    3    3  502    0  0.59558864429E+03  0.18109709866E+03 -0.90987097909E+03  0.11024467352E+04  0.12699999809E+01 0.  1.
       -4    1    3    3    0  502 -0.59558864429E+03 -0.18109709866E+03  0.15480201501E+04  0.16684993228E+04  0.12699999809E+01 0. -1.
</event>
<event>
 5   0  0.4843887E-07  0.2700352E+04  0.7818609E-02  0.8334891E-01
       -2   -1    0    0    0  501  0.00000000000E+00  0.00000000000E+00  0.15267085952E+04  0.15267085952E+04  0.25500000920E-02 0. -1.
        2   -1    0    0  501    0  0.00000000000E+00  0.00000000000E+00 -0.11940560395E+04  0.11940560395E+04  0.25500000920E-02 0.  1.
    10030    2    1    2    0    0  0.00000000000E+00  0.00000000000E+00  0.33265255573E+03  0.27207646347E+04  0.27003522871E+04 0.  0.
        5    1    3    3  502    0 -0.12256868340E+03  0.90668859153E+03 -0.83407708114E+03  0.12380686376E+04  0.46999998093E+01 0.  1.
       -5    1    3    3    0  502  0.12256868340E+03 -0.90668859153E+03  0.11667296369E+04  0.14826959971E+04  0.46999998093E+01 0. -1.
</event>
<event>
 5   0  0.1641625E-07  0.2704559E+04  0.7818609E-02  0.8333527E-01
       -3   -1    0    0    0  501  0.00000000000E+00  0.00000000000E+00  0.12588582891E+04  0.12588582932E+04  0.10100000352E+00 0. -1.
        3   -1    0    0  501    0  0.00000000000E+00  0.00000000000E+00 -0.14526338927E+04  0.14526338962E+04  0.10100000352E+00 0.  1.
    10030    2    1    2    0    0  0.00000000000E+00  0.00000000000E+00 -0.19377560357E+03  0.27114921894E+04  0.27045592818E+04 0.  0.
        1    1    3    3  502    0 -0.11252389763E+03 -0.43353376775E+03  0.11823324647E+04  0.12643271778E+04  0.50400001928E-02 0. -1.
       -1    1    3    3    0  502  0.11252389763E+03  0.43353376775E+03 -0.13761080683E+04  0.14471650116E+04  0.50400001928E-02 0.  1.
</event>
<event>
 5   0  0.4843887E-07  0.2700018E+04  0.7818609E-02  0.8334999E-01
        2   -1    0    0  501    0  0.00000000000E+00  0.00000000000E+00  0.12026661066E+04  0.12026661066E+04  0.25500000920E-02 0.  1.
       -2   -1    0    0    0  501  0.00000000000E+00  0.00000000000E+00 -0.15154033381E+04  0.15154033381E+04  0.25500000920E-02 0. -1.
    10030    2    1    2    0    0  0.00000000000E+00  0.00000000000E+00 -0.31273723143E+03  0.27180694447E+04  0.27000179500E+04 0.  0.
        5    1    3    3  502    0 -0.28942355510E+03 -0.94298324968E+02  0.11676599760E+04  0.12066938626E+04  0.46999998093E+01 0.  1.
       -5    1    3    3    0  502  0.28942355510E+03  0.94298324968E+02 -0.14803972075E+04  0.15113755821E+04  0.46999998093E+01 0. -1.
</event>
<event>
 5   0  0.4983208E-07  0.2698152E+04  0.7818609E-02  0.8335605E-01
       -2   -1    0    0    0  501  0.00000000000E+00  0.00000000000E+00  0.13674701164E+04  0.13674701164E+04  0.25500000920E-02 0.  1.
        2   -1    0    0  501    0  0.00000000000E+00  0.00000000000E+00 -0.13309293018E+04  0.13309293018E+04  0.25500000920E-02 0. -1.
    10030    2    1    2    0    0  0.00000000000E+00  0.00000000000E+00  0.36540814612E+02  0.26983994182E+04  0.26981519952E+04 0.  0.
        4    1    3    3  502    0 -0.53636380811E+03 -0.93092501159E+03 -0.79770693195E+03  0.13381500193E+04  0.12699999809E+01 0. -1.
       -4    1    3    3    0  502  0.53636380811E+03  0.93092501159E+03  0.83424774656E+03  0.13602493990E+04  0.12699999809E+01 0.  1.
</event>
<event>
 5   0  0.4992668E-07  0.2706315E+04  0.7818609E-02  0.8332959E-01
       -2   -1    0    0    0  501  0.00000000000E+00  0.00000000000E+00  0.99473267937E+03  0.99473267938E+03  0.25500000920E-02 0.  1.
        2   -1    0    0  501    0  0.00000000000E+00  0.00000000000E+00 -0.18407311732E+04  0.18407311732E+04  0.25500000920E-02 0. -1.
    10030    2    1    2    0    0  0.00000000000E+00  0.00000000000E+00 -0.84599849380E+03  0.28354638525E+04  0.27063151715E+04 0.  0.
        1    1    3    3  502    0 -0.22823476019E+03 -0.14892476938E+03  0.96568232379E+03  0.10034002408E+04  0.50400001928E-02 0.  1.
       -1    1    3    3    0  502  0.22823476019E+03  0.14892476938E+03 -0.18116808176E+04  0.18320636118E+04  0.50400001928E-02 0. -1.
</event>
<event>
 5   0  0.4992668E-07  0.2701164E+04  0.7818609E-02  0.8334627E-01
       -2   -1    0    0    0  501  0.00000000000E+00  0.00000000000E+00  0.15115105052E+04  0.15115105052E+04  0.25500000920E-02 0. -1.
        2   -1    0    0  501    0  0.00000000000E+00  0.00000000000E+00 -0.12067875274E+04  0.12067875274E+04  0.25500000920E-02 0.  1.
    10030    2    1    2    0    0  0.00000000000E+00  0.00000000000E+00  0.30472297785E+03  0.27182980326E+04  0.27011642122E+04 0.  0.
        1    1    3    3  502    0  0.39595774072E+03 -0.29437447020E+03  0.14175686129E+04  0.15009795580E+04  0.50400001928E-02 0. -1.
       -1    1    3    3    0  502 -0.39595774072E+03  0.29437447020E+03 -0.11128456351E+04  0.12173184746E+04  0.50400001928E-02 0.  1.
</event>
<event>
 5   0  0.1964242E-07  0.2700148E+04  0.7818609E-02  0.8334957E-01
       -1   -1    0    0    0  501  0.00000000000E+00  0.00000000000E+00  0.11492759764E+04  0.11492759764E+04  0.50400001928E-02 0.  1.
        1   -1    0    0  501    0  0.00000000000E+00  0.00000000000E+00 -0.15859545159E+04  0.15859545159E+04  0.50400001928E-02 0. -1.
    10030    2    1    2    0    0  0.00000000000E+00  0.00000000000E+00 -0.43667853944E+03  0.27352304923E+04  0.27001477180E+04 0.  0.
        2    1    3    3  502    0  0.54788143120E+03  0.82124356040E+02  0.10288277795E+04  0.11685054867E+04  0.25500000920E-02 0.  1.
       -2    1    3    3    0  502 -0.54788143120E+03 -0.82124356040E+02 -0.14655063189E+04  0.15667250057E+04  0.25500000920E-02 0. -1.
</event>
<event>
 5   0  0.4992668E-07  0.2695160E+04  0.7818609E-02  0.8336577E-01
       -2   -1    0    0    0  501  0.00000000000E+00  0.00000000000E+00  0.80219327028E+03  0.80219327029E+03  0.25500000920E-02 0. -1.
        2   -1    0    0  501    0  0.00000000000E+00  0.00000000000E+00 -0.22637592981E+04  0.22637592981E+04  0.25500000920E-02 0.  1.
    10030    2    1    2    0    0  0.00000000000E+00  0.00000000000E+00 -0.14615660278E+04  0.30659525684E+04  0.26951604586E+04 0.  0.
        1    1    3    3  502    0  0.98903540451E+03 -0.72359275845E+03 -0.93135876054E+02  0.12290043950E+04  0.50400001928E-02 0. -1.
       -1    1    3    3    0  502 -0.98903540451E+03  0.72359275845E+03 -0.13684301517E+04  0.18369481734E+04  0.50400001928E-02 0.  1.
</event>
<event>
 5   0  0.1971600E-07  0.2699021E+04  0.7818609E-02  0.8335323E-01
        1   -1    0    0  501    0  0.00000000000E+00  0.00000000000E+00  0.19259876387E+04  0.19259876387E+04  0.50400001928E-02 0.  1.
       -1   -1    0    0    0  501  0.00000000000E+00  0.00000000000E+00 -0.94558188912E+03  0.94558188914E+03  0.50400001928E-02 0. -1.
    10030    2    1    2    0    0  0.00000000000E+00  0.00000000000E+00  0.98040574962E+03  0.28715695279E+04  0.26990213263E+04 0.  0.
        5    1    3    3  502    0 -0.17400125758E+03 -0.64520933868E+03 -0.75717743744E+03  0.10099065750E+04  0.46999998093E+01 0. -1.
       -5    1    3    3    0  502  0.17400125758E+03  0.64520933868E+03  0.17375831871E+04  0.18616629529E+04  0.46999998093E+01 0.  1.
</event>
<event>
 5   0  0.1937896E-07  0.2706314E+04  0.7818609E-02  0.8332959E-01
        1   -1    0    0  501    0  0.00000000000E+00  0.00000000000E+00  0.26692621560E+04  0.26692621560E+04  0.50400001928E-02 0. -1.
       -1   -1    0    0    0  501  0.00000000000E+00  0.00000000000E+00 -0.68597018171E+03  0.68597018173E+03  0.50400001928E-02 0.  1.
    10030    2    1    2    0    0  0.00000000000E+00  0.00000000000E+00  0.19832919743E+04  0.33552323377E+04  0.27063142805E+04 0.  0.
        3    1    3    3  502    0 -0.12908430074E+04  0.32830258810E+03  0.12875768493E+04  0.18525421486E+04  0.10100000352E+00 0. -1.
       -3    1    3    3    0  502  0.12908430074E+04 -0.32830258810E+03  0.69571512501E+03  0.15026901892E+04  0.10100000352E+00 0.  1.
</event>
<event>
 5   0  0.4983208E-07  0.2699825E+04  0.7818609E-02  0.8335062E-01
        2   -1    0    0  501    0  0.00000000000E+00  0.00000000000E+00  0.58449130050E+03  0.58449130050E+03  0.25500000920E-02 0.  1.
       -2   -1    0    0    0  501  0.00000000000E+00  0.00000000000E+00 -0.31176918548E+04  0.31176918548E+04  0.25500000920E-02 0. -1.
    10030    2    1    2    0    0  0.00000000000E+00  0.00000000000E+00 -0.25332005543E+04  0.37021831553E+04  0.26998250068E+04 0.  0.
        4    1    3    3  502    0 -0.26456334709E+03 -0.12630564197E+04 -0.18098661819E+04  0.22228185920E+04  0.12699999809E+01 0. -1.
       -4    1    3    3    0  502  0.26456334709E+03  0.12630564197E+04 -0.72333437246E+03  0.14793645633E+04  0.12699999809E+01 0.  1.
</event>
<event>
 5   0  0.1888149E-07  0.2701563E+04  0.7818609E-02  0.8334498E-01
        1   -1    0    0  501    0  0.00000000000E+00  0.00000000000E+00  0.20255465707E+04  0.20255465707E+04  0.50400001928E-02 0.  1.
       -1   -1    0    0    0  501  0.00000000000E+00  0.00000000000E+00 -0.90079923116E+03  0.90079923117E+03  0.50400001928E-02 0. -1.
    10030    2    1    2    0    0  0.00000000000E+00  0.00000000000E+00  0.11247473395E+04  0.29263458019E+04  0.27015630983E+04 0.  0.
        1    1    3    3  502    0  0.91950780461E+03  0.98915452670E+03  0.59081708868E+03  0.14741051905E+04  0.50400001928E-02 0.  1.
       -1    1    3    3    0  502 -0.91950780461E+03 -0.98915452670E+03  0.53393025086E+03  0.14522406113E+04  0.50400001928E-02 0. -1.
</event>
<event>
 5   0  0.5043890E-07  0.2699729E+04  0.7818609E-02  0.8335093E-01
       -2   -1    0    0    0  501  0.00000000000E+00  0.00000000000E+00  0.11091296889E+04  0.11091296889E+04  0.25500000920E-02 0.  1.
        2   -1    0    0  501    0  0.00000000000E+00  0.00000000000E+00 -0.16428502027E+04  0.16428502027E+04  0.25500000920E-02 0. -1.
    10030    2    1    2    0    0  0.00000000000E+00  0.00000000000E+00 -0.53372051376E+03  0.27519798916E+04  0.26997288266E+04 0.  0.
        3    1    3    3  502    0  0.49049280647E+03  0.34099142530E+03 -0.15007739057E+04  0.16152958465E+04  0.10100000352E+00 0. -1.
       -3    1    3    3    0  502 -0.49049280647E+03 -0.34099142530E+03  0.96705339198E+03  0.11366840451E+04  0.10100000352E+00 0.  1.
</event>
<event>
 5   0  0.5043890E-07  0.2699346E+04  0.7818609E-02  0.8335217E-01
        2   -1    0    0  501    0  0.00000000000E+00  0.00000000000E+00  0.18682683572E+04  0.18682683572E+04  0.25500000920E-02 0. -1.
       -2   -1    0    0    0  501  0.00000000000E+00  0.00000000000E+00 -0.97503006167E+03  0.97503006167E+03  0.25500000920E-02 0.  1.
    10030    2    1    2    0    0  0.00000000000E+00  0.00000000000E+00  0.89323829553E+03  0.28432984189E+04  0.26993464480E+04 0.  0.
        3    1    3    3  502    0  0.14331260800E+03  0.73878040902E+03  0.16267620690E+04  0.17923977895E+04  0.10100000352E+00 0. -1.
       -3    1    3    3    0  502 -0.14331260800E+03 -0.73878040902E+03 -0.73352377349E+03  0.10509006294E+04  0.10100000352E+00 0.  1.
</event>
<event>
 5   0  0.5043890E-07  0.2700500E+04  0.7818609E-02  0.8334843E-01
        2   -1    0    0  501    0  0.00000000000E+00  0.00000000000E+00  0.12939377847E+04  0.12939377847E+04  0.25500000920E-02 0. -1.
       -2   -1    0    0    0  501  0.00000000000E+00  0.00000000000E+00 -0.14090126973E+04  0.14090126973E+04  0.25500000920E-02 0.  1.
    10030    2    1    2    0    0  0.00000000000E+00  0.00000000000E+00 -0.11507491259E+03  0.27029504820E+04  0.27004997820E+04 0.  0.
        3    1    3    3  502    0 -0.95729742348E+03  0.12102679182E+03 -0.10029097780E+04  0.13917233469E+04  0.10100000352E+00 0.  1.
       -3    1    3    3    0  502  0.95729742348E+03 -0.12102679182E+03  0.88783486538E+03  0.13112271351E+04  0.10100000352E+00 0. -1.
</event>
<event>
 5   0  0.1964242E-07  0.2700203E+04  0.7818609E-02  0.8334939E-01
        1   -1    0    0  501    0  0.00000000000E+00  0.00000000000E+00  0.16669957215E+04  0.16669957215E+04  0.50400001928E-02 0. -1.
       -1   -1    0    0    0  501  0.00000000000E+00  0.00000000000E+00 -0.10934488513E+04  0.10934488513E+04  0.50400001928E-02 0.  1.
    10030    2    1    2    0    0  0.00000000000E+00  0.00000000000E+00  0.57354687019E+03  0.27604445729E+04  0.27002033678E+04 0.  0.
        2    1    3    3  502    0 -0.10635817808E+02 -0.48684558202E+03  0.15740896476E+04  0.16476923135E+04  0.25500000920E-02 0. -1.
       -2    1    3    3    0  502  0.10635817808E+02  0.48684558202E+03 -0.10005427774E+04  0.11127522594E+04  0.25500000920E-02 0.  1.
</event>
<event>
 5   0  0.4843887E-07  0.2700658E+04  0.7818609E-02  0.8334791E-01
       -2   -1    0    0    0  501  0.00000000000E+00  0.00000000000E+00  0.11674103599E+04  0.11674103599E+04  0.25500000920E-02 0. -1.
        2   -1    0    0  501    0  0.00000000000E+00  0.00000000000E+00 -0.15619090880E+04  0.15619090880E+04  0.25500000920E-02 0.  1.
    10030    2    1    2    0    0  0.00000000000E+00  0.00000000000E+00 -0.39449872816E+03  0.27293194479E+04  0.27006583276E+04 0.  0.
        5    1    3    3  502    0 -0.11454879699E+04  0.21438732732E+03  0.49209080467E+03  0.12650217647E+04  0.46999998093E+01 0. -1.
       -5    1    3    3    0  502  0.11454879699E+04 -0.21438732732E+03 -0.88658953283E+03  0.14642976832E+04  0.46999998093E+01 0.  1.
</event>
<event>
 5   0  0.4843887E-07  0.2699297E+04  0.7818609E-02  0.8335233E-01
        2   -1    0    0  501    0  0.00000000000E+00  0.00000000000E+00  0.11824267551E+04  0.11824267551E+04  0.25500000920E-02 0.  1.
       -2   -1    0    0    0  501  0.00000000000E+00  0.00000000000E+00 -0.15405186384E+04  0.15405186384E+04  0.25500000920E-02 0. -1.
    10030    2    1    2    0    0  0.00000000000E+00  0.00000000000E+00 -0.35809188327E+03  0.27229453935E+04  0.26992965415E+04 0.  0.
        5    1    3    3  502    0 -0.13483177173E+04 -0.36191461609E+02 -0.22697935714E+03  0.13677763733E+04  0.46999998093E+01 0.  1.
       -5    1    3    3    0  502  0.13483177173E+04  0.36191461609E+02 -0.13111252612E+03  0.13551690202E+04  0.46999998093E+01 0. -1.
</event>
<event>
 5   0  0.4983208E-07  0.2699647E+04  0.7818609E-02  0.8335119E-01
       -2   -1    0    0    0  501  0.00000000000E+00  0.00000000000E+00  0.10092729545E+04  0.10092729545E+04  0.25500000920E-02 0.  1.
        2   -1    0    0  501    0  0.00000000000E+00  0.00000000000E+00 -0.18052836404E+04  0.18052836404E+04  0.25500000920E-02 0. -1.
    10030    2    1    2    0    0  0.00000000000E+00  0.00000000000E+00 -0.79601068590E+03  0.28145565949E+04  0.26996473499E+04 0.  0.
        4    1    3    3  502    0 -0.12214131031E+04 -0.40709017331E+03  0.24779918434E+02  0.12877065018E+04  0.12699999809E+01 0.  1.
       -4    1    3    3    0  502  0.12214131031E+04  0.40709017331E+03 -0.82079060433E+03  0.15268500931E+04  0.12699999809E+01 0. -1.
</event>
<event>
 5   0  0.4983208E-07  0.2699929E+04  0.7818609E-02  0.8335028E-01
       -2   -1    0    0    0  501  0.00000000000E+00  0.00000000000E+00  0.13370575479E+04  0.13370575479E+04  0.25500000920E-02 0.  1.
        2   -1    0    0  501    0  0.00000000000E+00  0.00000000000E+00 -0.13629955703E+04  0.13629955703E+04  0.25500000920E-02 0. -1.
    10030    2    1    2    0    0  0.00000000000E+00  0.00000000000E+00 -0.25938022445E+02  0.27000531182E+04  0.26999285287E+04 0.  0.
        4    1    3    3  502    0  0.11462220668E+03  0.39435156209E+02 -0.13575415676E+04  0.13629431765E+04  0.12699999809E+01 0. -1.
       -4    1    3    3    0  502 -0.11462220668E+03 -0.39435156209E+02  0.13316035452E+04  0.13371099417E+04  0.12699999809E+01 0.  1.
</event>
<event>
 5   0  0.1965415E-07  0.2698858E+04  0.7818609E-02  0.8335376E-01
       -1   -1    0    0    0  501  0.00000000000E+00  0.00000000000E+00  0.21524691944E+04  0.21524691944E+04  0.50400001928E-02 0. -1.
        1   -1    0    0  501    0  0.00000000000E+00  0.00000000000E+00 -0.84598610151E+03  0.84598610153E+03  0.50400001928E-02 0.  1.
    10030    2    1    2    0    0  0.00000000000E+00  0.00000000000E+00  0.13064830929E+04  0.29984552959E+04  0.26988582937E+04 0.  0.
        4    1    3    3  502    0 -0.80539666283E+02  0.88079023846E+03 -0.47904993568E+03  0.10058670567E+04  0.12699999809E+01 0.  1.
       -4    1    3    3    0  502  0.80539666283E+02 -0.88079023846E+03  0.17855330285E+04  0.19925882392E+04  0.12699999809E+01 0. -1.
</event>
<event>
 5   0  0.5043890E-07  0.2699638E+04  0.7818609E-02  0.8335122E-01
        2   -1    0    0  501    0  0.00000000000E+00  0.00000000000E+00  0.13300863754E+04  0.13300863754E+04  0.25500000920E-02 0. -1.
       -2   -1    0    0    0  501  0.00000000000E+00  0.00000000000E+00 -0.13698443401E+04  0.13698443401E+04  0.25500000920E-02 0.  1.
    10030    2    1    2    0    0  0.00000000000E+00  0.00000000000E+00 -0.39757964700E+02  0.26999307155E+04  0.26996379706E+04 0.  0.
        3    1    3    3  502    0 -0.69391658194E+03 -0.23517617540E+03 -0.11536611346E+04  0.13666609235E+04  0.10100000352E+00 0.  1.
       -3    1    3    3    0  502  0.69391658194E+03  0.23517617540E+03  0.11139031699E+04  0.13332697920E+04  0.10100000352E+00 0. -1.
</event>
<event>
 5   0  0.1965415E-07  0.2700169E+04  0.7818609E-02  0.8334950E-01
        1   -1    0    0  501    0  0.00000000000E+00  0.00000000000E+00  0.12096805636E+04  0.12096805636E+04  0.50400001928E-02 0.  1.
       -1   -1    0    0    0  501  0.00000000000E+00  0.00000000000E+00 -0.15067851953E+04  0.15067851953E+04  0.50400001928E-02 0. -1.
    10030    2    1    2    0    0  0.00000000000E+00  0.00000000000E+00 -0.29710463163E+03  0.27164657589E+04  0.27001694497E+04 0.  0.
        4    1    3    3  502    0  0.12453466527E+04 -0.15303101883E+03 -0.64997828297E+03  0.14130747182E+04  0.12699999809E+01 0. -1.
       -4    1    3    3    0  502 -0.12453466527E+04  0.15303101883E+03  0.35287365133E+03  0.13033910406E+04  0.12699999809E+01 0.  1.
</event>
<event>
 5   0  0.4992668E-07  0.2701302E+04  0.7818609E-02  0.8334583E-01
       -2   -1    0    0    0  501  0.00000000000E+00  0.00000000000E+00  0.11281954918E+04  0.11281954918E+04  0.25500000920E-02 0.  1.
        2   -1    0    0  501    0  0.00000000000E+00  0.00000000000E+00 -0.16169702948E+04  0.16169702948E+04  0.25500000920E-02 0. -1.
    10030    2    1    2    0    0  0.00000000000E+00  0.00000000000E+00 -0.48877480303E+03  0.27451657866E+04  0.27013023504E+04 0.  0.
        1    1    3    3  502    0  0.18701229506E+02  0.20605072428E+03 -0.16007707164E+04  0.16140859715E+04  0.50400001928E-02 0. -1.
       -1    1    3    3    0  502 -0.18701229506E+02 -0.20605072428E+03  0.11119959133E+04  0.11310798152E+04  0.50400001928E-02 0.  1.
</event>
<event>
 5   0  0.4735120E-07  0.2699515E+04  0.7818609E-02  0.8335162E-01
       -2   -1    0    0    0  501  0.00000000000E+00  0.00000000000E+00  0.12968223397E+04  0.12968223397E+04  0.25500000920E-02 0. -1.
        2   -1    0    0  501    0  0.00000000000E+00  0.00000000000E+00 -0.14048536660E+04  0.14048536661E+04  0.25500000920E-02 0.  1.
    10030    2    1    2    0    0  0.00000000000E+00  0.00000000000E+00 -0.10803132639E+03  0.27016760057E+04  0.26995152291E+04 0.  0.
        2    1    3    3  502    0 -0.25352944491E+03  0.31774131768E+03  0.12341077619E+04  0.12993300937E+04  0.25500000920E-02 0. -1.
       -2    1    3    3    0  502  0.25352944491E+03 -0.31774131768E+03 -0.13421390883E+04  0.14023459120E+04  0.25500000920E-02 0.  1.
</event>
<event>
 5   0  0.1888149E-07  0.2702286E+04  0.7818609E-02  0.8334264E-01
        1   -1    0    0  501    0  0.00000000000E+00  0.00000000000E+00  0.16197702759E+04  0.16197702759E+04  0.50400001928E-02 0. -1.
       -1   -1    0    0    0  501  0.00000000000E+00  0.00000000000E+00 -0.11270657004E+04  0.11270657005E+04  0.50400001928E-02 0.  1.
    10030    2    1    2    0    0  0.00000000000E+00  0.00000000000E+00  0.49270457547E+03  0.27468359764E+04  0.27022860845E+04 0.  0.
        1    1    3    3  502    0  0.55145273445E+03 -0.12301720722E+04  0.15450741877E+03  0.13569436200E+04  0.50400001928E-02 0.  1.
       -1    1    3    3    0  502 -0.55145273445E+03  0.12301720722E+04  0.33819715670E+03  0.13898923564E+04  0.50400001928E-02 0. -1.
</event>
<event>
 5   0  0.1964242E-07  0.2700597E+04  0.7818609E-02  0.8334811E-01
        1   -1    0    0  501    0  0.00000000000E+00  0.00000000000E+00  0.15701107778E+04  0.15701107778E+04  0.50400001928E-02 0.  1.
       -1   -1    0    0    0  501  0.00000000000E+00  0.00000000000E+00 -0.11612595571E+04  0.11612595571E+04  0.50400001928E-02 0. -1.
    10030    2    1    2    0    0  0.00000000000E+00  0.00000000000E+00  0.40885122076E+03  0.27313703349E+04  0.27005970795E+04 0.  0.
        2    1    3    3  502    0 -0.18413516354E+03  0.75736279953E+03 -0.91077299436E+03  0.11987541932E+04  0.25500000920E-02 0. -1.
       -2    1    3    3    0  502  0.18413516354E+03 -0.75736279953E+03  0.13196242151E+04  0.15326161417E+04  0.25500000920E-02 0.  1.
</event>
<event>
 5   0  0.4983208E-07  0.2700322E+04  0.7818609E-02  0.8334900E-01
       -2   -1    0    0    0  501  0.00000000000E+00  0.00000000000E+00  0.65281594583E+03  0.65281594583E+03  0.25500000920E-02 0. -1.
        2   -1    0    0  501    0  0.00000000000E+00  0.00000000000E+00 -0.27924185272E+04  0.27924185272E+04  0.25500000920E-02 0.  1.
    10030    2    1    2    0    0  0.00000000000E+00  0.00000000000E+00 -0.21396025814E+04  0.34452344731E+04  0.27003224563E+04 0.  0.
        4    1    3    3  502    0 -0.92546398765E+03  0.97750754966E+03 -0.12031828815E+04  0.18054515395E+04  0.12699999809E+01 0. -1.
       -4    1    3    3    0  502  0.92546398765E+03 -0.97750754966E+03 -0.93641969988E+03  0.16397829336E+04  0.12699999809E+01 0.  1.
</event>
<event>
 5   0  0.4983208E-07  0.2699538E+04  0.7818609E-02  0.8335155E-01
        2   -1    0    0  501    0  0.00000000000E+00  0.00000000000E+00  0.12203441717E+04  0.12203441718E+04  0.25500000920E-02 0.  1.
       -2   -1    0    0    0  501  0.00000000000E+00  0.00000000000E+00 -0.14929202311E+04  0.14929202311E+04  0.25500000920E-02 0. -1.
    10030    2    1    2    0    0  0.00000000000E+00  0.00000000000E+00 -0.27257605930E+03  0.27132644028E+04  0.26995381108E+04 0.  0.
        4    1    3    3  502    0  0.19179174800E+02 -0.42487029160E+03 -0.14238137799E+04  0.14859777583E+04  0.12699999809E+01 0. -1.
       -4    1    3    3    0  502 -0.19179174800E+02  0.42487029160E+03  0.11512377206E+04  0.12272866445E+04  0.12699999809E+01 0.  1.
</event>
<event>
 5   0  0.1965415E-07  0.2699611E+04  0.7818609E-02  0.8335131E-01
       -1   -1    0    0    0  501  0.00000000000E+00  0.00000000000E+00  0.11841814908E+04  0.11841814908E+04  0.50400001928E-02 0. -1.
        1   -1    0    0  501    0  0.00000000000E+00  0.00000000000E+00 -0.15385945760E+04  0.15385945760E+04  0.50400001928E-02 0.  1.
    10030    2    1    2    0    0  0.00000000000E+00  0.00000000000E+00 -0.35441308513E+03  0.27227760668E+04  0.26996112452E+04 0.  0.
        4    1    3    3  502    0  0.11312766033E+04  0.31548673503E+03  0.49382567140E+03  0.12740424011E+04  0.12699999809E+01 0. -1.
       -4    1    3    3    0  502 -0.11312766033E+04 -0.31548673503E+03 -0.84823875653E+03  0.14487336657E+04  0.12699999809E+01 0.  1.
</event>
<event>
 5   0  0.1964242E-07  0.2700922E+04  0.7818609E-02  0.8334706E-01
       -1   -1    0    0    0  501  0.00000000000E+00  0.00000000000E+00  0.15678394494E+04  0.15678394494E+04  0.50400001928E-02 0. -1.
        1   -1    0    0  501    0  0.00000000000E+00  0.00000000000E+00 -0.11632221437E+04  0.11632221437E+04  0.50400001928E-02 0.  1.
    10030    2    1    2    0    0  0.00000000000E+00  0.00000000000E+00  0.40461730570E+03  0.27310615931E+04  0.27009224834E+04 0.  0.
        2    1    3    3  502    0  0.63554750778E+03  0.11906535846E+04  0.15521673675E+03  0.13585539476E+04  0.25500000920E-02 0.  1.
       -2    1    3    3    0  502 -0.63554750778E+03 -0.11906535846E+04  0.24940056896E+03  0.13725076455E+04  0.25500000920E-02 0. -1.
</event>
<event>
 5   0  0.4843887E-07  0.2699689E+04  0.7818609E-02  0.8335106E-01
        2   -1    0    0  501    0  0.00000000000E+00  0.00000000000E+00  0.18838404344E+04  0.18838404344E+04  0.25500000920E-02 0. -1.
       -2   -1    0    0    0  501  0.00000000000E+00  0.00000000000E+00 -0.96721593456E+03  0.96721593456E+03  0.25500000920E-02 0.  1.
    10030    2    1    2    0    0  0.00000000000E+00  0.00000000000E+00  0.91662449988E+03  0.28510563690E+04  0.26996892313E+04 0.  0.
        5    1    3    3  502    0 -0.44336293068E+03  0.10368710167E+04 -0.32516393322E+03  0.11736378773E+04  0.46999998093E+01 0.  1.
       -5    1    3    3    0  502  0.44336293068E+03 -0.10368710167E+04  0.12417884331E+04  0.16774184917E+04  0.46999998093E+01 0. -1.
</event>
<event>
 5   0  0.4843887E-07  0.2701276E+04  0.7818609E-02  0.8334591E-01
        2   -1    0    0  501    0  0.00000000000E+00  0.00000000000E+00  0.21877197106E+04  0.21877197106E+04  0.25500000920E-02 0.  1.
       -2   -1    0    0    0  501  0.00000000000E+00  0.00000000000E+00 -0.83384673780E+03  0.83384673781E+03  0.25500000920E-02 0. -1.
    10030    2    1    2    0    0  0.00000000000E+00  0.00000000000E+00  0.13538729728E+04  0.30215664484E+04  0.27012759533E+04 0.  0.
        5    1    3    3  502    0  0.10084414820E+04 -0.89226962653E+03  0.79479335751E+03  0.15635913405E+04  0.46999998093E+01 0.  1.
       -5    1    3    3    0  502 -0.10084414820E+04  0.89226962653E+03  0.55907961532E+03  0.14579751079E+04  0.46999998093E+01 0. -1.
</event>
<event>
 5   0  0.1971600E-07  0.2698976E+04  0.7818609E-02  0.8335337E-01
       -1   -1    0    0    0  501  0.00000000000E+00  0.00000000000E+00  0.15414207212E+04  0.15414207212E+04  0.50400001928E-02 0.  1.
        1   -1    0    0  501    0  0.00000000000E+00  0.00000000000E+00 -0.11814542985E+04  0.11814542986E+04  0.50400001928E-02 0. -1.
    10030    2    1    2    0    0  0.00000000000E+00  0.00000000000E+00  0.35996642263E+03  0.27228750197E+04  0.26989762036E+04 0.  0.
        5    1    3    3  502    0  0.53596574565E+03  0.29733579460E+03  0.13928885640E+04  0.15217846421E+04  0.46999998093E+01 0.  1.
       -5    1    3    3    0  502 -0.53596574565E+03 -0.29733579460E+03 -0.10329221413E+04  0.12010903777E+04  0.46999998093E+01 0. -1.
</event>
<event>
 5   0  0.4735120E-07  0.2698681E+04  0.7818609E-02  0.8335433E-01
       -2   -1    0    0    0  501  0.00000000000E+00  0.00000000000E+00  0.99383724407E+03  0.99383724407E+03  0.25500000920E-02 0. -1.
        2   -1    0    0  501    0  0.00000000000E+00  0.00000000000E+00 -0.18320095026E+04  0.18320095026E+04  0.25500000920E-02 0.  1.
    10030    2    1    2    0    0  0.00000000000E+00  0.00000000000E+00 -0.83817225849E+03  0.28258467466E+04  0.26986806222E+04 0.  0.
        2    1    3    3  502    0 -0.12148236813E+04 -0.48172533406E+02 -0.10319896673E+04  0.15947162265E+04  0.25500000920E-02 0.  1.
       -2    1    3    3    0  502  0.12148236813E+04  0.48172533406E+02  0.19381740884E+03  0.12311305201E+04  0.25500000920E-02 0. -1.
</event>
<event>
 5   0  0.1965415E-07  0.2700560E+04  0.7818609E-02  0.8334823E-01
       -1   -1    0    0    0  501  0.00000000000E+00  0.00000000000E+00  0.11851932873E+04  0.11851932873E+04  0.50400001928E-02 0.  1.
        1   -1    0    0  501    0  0.00000000000E+00  0.00000000000E+00 -0.15383612364E+04  0.15383612364E+04  0.50400001928E-02 0. -1.
    10030    2    1    2    0    0  0.00000000000E+00  0.00000000000E+00 -0.35316794911E+03  0.27235545237E+04  0.27005595056E+04 0.  0.
        4    1    3    3  502    0 -0.84337069167E+03 -0.98300600804E+03 -0.56151294108E+03  0.14116916559E+04  0.12699999809E+01 0.  1.
       -4    1    3    3    0  502  0.84337069167E+03  0.98300600804E+03  0.20834499198E+03  0.13118628678E+04  0.12699999809E+01 0. -1.
</event>
<event>
 5   0  0.5043890E-07  0.2695836E+04  0.7818609E-02  0.8336357E-01
       -2   -1    0    0    0  501  0.00000000000E+00  0.00000000000E+00  0.92422170175E+03  0.92422170175E+03  0.25500000920E-02 0.  1.
        2   -1    0    0  501    0  0.00000000000E+00  0.00000000000E+00 -0.19658512860E+04  0.19658512860E+04  0.25500000920E-02 0. -1.
    10030    2    1    2    0    0  0.00000000000E+00  0.00000000000E+00 -0.10416295842E+04  0.28900729877E+04  0.26958356188E+04 0.  0.
        3    1    3    3  502    0 -0.11111921937E+04  0.35644562013E+03 -0.12440168927E+04  0.17056903620E+04  0.10100000352E+00 0. -1.
       -3    1    3    3    0  502  0.11111921937E+04 -0.35644562013E+03  0.20238730845E+03  0.11843826258E+04  0.10100000352E+00 0.  1.
</event>
<event>
 5   0  0.1641625E-07  0.2699540E+04  0.7818609E-02  0.8335154E-01
        4   -1    0    0  501    0  0.00000000000E+00  0.00000000000E+00  0.11508618143E+04  0.11508625151E+04  0.12699999809E+01 0.  1.
       -4   -1    0    0    0  501  0.00000000000E+00  0.00000000000E+00 -0.15830545082E+04  0.15830550177E+04  0.12699999809E+01 0. -1.
    10030    2    1    2    0    0  0.00000000000E+00  0.00000000000E+00 -0.43219269392E+03  0.27339175327E+04  0.26995396924E+04 0.  0.
        5    1    3    3  502    0  0.53790561394E+03 -0.90898392753E+03  0.63499996841E+03  0.12324127879E+04  0.46999998093E+01 0.  1.
       -5    1    3    3    0  502 -0.53790561394E+03  0.90898392753E+03 -0.10671926623E+04  0.15015047448E+04  0.46999998093E+01 0. -1.
</event>
<event>
 5   0  0.4735120E-07  0.2721066E+04  0.7818609E-02  0.8328202E-01
        2   -1    0    0  501    0  0.00000000000E+00  0.00000000000E+00  0.22116432265E+04  0.22116432265E+04  0.25500000920E-02 0. -1.
       -2   -1    0    0    0  501  0.00000000000E+00  0.00000000000E+00 -0.83695663189E+03  0.83695663190E+03  0.25500000920E-02 0.  1.
    10030    2    1    2    0    0  0.00000000000E+00  0.00000000000E+00  0.13746865946E+04  0.30485998584E+04  0.27210655749E+04 0.  0.
        2    1    3    3  502    0 -0.66966092275E+03  0.42039331170E+03 -0.55312077003E+03  0.96494501099E+03  0.25500000920E-02 0.  1.
       -2    1    3    3    0  502  0.66966092275E+03 -0.42039331170E+03  0.19278073646E+04  0.20836548474E+04  0.25500000920E-02 0. -1.
</event>
<event>
 5   0  0.1937896E-07  0.2700335E+04  0.7818609E-02  0.8334896E-01
       -1   -1    0    0    0  501  0.00000000000E+00  0.00000000000E+00  0.22438699937E+04  0.22438699937E+04  0.50400001928E-02 0. -1.
        1   -1    0    0  501    0  0.00000000000E+00  0.00000000000E+00 -0.81241446724E+03  0.81241446726E+03  0.50400001928E-02 0.  1.
    10030    2    1    2    0    0  0.00000000000E+00  0.00000000000E+00  0.14314555265E+04  0.30562844610E+04  0.27003351240E+04 0.  0.
        3    1    3    3  502    0 -0.12952541501E+04 -0.92536657615E+02  0.11342032636E+04  0.17241413514E+04  0.10100000352E+00 0. -1.
       -3    1    3    3    0  502  0.12952541501E+04  0.92536657615E+02  0.29725226286E+03  0.13321431095E+04  0.10100000352E+00 0.  1.
</event>
<event>
 5   0  0.4735120E-07  0.2705946E+04  0.7818609E-02  0.8333078E-01
        2   -1    0    0  501    0  0.00000000000E+00  0.00000000000E+00  0.18513441316E+04  0.18513441316E+04  0.25500000920E-02 0.  1.
       -2   -1    0    0    0  501  0.00000000000E+00  0.00000000000E+00 -0.98876043146E+03  0.98876043146E+03  0.25500000920E-02 0. -1.
    10030    2    1    2    0    0  0.00000000000E+00  0.00000000000E+00  0.86258370015E+03  0.28401045631E+04  0.27059459140E+04 0.  0.
        2    1    3    3  502    0  0.71432210825E+03 -0.41037009653E+03 -0.69517420056E+03  0.10779271124E+04  0.25500000920E-02 0. -1.
       -2    1    3    3    0  502 -0.71432210825E+03  0.41037009653E+03  0.15577579007E+04  0.17621774507E+04  0.25500000920E-02 0.  1.
</event>
<event>
 5   0  0.1971600E-07  0.2700275E+04  0.7818609E-02  0.8334916E-01
        1   -1    0    0  501    0  0.00000000000E+00  0.00000000000E+00  0.10448902477E+04  0.10448902477E+04  0.50400001928E-02 0.  1.
       -1   -1    0    0    0  501  0.00000000000E+00  0.00000000000E+00 -0.17445576400E+04  0.17445576400E+04  0.50400001928E-02 0. -1.
    10030    2    1    2    0    0  0.00000000000E+00  0.00000000000E+00 -0.69966739228E+03  0.27894478878E+04  0.27002749969E+04 0.  0.
        5    1    3    3  502    0 -0.11345080124E+04 -0.70451045630E+03 -0.55489802436E+03  0.14461595073E+04  0.46999998093E+01 0. -1.
       -5    1    3    3    0  502  0.11345080124E+04  0.70451045630E+03 -0.14476936792E+03  0.13432883804E+04  0.46999998093E+01 0.  1.
</event>
<event>
 5   0  0.1965415E-07  0.2700672E+04  0.7818609E-02  0.8334787E-01
        1   -1    0    0  501    0  0.00000000000E+00  0.00000000000E+00  0.12992835704E+04  0.12992835704E+04  0.50400001928E-02 0. -1.
       -1   -1    0    0    0  501  0.00000000000E+00  0.00000000000E+00 -0.14033939986E+04  0.14033939986E+04  0.50400001928E-02 0.  1.
    10030    2    1    2    0    0  0.00000000000E+00  0.00000000000E+00 -0.10411042815E+03  0.27026775690E+04  0.27006715944E+04 0.  0.
        4    1    3    3  502    0  0.23067924350E+03 -0.12999692377E+04 -0.33558918327E+03  0.13622608579E+04  0.12699999809E+01 0.  1.
       -4    1    3    3    0  502 -0.23067924350E+03  0.12999692377E+04  0.23147875512E+03  0.13404167110E+04  0.12699999809E+01 0. -1.
</event>
<event>
 5   0  0.5043890E-07  0.2699316E+04  0.7818609E-02  0.8335227E-01
        2   -1    0    0  501    0  0.00000000000E+00  0.00000000000E+00  0.17111334929E+04  0.17111334929E+04  0.25500000920E-02 0. -1.
       -2   -1    0    0    0  501  0.00000000000E+00  0.00000000000E+00 -0.10645438127E+04  0.10645438127E+04  0.25500000920E-02 0.  1.
    10030    2    1    2    0    0  0.00000000000E+00  0.00000000000E+00  0.64658968027E+03  0.27756773056E+04  0.26993158930E+04 0.  0.
        3    1    3    3  502    0  0.10859338755E+04  0.80145107946E+03  0.32390103335E+03  0.13879798645E+04  0.10100000352E+00 0. -1.
       -3    1    3    3    0  502 -0.10859338755E+04 -0.80145107946E+03  0.32268864692E+03  0.13876974410E+04  0.10100000352E+00 0.  1.
</event>
<event>
 5   0  0.1937896E-07  0.2698061E+04  0.7818609E-02  0.8335634E-01
       -1   -1    0    0    0  501  0.00000000000E+00  0.00000000000E+00  0.89814066752E+03  0.89814066754E+03  0.50400001928E-02 0. -1.
        1   -1    0    0  501    0  0.00000000000E+00  0.00000000000E+00 -0.20262794035E+04  0.20262794035E+04  0.50400001928E-02 0.  1.
    10030    2    1    2    0    0  0.00000000000E+00  0.00000000000E+00 -0.11281387360E+04  0.29244200711E+04  0.26980614790E+04 0.  0.
        3    1    3    3  502    0  0.28880708698E+03  0.10380691726E+04 -0.14438883208E+04  0.18016133419E+04  0.10100000352E+00 0.  1.
       -3    1    3    3    0  502 -0.28880708698E+03 -0.10380691726E+04  0.31574958477E+03  0.11228067292E+04  0.10100000352E+00 0. -1.
</event>
<event>
 5   0  0.1964242E-07  0.2699315E+04  0.7818609E-02  0.8335227E-01
       -1   -1    0    0    0  501  0.00000000000E+00  0.00000000000E+00  0.17525616569E+04  0.17525616569E+04  0.50400001928E-02 0.  1.
        1   -1    0    0  501    0  0.00000000000E+00  0.00000000000E+00 -0.10393786155E+04  0.10393786155E+04  0.50400001928E-02 0. -1.
    10030    2    1    2    0    0  0.00000000000E+00  0.00000000000E+00  0.71318304143E+03  0.27919402724E+04  0.26993148082E+04 0.  0.
        2    1    3    3  502    0  0.76406846972E+03  0.46893282025E+03  0.14001099616E+04  0.16625301564E+04  0.25500000920E-02 0.  1.
       -2    1    3    3    0  502 -0.76406846972E+03 -0.46893282025E+03 -0.68692692019E+03  0.11294101160E+04  0.25500000920E-02 0. -1.
</event>
<event>
 5   0  0.1964242E-07  0.2698581E+04  0.7818609E-02  0.8335466E-01
       -1   -1    0    0    0  501  0.00000000000E+00  0.00000000000E+00  0.11551056525E+04  0.11551056525E+04  0.50400001928E-02 0.  1.
        1   -1    0    0  501    0  0.00000000000E+00  0.00000000000E+00 -0.15761196432E+04  0.15761196432E+04  0.50400001928E-02 0. -1.
    10030    2    1    2    0    0  0.00000000000E+00  0.00000000000E+00 -0.42101399072E+03  0.27312252958E+04  0.26985808930E+04 0.  0.
        2    1    3    3  502    0  0.71030214709E+03 -0.24525484145E+03 -0.13447355822E+04  0.15404521620E+04  0.25500000920E-02 0. -1.
       -2    1    3    3    0  502 -0.71030214709E+03  0.24525484145E+03  0.92372159150E+03  0.11907731337E+04  0.25500000920E-02 0.  1.
</event>
<event>
 5   0  0.4983208E-07  0.2700178E+04  0.7818609E-02  0.8334947E-01
        2   -1    0    0  501    0  0.00000000000E+00  0.00000000000E+00  0.18480900723E+04  0.18480900723E+04  0.25500000920E-02 0.  1.
       -2   -1    0    0    0  501  0.00000000000E+00  0.00000000000E+00 -0.98628321313E+03  0.98628321314E+03  0.25500000920E-02 0. -1.
    10030    2    1    2    0    0  0.00000000000E+00  0.00000000000E+00  0.86180685918E+03  0.28343732855E+04  0.27001779309E+04 0.  0.
        4    1    3    3  502    0 -0.45657026644E+03  0.11041734009E+04  0.10906983927E+04  0.16178009471E+04  0.12699999809E+01 0.  1.
       -4    1    3    3    0  502  0.45657026644E+03 -0.11041734009E+04 -0.22889153355E+03  0.12165723384E+04  0.12699999809E+01 0. -1.
</event>
<event>
 5   0  0.1888149E-07  0.2703285E+04  0.7818609E-02  0.8333940E-01
        1   -1    0    0  501    0  0.00000000000E+00  0.00000000000E+00  0.13321743117E+04  0.13321743117E+04  0.50400001928E-02 0.  1.
       -1   -1    0    0    0  501  0.00000000000E+00  0.00000000000E+00 -0.13713951298E+04  0.13713951298E+04  0.50400001928E-02 0. -1.
    10030    2    1    2    0    0  0.00000000000E+00  0.00000000000E+00 -0.39220818090E+02  0.27035694416E+04  0.27032849374E+04 0.  0.
        1    1    3    3  502    0  0.10816947068E+04  0.80770676310E+03 -0.86577962578E+02  0.13527562225E+04  0.50400001928E-02 0.  1.
       -1    1    3    3    0  502 -0.10816947068E+04 -0.80770676310E+03  0.47357144488E+02  0.13508132191E+04  0.50400001928E-02 0. -1.
</event>
<event>
 5   0  0.1888149E-07  0.2700445E+04  0.7818609E-02  0.8334860E-01
       -1   -1    0    0    0  501  0.00000000000E+00  0.00000000000E+00  0.10486251139E+04  0.10486251139E+04  0.50400001928E-02 0.  1.
        1   -1    0    0  501    0  0.00000000000E+00  0.00000000000E+00 -0.17385635458E+04  0.17385635458E+04  0.50400001928E-02 0. -1.
    10030    2    1    2    0    0  0.00000000000E+00  0.00000000000E+00 -0.68993843195E+03  0.27871886597E+04  0.27004454419E+04 0.  0.
        1    1    3    3  502    0  0.15411281216E+03 -0.12500851162E+04 -0.84704936952E+03  0.15178788460E+04  0.50400001928E-02 0. -1.
       -1    1    3    3    0  502 -0.15411281216E+03  0.12500851162E+04  0.15711093758E+03  0.12693098138E+04  0.50400001928E-02 0.  1.
</event>
<event>
 5   0  0.4843887E-07  0.2699914E+04  0.7818609E-02  0.8335033E-01
       -2   -1    0    0    0  501  0.00000000000E+00  0.00000000000E+00  0.16480258894E+04  0.16480258894E+04  0.25500000920E-02 0.  1.
        2   -1    0    0  501    0  0.00000000000E+00  0.00000000000E+00 -0.11057984458E+04  0.11057984458E+04  0.25500000920E-02 0. -1.
    10030    2    1    2    0    0  0.00000000000E+00  0.00000000000E+00  0.54222744355E+03  0.27538243352E+04  0.26999144187E+04 0.  0.
        5    1    3    3  502    0 -0.13026563148E+03 -0.93620768070E+03  0.12541571069E+04  0.15704732074E+04  0.46999998093E+01 0.  1.
       -5    1    3    3    0  502  0.13026563148E+03  0.93620768070E+03 -0.71192966338E+03  0.11833511278E+04  0.46999998093E+01 0. -1.
</event>
<event>
 5   0  0.4992668E-07  0.2699101E+04  0.7818609E-02  0.8335297E-01
       -2   -1    0    0    0  501  0.00000000000E+00  0.00000000000E+00  0.16068618102E+04  0.16068618102E+04  0.25500000920E-02 0.  1.
        2   -1    0    0  501    0  0.00000000000E+00  0.00000000000E+00 -0.11334427834E+04  0.11334427834E+04  0.25500000920E-02 0. -1.
    10030    2    1    2    0    0  0.00000000000E+00  0.00000000000E+00  0.47341902682E+03  0.27403045936E+04  0.26991005337E+04 0.  0.
        1    1    3    3  502    0  0.10644581120E+04 -0.74046426628E+03  0.61648886407E+03  0.14357635325E+04  0.50400001928E-02 0.  1.
       -1    1    3    3    0  502 -0.10644581120E+04  0.74046426628E+03 -0.14306983725E+03  0.13045410611E+04  0.50400001928E-02 0. -1.
</event>
<event>
 5   0  0.4992668E-07  0.2699959E+04  0.7818609E-02  0.8335018E-01
        2   -1    0    0  501    0  0.00000000000E+00  0.00000000000E+00  0.18016869277E+04  0.18016869277E+04  0.25500000920E-02 0. -1.
       -2   -1    0    0    0  501  0.00000000000E+00  0.00000000000E+00 -0.10115214266E+04  0.10115214266E+04  0.25500000920E-02 0.  1.
    10030    2    1    2    0    0  0.00000000000E+00  0.00000000000E+00  0.79016550101E+03  0.28132083543E+04  0.26999592082E+04 0.  0.
        1    1    3    3  502    0  0.68385076675E+03  0.90780042237E+03  0.11541246371E+04  0.16198015792E+04  0.50400001928E-02 0. -1.
       -1    1    3    3    0  502 -0.68385076675E+03 -0.90780042237E+03 -0.36395913609E+03  0.11934067751E+04  0.50400001928E-02 0.  1.
</event>
<event>
 5   0  0.1937896E-07  0.2697356E+04  0.7818609E-02  0.8335863E-01
        1   -1    0    0  501    0  0.00000000000E+00  0.00000000000E+00  0.12791685115E+04  0.12791685115E+04  0.50400001928E-02 0. -1.
       -1   -1    0    0    0  501  0.00000000000E+00  0.00000000000E+00 -0.14219648794E+04  0.14219648794E+04  0.50400001928E-02 0.  1.
    10030    2    1    2    0    0  0.00000000000E+00  0.00000000000E+00 -0.14279636788E+03  0.27011333908E+04  0.26973562598E+04 0.  0.
        3    1    3    3  502    0 -0.38390512234E+03  0.10864646575E+04  0.63039990853E+03  0.13134658921E+04  0.10100000352E+00 0. -1.
       -3    1    3    3    0  502  0.38390512234E+03 -0.10864646575E+04 -0.77319627641E+03  0.13876674987E+04  0.10100000352E+00 0.  1.
</event>
<event>
 5   0  0.4843887E-07  0.2698736E+04  0.7818609E-02  0.8335415E-01
       -2   -1    0    0    0  501  0.00000000000E+00  0.00000000000E+00  0.13996247782E+04  0.13996247782E+04  0.25500000920E-02 0. -1.
        2   -1    0    0  501    0  0.00000000000E+00  0.00000000000E+00 -0.13009156791E+04  0.13009156791E+04  0.25500000920E-02 0.  1.
    10030    2    1    2    0    0  0.00000000000E+00  0.00000000000E+00  0.98709099084E+02  0.27005404573E+04  0.26987358661E+04 0.  0.
        5    1    3    3  502    0 -0.24227118501E+03  0.43294317363E+03  0.13050388931E+04  0.13961675119E+04  0.46999998093E+01 0. -1.
       -5    1    3    3    0  502  0.24227118501E+03 -0.43294317363E+03 -0.12063297940E+04  0.13043729454E+04  0.46999998093E+01 0.  1.
</event>
<event>
 5   0  0.4735120E-07  0.2699300E+04  0.7818609E-02  0.8335232E-01
       -2   -1    0    0    0  501  0.00000000000E+00  0.00000000000E+00  0.11122873437E+04  0.11122873437E+04  0.25500000920E-02 0.  1.
        2   -1    0    0  501    0  0.00000000000E+00  0.00000000000E+00 -0.16376663334E+04  0.16376663334E+04  0.25500000920E-02 0. -1.
    10030    2    1    2    0    0  0.00000000000E+00  0.00000000000E+00 -0.52537898968E+03  0.27499536771E+04  0.26993003063E+04 0.  0.
        2    1    3    3  502    0  0.11170170872E+04  0.33653349546E+03 -0.95408042817E+03  0.15070671618E+04  0.25500000920E-02 0. -1.
       -2    1    3    3    0  502 -0.11170170872E+04 -0.33653349546E+03  0.42870143849E+03  0.12428865154E+04  0.25500000920E-02 0.  1.
</event>
<event>
 5   0  0.1971600E-07  0.2698937E+04  0.7818609E-02  0.8335350E-01
        1   -1    0    0  501    0  0.00000000000E+00  0.00000000000E+00  0.10630202582E+04  0.10630202582E+04  0.50400001928E-02 0. -1.
       -1   -1    0    0    0  501  0.00000000000E+00  0.00000000000E+00 -0.17131051210E+04  0.17131051210E+04  0.50400001928E-02 0.  1.
    10030    2    1    2    0    0  0.00000000000E+00  0.00000000000E+00 -0.65008486280E+03  0.27761253791E+04  0.26989371597E+04 0.  0.
        5    1    3    3  502    0  0.69727853088E+02  0.40426088042E+03  0.99731993509E+03  0.10784052929E+04  0.46999998093E+01 0. -1.
       -5    1    3    3    0  502 -0.69727853088E+02 -0.40426088042E+03 -0.16474047979E+04  0.16977200862E+04  0.46999998093E+01 0.  1.
</event>
<event>
 5   0  0.4992668E-07  0.2697455E+04  0.7818609E-02  0.8335831E-01
        2   -1    0    0  501    0  0.00000000000E+00  0.00000000000E+00  0.12929840082E+04  0.12929840082E+04  0.25500000920E-02 0. -1.
       -2   -1    0    0    0  501  0.00000000000E+00  0.00000000000E+00 -0.14068737225E+04  0.14068737225E+04  0.25500000920E-02 0.  1.
    10030    2    1    2    0    0  0.00000000000E+00  0.00000000000E+00 -0.11388971435E+03  0.26998577307E+04  0.26974545221E+04 0.  0.
        1    1    3    3  502    0 -0.88467384480E+03 -0.99931550624E+03 -0.25150407779E+03  0.13581360734E+04  0.50400001928E-02 0.  1.
       -1    1    3    3    0  502  0.88467384480E+03  0.99931550624E+03  0.13761436344E+03  0.13417216573E+04  0.50400001928E-02 0. -1.
</event>
<event>
 5   0  0.4983208E-07  0.2700615E+04  0.7818609E-02  0.8334805E-01
        2   -1    0    0  501    0  0.00000000000E+00  0.00000000000E+00  0.20226786534E+04  0.20226786534E+04  0.25500000920E-02 0. -1.
       -2   -1    0    0    0  501  0.00000000000E+00  0.00000000000E+00 -0.90144365450E+03  0.90144365450E+03  0.25500000920E-02 0.  1.
    10030    2    1    2    0    0  0.00000000000E+00  0.00000000000E+00  0.11212349989E+04  0.29241223079E+04  0.27006153648E+04 0.  0.
        4    1    3    3  502    0 -0.13387146675E+04 -0.15944812972E+02  0.37022989035E+03  0.13890583079E+04  0.12699999809E+01 0. -1.
       -4    1    3    3    0  502  0.13387146675E+04  0.15944812972E+02  0.75100510852E+03  0.15350640000E+04  0.12699999809E+01 0.  1.
</event>
<event>
 5   0  0.4992668E-07  0.2701733E+04  0.7818609E-02  0.8334443E-01
        2   -1    0    0  501    0  0.00000000000E+00  0.00000000000E+00  0.17566051867E+04  0.17566051867E+04  0.25500000920E-02 0.  1.
       -2   -1    0    0    0  501  0.00000000000E+00  0.00000000000E+00 -0.10388450571E+04  0.10388450571E+04  0.25500000920E-02 0. -1.
    10030    2    1    2    0    0  0.00000000000E+00  0.00000000000E+00  0.71776012963E+03  0.27954502438E+04  0.27017332329E+04 0.  0.
        1    1    3    3  502    0  0.94665649311E+03 -0.92179633277E+03  0.68109576571E+02  0.13230668575E+04  0.50400001928E-02 0. -1.
       -1    1    3    3    0  502 -0.94665649311E+03  0.92179633277E+03  0.64965055306E+03  0.14723833863E+04  0.50400001928E-02 0.  1.
</event>
<event>
 5   0  0.4735120E-07  0.2700523E+04  0.7818609E-02  0.8334835E-01
       -2   -1    0    0    0  501  0.00000000000E+00  0.00000000000E+00  0.85275392768E+03  0.85275392768E+03  0.25500000920E-02 0.  1.
        2   -1    0    0  501    0  0.00000000000E+00  0.00000000000E+00 -0.21380211689E+04  0.21380211689E+04  0.25500000920E-02 0. -1.
    10030    2    1    2    0    0  0.00000000000E+00  0.00000000000E+00 -0.12852672413E+04  0.29907750966E+04  0.27005228748E+04 0.  0.
        2    1    3    3  502    0  0.12408297992E+04  0.30627477848E+03 -0.16022072054E+03  0.12880735654E+04  0.25500000920E-02 0.  1.
       -2    1    3    3    0  502 -0.12408297992E+04 -0.30627477848E+03 -0.11250465207E+04  0.17027015312E+04  0.25500000920E-02 0. -1.
</event>
<event>
 5   0  0.1964242E-07  0.2699975E+04  0.7818609E-02  0.8335013E-01
        1   -1    0    0  501    0  0.00000000000E+00  0.00000000000E+00  0.96128050470E+03  0.96128050471E+03  0.50400001928E-02 0.  1.
       -1   -1    0    0    0  501  0.00000000000E+00  0.00000000000E+00 -0.18958738170E+04  0.18958738170E+04  0.50400001928E-02 0. -1.
    10030    2    1    2    0    0  0.00000000000E+00  0.00000000000E+00 -0.93459331227E+03  0.28571543217E+04  0.26999752144E+04 0.  0.
        2    1    3    3  502    0  0.90642866413E+03  0.80443663826E+03 -0.10966769321E+04  0.16344514436E+04  0.25500000920E-02 0. -1.
       -2    1    3    3    0  502 -0.90642866413E+03 -0.80443663826E+03  0.16208361987E+03  0.12227028780E+04  0.25500000920E-02 0.  1.
</event>
<event>
 5   0  0.1964242E-07  0.2699441E+04  0.7818609E-02  0.8335186E-01
        1   -1    0    0  501    0  0.00000000000E+00  0.00000000000E+00  0.98566021460E+03  0.98566021461E+03  0.50400001928E-02 0. -1.
       -1   -1    0    0    0  501  0.00000000000E+00  0.00000000000E+00 -0.18482490468E+04  0.18482490468E+04  0.50400001928E-02 0.  1.
    10030    2    1    2    0    0  0.00000000000E+00  0.00000000000E+00 -0.86258883223E+03  0.28339092615E+04  0.26994410919E+04 0.  0.
        2    1    3    3  502    0 -0.36435063847E+03  0.82329315116E+03  0.62437239839E+03  0.10956294503E+04  0.25500000920E-02 0. -1.
       -2    1    3    3    0  502  0.36435063847E+03 -0.82329315116E+03 -0.14869612306E+04  0.17382798112E+04  0.25500000920E-02 0.  1.
</event>
<event>
 5   0  0.4992668E-07  0.2700039E+04  0.7818609E-02  0.8334992E-01
        2   -1    0    0  501    0  0.00000000000E+00  0.00000000000E+00  0.14786648712E+04  0.14786648712E+04  0.25500000920E-02 0. -1.
       -2   -1    0    0    0  501  0.00000000000E+00  0.00000000000E+00 -0.12325660092E+04  0.12325660092E+04  0.25500000920E-02 0.  1.
    10030    2    1    2    0    0  0.00000000000E+00  0.00000000000E+00  0.24609886199E+03  0.27112308804E+04  0.27000385621E+04 0.  0.
        1    1    3    3  502    0 -0.27041220436E+03 -0.23576594938E+03 -0.11838230234E+04  0.12369904178E+04  0.50400001928E-02 0.  1.
       -1    1    3    3    0  502  0.27041220436E+03  0.23576594938E+03  0.14299218854E+04  0.14742404625E+04  0.50400001928E-02 0. -1.
</event>
<event>
 5   0  0.1888149E-07  0.2701014E+04  0.7818609E-02  0.8334676E-01
        1   -1    0    0  501    0  0.00000000000E+00  0.00000000000E+00  0.15905540234E+04  0.15905540234E+04  0.50400001928E-02 0. -1.
       -1   -1    0    0    0  501  0.00000000000E+00  0.00000000000E+00 -0.11466882052E+04  0.11466882053E+04  0.50400001928E-02 0.  1.
    10030    2    1    2    0    0  0.00000000000E+00  0.00000000000E+00  0.44386581815E+03  0.27372422287E+04  0.27010142824E+04 0.  0.
        1    1    3    3  502    0  0.35297228233E+03  0.71092132591E+03 -0.88536644779E+03  0.11890636277E+04  0.50400001928E-02 0.  1.
       -1    1    3    3    0  502 -0.35297228233E+03 -0.71092132591E+03  0.13292322659E+04  0.15481786010E+04  0.50400001928E-02 0. -1.
</event>
<event>
 5   0  0.1971600E-07  0.2699144E+04  0.7818609E-02  0.8335283E-01
       -1   -1    0    0    0  501  0.00000000000E+00  0.00000000000E+00  0.59625960762E+03  0.59625960764E+03  0.50400001928E-02 0. -1.
        1   -1    0    0  501    0  0.00000000000E+00  0.00000000000E+00 -0.30546163936E+04  0.30546163936E+04  0.50400001928E-02 0.  1.
    10030    2    1    2    0    0  0.00000000000E+00  0.00000000000E+00 -0.24583567860E+04  0.36508760012E+04  0.26991438437E+04 0.  0.
        5    1    3    3  502    0 -0.60588906553E+03 -0.10805546104E+04 -0.19533244329E+04  0.23130495576E+04  0.46999998093E+01 0.  1.
       -5    1    3    3    0  502  0.60588906553E+03  0.10805546104E+04 -0.50503235311E+03  0.13378264437E+04  0.46999998093E+01 0. -1.
</event>
<event>
 5   0  0.4992668E-07  0.2699538E+04  0.7818609E-02  0.8335155E-01
       -2   -1    0    0    0  501  0.00000000000E+00  0.00000000000E+00  0.84349448027E+03  0.84349448027E+03  0.25500000920E-02 0.  1.
        2   -1    0    0  501    0  0.00000000000E+00  0.00000000000E+00 -0.21599148275E+04  0.21599148275E+04  0.25500000920E-02 0. -1.
    10030    2    1    2    0    0  0.00000000000E+00  0.00000000000E+00 -0.13164203473E+04  0.30034093078E+04  0.26995379122E+04 0.  0.
        1    1    3    3  502    0 -0.35473112460E+03 -0.62029006658E+03 -0.19322212106E+04  0.20601147405E+04  0.50400001928E-02 0. -1.
       -1    1    3    3    0  502  0.35473112460E+03  0.62029006658E+03  0.61580086330E+03  0.94329456731E+03  0.50400001928E-02 0.  1.
</event>
<event>
 5   0  0.1965415E-07  0.2702342E+04  0.7818609E-02  0.8334245E-01
        1   -1    0    0  501    0  0.00000000000E+00  0.00000000000E+00  0.14532805559E+04  0.14532805559E+04  0.50400001928E-02 0. -1.
       -1   -1    0    0    0  501  0.00000000000E+00  0.00000000000E+00 -0.12562362689E+04  0.12562362689E+04  0.50400001928E-02 0.  1.
    10030    2    1    2    0    0  0.00000000000E+00  0.00000000000E+00  0.19704428698E+03  0.27095168248E+04  0.27023424974E+04 0.  0.
        4    1    3    3  502    0 -0.17687327464E+03  0.11852363613E+04 -0.52730859506E+03  0.13092461017E+04  0.12699999809E+01 0.  1.
       -4    1    3    3    0  502  0.17687327464E+03 -0.11852363613E+04  0.72435288204E+03  0.14002707231E+04  0.12699999809E+01 0. -1.
</event>
<event>
 5   0  0.4735120E-07  0.2701207E+04  0.7818609E-02  0.8334613E-01
       -2   -1    0    0    0  501  0.00000000000E+00  0.00000000000E+00  0.97079996456E+03  0.97079996456E+03  0.25500000920E-02 0.  1.
        2   -1    0    0  501    0  0.00000000000E+00  0.00000000000E+00 -0.18789969773E+04  0.18789969773E+04  0.25500000920E-02 0. -1.
    10030    2    1    2    0    0  0.00000000000E+00  0.00000000000E+00 -0.90819701274E+03  0.28497969419E+04  0.27012072849E+04 0.  0.
        2    1    3    3  502    0  0.51779670094E+03 -0.88363571292E+03  0.47479131294E+03  0.11288721307E+04  0.25500000920E-02 0.  1.
       -2    1    3    3    0  502 -0.51779670094E+03  0.88363571292E+03 -0.13829883257E+04  0.17209248111E+04  0.25500000920E-02 0. -1.
</event>
<event>
 5   0  0.1888149E-07  0.2699870E+04  0.7818609E-02  0.8335047E-01
       -1   -1    0    0    0  501  0.00000000000E+00  0.00000000000E+00  0.18241973744E+04  0.18241973744E+04  0.50400001928E-02 0.  1.
        1   -1    0    0  501    0  0.00000000000E+00  0.00000000000E+00 -0.99897325827E+03  0.99897325828E+03  0.50400001928E-02 0. -1.
    10030    2    1    2    0    0  0.00000000000E+00  0.00000000000E+00  0.82522411616E+03  0.28231706327E+04  0.26998699190E+04 0.  0.
        1    1    3    3  502    0 -0.30844527654E+03  0.84306346242E+03 -0.64161219839E+03  0.11034313315E+04  0.50400001928E-02 0. -1.
       -1    1    3    3    0  502  0.30844527654E+03 -0.84306346242E+03  0.14668363145E+04  0.17197393012E+04  0.50400001928E-02 0.  1.
</event>
<event>
 5   0  0.1888149E-07  0.2701220E+04  0.7818609E-02  0.8334609E-01
        1   -1    0    0  501    0  0.00000000000E+00  0.00000000000E+00  0.19520251174E+04  0.19520251174E+04  0.50400001928E-02 0. -1.
       -1   -1    0    0    0  501  0.00000000000E+00  0.00000000000E+00 -0.93448985859E+03  0.93448985861E+03  0.50400001928E-02 0.  1.
    10030    2    1    2    0    0  0.00000000000E+00  0.00000000000E+00  0.10175352588E+04  0.28865149760E+04  0.27012202250E+04 0.  0.
        1    1    3    3  502    0 -0.55366638075E+02  0.13154024763E+04  0.83076568315E+03  0.15567661224E+04  0.50400001928E-02 0.  1.
       -1    1    3    3    0  502  0.55366638075E+02 -0.13154024763E+04  0.18676957564E+03  0.13297488536E+04  0.50400001928E-02 0. -1.
</event>
<event>
 5   0  0.4843887E-07  0.2701887E+04  0.7818609E-02  0.8334393E-01
        2   -1    0    0  501    0  0.00000000000E+00  0.00000000000E+00  0.15986622764E+04  0.15986622764E+04  0.25500000920E-02 0. -1.
       -2   -1    0    0    0  501  0.00000000000E+00  0.00000000000E+00 -0.11416098346E+04  0.11416098346E+04  0.25500000920E-02 0.  1.
    10030    2    1    2    0    0  0.00000000000E+00  0.00000000000E+00  0.45705244184E+03  0.27402721110E+04  0.27018871752E+04 0.  0.
        5    1    3    3  502    0 -0.59491908968E+03 -0.99290660269E+02  0.14545167842E+04  0.15746201205E+04  0.46999998093E+01 0. -1.
       -5    1    3    3    0  502  0.59491908968E+03  0.99290660269E+02 -0.99746434237E+03  0.11656519904E+04  0.46999998093E+01 0.  1.
</event>
<event>
 5   0  0.1937896E-07  0.2700377E+04  0.7818609E-02  0.8334883E-01
        1   -1    0    0  501    0  0.00000000000E+00  0.00000000000E+00  0.18691823928E+04  0.18691823928E+04  0.50400001928E-02 0. -1.
       -1   -1    0    0    0  501  0.00000000000E+00  0.00000000000E+00 -0.97529737226E+03  0.97529737227E+03  0.50400001928E-02 0.  1.
    10030    2    1    2    0    0  0.00000000000E+00  0.00000000000E+00  0.89388502055E+03  0.28444797651E+04  0.27003767708E+04 0.  0.
        3    1    3    3  502    0  0.65286427748E+03 -0.56761282752E+03  0.15388866045E+04  0.17653860990E+04  0.10100000352E+00 0. -1.
       -3    1    3    3    0  502 -0.65286427748E+03  0.56761282752E+03 -0.64500158394E+03  0.10790936661E+04  0.10100000352E+00 0.  1.
</event>
<event>
 5   0  0.1971600E-07  0.2690663E+04  0.7818609E-02  0.8338041E-01
        1   -1    0    0  501    0  0.00000000000E+00  0.00000000000E+00  0.12638232842E+04  0.12638232842E+04  0.50400001928E-02 0.  1.
       -1   -1    0    0    0  501  0.00000000000E+00  0.00000000000E+00 -0.14320963150E+04  0.14320963151E+04  0.50400001928E-02 0. -1.
    10030    2    1    2    0    0  0.00000000000E+00  0.00000000000E+00 -0.16827303086E+03  0.26959195992E+04  0.26906628686E+04 0.  0.
        5    1    3    3  502    0  0.11807442879E+04 -0.17593396430E+03  0.53738558127E+03  0.13091658360E+04  0.46999998093E+01 0.  1.
       -5    1    3    3    0  502 -0.11807442879E+04  0.17593396430E+03 -0.70565861214E+03  0.13867537633E+04  0.46999998093E+01 0. -1.
</event>
<event>
 5   0  0.4735120E-07  0.2699414E+04  0.7818609E-02  0.8335195E-01
       -2   -1    0    0    0  501  0.00000000000E+00  0.00000000000E+00  0.95092689621E+03  0.95092689621E+03  0.25500000920E-02 0.  1.
        2   -1    0    0  501    0  0.00000000000E+00  0.00000000000E+00 -0.19157191093E+04  0.19157191093E+04  0.25500000920E-02 0. -1.
    10030    2    1    2    0    0  0.00000000000E+00  0.00000000000E+00 -0.96479221304E+03  0.28666460055E+04  0.26994138820E+04 0.  0.
        2    1    3    3  502    0 -0.11330465066E+04  0.62718814896E+03 -0.88614638582E+03  0.15692083282E+04  0.25500000920E-02 0. -1.
       -2    1    3    3    0  502  0.11330465066E+04 -0.62718814896E+03 -0.78645827221E+02  0.12974376773E+04  0.25500000920E-02 0.  1.
</event>
<event>
 5   0  0.4983208E-07  0.2699389E+04  0.7818609E-02  0.8335203E-01
       -2   -1    0    0    0  501  0.00000000000E+00  0.00000000000E+00  0.11239772555E+04  0.11239772555E+04  0.25500000920E-02 0. -1.
        2   -1    0    0  501    0  0.00000000000E+00  0.00000000000E+00 -0.16207404315E+04  0.16207404315E+04  0.25500000920E-02 0.  1.
    10030    2    1    2    0    0  0.00000000000E+00  0.00000000000E+00 -0.49676317597E+03  0.27447176870E+04  0.26993891028E+04 0.  0.
        4    1    3    3  502    0 -0.31674442428E+03  0.22922465752E+03 -0.15618955692E+04  0.16100901702E+04  0.12699999809E+01 0.  1.
       -4    1    3    3    0  502  0.31674442428E+03 -0.22922465752E+03  0.10651323933E+04  0.11346275169E+04  0.12699999809E+01 0. -1.
</event>
<event>
 5   0  0.1937896E-07  0.2712190E+04  0.7818609E-02  0.8331060E-01
       -1   -1    0    0    0  501  0.00000000000E+00  0.00000000000E+00  0.10177007079E+04  0.10177007080E+04  0.50400001928E-02 0. -1.
        1   -1    0    0  501    0  0.00000000000E+00  0.00000000000E+00 -0.18070089293E+04  0.18070089293E+04  0.50400001928E-02 0.  1.
    10030    2    1    2    0    0  0.00000000000E+00  0.00000000000E+00 -0.78930822136E+03  0.28247096373E+04  0.27121904554E+04 0.  0.
        3    1    3    3  502    0 -0.25337269583E+03  0.12534434639E+04  0.75373720906E+02  0.12810150070E+04  0.10100000352E+00 0. -1.
       -3    1    3    3    0  502  0.25337269583E+03 -0.12534434639E+04 -0.86468194227E+03  0.15436946303E+04  0.10100000352E+00 0.  1.
</event>
<event>
 5   0  0.4735120E-07  0.2687323E+04  0.7818609E-02  0.8339130E-01
       -2   -1    0    0    0  501  0.00000000000E+00  0.00000000000E+00  0.86552751128E+03  0.86552751128E+03  0.25500000920E-02 0. -1.
        2   -1    0    0  501    0  0.00000000000E+00  0.00000000000E+00 -0.20859261625E+04  0.20859261625E+04  0.25500000920E-02 0.  1.
    10030    2    1    2    0    0  0.00000000000E+00  0.00000000000E+00 -0.12203986512E+04  0.29514536738E+04  0.26873231887E+04 0.  0.
        2    1    3    3  502    0  0.12106938690E+04 -0.73683297440E+02  0.24737818364E+02  0.12131862316E+04  0.25500000920E-02 0.  1.
       -2    1    3    3    0  502 -0.12106938690E+04  0.73683297440E+02 -0.12451364696E+04  0.17382674422E+04  0.25500000920E-02 0. -1.
</event>
<event>
 5   0  0.4983208E-07  0.2711496E+04  0.7818609E-02  0.8331285E-01
       -2   -1    0    0    0  501  0.00000000000E+00  0.00000000000E+00  0.14192684183E+04  0.14192684183E+04  0.25500000920E-02 0. -1.
        2   -1    0    0  501    0  0.00000000000E+00  0.00000000000E+00 -0.12950705173E+04  0.12950705173E+04  0.25500000920E-02 0.  1.
    10030    2    1    2    0    0  0.00000000000E+00  0.00000000000E+00  0.12419790102E+03  0.27143389356E+04  0.27114960333E+04 0.  0.
        4    1    3    3  502    0  0.13085515442E+03 -0.10746466430E+04 -0.75488330678E+03  0.13197874444E+04  0.12699999809E+01 0.  1.
       -4    1    3    3    0  502 -0.13085515442E+03  0.10746466430E+04  0.87908120780E+03  0.13945514912E+04  0.12699999809E+01 0. -1.
</event>
<event>
 5   0  0.5043890E-07  0.2701208E+04  0.7818609E-02  0.8334613E-01
       -2   -1    0    0    0  501  0.00000000000E+00  0.00000000000E+00  0.12662325448E+04  0.12662325448E+04  0.25500000920E-02 0. -1.
        2   -1    0    0  501    0  0.00000000000E+00  0.00000000000E+00 -0.14405974010E+04  0.14405974010E+04  0.25500000920E-02 0.  1.
    10030    2    1    2    0    0  0.00000000000E+00  0.00000000000E+00 -0.17436485618E+03  0.27068299458E+04  0.27012081098E+04 0.  0.
        3    1    3    3  502    0  0.79089282733E+03  0.35397752079E+03  0.95098521423E+03  0.12865397147E+04  0.10100000352E+00 0. -1.
       -3    1    3    3    0  502 -0.79089282733E+03 -0.35397752079E+03 -0.11253500704E+04  0.14202902312E+04  0.10100000352E+00 0.  1.
</event>
<event>
 5   0  0.1971600E-07  0.2696401E+04  0.7818609E-02  0.8336174E-01
       -1   -1    0    0    0  501  0.00000000000E+00  0.00000000000E+00  0.10968119024E+04  0.10968119025E+04  0.50400001928E-02 0.  1.
        1   -1    0    0  501    0  0.00000000000E+00  0.00000000000E+00 -0.16572066895E+04  0.16572066895E+04  0.50400001928E-02 0. -1.
    10030    2    1    2    0    0  0.00000000000E+00  0.00000000000E+00 -0.56039478703E+03  0.27540185919E+04  0.26964005799E+04 0.  0.
        5    1    3    3  502    0 -0.13279447283E+04  0.23169926488E+03 -0.30304001997E+03  0.13816573724E+04  0.46999998093E+01 0.  1.
       -5    1    3    3    0  502  0.13279447283E+04 -0.23169926488E+03 -0.25735476706E+03  0.13723612196E+04  0.46999998093E+01 0. -1.
</event>
<event>
 5   0  0.4735120E-07  0.2704216E+04  0.7818609E-02  0.8333638E-01
       -2   -1    0    0    0  501  0.00000000000E+00  0.00000000000E+00  0.12800395524E+04  0.12800395524E+04  0.25500000920E-02 0.  1.
        2   -1    0    0  501    0  0.00000000000E+00  0.00000000000E+00 -0.14282335241E+04  0.14282335241E+04  0.25500000920E-02 0. -1.
    10030    2    1    2    0    0  0.00000000000E+00  0.00000000000E+00 -0.14819397171E+03  0.27082730765E+04  0.27042155246E+04 0.  0.
        2    1    3    3  502    0 -0.79252632577E+03  0.37632006327E+03  0.95627159894E+03  0.12977558083E+04  0.25500000920E-02 0.  1.
       -2    1    3    3    0  502  0.79252632577E+03 -0.37632006327E+03 -0.11044655707E+04  0.14105172682E+04  0.25500000920E-02 0. -1.
</event>
<event>
 5   0  0.1641625E-07  0.2700160E+04  0.7818609E-02  0.8334953E-01
        3   -1    0    0  501    0  0.00000000000E+00  0.00000000000E+00  0.14039697967E+04  0.14039698003E+04  0.10100000352E+00 0.  1.
       -3   -1    0    0    0  501  0.00000000000E+00  0.00000000000E+00 -0.12982588031E+04  0.12982588070E+04  0.10100000352E+00 0. -1.
    10030    2    1    2    0    0  0.00000000000E+00  0.00000000000E+00  0.10571099359E+03  0.27022286073E+04  0.27001601123E+04 0.  0.
        5    1    3    3  502    0  0.24134711065E+03  0.10142737562E+04  0.91123885934E+03  0.13846942006E+04  0.46999998093E+01 0.  1.
       -5    1    3    3    0  502 -0.24134711065E+03 -0.10142737562E+04 -0.80552786575E+03  0.13175344067E+04  0.46999998093E+01 0. -1.
</event>
<event>
 5   0  0.1965415E-07  0.2699923E+04  0.7818609E-02  0.8335030E-01
       -1   -1    0    0    0  501  0.00000000000E+00  0.00000000000E+00  0.17379606678E+04  0.17379606678E+04  0.50400001928E-02 0.  1.
        1   -1    0    0  501    0  0.00000000000E+00  0.00000000000E+00 -0.10485829013E+04  0.10485829013E+04  0.50400001928E-02 0. -1.
    10030    2    1    2    0    0  0.00000000000E+00  0.00000000000E+00  0.68937776651E+03  0.27865435691E+04  0.26999228429E+04 0.  0.
        4    1    3    3  502    0 -0.13742099654E+02 -0.12315237575E+04  0.91519316612E+03  0.15344118596E+04  0.12699999809E+01 0.  1.
       -4    1    3    3    0  502  0.13742099654E+02  0.12315237575E+04 -0.22581539961E+03  0.12521317096E+04  0.12699999809E+01 0. -1.
</event>
<event>
 5   0  0.4735120E-07  0.2700060E+04  0.7818609E-02  0.8334985E-01
        2   -1    0    0  501    0  0.00000000000E+00  0.00000000000E+00  0.16792618745E+04  0.16792618745E+04  0.25500000920E-02 0. -1.
       -2   -1    0    0    0  501  0.00000000000E+00  0.00000000000E+00 -0.10853465406E+04  0.10853465406E+04  0.25500000920E-02 0.  1.
    10030    2    1    2    0    0  0.00000000000E+00  0.00000000000E+00  0.59391533395E+03  0.27646084151E+04  0.27000600484E+04 0.  0.
        2    1    3    3  502    0 -0.14201789266E+03  0.36334070178E+03  0.16202928556E+04  0.16665936774E+04  0.25500000920E-02 0. -1.
       -2    1    3    3    0  502  0.14201789266E+03 -0.36334070178E+03 -0.10263775217E+04  0.10980147378E+04  0.25500000920E-02 0.  1.
</event>
<event>
 5   0  0.1971600E-07  0.2699804E+04  0.7818609E-02  0.8335069E-01
       -1   -1    0    0    0  501  0.00000000000E+00  0.00000000000E+00  0.90519863809E+03  0.90519863810E+03  0.50400001928E-02 0.  1.
        1   -1    0    0  501    0  0.00000000000E+00  0.00000000000E+00 -0.20130778591E+04  0.20130778591E+04  0.50400001928E-02 0. -1.
    10030    2    1    2    0    0  0.00000000000E+00  0.00000000000E+00 -0.11078792210E+04  0.29182764972E+04  0.26998039458E+04 0.  0.
        5    1    3    3  502    0  0.13313882913E+04  0.20969671854E+03 -0.63515812599E+03  0.14899716209E+04  0.46999998093E+01 0. -1.
       -5    1    3    3    0  502 -0.13313882913E+04 -0.20969671854E+03 -0.47272109505E+03  0.14283048763E+04  0.46999998093E+01 0.  1.
</event>
<event>
 5   0  0.1971600E-07  0.2703674E+04  0.7818609E-02  0.8333814E-01
       -1   -1    0    0    0  501  0.00000000000E+00  0.00000000000E+00  0.92553836931E+03  0.92553836932E+03  0.50400001928E-02 0. -1.
        1   -1    0    0  501    0  0.00000000000E+00  0.00000000000E+00 -0.19744868762E+04  0.19744868762E+04  0.50400001928E-02 0.  1.
    10030    2    1    2    0    0  0.00000000000E+00  0.00000000000E+00 -0.10489485069E+04  0.29000252456E+04  0.27036740659E+04 0.  0.
        5    1    3    3  502    0 -0.72818998860E+03 -0.12791054238E+03 -0.17383980083E+04  0.18890927694E+04  0.46999998093E+01 0.  1.
       -5    1    3    3    0  502  0.72818998860E+03  0.12791054238E+03  0.68944950136E+03  0.10109324761E+04  0.46999998093E+01 0. -1.
</event>
<event>
 5   0  0.1937896E-07  0.2694911E+04  0.7818609E-02  0.8336658E-01
        1   -1    0    0  501    0  0.00000000000E+00  0.00000000000E+00  0.17481531484E+04  0.17481531484E+04  0.50400001928E-02 0. -1.
       -1   -1    0    0    0  501  0.00000000000E+00  0.00000000000E+00 -0.10386023324E+04  0.10386023324E+04  0.50400001928E-02 0.  1.
    10030    2    1    2    0    0  0.00000000000E+00  0.00000000000E+00  0.70955081600E+03  0.27867554809E+04  0.26949107127E+04 0.  0.
        3    1    3    3  502    0  0.80421526466E+03  0.94636445524E+03 -0.18579082619E+03  0.12557412613E+04  0.10100000352E+00 0.  1.
       -3    1    3    3    0  502 -0.80421526466E+03 -0.94636445524E+03  0.89534164219E+03  0.15310142196E+04  0.10100000352E+00 0. -1.
</event>
<event>
 5   0  0.1964242E-07  0.2697430E+04  0.7818609E-02  0.8335839E-01
        1   -1    0    0  501    0  0.00000000000E+00  0.00000000000E+00  0.22767915381E+04  0.22767915381E+04  0.50400001928E-02 0.  1.
       -1   -1    0    0    0  501  0.00000000000E+00  0.00000000000E+00 -0.79894554779E+03  0.79894554781E+03  0.50400001928E-02 0. -1.
    10030    2    1    2    0    0  0.00000000000E+00  0.00000000000E+00  0.14778459903E+04  0.30757370859E+04  0.26974302309E+04 0.  0.
        2    1    3    3  502    0  0.96344274365E+03 -0.11458219415E+01 -0.33727292857E+03  0.10207723848E+04  0.25500000920E-02 0. -1.
       -2    1    3    3    0  502 -0.96344274365E+03  0.11458219415E+01  0.18151189189E+04  0.20549647012E+04  0.25500000920E-02 0.  1.
</event>
<event>
 5   0  0.4843887E-07  0.2711823E+04  0.7818609E-02  0.8331179E-01
        2   -1    0    0  501    0  0.00000000000E+00  0.00000000000E+00  0.15368921367E+04  0.15368921367E+04  0.25500000920E-02 0. -1.
       -2   -1    0    0    0  501  0.00000000000E+00  0.00000000000E+00 -0.11962427717E+04  0.11962427718E+04  0.25500000920E-02 0.  1.
    10030    2    1    2    0    0  0.00000000000E+00  0.00000000000E+00  0.34064936492E+03  0.27331349084E+04  0.27118230838E+04 0.  0.
        5    1    3    3  502    0  0.50387558757E+03  0.94029135593E+02  0.14354753884E+04  0.15242518712E+04  0.46999998093E+01 0. -1.
       -5    1    3    3    0  502 -0.50387558757E+03 -0.94029135593E+02 -0.10948260235E+04  0.12088830373E+04  0.46999998093E+01 0.  1.
</event>
<event>
 5   0  0.1965415E-07  0.2699507E+04  0.7818609E-02  0.8335165E-01
       -1   -1    0    0    0  501  0.00000000000E+00  0.00000000000E+00  0.11543969274E+04  0.11543969274E+04  0.50400001928E-02 0.  1.
        1   -1    0    0  501    0  0.00000000000E+00  0.00000000000E+00 -0.15781699648E+04  0.15781699648E+04  0.50400001928E-02 0. -1.
    10030    2    1    2    0    0  0.00000000000E+00  0.00000000000E+00 -0.42377303742E+03  0.27325668923E+04  0.26995070353E+04 0.  0.
        4    1    3    3  502    0  0.94715681475E+03 -0.23505883199E+03 -0.11557619965E+04  0.15126619225E+04  0.12699999809E+01 0. -1.
       -4    1    3    3    0  502 -0.94715681475E+03  0.23505883199E+03  0.73198895908E+03  0.12199049698E+04  0.12699999809E+01 0.  1.
</event>
<event>
 5   0  0.1971600E-07  0.2701023E+04  0.7818609E-02  0.8334673E-01
        1   -1    0    0  501    0  0.00000000000E+00  0.00000000000E+00  0.13698428153E+04  0.13698428153E+04  0.50400001928E-02 0.  1.
       -1   -1    0    0    0  501  0.00000000000E+00  0.00000000000E+00 -0.13314527843E+04  0.13314527843E+04  0.50400001928E-02 0. -1.
    10030    2    1    2    0    0  0.00000000000E+00  0.00000000000E+00  0.38390030993E+02  0.27012955997E+04  0.27010227919E+04 0.  0.
        5    1    3    3  502    0 -0.84871254616E+03  0.65547247432E+03  0.84019314415E+03  0.13623155875E+04  0.46999998093E+01 0.  1.
       -5    1    3    3    0  502  0.84871254616E+03 -0.65547247432E+03 -0.80180311315E+03  0.13389800121E+04  0.46999998093E+01 0. -1.
</event>
<event>
 5   0  0.4735120E-07  0.2699280E+04  0.7818609E-02  0.8335239E-01
        2   -1    0    0  501    0  0.00000000000E+00  0.00000000000E+00  0.25650264873E+04  0.25650264873E+04  0.25500000920E-02 0. -1.
       -2   -1    0    0    0  501  0.00000000000E+00  0.00000000000E+00 -0.71014021348E+03  0.71014021349E+03  0.25500000920E-02 0.  1.
    10030    2    1    2    0    0  0.00000000000E+00  0.00000000000E+00  0.18548862738E+04  0.32751667008E+04  0.26992802428E+04 0.  0.
        2    1    3    3  502    0  0.12108681668E+04 -0.26072699196E+03  0.15778568002E+04  0.20059442574E+04  0.25500000920E-02 0. -1.
       -2    1    3    3    0  502 -0.12108681668E+04  0.26072699196E+03  0.27702947361E+03  0.12692224434E+04  0.25500000920E-02 0.  1.
</event>
<event>
 5   0  0.1964242E-07  0.2699987E+04  0.7818609E-02  0.8335009E-01
        1   -1    0    0  501    0  0.00000000000E+00  0.00000000000E+00  0.18436284110E+04  0.18436284110E+04  0.50400001928E-02 0. -1.
       -1   -1    0    0    0  501  0.00000000000E+00  0.00000000000E+00 -0.98853025721E+03  0.98853025722E+03  0.50400001928E-02 0.  1.
    10030    2    1    2    0    0  0.00000000000E+00  0.00000000000E+00  0.85509815380E+03  0.28321586682E+04  0.26999870128E+04 0.  0.
        2    1    3    3  502    0  0.12347046555E+04  0.20893820165E+03  0.95654967141E+03  0.15757975861E+04  0.25500000920E-02 0. -1.
       -2    1    3    3    0  502 -0.12347046555E+04 -0.20893820165E+03 -0.10145151761E+03  0.12563610822E+04  0.25500000920E-02 0.  1.
</event>
<event>
 5   0  0.4843887E-07  0.2699740E+04  0.7818609E-02  0.8335089E-01
        2   -1    0    0  501    0  0.00000000000E+00  0.00000000000E+00  0.18475262823E+04  0.18475262823E+04  0.25500000920E-02 0. -1.
       -2   -1    0    0    0  501  0.00000000000E+00  0.00000000000E+00 -0.98626426231E+03  0.98626426231E+03  0.25500000920E-02 0.  1.
    10030    2    1    2    0    0  0.00000000000E+00  0.00000000000E+00  0.86126202003E+03  0.28337905446E+04  0.26997400956E+04 0.  0.
        5    1    3    3  502    0 -0.20752002026E+03 -0.11602967853E+04  0.11211510778E+04  0.16267621270E+04  0.46999998093E+01 0. -1.
       -5    1    3    3    0  502  0.20752002026E+03  0.11602967853E+04 -0.25988905774E+03  0.12070284176E+04  0.46999998093E+01 0.  1.
</event>
<event>
 5   0  0.1888149E-07  0.2699113E+04  0.7818609E-02  0.8335293E-01
       -1   -1    0    0    0  501  0.00000000000E+00  0.00000000000E+00  0.14155405035E+04  0.14155405035E+04  0.50400001928E-02 0.  1.
        1   -1    0    0  501    0  0.00000000000E+00  0.00000000000E+00 -0.12866485642E+04  0.12866485642E+04  0.50400001928E-02 0. -1.
    10030    2    1    2    0    0  0.00000000000E+00  0.00000000000E+00  0.12889193927E+03  0.27021890677E+04  0.26991133036E+04 0.  0.
        1    1    3    3  502    0 -0.57678610663E+03 -0.32416732589E+02 -0.11566037182E+04  0.12928515841E+04  0.50400001928E-02 0. -1.
       -1    1    3    3    0  502  0.57678610663E+03  0.32416732589E+02  0.12854956575E+04  0.14093374837E+04  0.50400001928E-02 0.  1.
</event>
<event>
 5   0  0.5043890E-07  0.2704121E+04  0.7818609E-02  0.8333669E-01
        2   -1    0    0  501    0  0.00000000000E+00  0.00000000000E+00  0.10025820351E+04  0.10025820351E+04  0.25500000920E-02 0.  1.
       -2   -1    0    0    0  501  0.00000000000E+00  0.00000000000E+00 -0.18233600523E+04  0.18233600523E+04  0.25500000920E-02 0. -1.
    10030    2    1    2    0    0  0.00000000000E+00  0.00000000000E+00 -0.82077801715E+03  0.28259420874E+04  0.27041213227E+04 0.  0.
        3    1    3    3  502    0 -0.45709746727E+03  0.15542050821E+03  0.90942867291E+03  0.10296378734E+04  0.10100000352E+00 0.  1.
       -3    1    3    3    0  502  0.45709746727E+03 -0.15542050821E+03 -0.17302066901E+04  0.17963042141E+04  0.10100000352E+00 0. -1.
</event>
<event>
 5   0  0.4843887E-07  0.2695522E+04  0.7818609E-02  0.8336459E-01
        2   -1    0    0  501    0  0.00000000000E+00  0.00000000000E+00  0.15784143724E+04  0.15784143724E+04  0.25500000920E-02 0. -1.
       -2   -1    0    0    0  501  0.00000000000E+00  0.00000000000E+00 -0.11508132025E+04  0.11508132025E+04  0.25500000920E-02 0.  1.
    10030    2    1    2    0    0  0.00000000000E+00  0.00000000000E+00  0.42760116985E+03  0.27292275749E+04  0.26955222862E+04 0.  0.
        5    1    3    3  502    0  0.10501034643E+04  0.56858227028E+03 -0.41886054573E+03  0.12654917347E+04  0.46999998093E+01 0. -1.
       -5    1    3    3    0  502 -0.10501034643E+04 -0.56858227028E+03  0.84646171558E+03  0.14637358402E+04  0.46999998093E+01 0.  1.
</event>
<event>
 5   0  0.1888149E-07  0.2700877E+04  0.7818609E-02  0.8334721E-01
       -1   -1    0    0    0  501  0.00000000000E+00  0.00000000000E+00  0.15919791138E+04  0.15919791138E+04  0.50400001928E-02 0. -1.
        1   -1    0    0  501    0  0.00000000000E+00  0.00000000000E+00 -0.11455449007E+04  0.11455449007E+04  0.50400001928E-02 0.  1.
    10030    2    1    2    0    0  0.00000000000E+00  0.00000000000E+00  0.44643421311E+03  0.27375240144E+04  0.27008765657E+04 0.  0.
        1    1    3    3  502    0  0.12329597325E+04 -0.43318002600E+03 -0.12176708398E+03  0.13125021371E+04  0.50400001928E-02 0. -1.
       -1    1    3    3    0  502 -0.12329597325E+04  0.43318002600E+03  0.56820129709E+03  0.14250218774E+04  0.50400001928E-02 0.  1.
</event>
<event>
 5   0  0.4735120E-07  0.2699919E+04  0.7818609E-02  0.8335031E-01
        2   -1    0    0  501    0  0.00000000000E+00  0.00000000000E+00  0.18611730177E+04  0.18611730177E+04  0.25500000920E-02 0. -1.
       -2   -1    0    0    0  501  0.00000000000E+00  0.00000000000E+00 -0.97916260381E+03  0.97916260381E+03  0.25500000920E-02 0.  1.
    10030    2    1    2    0    0  0.00000000000E+00  0.00000000000E+00  0.88201041387E+03  0.28403356215E+04  0.26999192715E+04 0.  0.
        2    1    3    3  502    0  0.56845445802E+03  0.49860112439E+03  0.16174900472E+04  0.17855020596E+04  0.25500000920E-02 0. -1.
       -2    1    3    3    0  502 -0.56845445802E+03 -0.49860112439E+03 -0.73547963336E+03  0.10548335618E+04  0.25500000920E-02 0.  1.
</event>
<event>
 5   0  0.4843887E-07  0.2701738E+04  0.7818609E-02  0.8334441E-01
        2   -1    0    0  501    0  0.00000000000E+00  0.00000000000E+00  0.18486970208E+04  0.18486970208E+04  0.25500000920E-02 0.  1.
       -2   -1    0    0    0  501  0.00000000000E+00  0.00000000000E+00 -0.98709892997E+03  0.98709892997E+03  0.25500000920E-02 0. -1.
    10030    2    1    2    0    0  0.00000000000E+00  0.00000000000E+00  0.86159809081E+03  0.28357959508E+04  0.27017378489E+04 0.  0.
        5    1    3    3  502    0 -0.41312399951E+03  0.77034929220E+03 -0.65021462428E+03  0.10894542756E+04  0.46999998093E+01 0. -1.
       -5    1    3    3    0  502  0.41312399951E+03 -0.77034929220E+03  0.15118127151E+04  0.17463416752E+04  0.46999998093E+01 0.  1.
</event>
<event>
 5   0  0.1965415E-07  0.2699431E+04  0.7818609E-02  0.8335190E-01
        1   -1    0    0  501    0  0.00000000000E+00  0.00000000000E+00  0.13655000468E+04  0.13655000468E+04  0.50400001928E-02 0. -1.
       -1   -1    0    0    0  501  0.00000000000E+00  0.00000000000E+00 -0.13341134161E+04  0.13341134161E+04  0.50400001928E-02 0.  1.
    10030    2    1    2    0    0  0.00000000000E+00  0.00000000000E+00  0.31386630773E+02  0.26996134629E+04  0.26994310009E+04 0.  0.
        4    1    3    3  502    0 -0.10887770609E+04  0.77906330182E+03 -0.15565186607E+03  0.13478146137E+04  0.12699999809E+01 0. -1.
       -4    1    3    3    0  502  0.10887770609E+04 -0.77906330182E+03  0.18703849684E+03  0.13517988492E+04  0.12699999809E+01 0.  1.
</event>
<event>
 5   0  0.4843887E-07  0.2707342E+04  0.7818609E-02  0.8332627E-01
        2   -1    0    0  501    0  0.00000000000E+00  0.00000000000E+00  0.15848230287E+04  0.15848230287E+04  0.25500000920E-02 0. -1.
       -2   -1    0    0    0  501  0.00000000000E+00  0.00000000000E+00 -0.11562335093E+04  0.11562335093E+04  0.25500000920E-02 0.  1.
    10030    2    1    2    0    0  0.00000000000E+00  0.00000000000E+00  0.42858951937E+03  0.27410565380E+04  0.27073422333E+04 0.  0.
        5    1    3    3  502    0  0.10061532024E+04  0.55430063706E+03  0.93931987729E+03  0.14838926460E+04  0.46999998093E+01 0. -1.
       -5    1    3    3    0  502 -0.10061532024E+04 -0.55430063706E+03 -0.51073035792E+03  0.12571638920E+04  0.46999998093E+01 0.  1.
</event>
<event>
 5   0  0.1965415E-07  0.2696365E+04  0.7818609E-02  0.8336185E-01
       -1   -1    0    0    0  501  0.00000000000E+00  0.00000000000E+00  0.12523038578E+04  0.12523038578E+04  0.50400001928E-02 0. -1.
        1   -1    0    0  501    0  0.00000000000E+00  0.00000000000E+00 -0.14514018660E+04  0.14514018660E+04  0.50400001928E-02 0.  1.
    10030    2    1    2    0    0  0.00000000000E+00  0.00000000000E+00 -0.19909800819E+03  0.27037057238E+04  0.26963650762E+04 0.  0.
        4    1    3    3  502    0 -0.53226011591E+03  0.12373899999E+04 -0.15591324717E+03  0.13560034647E+04  0.12699999809E+01 0.  1.
       -4    1    3    3    0  502  0.53226011591E+03 -0.12373899999E+04 -0.43184761018E+02  0.13477022591E+04  0.12699999809E+01 0. -1.
</event>
<event>
 5   0  0.1971600E-07  0.2701076E+04  0.7818609E-02  0.8334656E-01
        1   -1    0    0  501    0  0.00000000000E+00  0.00000000000E+00  0.13677596948E+04  0.13677596948E+04  0.50400001928E-02 0. -1.
       -1   -1    0    0    0  501  0.00000000000E+00  0.00000000000E+00 -0.13335329977E+04  0.13335329977E+04  0.50400001928E-02 0.  1.
    10030    2    1    2    0    0  0.00000000000E+00  0.00000000000E+00  0.34226697117E+02  0.27012926925E+04  0.27010758493E+04 0.  0.
        5    1    3    3  502    0 -0.52172390900E+03  0.12406685912E+04  0.12881925117E+03  0.13520617145E+04  0.46999998093E+01 0.  1.
       -5    1    3    3    0  502  0.52172390900E+03 -0.12406685912E+04 -0.94592554054E+02  0.13492309779E+04  0.46999998093E+01 0. -1.
</event>
<event>
 5   0  0.1971600E-07  0.2693457E+04  0.7818609E-02  0.8337131E-01
        1   -1    0    0  501    0  0.00000000000E+00  0.00000000000E+00  0.23348726608E+04  0.23348726608E+04  0.50400001928E-02 0. -1.
       -1   -1    0    0    0  501  0.00000000000E+00  0.00000000000E+00 -0.77677772796E+03  0.77677772798E+03  0.50400001928E-02 0.  1.
    10030    2    1    2    0    0  0.00000000000E+00  0.00000000000E+00  0.15580949329E+04  0.31116503888E+04  0.26934565752E+04 0.  0.
        5    1    3    3  502    0 -0.74284392426E+03  0.10923100228E+04  0.47625240808E+03  0.14042067967E+04  0.46999998093E+01 0.  1.
       -5    1    3    3    0  502  0.74284392426E+03 -0.10923100228E+04  0.10818425248E+04  0.17074435921E+04  0.46999998093E+01 0. -1.
</event>
<event>
 5   0  0.5043890E-07  0.2699289E+04  0.7818609E-02  0.8335236E-01
       -2   -1    0    0    0  501  0.00000000000E+00  0.00000000000E+00  0.10883722691E+04  0.10883722691E+04  0.25500000920E-02 0. -1.
        2   -1    0    0  501    0  0.00000000000E+00  0.00000000000E+00 -0.16736367395E+04  0.16736367395E+04  0.25500000920E-02 0.  1.
    10030    2    1    2    0    0  0.00000000000E+00  0.00000000000E+00 -0.58526447039E+03  0.27620090086E+04  0.26992886588E+04 0.  0.
        3    1    3    3  502    0 -0.12516869631E+04 -0.34837654255E+03  0.81168782327E+02  0.13017967777E+04  0.10100000352E+00 0. -1.
       -3    1    3    3    0  502  0.12516869631E+04  0.34837654255E+03 -0.66643325272E+03  0.14602122309E+04  0.10100000352E+00 0.  1.
</event>
<event>
 5   0  0.1971600E-07  0.2699255E+04  0.7818609E-02  0.8335247E-01
       -1   -1    0    0    0  501  0.00000000000E+00  0.00000000000E+00  0.25371417583E+04  0.25371417583E+04  0.50400001928E-02 0.  1.
        1   -1    0    0  501    0  0.00000000000E+00  0.00000000000E+00 -0.71793156971E+03  0.71793156973E+03  0.50400001928E-02 0. -1.
    10030    2    1    2    0    0  0.00000000000E+00  0.00000000000E+00  0.18192101886E+04  0.32550733281E+04  0.26992548343E+04 0.  0.
        5    1    3    3  502    0  0.64578473711E+02  0.13236884627E+04  0.60179990957E+03  0.14555091022E+04  0.46999998093E+01 0. -1.
       -5    1    3    3    0  502 -0.64578473711E+02 -0.13236884627E+04  0.12174102791E+04  0.17995642259E+04  0.46999998093E+01 0.  1.
</event>
<event>
 5   0  0.1971600E-07  0.2700691E+04  0.7818609E-02  0.8334781E-01
        1   -1    0    0  501    0  0.00000000000E+00  0.00000000000E+00  0.12975631352E+04  0.12975631352E+04  0.50400001928E-02 0. -1.
       -1   -1    0    0    0  501  0.00000000000E+00  0.00000000000E+00 -0.14052753729E+04  0.14052753729E+04  0.50400001928E-02 0.  1.
    10030    2    1    2    0    0  0.00000000000E+00  0.00000000000E+00 -0.10771223766E+03  0.27028385081E+04  0.27006914068E+04 0.  0.
        5    1    3    3  502    0 -0.58951244998E+03  0.38714065539E+02 -0.12690651485E+04  0.13998471877E+04  0.46999998093E+01 0.  1.
       -5    1    3    3    0  502  0.58951244998E+03 -0.38714065539E+02  0.11613529109E+04  0.13029913204E+04  0.46999998093E+01 0. -1.
</event>
<event>
 5   0  0.5043890E-07  0.2702897E+04  0.7818609E-02  0.8334066E-01
        2   -1    0    0  501    0  0.00000000000E+00  0.00000000000E+00  0.24966765599E+04  0.24966765599E+04  0.25500000920E-02 0.  1.
       -2   -1    0    0    0  501  0.00000000000E+00  0.00000000000E+00 -0.73153760308E+03  0.73153760309E+03  0.25500000920E-02 0. -1.
    10030    2    1    2    0    0  0.00000000000E+00  0.00000000000E+00  0.17651389568E+04  0.32282141630E+04  0.27028968063E+04 0.  0.
        3    1    3    3  502    0  0.13424306023E+04 -0.15586058292E+03  0.88188040731E+03  0.16137303078E+04  0.10100000352E+00 0.  1.
       -3    1    3    3    0  502 -0.13424306023E+04  0.15586058292E+03  0.88325854954E+03  0.16144838552E+04  0.10100000352E+00 0. -1.
</event>
<event>
 5   0  0.4992668E-07  0.2699948E+04  0.7818609E-02  0.8335022E-01
        2   -1    0    0  501    0  0.00000000000E+00  0.00000000000E+00  0.11865698465E+04  0.11865698465E+04  0.25500000920E-02 0.  1.
       -2   -1    0    0    0  501  0.00000000000E+00  0.00000000000E+00 -0.15358803854E+04  0.15358803854E+04  0.25500000920E-02 0. -1.
    10030    2    1    2    0    0  0.00000000000E+00  0.00000000000E+00 -0.34931053895E+03  0.27224502319E+04  0.26999476684E+04 0.  0.
        1    1    3    3  502    0  0.82775734370E+03 -0.10323608627E+04 -0.44423755595E+03  0.13958145210E+04  0.50400001928E-02 0. -1.
       -1    1    3    3    0  502 -0.82775734370E+03  0.10323608627E+04  0.94927016998E+02  0.13266357109E+04  0.50400001928E-02 0.  1.
</event>
<event>
 5   0  0.4983208E-07  0.2699379E+04  0.7818609E-02  0.8335206E-01
       -2   -1    0    0    0  501  0.00000000000E+00  0.00000000000E+00  0.10646317508E+04  0.10646317508E+04  0.25500000920E-02 0.  1.
        2   -1    0    0  501    0  0.00000000000E+00  0.00000000000E+00 -0.17110725979E+04  0.17110725979E+04  0.25500000920E-02 0. -1.
    10030    2    1    2    0    0  0.00000000000E+00  0.00000000000E+00 -0.64644084708E+03  0.27757043487E+04  0.26993793477E+04 0.  0.
        4    1    3    3  502    0 -0.18008126304E+03  0.12336310511E+04  0.20849398777E+03  0.12640198525E+04  0.12699999809E+01 0.  1.
       -4    1    3    3    0  502  0.18008126304E+03 -0.12336310511E+04 -0.85493483485E+03  0.15116844963E+04  0.12699999809E+01 0. -1.
</event>
<event>
 5   0  0.1964242E-07  0.2700292E+04  0.7818609E-02  0.8334910E-01
       -1   -1    0    0    0  501  0.00000000000E+00  0.00000000000E+00  0.18669037151E+04  0.18669037151E+04  0.50400001928E-02 0. -1.
        1   -1    0    0  501    0  0.00000000000E+00  0.00000000000E+00 -0.97642676785E+03  0.97642676786E+03  0.50400001928E-02 0.  1.
    10030    2    1    2    0    0  0.00000000000E+00  0.00000000000E+00  0.89047694728E+03  0.28433304830E+04  0.27002923993E+04 0.  0.
        2    1    3    3  502    0  0.86215146940E+03  0.13587347139E+03 -0.63943853602E+03  0.10819650631E+04  0.25500000920E-02 0.  1.
       -2    1    3    3    0  502 -0.86215146940E+03 -0.13587347139E+03  0.15299154833E+04  0.17613654199E+04  0.25500000920E-02 0. -1.
</event>
<event>
 5   0  0.4843887E-07  0.2699305E+04  0.7818609E-02  0.8335230E-01
        2   -1    0    0  501    0  0.00000000000E+00  0.00000000000E+00  0.11271386061E+04  0.11271386061E+04  0.25500000920E-02 0. -1.
       -2   -1    0    0    0  501  0.00000000000E+00  0.00000000000E+00 -0.16160940743E+04  0.16160940743E+04  0.25500000920E-02 0.  1.
    10030    2    1    2    0    0  0.00000000000E+00  0.00000000000E+00 -0.48895546821E+03  0.27432326804E+04  0.26993051123E+04 0.  0.
        5    1    3    3  502    0  0.70824700626E+03  0.92496843285E+03  0.44805106782E+03  0.12481795836E+04  0.46999998093E+01 0.  1.
       -5    1    3    3    0  502 -0.70824700626E+03 -0.92496843285E+03 -0.93700653603E+03  0.14950530968E+04  0.46999998093E+01 0. -1.
</event>
<event>
 5   0  0.1965415E-07  0.2699543E+04  0.7818609E-02  0.8335153E-01
       -1   -1    0    0    0  501  0.00000000000E+00  0.00000000000E+00  0.19814882878E+04  0.19814882878E+04  0.50400001928E-02 0.  1.
        1   -1    0    0  501    0  0.00000000000E+00  0.00000000000E+00 -0.91945187715E+03  0.91945187717E+03  0.50400001928E-02 0. -1.
    10030    2    1    2    0    0  0.00000000000E+00  0.00000000000E+00  0.10620364107E+04  0.29009401650E+04  0.26995430175E+04 0.  0.
        4    1    3    3  502    0  0.70774470210E+03 -0.10348194022E+04  0.10684575548E+04  0.16472270389E+04  0.12699999809E+01 0.  1.
       -4    1    3    3    0  502 -0.70774470210E+03  0.10348194022E+04 -0.64211441720E+01  0.12537131260E+04  0.12699999809E+01 0. -1.
</event>
<event>
 5   0  0.4992668E-07  0.2699432E+04  0.7818609E-02  0.8335189E-01
        2   -1    0    0  501    0  0.00000000000E+00  0.00000000000E+00  0.11032757068E+04  0.11032757068E+04  0.25500000920E-02 0.  1.
       -2   -1    0    0    0  501  0.00000000000E+00  0.00000000000E+00 -0.16512038771E+04  0.16512038771E+04  0.25500000920E-02 0. -1.
    10030    2    1    2    0    0  0.00000000000E+00  0.00000000000E+00 -0.54792817022E+03  0.27544795839E+04  0.26994318844E+04 0.  0.
        1    1    3    3  502    0 -0.35430939929E+03 -0.74262131484E+03  0.81776584858E+03  0.11600700629E+04  0.50400001928E-02 0.  1.
       -1    1    3    3    0  502  0.35430939929E+03  0.74262131484E+03 -0.13656940188E+04  0.15944095210E+04  0.50400001928E-02 0. -1.
</event>
<event>
 5   0  0.4843887E-07  0.2699846E+04  0.7818609E-02  0.8335055E-01
        2   -1    0    0  501    0  0.00000000000E+00  0.00000000000E+00  0.22617741382E+04  0.22617741382E+04  0.25500000920E-02 0.  1.
       -2   -1    0    0    0  501  0.00000000000E+00  0.00000000000E+00 -0.80569145680E+03  0.80569145680E+03  0.25500000920E-02 0. -1.
    10030    2    1    2    0    0  0.00000000000E+00  0.00000000000E+00  0.14560826814E+04  0.30674655950E+04  0.26998459959E+04 0.  0.
        5    1    3    3  502    0  0.10302999810E+04  0.57064062218E+03 -0.21414157544E+02  0.11779768362E+04  0.46999998093E+01 0. -1.
       -5    1    3    3    0  502 -0.10302999810E+04 -0.57064062218E+03  0.14774968390E+04  0.18894887588E+04  0.46999998093E+01 0.  1.
</event>
<event>
 5   0  0.4735120E-07  0.2702687E+04  0.7818609E-02  0.8334134E-01
       -2   -1    0    0    0  501  0.00000000000E+00  0.00000000000E+00  0.11576301876E+04  0.11576301876E+04  0.25500000920E-02 0. -1.
        2   -1    0    0  501    0  0.00000000000E+00  0.00000000000E+00 -0.15774717392E+04  0.15774717392E+04  0.25500000920E-02 0.  1.
    10030    2    1    2    0    0  0.00000000000E+00  0.00000000000E+00 -0.41984155162E+03  0.27351019268E+04  0.27026867413E+04 0.  0.
        2    1    3    3  502    0  0.10675806569E+03 -0.69819426778E+01 -0.15731791514E+04  0.15768128216E+04  0.25500000920E-02 0.  1.
       -2    1    3    3    0  502 -0.10675806569E+03  0.69819426778E+01  0.11533375998E+04  0.11582891052E+04  0.25500000920E-02 0. -1.
</event>
<event>
 5   0  0.1888149E-07  0.2700735E+04  0.7818609E-02  0.8334767E-01
        1   -1    0    0  501    0  0.00000000000E+00  0.00000000000E+00  0.19398041246E+04  0.19398041246E+04  0.50400001928E-02 0.  1.
       -1   -1    0    0    0  501  0.00000000000E+00  0.00000000000E+00 -0.94003945985E+03  0.94003945986E+03  0.50400001928E-02 0. -1.
    10030    2    1    2    0    0  0.00000000000E+00  0.00000000000E+00  0.99976466472E+03  0.28798435844E+04  0.27007350270E+04 0.  0.
        1    1    3    3  502    0  0.12183259570E+04 -0.27847257559E+03 -0.45534403491E+02  0.12505752655E+04  0.50400001928E-02 0.  1.
       -1    1    3    3    0  502 -0.12183259570E+04  0.27847257559E+03  0.10452990682E+04  0.16292683189E+04  0.50400001928E-02 0. -1.
</event>
<event>
 5   0  0.1965415E-07  0.2700498E+04  0.7818609E-02  0.8334843E-01
        1   -1    0    0  501    0  0.00000000000E+00  0.00000000000E+00  0.10260979227E+04  0.10260979227E+04  0.50400001928E-02 0.  1.
       -1   -1    0    0    0  501  0.00000000000E+00  0.00000000000E+00 -0.17768012289E+04  0.17768012289E+04  0.50400001928E-02 0. -1.
    10030    2    1    2    0    0  0.00000000000E+00  0.00000000000E+00 -0.75070330628E+03  0.28028991516E+04  0.27004977690E+04 0.  0.
        4    1    3    3  502    0 -0.11837505371E+04  0.31627230613E+03 -0.96420693572E+03  0.15591632800E+04  0.12699999809E+01 0. -1.
       -4    1    3    3    0  502  0.11837505371E+04 -0.31627230613E+03  0.21350362945E+03  0.12437358717E+04  0.12699999809E+01 0.  1.
</event>
<event>
 5   0  0.4735120E-07  0.2699486E+04  0.7818609E-02  0.8335172E-01
        2   -1    0    0  501    0  0.00000000000E+00  0.00000000000E+00  0.17573438136E+04  0.17573438136E+04  0.25500000920E-02 0.  1.
       -2   -1    0    0    0  501  0.00000000000E+00  0.00000000000E+00 -0.10366816076E+04  0.10366816076E+04  0.25500000920E-02 0. -1.
    10030    2    1    2    0    0  0.00000000000E+00  0.00000000000E+00  0.72066220596E+03  0.27940254213E+04  0.26994858843E+04 0.  0.
        2    1    3    3  502    0 -0.15215110121E+03 -0.13018159760E+04  0.26657156032E+02  0.13109482816E+04  0.25500000920E-02 0.  1.
       -2    1    3    3    0  502  0.15215110121E+03  0.13018159760E+04  0.69400504993E+03  0.14830771397E+04  0.25500000920E-02 0. -1.
</event>
<event>
 5   0  0.4843887E-07  0.2716246E+04  0.7818609E-02  0.8329753E-01
        2   -1    0    0  501    0  0.00000000000E+00  0.00000000000E+00  0.17582611434E+04  0.17582611434E+04  0.25500000920E-02 0.  1.
       -2   -1    0    0    0  501  0.00000000000E+00  0.00000000000E+00 -0.10490466930E+04  0.10490466930E+04  0.25500000920E-02 0. -1.
    10030    2    1    2    0    0  0.00000000000E+00  0.00000000000E+00  0.70921445048E+03  0.28073078364E+04  0.27162459667E+04 0.  0.
        5    1    3    3  502    0 -0.56888500928E+03  0.64135233374E+03 -0.73403991689E+03  0.11286273341E+04  0.46999998093E+01 0. -1.
       -5    1    3    3    0  502  0.56888500928E+03 -0.64135233374E+03  0.14432543674E+04  0.16786805023E+04  0.46999998093E+01 0.  1.
</event>
<event>
 5   0  0.1888149E-07  0.2699777E+04  0.7818609E-02  0.8335077E-01
        1   -1    0    0  501    0  0.00000000000E+00  0.00000000000E+00  0.19754455650E+04  0.19754455650E+04  0.50400001928E-02 0. -1.
       -1   -1    0    0    0  501  0.00000000000E+00  0.00000000000E+00 -0.92242411579E+03  0.92242411580E+03  0.50400001928E-02 0.  1.
    10030    2    1    2    0    0  0.00000000000E+00  0.00000000000E+00  0.10530214492E+04  0.28978696808E+04  0.26997767527E+04 0.  0.
        1    1    3    3  502    0 -0.80671497344E+02  0.11373335388E+04 -0.24911840567E+03  0.11670884495E+04  0.50400001928E-02 0.  1.
       -1    1    3    3    0  502  0.80671497344E+02 -0.11373335388E+04  0.13021398549E+04  0.17307812313E+04  0.50400001928E-02 0. -1.
</event>
<event>
 5   0  0.1964242E-07  0.2700607E+04  0.7818609E-02  0.8334808E-01
       -1   -1    0    0    0  501  0.00000000000E+00  0.00000000000E+00  0.86806909858E+03  0.86806909860E+03  0.50400001928E-02 0. -1.
        1   -1    0    0  501    0  0.00000000000E+00  0.00000000000E+00 -0.21004307720E+04  0.21004307720E+04  0.50400001928E-02 0.  1.
    10030    2    1    2    0    0  0.00000000000E+00  0.00000000000E+00 -0.12323616734E+04  0.29684998706E+04  0.27006066333E+04 0.  0.
        2    1    3    3  502    0  0.13663449803E+03 -0.97221753334E+03 -0.16352045166E+04  0.19072938235E+04  0.25500000920E-02 0.  1.
       -2    1    3    3    0  502 -0.13663449803E+03  0.97221753334E+03  0.40284284312E+03  0.10612060471E+04  0.25500000920E-02 0. -1.
</event>
<event>
 5   0  0.4983208E-07  0.2700598E+04  0.7818609E-02  0.8334811E-01
       -2   -1    0    0    0  501  0.00000000000E+00  0.00000000000E+00  0.10071330876E+04  0.10071330877E+04  0.25500000920E-02 0.  1.
        2   -1    0    0  501    0  0.00000000000E+00  0.00000000000E+00 -0.18103935005E+04  0.18103935005E+04  0.25500000920E-02 0. -1.
    10030    2    1    2    0    0  0.00000000000E+00  0.00000000000E+00 -0.80326041281E+03  0.28175265881E+04  0.27005978568E+04 0.  0.
        4    1    3    3  502    0  0.56594404272E+03 -0.41672012209E+03  0.80126823120E+03  0.10658239587E+04  0.12699999809E+01 0.  1.
       -4    1    3    3    0  502 -0.56594404272E+03  0.41672012209E+03 -0.16045286440E+04  0.17517026294E+04  0.12699999809E+01 0. -1.
</event>
<event>
 5   0  0.1641625E-07  0.2698929E+04  0.7818609E-02  0.8335353E-01
       -3   -1    0    0    0  501  0.00000000000E+00  0.00000000000E+00  0.10499448014E+04  0.10499448062E+04  0.10100000352E+00 0. -1.
        3   -1    0    0  501    0  0.00000000000E+00  0.00000000000E+00 -0.17344284085E+04  0.17344284114E+04  0.10100000352E+00 0.  1.
    10030    2    1    2    0    0  0.00000000000E+00  0.00000000000E+00 -0.68448360711E+03  0.27843732176E+04  0.26989287517E+04 0.  0.
        1    1    3    3  502    0 -0.13133855049E+04 -0.30811400406E+03 -0.30743379150E+03  0.13836297410E+04  0.50400001928E-02 0. -1.
       -1    1    3    3    0  502  0.13133855049E+04  0.30811400406E+03 -0.37704981561E+03  0.14007434767E+04  0.50400001928E-02 0.  1.
</event>
<event>
 5   0  0.4983208E-07  0.2705217E+04  0.7818609E-02  0.8333314E-01
       -2   -1    0    0    0  501  0.00000000000E+00  0.00000000000E+00  0.98449462252E+03  0.98449462253E+03  0.25500000920E-02 0. -1.
        2   -1    0    0  501    0  0.00000000000E+00  0.00000000000E+00 -0.18583650590E+04  0.18583650590E+04  0.25500000920E-02 0.  1.
    10030    2    1    2    0    0  0.00000000000E+00  0.00000000000E+00 -0.87387043652E+03  0.28428596816E+04  0.27052174828E+04 0.  0.
        4    1    3    3  502    0 -0.11463771713E+04  0.42942061999E+03  0.16763256361E+03  0.12355909424E+04  0.12699999809E+01 0. -1.
       -4    1    3    3    0  502  0.11463771713E+04 -0.42942061999E+03 -0.10415030001E+04  0.16072687392E+04  0.12699999809E+01 0.  1.
</event>
<event>
 5   0  0.4983208E-07  0.2698353E+04  0.7818609E-02  0.8335539E-01
       -2   -1    0    0    0  501  0.00000000000E+00  0.00000000000E+00  0.10937861581E+04  0.10937861581E+04  0.25500000920E-02 0.  1.
        2   -1    0    0  501    0  0.00000000000E+00  0.00000000000E+00 -0.16641990197E+04  0.16641990197E+04  0.25500000920E-02 0. -1.
    10030    2    1    2    0    0  0.00000000000E+00  0.00000000000E+00 -0.57041286160E+03  0.27579851777E+04  0.26983534624E+04 0.  0.
        4    1    3    3  502    0  0.13326844367E+04 -0.77879007804E+02 -0.85534967152E+02  0.13376960758E+04  0.12699999809E+01 0. -1.
       -4    1    3    3    0  502 -0.13326844367E+04  0.77879007804E+02 -0.48487789445E+03  0.14202891019E+04  0.12699999809E+01 0.  1.
</event>
<event>
 5   0  0.5043890E-07  0.2700045E+04  0.7818609E-02  0.8334990E-01
       -2   -1    0    0    0  501  0.00000000000E+00  0.00000000000E+00  0.10317153916E+04  0.10317153916E+04  0.25500000920E-02 0.  1.
        2   -1    0    0  501    0  0.00000000000E+00  0.00000000000E+00 -0.17665344690E+04  0.17665344690E+04  0.25500000920E-02 0. -1.
    10030    2    1    2    0    0  0.00000000000E+00  0.00000000000E+00 -0.73481907749E+03  0.27982498606E+04  0.27000450377E+04 0.  0.
        3    1    3    3  502    0  0.92777409849E+03  0.11536089850E+03 -0.13767353383E+04  0.16641734034E+04  0.10100000352E+00 0.  1.
       -3    1    3    3    0  502 -0.92777409849E+03 -0.11536089850E+03  0.64191626079E+03  0.11340764572E+04  0.10100000352E+00 0. -1.
</event>
<event>
 5   0  0.1964242E-07  0.2698674E+04  0.7818609E-02  0.8335435E-01
       -1   -1    0    0    0  501  0.00000000000E+00  0.00000000000E+00  0.11741153365E+04  0.11741153365E+04  0.50400001928E-02 0.  1.
        1   -1    0    0  501    0  0.00000000000E+00  0.00000000000E+00 -0.15507079124E+04  0.15507079124E+04  0.50400001928E-02 0. -1.
    10030    2    1    2    0    0  0.00000000000E+00  0.00000000000E+00 -0.37659257589E+03  0.27248232489E+04  0.26986737056E+04 0.  0.
        2    1    3    3  502    0  0.42635325051E+03  0.71411198428E+03  0.88453267803E+03  0.12141379983E+04  0.25500000920E-02 0.  1.
       -2    1    3    3    0  502 -0.42635325051E+03 -0.71411198428E+03 -0.12611252539E+04  0.15106852506E+04  0.25500000920E-02 0. -1.
</event>
<event>
 5   0  0.1888149E-07  0.2699947E+04  0.7818609E-02  0.8335022E-01
        1   -1    0    0  501    0  0.00000000000E+00  0.00000000000E+00  0.16588435699E+04  0.16588435699E+04  0.50400001928E-02 0. -1.
       -1   -1    0    0    0  501  0.00000000000E+00  0.00000000000E+00 -0.10986134867E+04  0.10986134868E+04  0.50400001928E-02 0.  1.
    10030    2    1    2    0    0  0.00000000000E+00  0.00000000000E+00  0.56023008311E+03  0.27574570566E+04  0.26999466056E+04 0.  0.
        1    1    3    3  502    0  0.28887687947E+03  0.83467027773E+03  0.13227942168E+04  0.15905687235E+04  0.50400001928E-02 0. -1.
       -1    1    3    3    0  502 -0.28887687947E+03 -0.83467027773E+03 -0.76256413370E+03  0.11668883332E+04  0.50400001928E-02 0.  1.
</event>
<event>
 5   0  0.1641625E-07  0.2699751E+04  0.7818609E-02  0.8335086E-01
        3   -1    0    0  501    0  0.00000000000E+00  0.00000000000E+00  0.15992663198E+04  0.15992663230E+04  0.10100000352E+00 0.  1.
       -3   -1    0    0    0  501  0.00000000000E+00  0.00000000000E+00 -0.11393746119E+04  0.11393746164E+04  0.10100000352E+00 0. -1.
    10030    2    1    2    0    0  0.00000000000E+00  0.00000000000E+00  0.45989170795E+03  0.27386409394E+04  0.26997506944E+04 0.  0.
        2    1    3    3  502    0 -0.84619036970E+03 -0.82803363480E+02 -0.83361760541E+03  0.11907194677E+04  0.25500000920E-02 0. -1.
       -2    1    3    3    0  502  0.84619036970E+03  0.82803363480E+02  0.12935093134E+04  0.15479214717E+04  0.25500000920E-02 0.  1.
</event>
<event>
 5   0  0.4992668E-07  0.2699463E+04  0.7818609E-02  0.8335179E-01
        2   -1    0    0  501    0  0.00000000000E+00  0.00000000000E+00  0.13828486684E+04  0.13828486684E+04  0.25500000920E-02 0.  1.
       -2   -1    0    0    0  501  0.00000000000E+00  0.00000000000E+00 -0.13174078858E+04  0.13174078858E+04  0.25500000920E-02 0. -1.
    10030    2    1    2    0    0  0.00000000000E+00  0.00000000000E+00  0.65440782629E+02  0.27002565542E+04  0.26994634583E+04 0.  0.
        1    1    3    3  502    0  0.91972962207E+03 -0.91158832195E+03 -0.34802235316E+03  0.13409009675E+04  0.50400001928E-02 0. -1.
       -1    1    3    3    0  502 -0.91972962207E+03  0.91158832195E+03  0.41346313579E+03  0.13593555867E+04  0.50400001928E-02 0.  1.
</event>
<event>
 5   0  0.4843887E-07  0.2700052E+04  0.7818609E-02  0.8334988E-01
       -2   -1    0    0    0  501  0.00000000000E+00  0.00000000000E+00  0.77886573304E+03  0.77886573305E+03  0.25500000920E-02 0.  1.
        2   -1    0    0  501    0  0.00000000000E+00  0.00000000000E+00 -0.23400309550E+04  0.23400309550E+04  0.25500000920E-02 0. -1.
    10030    2    1    2    0    0  0.00000000000E+00  0.00000000000E+00 -0.15611652220E+04  0.31188966880E+04  0.27000517959E+04 0.  0.
        5    1    3    3  502    0 -0.10960895699E+04 -0.62795872723E+03 -0.13306977591E+04  0.18348087433E+04  0.46999998093E+01 0. -1.
       -5    1    3    3    0  502  0.10960895699E+04  0.62795872723E+03 -0.23046746289E+03  0.12840879448E+04  0.46999998093E+01 0.  1.
</event>
<event>
 5   0  0.4983208E-07  0.2698963E+04  0.7818609E-02  0.8335341E-01
       -2   -1    0    0    0  501  0.00000000000E+00  0.00000000000E+00  0.10799141066E+04  0.10799141066E+04  0.25500000920E-02 0. -1.
        2   -1    0    0  501    0  0.00000000000E+00  0.00000000000E+00 -0.16863385129E+04  0.16863385129E+04  0.25500000920E-02 0.  1.
    10030    2    1    2    0    0  0.00000000000E+00  0.00000000000E+00 -0.60642440627E+03  0.27662526195E+04  0.26989633184E+04 0.  0.
        4    1    3    3  502    0  0.36520902908E+03  0.79693860077E+03  0.74833477009E+03  0.11526037087E+04  0.12699999809E+01 0. -1.
       -4    1    3    3    0  502 -0.36520902908E+03 -0.79693860077E+03 -0.13547591764E+04  0.16136489107E+04  0.12699999809E+01 0.  1.
</event>
<event>
 5   0  0.1971600E-07  0.2699881E+04  0.7818609E-02  0.8335044E-01
       -1   -1    0    0    0  501  0.00000000000E+00  0.00000000000E+00  0.17707688583E+04  0.17707688583E+04  0.50400001928E-02 0. -1.
        1   -1    0    0  501    0  0.00000000000E+00  0.00000000000E+00 -0.10291230580E+04  0.10291230580E+04  0.50400001928E-02 0.  1.
    10030    2    1    2    0    0  0.00000000000E+00  0.00000000000E+00  0.74164580027E+03  0.27998919163E+04  0.26998807844E+04 0.  0.
        5    1    3    3  502    0  0.10675503085E+04 -0.61987206532E+03 -0.19568343699E+03  0.12498876494E+04  0.46999998093E+01 0.  1.
       -5    1    3    3    0  502 -0.10675503085E+04  0.61987206532E+03  0.93732923725E+03  0.15500042670E+04  0.46999998093E+01 0. -1.
</event>
<event>
 5   0  0.1937896E-07  0.2699259E+04  0.7818609E-02  0.8335245E-01
        1   -1    0    0  501    0  0.00000000000E+00  0.00000000000E+00  0.19503048010E+04  0.19503048011E+04  0.50400001928E-02 0. -1.
       -1   -1    0    0    0  501  0.00000000000E+00  0.00000000000E+00 -0.93395644878E+03  0.93395644879E+03  0.50400001928E-02 0.  1.
    10030    2    1    2    0    0  0.00000000000E+00  0.00000000000E+00  0.10163483523E+04  0.28842612498E+04  0.26992589695E+04 0.  0.
        3    1    3    3  502    0 -0.71653046769E+03 -0.56304916317E+02 -0.71244704925E+03  0.10120113453E+04  0.10100000352E+00 0.  1.
       -3    1    3    3    0  502  0.71653046769E+03  0.56304916317E+02  0.17287954015E+04  0.18722499046E+04  0.10100000352E+00 0. -1.
</event>
<event>
 5   0  0.1964242E-07  0.2699020E+04  0.7818609E-02  0.8335323E-01
       -1   -1    0    0    0  501  0.00000000000E+00  0.00000000000E+00  0.11595921648E+04  0.11595921648E+04  0.50400001928E-02 0. -1.
        1   -1    0    0  501    0  0.00000000000E+00  0.00000000000E+00 -0.15705321350E+04  0.15705321350E+04  0.50400001928E-02 0.  1.
    10030    2    1    2    0    0  0.00000000000E+00  0.00000000000E+00 -0.41093997018E+03  0.27301242998E+04  0.26990196430E+04 0.  0.
        2    1    3    3  502    0 -0.12921259649E+04 -0.26779299333E+03 -0.49134719328E+03  0.14080925612E+04  0.25500000920E-02 0. -1.
       -2    1    3    3    0  502  0.12921259649E+04  0.26779299333E+03  0.80407223098E+02  0.13220317386E+04  0.25500000920E-02 0.  1.
</event>
<event>
 5   0  0.1964242E-07  0.2699506E+04  0.7818609E-02  0.8335165E-01
        1   -1    0    0  501    0  0.00000000000E+00  0.00000000000E+00  0.57319164434E+03  0.57319164436E+03  0.50400001928E-02 0.  1.
       -1   -1    0    0    0  501  0.00000000000E+00  0.00000000000E+00 -0.31784016061E+04  0.31784016061E+04  0.50400001928E-02 0. -1.
    10030    2    1    2    0    0  0.00000000000E+00  0.00000000000E+00 -0.26052099618E+04  0.37515932505E+04  0.26995060608E+04 0.  0.
        2    1    3    3  502    0 -0.24949316548E+03  0.57632148591E+03  0.35778598737E+03  0.72277528147E+03  0.25500000920E-02 0.  1.
       -2    1    3    3    0  502  0.24949316548E+03 -0.57632148591E+03 -0.29629959491E+04  0.30288179690E+04  0.25500000920E-02 0. -1.
</event>
<event>
 5   0  0.1971600E-07  0.2700018E+04  0.7818609E-02  0.8334999E-01
       -1   -1    0    0    0  501  0.00000000000E+00  0.00000000000E+00  0.71186560183E+03  0.71186560185E+03  0.50400001928E-02 0. -1.
        1   -1    0    0  501    0  0.00000000000E+00  0.00000000000E+00 -0.25602091064E+04  0.25602091064E+04  0.50400001928E-02 0.  1.
    10030    2    1    2    0    0  0.00000000000E+00  0.00000000000E+00 -0.18483435045E+04  0.32720747082E+04  0.27000183676E+04 0.  0.
        5    1    3    3  502    0 -0.37206376346E+03 -0.12849542383E+04 -0.70414495699E+03  0.15117476804E+04  0.46999998093E+01 0. -1.
       -5    1    3    3    0  502  0.37206376346E+03  0.12849542383E+04 -0.11441985476E+04  0.17603270278E+04  0.46999998093E+01 0.  1.
</event>
<event>
 5   0  0.4992668E-07  0.2690961E+04  0.7818609E-02  0.8337944E-01
        2   -1    0    0  501    0  0.00000000000E+00  0.00000000000E+00  0.17216230130E+04  0.17216230130E+04  0.25500000920E-02 0. -1.
       -2   -1    0    0    0  501  0.00000000000E+00  0.00000000000E+00 -0.10515177645E+04  0.10515177645E+04  0.25500000920E-02 0.  1.
    10030    2    1    2    0    0  0.00000000000E+00  0.00000000000E+00  0.67010524850E+03  0.27731407775E+04  0.26909605585E+04 0.  0.
        1    1    3    3  502    0  0.44885245901E+03 -0.12604931316E+04  0.18929152117E+03  0.13513484912E+04  0.50400001928E-02 0.  1.
       -1    1    3    3    0  502 -0.44885245901E+03  0.12604931316E+04  0.48081372733E+03  0.14217922862E+04  0.50400001928E-02 0. -1.
</event>
<event>
 5   0  0.1965415E-07  0.2698097E+04  0.7818609E-02  0.8335623E-01
       -1   -1    0    0    0  501  0.00000000000E+00  0.00000000000E+00  0.19080006456E+04  0.19080006456E+04  0.50400001928E-02 0.  1.
        1   -1    0    0  501    0  0.00000000000E+00  0.00000000000E+00 -0.95384246563E+03  0.95384246564E+03  0.50400001928E-02 0. -1.
    10030    2    1    2    0    0  0.00000000000E+00  0.00000000000E+00  0.95415818000E+03  0.28618431113E+04  0.26980971371E+04 0.  0.
        4    1    3    3  502    0 -0.38696442322E+03  0.49720245118E+03  0.17423614052E+04  0.18527753834E+04  0.12699999809E+01 0.  1.
       -4    1    3    3    0  502  0.38696442322E+03 -0.49720245118E+03 -0.78820322518E+03  0.10090677278E+04  0.12699999809E+01 0. -1.
</event>
<event>
 5   0  0.1888149E-07  0.2700424E+04  0.7818609E-02  0.8334867E-01
       -1   -1    0    0    0  501  0.00000000000E+00  0.00000000000E+00  0.14523135389E+04  0.14523135389E+04  0.50400001928E-02 0. -1.
        1   -1    0    0  501    0  0.00000000000E+00  0.00000000000E+00 -0.12552886590E+04  0.12552886590E+04  0.50400001928E-02 0.  1.
    10030    2    1    2    0    0  0.00000000000E+00  0.00000000000E+00  0.19702487992E+03  0.27076021979E+04  0.27004241998E+04 0.  0.
        1    1    3    3  502    0 -0.76166995266E+03 -0.28578761494E+03  0.11789932205E+04  0.14324247595E+04  0.50400001928E-02 0. -1.
       -1    1    3    3    0  502  0.76166995266E+03  0.28578761494E+03 -0.98196834054E+03  0.12751774384E+04  0.50400001928E-02 0.  1.
</event>
<event>
 5   0  0.4983208E-07  0.2700242E+04  0.7818609E-02  0.8334926E-01
       -2   -1    0    0    0  501  0.00000000000E+00  0.00000000000E+00  0.93779229830E+03  0.93779229830E+03  0.25500000920E-02 0.  1.
        2   -1    0    0  501    0  0.00000000000E+00  0.00000000000E+00 -0.19437424203E+04  0.19437424203E+04  0.25500000920E-02 0. -1.
    10030    2    1    2    0    0  0.00000000000E+00  0.00000000000E+00 -0.10059501220E+04  0.28815347186E+04  0.27002419682E+04 0.  0.
        4    1    3    3  502    0 -0.96338367573E+03 -0.40330627099E+02  0.50550863726E+03  0.10887034773E+04  0.12699999809E+01 0.  1.
       -4    1    3    3    0  502  0.96338367573E+03  0.40330627099E+02 -0.15114587593E+04  0.17928312414E+04  0.12699999809E+01 0. -1.
</event>
<event>
 5   0  0.1971600E-07  0.2699688E+04  0.7818609E-02  0.8335106E-01
       -1   -1    0    0    0  501  0.00000000000E+00  0.00000000000E+00  0.11980388117E+04  0.11980388117E+04  0.50400001928E-02 0.  1.
        1   -1    0    0  501    0  0.00000000000E+00  0.00000000000E+00 -0.15208851808E+04  0.15208851808E+04  0.50400001928E-02 0. -1.
    10030    2    1    2    0    0  0.00000000000E+00  0.00000000000E+00 -0.32284636918E+03  0.27189239925E+04  0.26996884818E+04 0.  0.
        5    1    3    3  502    0  0.11903311188E+04  0.90164554672E+02 -0.79602353404E+03  0.14348147532E+04  0.46999998093E+01 0. -1.
       -5    1    3    3    0  502 -0.11903311188E+04 -0.90164554672E+02  0.47317716486E+03  0.12841092393E+04  0.46999998093E+01 0.  1.
</event>
<event>
 5   0  0.1641625E-07  0.2699908E+04  0.7818609E-02  0.8335035E-01
        3   -1    0    0  501    0  0.00000000000E+00  0.00000000000E+00  0.94092269849E+03  0.94092270391E+03  0.10100000352E+00 0.  1.
       -3   -1    0    0    0  501  0.00000000000E+00  0.00000000000E+00 -0.19367960768E+04  0.19367960794E+04  0.10100000352E+00 0. -1.
    10030    2    1    2    0    0  0.00000000000E+00  0.00000000000E+00 -0.99587337832E+03  0.28777187833E+04  0.26999077040E+04 0.  0.
        2    1    3    3  502    0  0.93584139491E+03  0.97200711235E+03 -0.54288583547E+03  0.14544146497E+04  0.25500000920E-02 0. -1.
       -2    1    3    3    0  502 -0.93584139491E+03 -0.97200711235E+03 -0.45298754285E+03  0.14233041337E+04  0.25500000920E-02 0.  1.
</event>
<event>
 5   0  0.1965415E-07  0.2700109E+04  0.7818609E-02  0.8334970E-01
        1   -1    0    0  501    0  0.00000000000E+00  0.00000000000E+00  0.18077444651E+04  0.18077444651E+04  0.50400001928E-02 0.  1.
       -1   -1    0    0    0  501  0.00000000000E+00  0.00000000000E+00 -0.10082437367E+04  0.10082437367E+04  0.50400001928E-02 0. -1.
    10030    2    1    2    0    0  0.00000000000E+00  0.00000000000E+00  0.79950072843E+03  0.28159882018E+04  0.27001089122E+04 0.  0.
        4    1    3    3  502    0 -0.19666132503E+03 -0.43022645211E+03  0.17184831302E+04  0.17824018510E+04  0.12699999809E+01 0.  1.
       -4    1    3    3    0  502  0.19666132503E+03  0.43022645211E+03 -0.91898240174E+03  0.10335863508E+04  0.12699999809E+01 0. -1.
</event>
<event>
 5   0  0.4992668E-07  0.2699833E+04  0.7818609E-02  0.8335059E-01
       -2   -1    0    0    0  501  0.00000000000E+00  0.00000000000E+00  0.12533717536E+04  0.12533717536E+04  0.25500000920E-02 0. -1.
        2   -1    0    0  501    0  0.00000000000E+00  0.00000000000E+00 -0.14538977414E+04  0.14538977414E+04  0.25500000920E-02 0.  1.
    10030    2    1    2    0    0  0.00000000000E+00  0.00000000000E+00 -0.20052598773E+03  0.27072694950E+04  0.26998328553E+04 0.  0.
        1    1    3    3  502    0 -0.97827975770E+03  0.43400867217E+03  0.72473009085E+03  0.12925279558E+04  0.50400001928E-02 0. -1.
       -1    1    3    3    0  502  0.97827975770E+03 -0.43400867217E+03 -0.92525607857E+03  0.14147415392E+04  0.50400001928E-02 0.  1.
</event>
<event>
 5   0  0.1965415E-07  0.2702799E+04  0.7818609E-02  0.8334097E-01
        1   -1    0    0  501    0  0.00000000000E+00  0.00000000000E+00  0.29127395116E+04  0.29127395116E+04  0.50400001928E-02 0. -1.
       -1   -1    0    0    0  501  0.00000000000E+00  0.00000000000E+00 -0.62699754049E+03  0.62699754051E+03  0.50400001928E-02 0.  1.
    10030    2    1    2    0    0  0.00000000000E+00  0.00000000000E+00  0.22857419711E+04  0.35397370521E+04  0.27027989270E+04 0.  0.
        4    1    3    3  502    0 -0.47748834721E+03  0.27575140434E+03  0.27587153702E+04  0.28132803034E+04  0.12699999809E+01 0. -1.
       -4    1    3    3    0  502  0.47748834721E+03 -0.27575140434E+03 -0.47297339905E+03  0.72645674877E+03  0.12699999809E+01 0.  1.
</event>
<event>
 5   0  0.4992668E-07  0.2701944E+04  0.7818609E-02  0.8334375E-01
       -2   -1    0    0    0  501  0.00000000000E+00  0.00000000000E+00  0.90803988196E+03  0.90803988197E+03  0.25500000920E-02 0. -1.
        2   -1    0    0  501    0  0.00000000000E+00  0.00000000000E+00 -0.20099612780E+04  0.20099612780E+04  0.25500000920E-02 0.  1.
    10030    2    1    2    0    0  0.00000000000E+00  0.00000000000E+00 -0.11019213960E+04  0.29180011599E+04  0.27019437460E+04 0.  0.
        1    1    3    3  502    0  0.16246974402E+03  0.33860358753E+02 -0.19989105469E+04  0.20057882032E+04  0.50400001928E-02 0.  1.
       -1    1    3    3    0  502 -0.16246974402E+03 -0.33860358753E+02  0.89698915088E+03  0.91221295674E+03  0.50400001928E-02 0. -1.
</event>
<event>
 5   0  0.5043890E-07  0.2700081E+04  0.7818609E-02  0.8334979E-01
        2   -1    0    0  501    0  0.00000000000E+00  0.00000000000E+00  0.25779185235E+04  0.25779185235E+04  0.25500000920E-02 0.  1.
       -2   -1    0    0    0  501  0.00000000000E+00  0.00000000000E+00 -0.70700813034E+03  0.70700813034E+03  0.25500000920E-02 0. -1.
    10030    2    1    2    0    0  0.00000000000E+00  0.00000000000E+00  0.18709103931E+04  0.32849266538E+04  0.27000810028E+04 0.  0.
        3    1    3    3  502    0 -0.23163487799E+03  0.96367679708E+03  0.20506771909E+04  0.22776313656E+04  0.10100000352E+00 0.  1.
       -3    1    3    3    0  502  0.23163487799E+03 -0.96367679708E+03 -0.17976679778E+03  0.10072952882E+04  0.10100000352E+00 0. -1.
</event>
<event>
 5   0  0.5043890E-07  0.2700139E+04  0.7818609E-02  0.8334960E-01
       -2   -1    0    0    0  501  0.00000000000E+00  0.00000000000E+00  0.12296681938E+04  0.12296681938E+04  0.25500000920E-02 0. -1.
        2   -1    0    0  501    0  0.00000000000E+00  0.00000000000E+00 -0.14822593359E+04  0.14822593359E+04  0.25500000920E-02 0.  1.
    10030    2    1    2    0    0  0.00000000000E+00  0.00000000000E+00 -0.25259114212E+03  0.27119275297E+04  0.27001386337E+04 0.  0.
        3    1    3    3  502    0  0.86758970755E+03 -0.20744900363E+02  0.91240776697E+03  0.12592180887E+04  0.10100000352E+00 0. -1.
       -3    1    3    3    0  502 -0.86758970755E+03  0.20744900363E+02 -0.11649989091E+04  0.14527094410E+04  0.10100000352E+00 0.  1.
</event>
<event>
 5   0  0.1888149E-07  0.2699181E+04  0.7818609E-02  0.8335271E-01
        1   -1    0    0  501    0  0.00000000000E+00  0.00000000000E+00  0.12519674759E+04  0.12519674760E+04  0.50400001928E-02 0.  1.
       -1   -1    0    0    0  501  0.00000000000E+00  0.00000000000E+00 -0.14548259782E+04  0.14548259782E+04  0.50400001928E-02 0. -1.
    10030    2    1    2    0    0  0.00000000000E+00  0.00000000000E+00 -0.20285850223E+03  0.27067934541E+04  0.26991812150E+04 0.  0.
        1    1    3    3  502    0 -0.14243481190E+03 -0.10184347707E+04  0.77504808421E+03  0.12877098239E+04  0.50400001928E-02 0. -1.
       -1    1    3    3    0  502  0.14243481190E+03  0.10184347707E+04 -0.97790658644E+03  0.14190836302E+04  0.50400001928E-02 0.  1.
</event>
<event>
 5   0  0.1971600E-07  0.2701443E+04  0.7818609E-02  0.8334537E-01
        1   -1    0    0  501    0  0.00000000000E+00  0.00000000000E+00  0.11684300985E+04  0.11684300985E+04  0.50400001928E-02 0. -1.
       -1   -1    0    0    0  501  0.00000000000E+00  0.00000000000E+00 -0.15614529305E+04  0.15614529305E+04  0.50400001928E-02 0.  1.
    10030    2    1    2    0    0  0.00000000000E+00  0.00000000000E+00 -0.39302283199E+03  0.27298830290E+04  0.27014430228E+04 0.  0.
        5    1    3    3  502    0  0.12610739912E+04 -0.45832115764E+03 -0.39763562097E+02  0.13423744357E+04  0.46999998093E+01 0. -1.
       -5    1    3    3    0  502 -0.12610739912E+04  0.45832115764E+03 -0.35325926990E+03  0.13875085933E+04  0.46999998093E+01 0.  1.
</event>
<event>
 5   0  0.5043890E-07  0.2700011E+04  0.7818609E-02  0.8335001E-01
        2   -1    0    0  501    0  0.00000000000E+00  0.00000000000E+00  0.10854622915E+04  0.10854622915E+04  0.25500000920E-02 0. -1.
       -2   -1    0    0    0  501  0.00000000000E+00  0.00000000000E+00 -0.16790219554E+04  0.16790219554E+04  0.25500000920E-02 0.  1.
    10030    2    1    2    0    0  0.00000000000E+00  0.00000000000E+00 -0.59355966389E+03  0.27644842470E+04  0.27000111254E+04 0.  0.
        3    1    3    3  502    0  0.12284349425E+04  0.18950366853E+03 -0.83619099917E+03  0.14980585589E+04  0.10100000352E+00 0.  1.
       -3    1    3    3    0  502 -0.12284349425E+04 -0.18950366853E+03  0.24263133528E+03  0.12664256881E+04  0.10100000352E+00 0. -1.
</event>
<event>
 5   0  0.1971600E-07  0.2699959E+04  0.7818609E-02  0.8335018E-01
       -1   -1    0    0    0  501  0.00000000000E+00  0.00000000000E+00  0.13280924168E+04  0.13280924169E+04  0.50400001928E-02 0. -1.
        1   -1    0    0  501    0  0.00000000000E+00  0.00000000000E+00 -0.13722268568E+04  0.13722268568E+04  0.50400001928E-02 0.  1.
    10030    2    1    2    0    0  0.00000000000E+00  0.00000000000E+00 -0.44134439926E+02  0.27003192736E+04  0.26999585795E+04 0.  0.
        5    1    3    3  502    0 -0.71004827096E+03 -0.22350691028E+03  0.11042706510E+04  0.13317505948E+04  0.46999998093E+01 0. -1.
       -5    1    3    3    0  502  0.71004827096E+03  0.22350691028E+03 -0.11484050909E+04  0.13685686789E+04  0.46999998093E+01 0.  1.
</event>
<event>
 5   0  0.4735120E-07  0.2699827E+04  0.7818609E-02  0.8335061E-01
        2   -1    0    0  501    0  0.00000000000E+00  0.00000000000E+00  0.11719219624E+04  0.11719219624E+04  0.25500000920E-02 0. -1.
       -2   -1    0    0    0  501  0.00000000000E+00  0.00000000000E+00 -0.15549384846E+04  0.15549384846E+04  0.25500000920E-02 0.  1.
    10030    2    1    2    0    0  0.00000000000E+00  0.00000000000E+00 -0.38301652222E+03  0.27268604469E+04  0.26998270761E+04 0.  0.
        2    1    3    3  502    0 -0.11388024603E+04  0.68051484835E+03  0.60580660417E+02  0.13280216560E+04  0.25500000920E-02 0.  1.
       -2    1    3    3    0  502  0.11388024603E+04 -0.68051484835E+03 -0.44359718264E+03  0.13988387909E+04  0.25500000920E-02 0. -1.
</event>
<event>
 5   0  0.1937896E-07  0.2699679E+04  0.7818609E-02  0.8335109E-01
        1   -1    0    0  501    0  0.00000000000E+00  0.00000000000E+00  0.15509629619E+04  0.15509629619E+04  0.50400001928E-02 0. -1.
       -1   -1    0    0    0  501  0.00000000000E+00  0.00000000000E+00 -0.11747970562E+04  0.11747970562E+04  0.50400001928E-02 0.  1.
    10030    2    1    2    0    0  0.00000000000E+00  0.00000000000E+00  0.37616590574E+03  0.27257600181E+04  0.26996790342E+04 0.  0.
        3    1    3    3  502    0 -0.79366624679E+03  0.17773624843E+03  0.12757882235E+04  0.15129877352E+04  0.10100000352E+00 0. -1.
       -3    1    3    3    0  502  0.79366624679E+03 -0.17773624843E+03 -0.89962231781E+03  0.12127722829E+04  0.10100000352E+00 0.  1.
</event>
<event>
 5   0  0.1888149E-07  0.2701540E+04  0.7818609E-02  0.8334505E-01
        1   -1    0    0  501    0  0.00000000000E+00  0.00000000000E+00  0.21531340373E+04  0.21531340373E+04  0.50400001928E-02 0. -1.
       -1   -1    0    0    0  501  0.00000000000E+00  0.00000000000E+00 -0.84740646107E+03  0.84740646108E+03  0.50400001928E-02 0.  1.
    10030    2    1    2    0    0  0.00000000000E+00  0.00000000000E+00  0.13057275762E+04  0.30005404984E+04  0.27015400754E+04 0.  0.
        1    1    3    3  502    0  0.80135140347E+03  0.28600249469E+03  0.18180797432E+04  0.20073304291E+04  0.50400001928E-02 0. -1.
       -1    1    3    3    0  502 -0.80135140347E+03 -0.28600249469E+03 -0.51235216696E+03  0.99321006933E+03  0.50400001928E-02 0.  1.
</event>
<event>
 5   0  0.1965415E-07  0.2700119E+04  0.7818609E-02  0.8334966E-01
        1   -1    0    0  501    0  0.00000000000E+00  0.00000000000E+00  0.16465751882E+04  0.16465751883E+04  0.50400001928E-02 0.  1.
       -1   -1    0    0    0  501  0.00000000000E+00  0.00000000000E+00 -0.11069407089E+04  0.11069407089E+04  0.50400001928E-02 0. -1.
    10030    2    1    2    0    0  0.00000000000E+00  0.00000000000E+00  0.53963447933E+03  0.27535158972E+04  0.27001193353E+04 0.  0.
        4    1    3    3  502    0 -0.12091234245E+04  0.22538287692E+03 -0.29786227482E+03  0.12655040279E+04  0.12699999809E+01 0. -1.
       -4    1    3    3    0  502  0.12091234245E+04 -0.22538287692E+03  0.83749675416E+03  0.14880118693E+04  0.12699999809E+01 0.  1.
</event>
<event>
 5   0  0.4983208E-07  0.2699609E+04  0.7818609E-02  0.8335132E-01
        2   -1    0    0  501    0  0.00000000000E+00  0.00000000000E+00  0.26303620458E+04  0.26303620458E+04  0.25500000920E-02 0. -1.
       -2   -1    0    0    0  501  0.00000000000E+00  0.00000000000E+00 -0.69266986795E+03  0.69266986796E+03  0.25500000920E-02 0.  1.
    10030    2    1    2    0    0  0.00000000000E+00  0.00000000000E+00  0.19376921778E+04  0.33230319137E+04  0.26996092539E+04 0.  0.
        4    1    3    3  502    0 -0.42689858203E+03  0.19375129510E+02  0.25448956131E+04  0.25805257389E+04  0.12699999809E+01 0. -1.
       -4    1    3    3    0  502  0.42689858203E+03 -0.19375129510E+02 -0.60720343523E+03  0.74250617481E+03  0.12699999809E+01 0.  1.
</event>
<event>
 5   0  0.1937896E-07  0.2701371E+04  0.7818609E-02  0.8334560E-01
        1   -1    0    0  501    0  0.00000000000E+00  0.00000000000E+00  0.16632366820E+04  0.16632366820E+04  0.50400001928E-02 0. -1.
       -1   -1    0    0    0  501  0.00000000000E+00  0.00000000000E+00 -0.10968684571E+04  0.10968684571E+04  0.50400001928E-02 0.  1.
    10030    2    1    2    0    0  0.00000000000E+00  0.00000000000E+00  0.56636822493E+03  0.27601051391E+04  0.27013713948E+04 0.  0.
        3    1    3    3  502    0 -0.91410491321E+03  0.63240402765E+02 -0.73074493625E+03  0.11719962939E+04  0.10100000352E+00 0.  1.
       -3    1    3    3    0  502  0.91410491321E+03 -0.63240402765E+02  0.12971131612E+04  0.15881088451E+04  0.10100000352E+00 0. -1.
</event>
<event>
 5   0  0.1971600E-07  0.2698927E+04  0.7818609E-02  0.8335353E-01
        1   -1    0    0  501    0  0.00000000000E+00  0.00000000000E+00  0.17599996165E+04  0.17599996165E+04  0.50400001928E-02 0.  1.
       -1   -1    0    0    0  501  0.00000000000E+00  0.00000000000E+00 -0.10346884019E+04  0.10346884019E+04  0.50400001928E-02 0. -1.
    10030    2    1    2    0    0  0.00000000000E+00  0.00000000000E+00  0.72531121462E+03  0.27946880185E+04  0.26989265945E+04 0.  0.
        5    1    3    3  502    0 -0.12012546549E+04 -0.47575108002E+03  0.76593172563E+03  0.15020071020E+04  0.46999998093E+01 0.  1.
       -5    1    3    3    0  502  0.12012546549E+04  0.47575108002E+03 -0.40620511015E+02  0.12926809165E+04  0.46999998093E+01 0. -1.
</event>
<event>
 5   0  0.1965415E-07  0.2699693E+04  0.7818609E-02  0.8335105E-01
        1   -1    0    0  501    0  0.00000000000E+00  0.00000000000E+00  0.23060507491E+04  0.23060507491E+04  0.50400001928E-02 0.  1.
       -1   -1    0    0    0  501  0.00000000000E+00  0.00000000000E+00 -0.79013262071E+03  0.79013262073E+03  0.50400001928E-02 0. -1.
    10030    2    1    2    0    0  0.00000000000E+00  0.00000000000E+00  0.15159181283E+04  0.30961833698E+04  0.26996932580E+04 0.  0.
        4    1    3    3  502    0  0.11994972724E+04 -0.44743356876E+03  0.26722175676E+03  0.13078224593E+04  0.12699999809E+01 0.  1.
       -4    1    3    3    0  502 -0.11994972724E+04  0.44743356876E+03  0.12486963716E+04  0.17883609105E+04  0.12699999809E+01 0. -1.
</event>
<event>
 5   0  0.4735120E-07  0.2693095E+04  0.7818609E-02  0.8337249E-01
        2   -1    0    0  501    0  0.00000000000E+00  0.00000000000E+00  0.15919235929E+04  0.15919235929E+04  0.25500000920E-02 0.  1.
       -2   -1    0    0    0  501  0.00000000000E+00  0.00000000000E+00 -0.11389933073E+04  0.11389933073E+04  0.25500000920E-02 0. -1.
    10030    2    1    2    0    0  0.00000000000E+00  0.00000000000E+00  0.45293028561E+03  0.27309169003E+04  0.26930951102E+04 0.  0.
        2    1    3    3  502    0  0.62256832207E+03 -0.38658248653E+02 -0.98365288121E+03  0.11647569560E+04  0.25500000920E-02 0. -1.
       -2    1    3    3    0  502 -0.62256832207E+03  0.38658248653E+02  0.14365831668E+04  0.15661599443E+04  0.25500000920E-02 0.  1.
</event>
<event>
 5   0  0.4983208E-07  0.2703412E+04  0.7818609E-02  0.8333899E-01
       -2   -1    0    0    0  501  0.00000000000E+00  0.00000000000E+00  0.84895473109E+03  0.84895473109E+03  0.25500000920E-02 0. -1.
        2   -1    0    0  501    0  0.00000000000E+00  0.00000000000E+00 -0.21521873354E+04  0.21521873354E+04  0.25500000920E-02 0.  1.
    10030    2    1    2    0    0  0.00000000000E+00  0.00000000000E+00 -0.13032326043E+04  0.30011420665E+04  0.27034123774E+04 0.  0.
        4    1    3    3  502    0  0.10371891908E+04 -0.14419557375E+02  0.31051493705E+03  0.10827698187E+04  0.12699999809E+01 0. -1.
       -4    1    3    3    0  502 -0.10371891908E+04  0.14419557375E+02 -0.16137475413E+04  0.19183722478E+04  0.12699999809E+01 0.  1.
</event>
<event>
 5   0  0.4983208E-07  0.2699526E+04  0.7818609E-02  0.8335159E-01
       -2   -1    0    0    0  501  0.00000000000E+00  0.00000000000E+00  0.14408322666E+04  0.14408322666E+04  0.25500000920E-02 0. -1.
        2   -1    0    0  501    0  0.00000000000E+00  0.00000000000E+00 -0.12644494407E+04  0.12644494407E+04  0.25500000920E-02 0.  1.
    10030    2    1    2    0    0  0.00000000000E+00  0.00000000000E+00  0.17638282593E+03  0.27052817073E+04  0.26995255536E+04 0.  0.
        4    1    3    3  502    0  0.20606614555E+03  0.65153129183E+03 -0.10782930015E+04  0.12765867344E+04  0.12699999809E+01 0.  1.
       -4    1    3    3    0  502 -0.20606614555E+03 -0.65153129183E+03  0.12546758274E+04  0.14286949728E+04  0.12699999809E+01 0. -1.
</event>
<event>
 5   0  0.1965415E-07  0.2699392E+04  0.7818609E-02  0.8335202E-01
        1   -1    0    0  501    0  0.00000000000E+00  0.00000000000E+00  0.16792629823E+04  0.16792629823E+04  0.50400001928E-02 0. -1.
       -1   -1    0    0    0  501  0.00000000000E+00  0.00000000000E+00 -0.10848086643E+04  0.10848086644E+04  0.50400001928E-02 0.  1.
    10030    2    1    2    0    0  0.00000000000E+00  0.00000000000E+00  0.59445431793E+03  0.27640716466E+04  0.26993918077E+04 0.  0.
        4    1    3    3  502    0  0.81844762963E+03  0.94743912619E+03  0.81347001883E+03  0.14930614538E+04  0.12699999809E+01 0. -1.
       -4    1    3    3    0  502 -0.81844762963E+03 -0.94743912619E+03 -0.21901570090E+03  0.12710101929E+04  0.12699999809E+01 0.  1.
</event>
<event>
 5   0  0.4735120E-07  0.2700262E+04  0.7818609E-02  0.8334920E-01
        2   -1    0    0  501    0  0.00000000000E+00  0.00000000000E+00  0.17100891911E+04  0.17100891911E+04  0.25500000920E-02 0.  1.
       -2   -1    0    0    0  501  0.00000000000E+00  0.00000000000E+00 -0.10659409697E+04  0.10659409697E+04  0.25500000920E-02 0. -1.
    10030    2    1    2    0    0  0.00000000000E+00  0.00000000000E+00  0.64414822135E+03  0.27760301608E+04  0.27002623063E+04 0.  0.
        2    1    3    3  502    0 -0.33629784657E+03  0.43097871084E+03  0.15912238977E+04  0.16825077662E+04  0.25500000920E-02 0.  1.
       -2    1    3    3    0  502  0.33629784657E+03 -0.43097871084E+03 -0.94707567634E+03  0.10935223946E+04  0.25500000920E-02 0. -1.
</event>
<event>
 5   0  0.4983208E-07  0.2700524E+04  0.7818609E-02  0.8334835E-01
       -2   -1    0    0    0  501  0.00000000000E+00  0.00000000000E+00  0.10292154477E+04  0.10292154478E+04  0.25500000920E-02 0. -1.
        2   -1    0    0  501    0  0.00000000000E+00  0.00000000000E+00 -0.17714537534E+04  0.17714537534E+04  0.25500000920E-02 0.  1.
    10030    2    1    2    0    0  0.00000000000E+00  0.00000000000E+00 -0.74223830563E+03  0.28006692011E+04  0.27005240735E+04 0.  0.
        4    1    3    3  502    0 -0.66421946302E+03  0.27332304874E+02  0.84773929851E+03  0.10773105778E+04  0.12699999809E+01 0. -1.
       -4    1    3    3    0  502  0.66421946302E+03 -0.27332304874E+02 -0.15899776041E+04  0.17233586233E+04  0.12699999809E+01 0.  1.
</event>
<event>
 5   0  0.4843887E-07  0.2700327E+04  0.7818609E-02  0.8334899E-01
       -2   -1    0    0    0  501  0.00000000000E+00  0.00000000000E+00  0.10545000393E+04  0.10545000393E+04  0.25500000920E-02 0. -1.
        2   -1    0    0  501    0  0.00000000000E+00  0.00000000000E+00 -0.17287254964E+04  0.17287254964E+04  0.25500000920E-02 0.  1.
    10030    2    1    2    0    0  0.00000000000E+00  0.00000000000E+00 -0.67422545715E+03  0.27832255357E+04  0.27003267239E+04 0.  0.
        5    1    3    3  502    0 -0.41597276696E+03  0.10772075188E+04  0.38401584978E+03  0.12169222014E+04  0.46999998093E+01 0. -1.
       -5    1    3    3    0  502  0.41597276696E+03 -0.10772075188E+04 -0.10582413069E+04  0.15663033343E+04  0.46999998093E+01 0.  1.
</event>
<event>
 5   0  0.1964242E-07  0.2701556E+04  0.7818609E-02  0.8334500E-01
       -1   -1    0    0    0  501  0.00000000000E+00  0.00000000000E+00  0.11390943940E+04  0.11390943940E+04  0.50400001928E-02 0. -1.
        1   -1    0    0  501    0  0.00000000000E+00  0.00000000000E+00 -0.16017994101E+04  0.16017994101E+04  0.50400001928E-02 0.  1.
    10030    2    1    2    0    0  0.00000000000E+00  0.00000000000E+00 -0.46270501610E+03  0.27408938041E+04  0.27015556469E+04 0.  0.
        2    1    3    3  502    0 -0.49633375638E+03  0.52410144989E+02 -0.15048216321E+04  0.15854280701E+04  0.25500000920E-02 0.  1.
       -2    1    3    3    0  502  0.49633375638E+03 -0.52410144989E+02  0.10421166160E+04  0.11554657340E+04  0.25500000920E-02 0. -1.
</event>
<event>
 5   0  0.4843887E-07  0.2700180E+04  0.7818609E-02  0.8334947E-01
       -2   -1    0    0    0  501  0.00000000000E+00  0.00000000000E+00  0.71762576332E+03  0.71762576332E+03  0.25500000920E-02 0.  1.
        2   -1    0    0  501    0  0.00000000000E+00  0.00000000000E+00 -0.25399629878E+04  0.25399629878E+04  0.25500000920E-02 0. -1.
    10030    2    1    2    0    0  0.00000000000E+00  0.00000000000E+00 -0.18223372245E+04  0.32575887512E+04  0.27001799036E+04 0.  0.
        5    1    3    3  502    0  0.23117606849E+03  0.45063164898E+02  0.69263900406E+03  0.73160367920E+03  0.46999998093E+01 0.  1.
       -5    1    3    3    0  502 -0.23117606849E+03 -0.45063164898E+02 -0.25149762286E+04  0.25259850720E+04  0.46999998093E+01 0. -1.
</event>
<event>
 5   0  0.1641625E-07  0.2695558E+04  0.7818609E-02  0.8336448E-01
        3   -1    0    0  501    0  0.00000000000E+00  0.00000000000E+00  0.16569770673E+04  0.16569770704E+04  0.10100000352E+00 0.  1.
       -3   -1    0    0    0  501  0.00000000000E+00  0.00000000000E+00 -0.10962787182E+04  0.10962787228E+04  0.10100000352E+00 0. -1.
    10030    2    1    2    0    0  0.00000000000E+00  0.00000000000E+00  0.56069834916E+03  0.27532557932E+04  0.26955583511E+04 0.  0.
        4    1    3    3  502    0 -0.51201267868E+03 -0.36070496371E+03 -0.93861158324E+03  0.11283875093E+04  0.12699999809E+01 0. -1.
       -4    1    3    3    0  502  0.51201267868E+03  0.36070496371E+03  0.14993099324E+04  0.16248682840E+04  0.12699999809E+01 0.  1.
</event>
<event>
 5   0  0.1964242E-07  0.2697580E+04  0.7818609E-02  0.8335791E-01
        1   -1    0    0  501    0  0.00000000000E+00  0.00000000000E+00  0.13407955886E+04  0.13407955886E+04  0.50400001928E-02 0.  1.
       -1   -1    0    0    0  501  0.00000000000E+00  0.00000000000E+00 -0.13568317770E+04  0.13568317770E+04  0.50400001928E-02 0. -1.
    10030    2    1    2    0    0  0.00000000000E+00  0.00000000000E+00 -0.16036188390E+02  0.26976273656E+04  0.26975797011E+04 0.  0.
        2    1    3    3  502    0  0.54664497019E+03  0.12166389723E+04  0.19249217809E+03  0.13476217389E+04  0.25500000920E-02 0.  1.
       -2    1    3    3    0  502 -0.54664497019E+03 -0.12166389723E+04 -0.20852836648E+03  0.13500056267E+04  0.25500000920E-02 0. -1.
</event>
<event>
 5   0  0.4992668E-07  0.2700030E+04  0.7818609E-02  0.8334995E-01
       -2   -1    0    0    0  501  0.00000000000E+00  0.00000000000E+00  0.95932516880E+03  0.95932516881E+03  0.25500000920E-02 0.  1.
        2   -1    0    0  501    0  0.00000000000E+00  0.00000000000E+00 -0.18998156004E+04  0.18998156004E+04  0.25500000920E-02 0. -1.
    10030    2    1    2    0    0  0.00000000000E+00  0.00000000000E+00 -0.94049043159E+03  0.28591407692E+04  0.27000303121E+04 0.  0.
        1    1    3    3  502    0 -0.51238347530E+03  0.11792238827E+04 -0.34363523009E+02  0.12861907491E+04  0.50400001928E-02 0.  1.
       -1    1    3    3    0  502  0.51238347530E+03 -0.11792238827E+04 -0.90612690858E+03  0.15729500201E+04  0.50400001928E-02 0. -1.
</event>
<event>
 5   0  0.1965415E-07  0.2687276E+04  0.7818609E-02  0.8339145E-01
        1   -1    0    0  501    0  0.00000000000E+00  0.00000000000E+00  0.18424471253E+04  0.18424471253E+04  0.50400001928E-02 0. -1.
       -1   -1    0    0    0  501  0.00000000000E+00  0.00000000000E+00 -0.97987250838E+03  0.97987250839E+03  0.50400001928E-02 0.  1.
    10030    2    1    2    0    0  0.00000000000E+00  0.00000000000E+00  0.86257461694E+03  0.28223196337E+04  0.26872761572E+04 0.  0.
        4    1    3    3  502    0  0.38378249365E+03  0.10397185829E+04 -0.36653028363E+03  0.11673259167E+04  0.12699999809E+01 0.  1.
       -4    1    3    3    0  502 -0.38378249365E+03 -0.10397185829E+04  0.12291049006E+04  0.16549937171E+04  0.12699999809E+01 0. -1.
</event>
<event>
 5   0  0.5043890E-07  0.2700195E+04  0.7818609E-02  0.8334942E-01
       -2   -1    0    0    0  501  0.00000000000E+00  0.00000000000E+00  0.86823925479E+03  0.86823925479E+03  0.25500000920E-02 0.  1.
        2   -1    0    0  501    0  0.00000000000E+00  0.00000000000E+00 -0.20993795080E+04  0.20993795080E+04  0.25500000920E-02 0. -1.
    10030    2    1    2    0    0  0.00000000000E+00  0.00000000000E+00 -0.12311402532E+04  0.29676187628E+04  0.27001953259E+04 0.  0.
        3    1    3    3  502    0  0.12410181770E+04  0.76202512792E+02 -0.37314200236E+02  0.12439153099E+04  0.10100000352E+00 0.  1.
       -3    1    3    3    0  502 -0.12410181770E+04 -0.76202512792E+02 -0.11938260530E+04  0.17237034529E+04  0.10100000352E+00 0. -1.
</event>
<event>
 5   0  0.1971600E-07  0.2699661E+04  0.7818609E-02  0.8335115E-01
       -1   -1    0    0    0  501  0.00000000000E+00  0.00000000000E+00  0.20243008625E+04  0.20243008625E+04  0.50400001928E-02 0.  1.
        1   -1    0    0  501    0  0.00000000000E+00  0.00000000000E+00 -0.90008476540E+03  0.90008476541E+03  0.50400001928E-02 0. -1.
    10030    2    1    2    0    0  0.00000000000E+00  0.00000000000E+00  0.11242160971E+04  0.29243856280E+04  0.26996609913E+04 0.  0.
        5    1    3    3  502    0 -0.52027441292E+02 -0.17386447771E+03 -0.88680006431E+03  0.90519177820E+03  0.46999998093E+01 0. -1.
       -5    1    3    3    0  502  0.52027441292E+02  0.17386447771E+03  0.20110161615E+04  0.20191938498E+04  0.46999998093E+01 0.  1.
</event>
<event>
 5   0  0.1937896E-07  0.2700362E+04  0.7818609E-02  0.8334887E-01
       -1   -1    0    0    0  501  0.00000000000E+00  0.00000000000E+00  0.74575065349E+03  0.74575065350E+03  0.50400001928E-02 0.  1.
        1   -1    0    0  501    0  0.00000000000E+00  0.00000000000E+00 -0.24445023873E+04  0.24445023873E+04  0.50400001928E-02 0. -1.
    10030    2    1    2    0    0  0.00000000000E+00  0.00000000000E+00 -0.16987517338E+04  0.31902530408E+04  0.27003623852E+04 0.  0.
        3    1    3    3  502    0 -0.25004997107E+02  0.90981421674E+03 -0.20275995927E+04  0.22225092300E+04  0.10100000352E+00 0. -1.
       -3    1    3    3    0  502  0.25004997107E+02 -0.90981421674E+03  0.32884785890E+03  0.96774381081E+03  0.10100000352E+00 0.  1.
</event>
<event>
 5   0  0.4735120E-07  0.2700024E+04  0.7818609E-02  0.8334997E-01
        2   -1    0    0  501    0  0.00000000000E+00  0.00000000000E+00  0.24074928234E+04  0.24074928234E+04  0.25500000920E-02 0. -1.
       -2   -1    0    0    0  501  0.00000000000E+00  0.00000000000E+00 -0.75702489983E+03  0.75702489984E+03  0.25500000920E-02 0.  1.
    10030    2    1    2    0    0  0.00000000000E+00  0.00000000000E+00  0.16504679235E+04  0.31645177232E+04  0.27000237136E+04 0.  0.
        2    1    3    3  502    0  0.20095290168E+03  0.11024551162E+04  0.17075677419E+04  0.20424438659E+04  0.25500000920E-02 0.  1.
       -2    1    3    3    0  502 -0.20095290168E+03 -0.11024551162E+04 -0.57099818406E+02  0.11220738573E+04  0.25500000920E-02 0. -1.
</event>
<event>
 5   0  0.4843887E-07  0.2700233E+04  0.7818609E-02  0.8334929E-01
        2   -1    0    0  501    0  0.00000000000E+00  0.00000000000E+00  0.19556744005E+04  0.19556744005E+04  0.25500000920E-02 0. -1.
       -2   -1    0    0    0  501  0.00000000000E+00  0.00000000000E+00 -0.93206423345E+03  0.93206423345E+03  0.25500000920E-02 0.  1.
    10030    2    1    2    0    0  0.00000000000E+00  0.00000000000E+00  0.10236101671E+04  0.28877386340E+04  0.27002327018E+04 0.  0.
        5    1    3    3  502    0 -0.11537789665E+04 -0.37738338347E+01 -0.23800318699E+03  0.11780864792E+04  0.46999998093E+01 0. -1.
       -5    1    3    3    0  502  0.11537789665E+04  0.37738338347E+01  0.12616133541E+04  0.17096521548E+04  0.46999998093E+01 0.  1.
</event>
<event>
 5   0  0.1965415E-07  0.2698448E+04  0.7818609E-02  0.8335509E-01
       -1   -1    0    0    0  501  0.00000000000E+00  0.00000000000E+00  0.12166220579E+04  0.12166220579E+04  0.50400001928E-02 0. -1.
        1   -1    0    0  501    0  0.00000000000E+00  0.00000000000E+00 -0.14962781106E+04  0.14962781106E+04  0.50400001928E-02 0.  1.
    10030    2    1    2    0    0  0.00000000000E+00  0.00000000000E+00 -0.27965605266E+03  0.27129001685E+04  0.26984476679E+04 0.  0.
        4    1    3    3  502    0  0.11112374981E+04  0.67387689349E+03 -0.50432255696E+03  0.13940235648E+04  0.12699999809E+01 0.  1.
       -4    1    3    3    0  502 -0.11112374981E+04 -0.67387689349E+03  0.22466650430E+03  0.13188766037E+04  0.12699999809E+01 0. -1.
</event>
<event>
 5   0  0.4983208E-07  0.2700188E+04  0.7818609E-02  0.8334944E-01
       -2   -1    0    0    0  501  0.00000000000E+00  0.00000000000E+00  0.99294908376E+03  0.99294908376E+03  0.25500000920E-02 0. -1.
        2   -1    0    0  501    0  0.00000000000E+00  0.00000000000E+00 -0.18356973047E+04  0.18356973047E+04  0.25500000920E-02 0.  1.
    10030    2    1    2    0    0  0.00000000000E+00  0.00000000000E+00 -0.84274822099E+03  0.28286463885E+04  0.27001881096E+04 0.  0.
        4    1    3    3  502    0 -0.65403156634E+03  0.97841799955E+03  0.27168387908E+03  0.12078380747E+04  0.12699999809E+01 0.  1.
       -4    1    3    3    0  502  0.65403156634E+03 -0.97841799955E+03 -0.11144321001E+04  0.16208083138E+04  0.12699999809E+01 0. -1.
</event>
<event>
 5   0  0.1971600E-07  0.2699326E+04  0.7818609E-02  0.8335224E-01
       -1   -1    0    0    0  501  0.00000000000E+00  0.00000000000E+00  0.87999114158E+03  0.87999114159E+03  0.50400001928E-02 0.  1.
        1   -1    0    0  501    0  0.00000000000E+00  0.00000000000E+00 -0.20700102111E+04  0.20700102111E+04  0.50400001928E-02 0. -1.
    10030    2    1    2    0    0  0.00000000000E+00  0.00000000000E+00 -0.11900190696E+04  0.29500013527E+04  0.26993263225E+04 0.  0.
        5    1    3    3  502    0 -0.30955697140E+02 -0.84905104244E+03  0.55105324034E+03  0.10126834113E+04  0.46999998093E+01 0.  1.
       -5    1    3    3    0  502  0.30955697140E+02  0.84905104244E+03 -0.17410723099E+04  0.19373179414E+04  0.46999998093E+01 0. -1.
</event>
<event>
 5   0  0.4735120E-07  0.2699514E+04  0.7818609E-02  0.8335163E-01
        2   -1    0    0  501    0  0.00000000000E+00  0.00000000000E+00  0.62808036003E+03  0.62808036003E+03  0.25500000920E-02 0. -1.
       -2   -1    0    0    0  501  0.00000000000E+00  0.00000000000E+00 -0.29006549255E+04  0.29006549255E+04  0.25500000920E-02 0.  1.
    10030    2    1    2    0    0  0.00000000000E+00  0.00000000000E+00 -0.22725745655E+04  0.35287352856E+04  0.26995143192E+04 0.  0.
        2    1    3    3  502    0  0.76112954088E+03  0.22492317426E+03  0.29083068055E+03  0.84527575209E+03  0.25500000920E-02 0. -1.
       -2    1    3    3    0  502 -0.76112954088E+03 -0.22492317426E+03 -0.25634052460E+04  0.26834595335E+04  0.25500000920E-02 0.  1.
</event>
<event>
 5   0  0.5043890E-07  0.2698575E+04  0.7818609E-02  0.8335467E-01
       -2   -1    0    0    0  501  0.00000000000E+00  0.00000000000E+00  0.13115765329E+04  0.13115765329E+04  0.25500000920E-02 0. -1.
        2   -1    0    0  501    0  0.00000000000E+00  0.00000000000E+00 -0.13880829934E+04  0.13880829934E+04  0.25500000920E-02 0.  1.
    10030    2    1    2    0    0  0.00000000000E+00  0.00000000000E+00 -0.76506460445E+02  0.26996595263E+04  0.26985752388E+04 0.  0.
        3    1    3    3  502    0 -0.10407892552E+04  0.75714605981E+03 -0.44346491430E+03  0.13613131785E+04  0.10100000352E+00 0.  1.
       -3    1    3    3    0  502  0.10407892552E+04 -0.75714605981E+03  0.36695845385E+03  0.13383463478E+04  0.10100000352E+00 0. -1.
</event>
<event>
 5   0  0.1964242E-07  0.2698760E+04  0.7818609E-02  0.8335407E-01
        1   -1    0    0  501    0  0.00000000000E+00  0.00000000000E+00  0.11733028387E+04  0.11733028387E+04  0.50400001928E-02 0. -1.
       -1   -1    0    0    0  501  0.00000000000E+00  0.00000000000E+00 -0.15518815293E+04  0.15518815293E+04  0.50400001928E-02 0.  1.
    10030    2    1    2    0    0  0.00000000000E+00  0.00000000000E+00 -0.37857869061E+03  0.27251843680E+04  0.26987604589E+04 0.  0.
        2    1    3    3  502    0  0.88153872411E+02 -0.33095604489E+03 -0.15072598108E+04  0.15456827444E+04  0.25500000920E-02 0.  1.
       -2    1    3    3    0  502 -0.88153872411E+02  0.33095604489E+03  0.11286811202E+04  0.11795016236E+04  0.25500000920E-02 0. -1.
</event>
<event>
 5   0  0.1971600E-07  0.2700214E+04  0.7818609E-02  0.8334935E-01
        1   -1    0    0  501    0  0.00000000000E+00  0.00000000000E+00  0.29702553758E+04  0.29702553758E+04  0.50400001928E-02 0. -1.
       -1   -1    0    0    0  501  0.00000000000E+00  0.00000000000E+00 -0.61368101476E+03  0.61368101478E+03  0.50400001928E-02 0.  1.
    10030    2    1    2    0    0  0.00000000000E+00  0.00000000000E+00  0.23565743611E+04  0.35839363906E+04  0.27002143123E+04 0.  0.
        5    1    3    3  502    0 -0.57473855868E+02 -0.35861921630E+01  0.29686137488E+04  0.29691759437E+04  0.46999998093E+01 0. -1.
       -5    1    3    3    0  502  0.57473855868E+02  0.35861921630E+01 -0.61203938777E+03  0.61476044690E+03  0.46999998093E+01 0.  1.
</event>
<event>
 5   0  0.5043890E-07  0.2699847E+04  0.7818609E-02  0.8335055E-01
        2   -1    0    0  501    0  0.00000000000E+00  0.00000000000E+00  0.21588519029E+04  0.21588519029E+04  0.25500000920E-02 0. -1.
       -2   -1    0    0    0  501  0.00000000000E+00  0.00000000000E+00 -0.84410320561E+03  0.84410320562E+03  0.25500000920E-02 0.  1.
    10030    2    1    2    0    0  0.00000000000E+00  0.00000000000E+00  0.13147486973E+04  0.30029551086E+04  0.26998472636E+04 0.  0.
        3    1    3    3  502    0  0.82193355004E+03  0.74146862941E+03 -0.20198773821E+03  0.11252331073E+04  0.10100000352E+00 0. -1.
       -3    1    3    3    0  502 -0.82193355004E+03 -0.74146862941E+03  0.15167364355E+04  0.18777220013E+04  0.10100000352E+00 0.  1.
</event>
<event>
 5   0  0.5043890E-07  0.2699470E+04  0.7818609E-02  0.8335177E-01
       -2   -1    0    0    0  501  0.00000000000E+00  0.00000000000E+00  0.11543726129E+04  0.11543726129E+04  0.25500000920E-02 0. -1.
        2   -1    0    0  501    0  0.00000000000E+00  0.00000000000E+00 -0.15781598493E+04  0.15781598493E+04  0.25500000920E-02 0.  1.
    10030    2    1    2    0    0  0.00000000000E+00  0.00000000000E+00 -0.42378723646E+03  0.27325324622E+04  0.26994699545E+04 0.  0.
        3    1    3    3  502    0 -0.36205163593E+03 -0.27393421442E+03  0.10747617693E+04  0.11667194230E+04  0.10100000352E+00 0. -1.
       -3    1    3    3    0  502  0.36205163593E+03  0.27393421442E+03 -0.14985490058E+04  0.15658130393E+04  0.10100000352E+00 0.  1.
</event>
<event>
 5   0  0.4735120E-07  0.2697878E+04  0.7818609E-02  0.8335694E-01
        2   -1    0    0  501    0  0.00000000000E+00  0.00000000000E+00  0.22744374019E+04  0.22744374019E+04  0.25500000920E-02 0.  1.
       -2   -1    0    0    0  501  0.00000000000E+00  0.00000000000E+00 -0.80003823085E+03  0.80003823086E+03  0.25500000920E-02 0. -1.
    10030    2    1    2    0    0  0.00000000000E+00  0.00000000000E+00  0.14743991710E+04  0.30744756327E+04  0.26978783332E+04 0.  0.
        2    1    3    3  502    0  0.90713448719E+03 -0.31450789458E+03 -0.34260565917E+03  0.10194051360E+04  0.25500000920E-02 0. -1.
       -2    1    3    3    0  502 -0.90713448719E+03  0.31450789458E+03  0.18170048302E+04  0.20550704967E+04  0.25500000920E-02 0.  1.
</event>
<event>
 5   0  0.1888149E-07  0.2700065E+04  0.7818609E-02  0.8334984E-01
       -1   -1    0    0    0  501  0.00000000000E+00  0.00000000000E+00  0.13643182643E+04  0.13643182643E+04  0.50400001928E-02 0. -1.
        1   -1    0    0  501    0  0.00000000000E+00  0.00000000000E+00 -0.13358959057E+04  0.13358959057E+04  0.50400001928E-02 0.  1.
    10030    2    1    2    0    0  0.00000000000E+00  0.00000000000E+00  0.28422358575E+02  0.27002141700E+04  0.27000645795E+04 0.  0.
        1    1    3    3  502    0  0.14303897782E+03  0.23911675570E+03 -0.13068276415E+04  0.13362018772E+04  0.50400001928E-02 0.  1.
       -1    1    3    3    0  502 -0.14303897782E+03 -0.23911675570E+03  0.13352500001E+04  0.13640122928E+04  0.50400001928E-02 0. -1.
</event>
<event>
 5   0  0.4983208E-07  0.2700672E+04  0.7818609E-02  0.8334787E-01
       -2   -1    0    0    0  501  0.00000000000E+00  0.00000000000E+00  0.88512472765E+03  0.88512472765E+03  0.25500000920E-02 0. -1.
        2   -1    0    0  501    0  0.00000000000E+00  0.00000000000E+00 -0.20600569567E+04  0.20600569567E+04  0.25500000920E-02 0.  1.
    10030    2    1    2    0    0  0.00000000000E+00  0.00000000000E+00 -0.11749322290E+04  0.29451816843E+04  0.27006720295E+04 0.  0.
        4    1    3    3  502    0  0.41855221759E+02  0.80970287477E+03 -0.17650614123E+04  0.19423732924E+04  0.12699999809E+01 0.  1.
       -4    1    3    3    0  502 -0.41855221759E+02 -0.80970287477E+03  0.59012918328E+03  0.10028083919E+04  0.12699999809E+01 0. -1.
</event>
<event>
 5   0  0.5043890E-07  0.2702546E+04  0.7818609E-02  0.8334179E-01
        2   -1    0    0  501    0  0.00000000000E+00  0.00000000000E+00  0.12610576416E+04  0.12610576416E+04  0.25500000920E-02 0. -1.
       -2   -1    0    0    0  501  0.00000000000E+00  0.00000000000E+00 -0.14479427989E+04  0.14479427989E+04  0.25500000920E-02 0.  1.
    10030    2    1    2    0    0  0.00000000000E+00  0.00000000000E+00 -0.18688515728E+03  0.27090004405E+04  0.27025464519E+04 0.  0.
        3    1    3    3  502    0 -0.95409958032E+03  0.89117629295E+03  0.25586936706E+03  0.13304023217E+04  0.10100000352E+00 0. -1.
       -3    1    3    3    0  502  0.95409958032E+03 -0.89117629295E+03 -0.44275452433E+03  0.13785981189E+04  0.10100000352E+00 0.  1.
</event>
<event>
 5   0  0.1964242E-07  0.2699161E+04  0.7818609E-02  0.8335277E-01
       -1   -1    0    0    0  501  0.00000000000E+00  0.00000000000E+00  0.81320332765E+03  0.81320332767E+03  0.50400001928E-02 0. -1.
        1   -1    0    0  501    0  0.00000000000E+00  0.00000000000E+00 -0.22397448294E+04  0.22397448294E+04  0.50400001928E-02 0.  1.
    10030    2    1    2    0    0  0.00000000000E+00  0.00000000000E+00 -0.14265415017E+04  0.30529481571E+04  0.26991613130E+04 0.  0.
        2    1    3    3  502    0 -0.68313382138E+02  0.16744642750E+03  0.79943633552E+03  0.81963618686E+03  0.25500000920E-02 0. -1.
       -2    1    3    3    0  502  0.68313382138E+02 -0.16744642750E+03 -0.22259778373E+04  0.22333119702E+04  0.25500000920E-02 0.  1.
</event>
<event>
 5   0  0.1888149E-07  0.2700242E+04  0.7818609E-02  0.8334926E-01
        1   -1    0    0  501    0  0.00000000000E+00  0.00000000000E+00  0.14455397456E+04  0.14455397456E+04  0.50400001928E-02 0.  1.
       -1   -1    0    0    0  501  0.00000000000E+00  0.00000000000E+00 -0.12610011353E+04  0.12610011353E+04  0.50400001928E-02 0. -1.
    10030    2    1    2    0    0  0.00000000000E+00  0.00000000000E+00  0.18453861026E+03  0.27065408809E+04  0.27002424042E+04 0.  0.
        1    1    3    3  502    0  0.10445915842E+04 -0.85032665520E+03 -0.68460837607E+00  0.13469326142E+04  0.50400001928E-02 0. -1.
       -1    1    3    3    0  502 -0.10445915842E+04  0.85032665520E+03  0.18522321864E+03  0.13596082668E+04  0.50400001928E-02 0.  1.
</event>
<event>
 5   0  0.4992668E-07  0.2699945E+04  0.7818609E-02  0.8335023E-01
        2   -1    0    0  501    0  0.00000000000E+00  0.00000000000E+00  0.31470227559E+04  0.31470227559E+04  0.25500000920E-02 0. -1.
       -2   -1    0    0    0  501  0.00000000000E+00  0.00000000000E+00 -0.57909537265E+03  0.57909537265E+03  0.25500000920E-02 0.  1.
    10030    2    1    2    0    0  0.00000000000E+00  0.00000000000E+00  0.25679273832E+04  0.37261181285E+04  0.26999454184E+04 0.  0.
        1    1    3    3  502    0 -0.12295765222E+04  0.28727613304E+03  0.19429971299E+04  0.23172448830E+04  0.50400001928E-02 0.  1.
       -1    1    3    3    0  502  0.12295765222E+04 -0.28727613304E+03  0.62493025326E+03  0.14088732456E+04  0.50400001928E-02 0. -1.
</event>
<event>
 5   0  0.1971600E-07  0.2699764E+04  0.7818609E-02  0.8335081E-01
        1   -1    0    0  501    0  0.00000000000E+00  0.00000000000E+00  0.20988218338E+04  0.20988218338E+04  0.50400001928E-02 0. -1.
       -1   -1    0    0    0  501  0.00000000000E+00  0.00000000000E+00 -0.86819283902E+03  0.86819283904E+03  0.50400001928E-02 0.  1.
    10030    2    1    2    0    0  0.00000000000E+00  0.00000000000E+00  0.12306289948E+04  0.29670146729E+04  0.26997644983E+04 0.  0.
        5    1    3    3  502    0  0.67656746153E+03  0.87597205235E+03  0.14645213765E+04  0.18357329649E+04  0.46999998093E+01 0. -1.
       -5    1    3    3    0  502 -0.67656746153E+03 -0.87597205235E+03 -0.23389238165E+03  0.11312817079E+04  0.46999998093E+01 0.  1.
</event>
<event>
 5   0  0.1888149E-07  0.2700807E+04  0.7818609E-02  0.8334743E-01
        1   -1    0    0  501    0  0.00000000000E+00  0.00000000000E+00  0.13355685729E+04  0.13355685729E+04  0.50400001928E-02 0.  1.
       -1   -1    0    0    0  501  0.00000000000E+00  0.00000000000E+00 -0.13654028315E+04  0.13654028315E+04  0.50400001928E-02 0. -1.
    10030    2    1    2    0    0  0.00000000000E+00  0.00000000000E+00 -0.29834258593E+02  0.27009714044E+04  0.27008066285E+04 0.  0.
        1    1    3    3  502    0 -0.95475991032E+03  0.19235239577E+03 -0.95040093674E+03  0.13608188238E+04  0.50400001928E-02 0. -1.
       -1    1    3    3    0  502  0.95475991032E+03 -0.19235239577E+03  0.92056667815E+03  0.13401525807E+04  0.50400001928E-02 0.  1.
</event>
<event>
 5   0  0.5043890E-07  0.2701530E+04  0.7818609E-02  0.8334509E-01
        2   -1    0    0  501    0  0.00000000000E+00  0.00000000000E+00  0.20985493443E+04  0.20985493443E+04  0.25500000920E-02 0.  1.
       -2   -1    0    0    0  501  0.00000000000E+00  0.00000000000E+00 -0.86944171501E+03  0.86944171501E+03  0.25500000920E-02 0. -1.
    10030    2    1    2    0    0  0.00000000000E+00  0.00000000000E+00  0.12291076293E+04  0.29679910594E+04  0.27015301893E+04 0.  0.
        3    1    3    3  502    0 -0.11806493876E+04  0.10030324452E+03  0.13270347664E+04  0.17790489028E+04  0.10100000352E+00 0.  1.
       -3    1    3    3    0  502  0.11806493876E+04 -0.10030324452E+03 -0.97927137039E+02  0.11889421565E+04  0.10100000352E+00 0. -1.
</event>
<event>
 5   0  0.1888149E-07  0.2700470E+04  0.7818609E-02  0.8334852E-01
        1   -1    0    0  501    0  0.00000000000E+00  0.00000000000E+00  0.16172235564E+04  0.16172235564E+04  0.50400001928E-02 0.  1.
       -1   -1    0    0    0  501  0.00000000000E+00  0.00000000000E+00 -0.11273238585E+04  0.11273238585E+04  0.50400001928E-02 0. -1.
    10030    2    1    2    0    0  0.00000000000E+00  0.00000000000E+00  0.48989969791E+03  0.27445474150E+04  0.27004701070E+04 0.  0.
        1    1    3    3  502    0  0.13137258814E+04 -0.20727990756E+03  0.48176390452E+03  0.14145448425E+04  0.50400001928E-02 0.  1.
       -1    1    3    3    0  502 -0.13137258814E+04  0.20727990756E+03  0.81357933919E+01  0.13300025725E+04  0.50400001928E-02 0. -1.
</event>
<event>
 5   0  0.1888149E-07  0.2699614E+04  0.7818609E-02  0.8335130E-01
       -1   -1    0    0    0  501  0.00000000000E+00  0.00000000000E+00  0.96441241990E+03  0.96441241991E+03  0.50400001928E-02 0.  1.
        1   -1    0    0  501    0  0.00000000000E+00  0.00000000000E+00 -0.18892111205E+04  0.18892111205E+04  0.50400001928E-02 0. -1.
    10030    2    1    2    0    0  0.00000000000E+00  0.00000000000E+00 -0.92479870059E+03  0.28536235404E+04  0.26996138008E+04 0.  0.
        1    1    3    3  502    0 -0.52791441816E+03 -0.12320122738E+04 -0.63096729397E+03  0.14814410558E+04  0.50400001928E-02 0. -1.
       -1    1    3    3    0  502  0.52791441816E+03  0.12320122738E+04 -0.29383140662E+03  0.13721824846E+04  0.50400001928E-02 0.  1.
</event>
<event>
 5   0  0.1964242E-07  0.2700013E+04  0.7818609E-02  0.8335001E-01
       -1   -1    0    0    0  501  0.00000000000E+00  0.00000000000E+00  0.64897323296E+03  0.64897323298E+03  0.50400001928E-02 0. -1.
        1   -1    0    0  501    0  0.00000000000E+00  0.00000000000E+00 -0.28083093877E+04  0.28083093877E+04  0.50400001928E-02 0.  1.
    10030    2    1    2    0    0  0.00000000000E+00  0.00000000000E+00 -0.21593361547E+04  0.34572826206E+04  0.27000130537E+04 0.  0.
        2    1    3    3  502    0 -0.10940738882E+03  0.12622240551E+04 -0.16766166702E+04  0.21014811445E+04  0.25500000920E-02 0. -1.
       -2    1    3    3    0  502  0.10940738882E+03 -0.12622240551E+04 -0.48271948452E+03  0.13558014761E+04  0.25500000920E-02 0.  1.
</event>
<event>
 5   0  0.4992668E-07  0.2700152E+04  0.7818609E-02  0.8334956E-01
        2   -1    0    0  501    0  0.00000000000E+00  0.00000000000E+00  0.20107359683E+04  0.20107359683E+04  0.25500000920E-02 0.  1.
       -2   -1    0    0    0  501  0.00000000000E+00  0.00000000000E+00 -0.90648647824E+03  0.90648647824E+03  0.25500000920E-02 0. -1.
    10030    2    1    2    0    0  0.00000000000E+00  0.00000000000E+00  0.11042494900E+04  0.29172224465E+04  0.27001518228E+04 0.  0.
        1    1    3    3  502    0  0.19194001378E+03 -0.91945654248E+03  0.15998619666E+04  0.18552087793E+04  0.50400001928E-02 0.  1.
       -1    1    3    3    0  502 -0.19194001378E+03  0.91945654248E+03 -0.49561247660E+03  0.10620136672E+04  0.50400001928E-02 0. -1.
</event>
<event>
 5   0  0.5043890E-07  0.2698883E+04  0.7818609E-02  0.8335367E-01
       -2   -1    0    0    0  501  0.00000000000E+00  0.00000000000E+00  0.14425966135E+04  0.14425966135E+04  0.25500000920E-02 0.  1.
        2   -1    0    0  501    0  0.00000000000E+00  0.00000000000E+00 -0.12623021175E+04  0.12623021175E+04  0.25500000920E-02 0. -1.
    10030    2    1    2    0    0  0.00000000000E+00  0.00000000000E+00  0.18029449602E+03  0.27048987310E+04  0.26988832950E+04 0.  0.
        3    1    3    3  502    0 -0.48429251471E+02  0.24410589903E+02  0.14415039296E+04  0.14425237809E+04  0.10100000352E+00 0.  1.
       -3    1    3    3    0  502  0.48429251471E+02 -0.24410589903E+02 -0.12612094335E+04  0.12623749501E+04  0.10100000352E+00 0. -1.
</event>
<event>
 5   0  0.4735120E-07  0.2705798E+04  0.7818609E-02  0.8333126E-01
        2   -1    0    0  501    0  0.00000000000E+00  0.00000000000E+00  0.17492636961E+04  0.17492636961E+04  0.25500000920E-02 0.  1.
       -2   -1    0    0    0  501  0.00000000000E+00  0.00000000000E+00 -0.10463460634E+04  0.10463460634E+04  0.25500000920E-02 0. -1.
    10030    2    1    2    0    0  0.00000000000E+00  0.00000000000E+00  0.70291763269E+03  0.27956097595E+04  0.27057976142E+04 0.  0.
        2    1    3    3  502    0  0.87136190285E+03 -0.24985028012E+03  0.13891042977E+04  0.16587065678E+04  0.25500000920E-02 0.  1.
       -2    1    3    3    0  502 -0.87136190285E+03  0.24985028012E+03 -0.68618666497E+03  0.11369031917E+04  0.25500000920E-02 0. -1.
</event>
<event>
 5   0  0.4983208E-07  0.2699409E+04  0.7818609E-02  0.8335197E-01
       -2   -1    0    0    0  501  0.00000000000E+00  0.00000000000E+00  0.29007287047E+04  0.29007287047E+04  0.25500000920E-02 0.  1.
        2   -1    0    0  501    0  0.00000000000E+00  0.00000000000E+00 -0.62801537669E+03  0.62801537670E+03  0.25500000920E-02 0. -1.
    10030    2    1    2    0    0  0.00000000000E+00  0.00000000000E+00  0.22727133280E+04  0.35287440814E+04  0.26994089947E+04 0.  0.
        4    1    3    3  502    0  0.91123701149E+03  0.77864082513E+03  0.19475402737E+04  0.22868207529E+04  0.12699999809E+01 0.  1.
       -4    1    3    3    0  502 -0.91123701149E+03 -0.77864082513E+03  0.32517305438E+03  0.12419233285E+04  0.12699999809E+01 0. -1.
</event>
<event>
 5   0  0.5043890E-07  0.2700009E+04  0.7818609E-02  0.8335002E-01
       -2   -1    0    0    0  501  0.00000000000E+00  0.00000000000E+00  0.81180225985E+03  0.81180225985E+03  0.25500000920E-02 0.  1.
        2   -1    0    0  501    0  0.00000000000E+00  0.00000000000E+00 -0.22450204691E+04  0.22450204691E+04  0.25500000920E-02 0. -1.
    10030    2    1    2    0    0  0.00000000000E+00  0.00000000000E+00 -0.14332182093E+04  0.30568227290E+04  0.27000094002E+04 0.  0.
        3    1    3    3  502    0 -0.93285064228E+03 -0.81247060234E+03 -0.10462444625E+03  0.12414769774E+04  0.10100000352E+00 0.  1.
       -3    1    3    3    0  502  0.93285064228E+03  0.81247060234E+03 -0.13285937630E+04  0.18153457516E+04  0.10100000352E+00 0. -1.
</event>
<event>
 5   0  0.1888149E-07  0.2700366E+04  0.7818609E-02  0.8334886E-01
        1   -1    0    0  501    0  0.00000000000E+00  0.00000000000E+00  0.12390182285E+04  0.12390182285E+04  0.50400001928E-02 0. -1.
       -1   -1    0    0    0  501  0.00000000000E+00  0.00000000000E+00 -0.14713219167E+04  0.14713219167E+04  0.50400001928E-02 0.  1.
    10030    2    1    2    0    0  0.00000000000E+00  0.00000000000E+00 -0.23230368820E+03  0.27103401453E+04  0.27003664010E+04 0.  0.
        1    1    3    3  502    0  0.87199988425E+03 -0.10058170931E+04  0.11038702589E+03  0.13357533898E+04  0.50400001928E-02 0. -1.
       -1    1    3    3    0  502 -0.87199988425E+03  0.10058170931E+04 -0.34269071409E+03  0.13745867555E+04  0.50400001928E-02 0.  1.
</event>
<event>
 5   0  0.1641625E-07  0.2700035E+04  0.7818609E-02  0.8334994E-01
        3   -1    0    0  501    0  0.00000000000E+00  0.00000000000E+00  0.98923109822E+03  0.98923110338E+03  0.10100000352E+00 0. -1.
       -3   -1    0    0    0  501  0.00000000000E+00  0.00000000000E+00 -0.18423879865E+04  0.18423879892E+04  0.10100000352E+00 0.  1.
    10030    2    1    2    0    0  0.00000000000E+00  0.00000000000E+00 -0.85315688825E+03  0.28316190926E+04  0.27000351868E+04 0.  0.
        5    1    3    3  502    0  0.28976242858E+03  0.54986885977E+03 -0.16834010564E+04  0.17944857855E+04  0.46999998093E+01 0.  1.
       -5    1    3    3    0  502 -0.28976242858E+03 -0.54986885977E+03  0.83024416811E+03  0.10371333071E+04  0.46999998093E+01 0. -1.
</event>
<event>
 5   0  0.4983208E-07  0.2699896E+04  0.7818609E-02  0.8335039E-01
       -2   -1    0    0    0  501  0.00000000000E+00  0.00000000000E+00  0.88336836388E+03  0.88336836388E+03  0.25500000920E-02 0. -1.
        2   -1    0    0  501    0  0.00000000000E+00  0.00000000000E+00 -0.20629667625E+04  0.20629667625E+04  0.25500000920E-02 0.  1.
    10030    2    1    2    0    0  0.00000000000E+00  0.00000000000E+00 -0.11795983986E+04  0.29463351264E+04  0.26998959785E+04 0.  0.
        4    1    3    3  502    0 -0.12433861508E+04 -0.50337647537E+03 -0.42443930779E+03  0.14069638712E+04  0.12699999809E+01 0. -1.
       -4    1    3    3    0  502  0.12433861508E+04  0.50337647537E+03 -0.75515909084E+03  0.15393712552E+04  0.12699999809E+01 0.  1.
</event>
<event>
 5   0  0.4735120E-07  0.2699585E+04  0.7818609E-02  0.8335140E-01
       -2   -1    0    0    0  501  0.00000000000E+00  0.00000000000E+00  0.12319832797E+04  0.12319832797E+04  0.25500000920E-02 0.  1.
        2   -1    0    0  501    0  0.00000000000E+00  0.00000000000E+00 -0.14788670222E+04  0.14788670222E+04  0.25500000920E-02 0. -1.
    10030    2    1    2    0    0  0.00000000000E+00  0.00000000000E+00 -0.24688374246E+03  0.27108503020E+04  0.26995847416E+04 0.  0.
        2    1    3    3  502    0 -0.66061890060E+03 -0.11587992424E+04  0.84075853159E+02  0.13365260062E+04  0.25500000920E-02 0.  1.
       -2    1    3    3    0  502  0.66061890060E+03  0.11587992424E+04 -0.33095959562E+03  0.13743242958E+04  0.25500000920E-02 0. -1.
</event>
<event>
 5   0  0.1964242E-07  0.2701724E+04  0.7818609E-02  0.8334446E-01
       -1   -1    0    0    0  501  0.00000000000E+00  0.00000000000E+00  0.13874570197E+04  0.13874570197E+04  0.50400001928E-02 0. -1.
        1   -1    0    0  501    0  0.00000000000E+00  0.00000000000E+00 -0.13152324050E+04  0.13152324051E+04  0.50400001928E-02 0.  1.
    10030    2    1    2    0    0  0.00000000000E+00  0.00000000000E+00  0.72224614659E+02  0.27026894248E+04  0.27017242146E+04 0.  0.
        2    1    3    3  502    0 -0.77976045245E+03 -0.45497523755E+03  0.10413591666E+04  0.13782081642E+04  0.25500000920E-02 0. -1.
       -2    1    3    3    0  502  0.77976045245E+03  0.45497523755E+03 -0.96913455190E+03  0.13244812606E+04  0.25500000920E-02 0.  1.
</event>
<event>
 5   0  0.1964242E-07  0.2700030E+04  0.7818609E-02  0.8334995E-01
        1   -1    0    0  501    0  0.00000000000E+00  0.00000000000E+00  0.19112178499E+04  0.19112178499E+04  0.50400001928E-02 0. -1.
       -1   -1    0    0    0  501  0.00000000000E+00  0.00000000000E+00 -0.95360177272E+03  0.95360177273E+03  0.50400001928E-02 0.  1.
    10030    2    1    2    0    0  0.00000000000E+00  0.00000000000E+00  0.95761607720E+03  0.28648196227E+04  0.27000301700E+04 0.  0.
        2    1    3    3  502    0 -0.19871446159E+03  0.43694687932E+03 -0.85999912169E+03  0.98489009636E+03  0.25500000920E-02 0.  1.
       -2    1    3    3    0  502  0.19871446159E+03 -0.43694687932E+03  0.18176151989E+04  0.18799295263E+04  0.25500000920E-02 0. -1.
</event>
<event>
 5   0  0.4992668E-07  0.2699561E+04  0.7818609E-02  0.8335147E-01
       -2   -1    0    0    0  501  0.00000000000E+00  0.00000000000E+00  0.89054088059E+03  0.89054088059E+03  0.25500000920E-02 0.  1.
        2   -1    0    0  501    0  0.00000000000E+00  0.00000000000E+00 -0.20458437794E+04  0.20458437794E+04  0.25500000920E-02 0. -1.
    10030    2    1    2    0    0  0.00000000000E+00  0.00000000000E+00 -0.11553028989E+04  0.29363846600E+04  0.26995610909E+04 0.  0.
        1    1    3    3  502    0  0.97091128183E+03 -0.88110946777E+03 -0.92654715715E+03  0.16054632496E+04  0.50400001928E-02 0. -1.
       -1    1    3    3    0  502 -0.97091128183E+03  0.88110946777E+03 -0.22875574171E+03  0.13309214104E+04  0.50400001928E-02 0.  1.
</event>
<event>
 5   0  0.1888149E-07  0.2697484E+04  0.7818609E-02  0.8335822E-01
       -1   -1    0    0    0  501  0.00000000000E+00  0.00000000000E+00  0.76052274118E+03  0.76052274119E+03  0.50400001928E-02 0. -1.
        1   -1    0    0  501    0  0.00000000000E+00  0.00000000000E+00 -0.23919145634E+04  0.23919145634E+04  0.50400001928E-02 0.  1.
    10030    2    1    2    0    0  0.00000000000E+00  0.00000000000E+00 -0.16313918223E+04  0.31524373046E+04  0.26974843247E+04 0.  0.
        1    1    3    3  502    0 -0.12192222834E+04 -0.45856355798E+03 -0.40696296040E+03  0.13646986350E+04  0.50400001928E-02 0. -1.
       -1    1    3    3    0  502  0.12192222834E+04  0.45856355798E+03 -0.12244288619E+04  0.17877386696E+04  0.50400001928E-02 0.  1.
</event>
<event>
 5   0  0.1971600E-07  0.2699063E+04  0.7818609E-02  0.8335309E-01
       -1   -1    0    0    0  501  0.00000000000E+00  0.00000000000E+00  0.13353280285E+04  0.13353280285E+04  0.50400001928E-02 0. -1.
        1   -1    0    0  501    0  0.00000000000E+00  0.00000000000E+00 -0.13638857853E+04  0.13638857854E+04  0.50400001928E-02 0.  1.
    10030    2    1    2    0    0  0.00000000000E+00  0.00000000000E+00 -0.28557756807E+02  0.26992138139E+04  0.26990627387E+04 0.  0.
        5    1    3    3  502    0 -0.27897497827E+03 -0.72896157038E+03 -0.11152495866E+04  0.13612552075E+04  0.46999998093E+01 0.  1.
       -5    1    3    3    0  502  0.27897497827E+03  0.72896157038E+03  0.10866918298E+04  0.13379586064E+04  0.46999998093E+01 0. -1.
</event>
<event>
 5   0  0.1888149E-07  0.2699736E+04  0.7818609E-02  0.8335091E-01
        1   -1    0    0  501    0  0.00000000000E+00  0.00000000000E+00  0.12268422022E+04  0.12268422023E+04  0.50400001928E-02 0.  1.
       -1   -1    0    0    0  501  0.00000000000E+00  0.00000000000E+00 -0.14852309893E+04  0.14852309893E+04  0.50400001928E-02 0. -1.
    10030    2    1    2    0    0  0.00000000000E+00  0.00000000000E+00 -0.25838878703E+03  0.27120731915E+04  0.26997363262E+04 0.  0.
        1    1    3    3  502    0  0.36951038625E+02 -0.10057021810E+03  0.12225638483E+04  0.12272498161E+04  0.50400001928E-02 0.  1.
       -1    1    3    3    0  502 -0.36951038625E+02  0.10057021810E+03 -0.14809526353E+04  0.14848233754E+04  0.50400001928E-02 0. -1.
</event>
<event>
 5   0  0.1937896E-07  0.2696340E+04  0.7818609E-02  0.8336193E-01
        1   -1    0    0  501    0  0.00000000000E+00  0.00000000000E+00  0.10271319622E+04  0.10271319622E+04  0.50400001928E-02 0.  1.
       -1   -1    0    0    0  501  0.00000000000E+00  0.00000000000E+00 -0.17695508990E+04  0.17695508990E+04  0.50400001928E-02 0. -1.
    10030    2    1    2    0    0  0.00000000000E+00  0.00000000000E+00 -0.74241893678E+03  0.27966828612E+04  0.26963399542E+04 0.  0.
        3    1    3    3  502    0  0.13009716624E+04 -0.22296967378E+03 -0.65586681013E+03  0.14739077395E+04  0.10100000352E+00 0. -1.
       -3    1    3    3    0  502 -0.13009716624E+04  0.22296967378E+03 -0.86552126653E+02  0.13227751217E+04  0.10100000352E+00 0.  1.
</event>
<event>
 5   0  0.5043890E-07  0.2697931E+04  0.7818609E-02  0.8335676E-01
       -2   -1    0    0    0  501  0.00000000000E+00  0.00000000000E+00  0.71328690094E+03  0.71328690095E+03  0.25500000920E-02 0.  1.
        2   -1    0    0  501    0  0.00000000000E+00  0.00000000000E+00 -0.25511594099E+04  0.25511594099E+04  0.25500000920E-02 0. -1.
    10030    2    1    2    0    0  0.00000000000E+00  0.00000000000E+00 -0.18378725090E+04  0.32644463109E+04  0.26979314960E+04 0.  0.
        3    1    3    3  502    0 -0.91987400972E+03 -0.97875660747E+03 -0.10699460188E+04  0.17172411548E+04  0.10100000352E+00 0. -1.
       -3    1    3    3    0  502  0.91987400972E+03  0.97875660747E+03 -0.76792649014E+03  0.15472051560E+04  0.10100000352E+00 0.  1.
</event>
<event>
 5   0  0.4992668E-07  0.2698337E+04  0.7818609E-02  0.8335545E-01
        2   -1    0    0  501    0  0.00000000000E+00  0.00000000000E+00  0.13231486300E+04  0.13231486300E+04  0.25500000920E-02 0.  1.
       -2   -1    0    0    0  501  0.00000000000E+00  0.00000000000E+00 -0.13757005434E+04  0.13757005434E+04  0.25500000920E-02 0. -1.
    10030    2    1    2    0    0  0.00000000000E+00  0.00000000000E+00 -0.52551913370E+02  0.26988491734E+04  0.26983374802E+04 0.  0.
        1    1    3    3  502    0  0.56350034351E+03 -0.10335410105E+04  0.63302780074E+03  0.13365866429E+04  0.50400001928E-02 0.  1.
       -1    1    3    3    0  502 -0.56350034351E+03  0.10335410105E+04 -0.68557971411E+03  0.13622625305E+04  0.50400001928E-02 0. -1.
</event>
<event>
 5   0  0.4983208E-07  0.2699571E+04  0.7818609E-02  0.8335144E-01
        2   -1    0    0  501    0  0.00000000000E+00  0.00000000000E+00  0.22372301208E+04  0.22372301208E+04  0.25500000920E-02 0.  1.
       -2   -1    0    0    0  501  0.00000000000E+00  0.00000000000E+00 -0.81436481983E+03  0.81436481983E+03  0.25500000920E-02 0. -1.
    10030    2    1    2    0    0  0.00000000000E+00  0.00000000000E+00  0.14228653010E+04  0.30515949406E+04  0.26995714506E+04 0.  0.
        4    1    3    3  502    0 -0.11361026533E+04 -0.69032205367E+03  0.44718465328E+03  0.14025867188E+04  0.12699999809E+01 0. -1.
       -4    1    3    3    0  502  0.11361026533E+04  0.69032205367E+03  0.97568064770E+03  0.16490082219E+04  0.12699999809E+01 0.  1.
</event>
<event>
 5   0  0.1964242E-07  0.2698688E+04  0.7818609E-02  0.8335431E-01
        1   -1    0    0  501    0  0.00000000000E+00  0.00000000000E+00  0.11044005634E+04  0.11044005634E+04  0.50400001928E-02 0. -1.
       -1   -1    0    0    0  501  0.00000000000E+00  0.00000000000E+00 -0.16486136734E+04  0.16486136734E+04  0.50400001928E-02 0.  1.
    10030    2    1    2    0    0  0.00000000000E+00  0.00000000000E+00 -0.54421310999E+03  0.27530142369E+04  0.26986884739E+04 0.  0.
        2    1    3    3  502    0  0.38176764510E+03  0.80114799923E+03  0.76479228379E+03  0.11715339896E+04  0.25500000920E-02 0. -1.
       -2    1    3    3    0  502 -0.38176764510E+03 -0.80114799923E+03 -0.13090053938E+04  0.15814802473E+04  0.25500000920E-02 0.  1.
</event>
<event>
 5   0  0.4843887E-07  0.2700630E+04  0.7818609E-02  0.8334801E-01
       -2   -1    0    0    0  501  0.00000000000E+00  0.00000000000E+00  0.11721329548E+04  0.11721329549E+04  0.25500000920E-02 0. -1.
        2   -1    0    0  501    0  0.00000000000E+00  0.00000000000E+00 -0.15555833506E+04  0.15555833506E+04  0.25500000920E-02 0.  1.
    10030    2    1    2    0    0  0.00000000000E+00  0.00000000000E+00 -0.38345039573E+03  0.27277163054E+04  0.27006299334E+04 0.  0.
        5    1    3    3  502    0 -0.61589454926E+03  0.65778515801E+03 -0.12074560347E+04  0.15066451392E+04  0.46999998093E+01 0.  1.
       -5    1    3    3    0  502  0.61589454926E+03 -0.65778515801E+03  0.82400563894E+03  0.12210711662E+04  0.46999998093E+01 0. -1.
</event>
<event>
 5   0  0.4843887E-07  0.2691954E+04  0.7818609E-02  0.8337620E-01
       -2   -1    0    0    0  501  0.00000000000E+00  0.00000000000E+00  0.11837874443E+04  0.11837874444E+04  0.25500000920E-02 0.  1.
        2   -1    0    0  501    0  0.00000000000E+00  0.00000000000E+00 -0.15303879995E+04  0.15303879995E+04  0.25500000920E-02 0. -1.
    10030    2    1    2    0    0  0.00000000000E+00  0.00000000000E+00 -0.34660055519E+03  0.27141754439E+04  0.26919540106E+04 0.  0.
        5    1    3    3  502    0  0.49406222644E+03  0.12339141978E+04  0.40559749860E+02  0.13297777688E+04  0.46999998093E+01 0.  1.
       -5    1    3    3    0  502 -0.49406222644E+03 -0.12339141978E+04 -0.38716030505E+03  0.13843976751E+04  0.46999998093E+01 0. -1.
</event>
<event>
 5   0  0.5043890E-07  0.2698027E+04  0.7818609E-02  0.8335645E-01
       -2   -1    0    0    0  501  0.00000000000E+00  0.00000000000E+00  0.10733462361E+04  0.10733462361E+04  0.25500000920E-02 0.  1.
        2   -1    0    0  501    0  0.00000000000E+00  0.00000000000E+00 -0.16954802396E+04  0.16954802396E+04  0.25500000920E-02 0. -1.
    10030    2    1    2    0    0  0.00000000000E+00  0.00000000000E+00 -0.62213400344E+03  0.27688264757E+04  0.26980269335E+04 0.  0.
        3    1    3    3  502    0  0.22421232893E+03 -0.11600760084E+04 -0.97914122126E+03  0.15345243743E+04  0.10100000352E+00 0. -1.
       -3    1    3    3    0  502 -0.22421232893E+03  0.11600760084E+04  0.35700721782E+03  0.12343021014E+04  0.10100000352E+00 0.  1.
</event>
<event>
 5   0  0.4843887E-07  0.2700106E+04  0.7818609E-02  0.8334971E-01
       -2   -1    0    0    0  501  0.00000000000E+00  0.00000000000E+00  0.93263604667E+03  0.93263604667E+03  0.25500000920E-02 0. -1.
        2   -1    0    0  501    0  0.00000000000E+00  0.00000000000E+00 -0.19542920346E+04  0.19542920346E+04  0.25500000920E-02 0.  1.
    10030    2    1    2    0    0  0.00000000000E+00  0.00000000000E+00 -0.10216559879E+04  0.28869280813E+04  0.27001060699E+04 0.  0.
        5    1    3    3  502    0 -0.93709389544E+03  0.75529495086E+03  0.14304625786E+03  0.12120642531E+04  0.46999998093E+01 0. -1.
       -5    1    3    3    0  502  0.93709389544E+03 -0.75529495086E+03 -0.11647022458E+04  0.16748638282E+04  0.46999998093E+01 0.  1.
</event>
<event>
 5   0  0.4735120E-07  0.2699103E+04  0.7818609E-02  0.8335296E-01
       -2   -1    0    0    0  501  0.00000000000E+00  0.00000000000E+00  0.10277690426E+04  0.10277690426E+04  0.25500000920E-02 0.  1.
        2   -1    0    0  501    0  0.00000000000E+00  0.00000000000E+00 -0.17720800547E+04  0.17720800547E+04  0.25500000920E-02 0. -1.
    10030    2    1    2    0    0  0.00000000000E+00  0.00000000000E+00 -0.74431101206E+03  0.27998490973E+04  0.26991028296E+04 0.  0.
        2    1    3    3  502    0  0.10920768318E+04 -0.46834168307E+03  0.29150062904E+03  0.12234984084E+04  0.25500000920E-02 0.  1.
       -2    1    3    3    0  502 -0.10920768318E+04  0.46834168307E+03 -0.10358116411E+04  0.15763506889E+04  0.25500000920E-02 0. -1.
</event>
<event>
 5   0  0.4843887E-07  0.2699955E+04  0.7818609E-02  0.8335019E-01
       -2   -1    0    0    0  501  0.00000000000E+00  0.00000000000E+00  0.67372443431E+03  0.67372443431E+03  0.25500000920E-02 0. -1.
        2   -1    0    0  501    0  0.00000000000E+00  0.00000000000E+00 -0.27050225589E+04  0.27050225589E+04  0.25500000920E-02 0.  1.
    10030    2    1    2    0    0  0.00000000000E+00  0.00000000000E+00 -0.20312981246E+04  0.33787469932E+04  0.26999554021E+04 0.  0.
        5    1    3    3  502    0 -0.65728172939E+03  0.83686919827E+03  0.23885302857E+02  0.10644068416E+04  0.46999998093E+01 0. -1.
       -5    1    3    3    0  502  0.65728172939E+03 -0.83686919827E+03 -0.20551834275E+04  0.23143401516E+04  0.46999998093E+01 0.  1.
</event>
<event>
 5   0  0.4735120E-07  0.2700841E+04  0.7818609E-02  0.8334732E-01
        2   -1    0    0  501    0  0.00000000000E+00  0.00000000000E+00  0.18605778020E+04  0.18605778020E+04  0.25500000920E-02 0.  1.
       -2   -1    0    0    0  501  0.00000000000E+00  0.00000000000E+00 -0.98014463757E+03  0.98014463757E+03  0.25500000920E-02 0. -1.
    10030    2    1    2    0    0  0.00000000000E+00  0.00000000000E+00  0.88043316443E+03  0.28407224396E+04  0.27008408731E+04 0.  0.
        2    1    3    3  502    0 -0.50580812175E+02 -0.55624493103E+03 -0.85296076424E+03  0.10195630962E+04  0.25500000920E-02 0. -1.
       -2    1    3    3    0  502  0.50580812175E+02  0.55624493103E+03  0.17333939287E+04  0.18211593433E+04  0.25500000920E-02 0.  1.
</event>
<event>
 5   0  0.4983208E-07  0.2700022E+04  0.7818609E-02  0.8334998E-01
        2   -1    0    0  501    0  0.00000000000E+00  0.00000000000E+00  0.11338891596E+04  0.11338891596E+04  0.25500000920E-02 0. -1.
       -2   -1    0    0    0  501  0.00000000000E+00  0.00000000000E+00 -0.16073255708E+04  0.16073255708E+04  0.25500000920E-02 0.  1.
    10030    2    1    2    0    0  0.00000000000E+00  0.00000000000E+00 -0.47343641118E+03  0.27412147304E+04  0.27000215115E+04 0.  0.
        4    1    3    3  502    0  0.44949294908E+03 -0.55120463422E+03  0.92824485185E+03  0.11694060792E+04  0.12699999809E+01 0. -1.
       -4    1    3    3    0  502 -0.44949294908E+03  0.55120463422E+03 -0.14016812630E+04  0.15718086512E+04  0.12699999809E+01 0.  1.
</event>
<event>
 5   0  0.4992668E-07  0.2699971E+04  0.7818609E-02  0.8335014E-01
       -2   -1    0    0    0  501  0.00000000000E+00  0.00000000000E+00  0.78867848631E+03  0.78867848632E+03  0.25500000920E-02 0.  1.
        2   -1    0    0  501    0  0.00000000000E+00  0.00000000000E+00 -0.23107781143E+04  0.23107781143E+04  0.25500000920E-02 0. -1.
    10030    2    1    2    0    0  0.00000000000E+00  0.00000000000E+00 -0.15220996280E+04  0.30994566006E+04  0.26999711001E+04 0.  0.
        1    1    3    3  502    0  0.70844572518E+03 -0.51691683128E+03  0.41714036248E+03  0.97113564347E+03  0.50400001928E-02 0.  1.
       -1    1    3    3    0  502 -0.70844572518E+03  0.51691683128E+03 -0.19392399905E+04  0.21283209571E+04  0.50400001928E-02 0. -1.
</event>
<event>
 5   0  0.1888149E-07  0.2699871E+04  0.7818609E-02  0.8335047E-01
        1   -1    0    0  501    0  0.00000000000E+00  0.00000000000E+00  0.16770875202E+04  0.16770875202E+04  0.50400001928E-02 0. -1.
       -1   -1    0    0    0  501  0.00000000000E+00  0.00000000000E+00 -0.10866015124E+04  0.10866015124E+04  0.50400001928E-02 0.  1.
    10030    2    1    2    0    0  0.00000000000E+00  0.00000000000E+00  0.59048600783E+03  0.27636890326E+04  0.26998709865E+04 0.  0.
        1    1    3    3  502    0 -0.59687519403E+02 -0.75956817636E+03 -0.84546735928E+03  0.11381219048E+04  0.50400001928E-02 0.  1.
       -1    1    3    3    0  502  0.59687519403E+02  0.75956817636E+03  0.14359533671E+04  0.16255671278E+04  0.50400001928E-02 0. -1.
</event>
<event>
 5   0  0.1971600E-07  0.2699164E+04  0.7818609E-02  0.8335276E-01
        1   -1    0    0  501    0  0.00000000000E+00  0.00000000000E+00  0.15803617358E+04  0.15803617358E+04  0.50400001928E-02 0.  1.
       -1   -1    0    0    0  501  0.00000000000E+00  0.00000000000E+00 -0.11525031502E+04  0.11525031502E+04  0.50400001928E-02 0. -1.
    10030    2    1    2    0    0  0.00000000000E+00  0.00000000000E+00  0.42785858560E+03  0.27328648861E+04  0.26991642255E+04 0.  0.
        5    1    3    3  502    0  0.42388670741E+03 -0.49997846333E+03 -0.98049965618E+03  0.11794320965E+04  0.46999998093E+01 0. -1.
       -5    1    3    3    0  502 -0.42388670741E+03  0.49997846333E+03  0.14083582418E+04  0.15534327896E+04  0.46999998093E+01 0.  1.
</event>
<event>
 5   0  0.1964242E-07  0.2698860E+04  0.7818609E-02  0.8335375E-01
        1   -1    0    0  501    0  0.00000000000E+00  0.00000000000E+00  0.16416295092E+04  0.16416295093E+04  0.50400001928E-02 0. -1.
       -1   -1    0    0    0  501  0.00000000000E+00  0.00000000000E+00 -0.11092399579E+04  0.11092399579E+04  0.50400001928E-02 0.  1.
    10030    2    1    2    0    0  0.00000000000E+00  0.00000000000E+00  0.53238955133E+03  0.27508694672E+04  0.26988597946E+04 0.  0.
        2    1    3    3  502    0 -0.11190806052E+04  0.33500764713E+03  0.95477967192E+03  0.15087000187E+04  0.25500000920E-02 0. -1.
       -2    1    3    3    0  502  0.11190806052E+04 -0.33500764713E+03 -0.42239012059E+03  0.12421694484E+04  0.25500000920E-02 0.  1.
</event>
<event>
 5   0  0.1971600E-07  0.2700134E+04  0.7818609E-02  0.8334962E-01
        1   -1    0    0  501    0  0.00000000000E+00  0.00000000000E+00  0.13051687661E+04  0.13051687661E+04  0.50400001928E-02 0.  1.
       -1   -1    0    0    0  501  0.00000000000E+00  0.00000000000E+00 -0.13965094804E+04  0.13965094804E+04  0.50400001928E-02 0. -1.
    10030    2    1    2    0    0  0.00000000000E+00  0.00000000000E+00 -0.91340714317E+02  0.27016782465E+04  0.27001337414E+04 0.  0.
        5    1    3    3  502    0 -0.73631007958E+03 -0.77433963640E+03  0.77997075799E+03  0.13229251223E+04  0.46999998093E+01 0.  1.
       -5    1    3    3    0  502  0.73631007958E+03  0.77433963640E+03 -0.87131147231E+03  0.13787531242E+04  0.46999998093E+01 0. -1.
</event>
<event>
 5   0  0.4992668E-07  0.2700461E+04  0.7818609E-02  0.8334855E-01
       -2   -1    0    0    0  501  0.00000000000E+00  0.00000000000E+00  0.10509052366E+04  0.10509052366E+04  0.25500000920E-02 0. -1.
        2   -1    0    0  501    0  0.00000000000E+00  0.00000000000E+00 -0.17348120367E+04  0.17348120367E+04  0.25500000920E-02 0.  1.
    10030    2    1    2    0    0  0.00000000000E+00  0.00000000000E+00 -0.68390680012E+03  0.27857172732E+04  0.27004614819E+04 0.  0.
        1    1    3    3  502    0  0.27912107573E+03  0.12122324628E+04 -0.88360857297E+03  0.15258375500E+04  0.50400001928E-02 0.  1.
       -1    1    3    3    0  502 -0.27912107573E+03 -0.12122324628E+04  0.19970177285E+03  0.12598797232E+04  0.50400001928E-02 0. -1.
</event>
<event>
 5   0  0.4983208E-07  0.2700523E+04  0.7818609E-02  0.8334835E-01
       -2   -1    0    0    0  501  0.00000000000E+00  0.00000000000E+00  0.56607904866E+03  0.56607904867E+03  0.25500000920E-02 0. -1.
        2   -1    0    0  501    0  0.00000000000E+00  0.00000000000E+00 -0.32207633542E+04  0.32207633542E+04  0.25500000920E-02 0.  1.
    10030    2    1    2    0    0  0.00000000000E+00  0.00000000000E+00 -0.26546843055E+04  0.37868424029E+04  0.27005233978E+04 0.  0.
        4    1    3    3  502    0 -0.64380780819E+03 -0.58210780811E+03 -0.27777635326E+04  0.29102078706E+04  0.12699999809E+01 0.  1.
       -4    1    3    3    0  502  0.64380780819E+03  0.58210780811E+03  0.12307922706E+03  0.87663453228E+03  0.12699999809E+01 0. -1.
</event>
<event>
 5   0  0.1965415E-07  0.2700247E+04  0.7818609E-02  0.8334925E-01
        1   -1    0    0  501    0  0.00000000000E+00  0.00000000000E+00  0.14217633131E+04  0.14217633131E+04  0.50400001928E-02 0.  1.
       -1   -1    0    0    0  501  0.00000000000E+00  0.00000000000E+00 -0.12820936942E+04  0.12820936942E+04  0.50400001928E-02 0. -1.
    10030    2    1    2    0    0  0.00000000000E+00  0.00000000000E+00  0.13966961894E+03  0.27038570073E+04  0.27002472319E+04 0.  0.
        4    1    3    3  502    0  0.85441060576E+03  0.65423126715E+03  0.88627510745E+03  0.13941022965E+04  0.12699999809E+01 0.  1.
       -4    1    3    3    0  502 -0.85441060576E+03 -0.65423126715E+03 -0.74660548850E+03  0.13097547108E+04  0.12699999809E+01 0. -1.
</event>
<event>
 5   0  0.1964242E-07  0.2699651E+04  0.7818609E-02  0.8335118E-01
       -1   -1    0    0    0  501  0.00000000000E+00  0.00000000000E+00  0.17261766367E+04  0.17261766368E+04  0.50400001928E-02 0.  1.
        1   -1    0    0  501    0  0.00000000000E+00  0.00000000000E+00 -0.10555287987E+04  0.10555287987E+04  0.50400001928E-02 0. -1.
    10030    2    1    2    0    0  0.00000000000E+00  0.00000000000E+00  0.67064783805E+03  0.27817054355E+04  0.26996512010E+04 0.  0.
        2    1    3    3  502    0 -0.87274688227E+03 -0.96366818936E+03 -0.38590929798E+02  0.13007047165E+04  0.25500000920E-02 0. -1.
       -2    1    3    3    0  502  0.87274688227E+03  0.96366818936E+03  0.70923876784E+03  0.14810007189E+04  0.25500000920E-02 0.  1.
</event>
<event>
 5   0  0.1964242E-07  0.2700197E+04  0.7818609E-02  0.8334941E-01
       -1   -1    0    0    0  501  0.00000000000E+00  0.00000000000E+00  0.10835664937E+04  0.10835664937E+04  0.50400001928E-02 0. -1.
        1   -1    0    0  501    0  0.00000000000E+00  0.00000000000E+00 -0.16821915915E+04  0.16821915915E+04  0.50400001928E-02 0.  1.
    10030    2    1    2    0    0  0.00000000000E+00  0.00000000000E+00 -0.59862509783E+03  0.27657580853E+04  0.27001973592E+04 0.  0.
        2    1    3    3  502    0 -0.21659231699E+03 -0.10775267205E+04 -0.11024358270E+04  0.15567083278E+04  0.25500000920E-02 0.  1.
       -2    1    3    3    0  502  0.21659231699E+03  0.10775267205E+04  0.50381072914E+03  0.12090497575E+04  0.25500000920E-02 0. -1.
</event>
<event>
 5   0  0.4735120E-07  0.2700967E+04  0.7818609E-02  0.8334691E-01
        2   -1    0    0  501    0  0.00000000000E+00  0.00000000000E+00  0.14756333634E+04  0.14756333634E+04  0.25500000920E-02 0.  1.
       -2   -1    0    0    0  501  0.00000000000E+00  0.00000000000E+00 -0.12359475174E+04  0.12359475174E+04  0.25500000920E-02 0. -1.
    10030    2    1    2    0    0  0.00000000000E+00  0.00000000000E+00  0.23968584600E+03  0.27115808808E+04  0.27009667840E+04 0.  0.
        2    1    3    3  502    0  0.48414580659E+03 -0.26753237854E+03 -0.11170028584E+04  0.12464614399E+04  0.25500000920E-02 0. -1.
       -2    1    3    3    0  502 -0.48414580659E+03  0.26753237854E+03  0.13566887044E+04  0.14651194409E+04  0.25500000920E-02 0.  1.
</event>
<event>
 5   0  0.1888149E-07  0.2699567E+04  0.7818609E-02  0.8335146E-01
        1   -1    0    0  501    0  0.00000000000E+00  0.00000000000E+00  0.15267329579E+04  0.15267329579E+04  0.50400001928E-02 0. -1.
       -1   -1    0    0    0  501  0.00000000000E+00  0.00000000000E+00 -0.11933423914E+04  0.11933423914E+04  0.50400001928E-02 0.  1.
    10030    2    1    2    0    0  0.00000000000E+00  0.00000000000E+00  0.33339056650E+03  0.27200753493E+04  0.26995667497E+04 0.  0.
        1    1    3    3  502    0  0.95421066740E+03  0.92376988011E+03  0.40945375590E+03  0.13897917713E+04  0.50400001928E-02 0. -1.
       -1    1    3    3    0  502 -0.95421066740E+03 -0.92376988011E+03 -0.76063189402E+02  0.13302835780E+04  0.50400001928E-02 0.  1.
</event>
<event>
 5   0  0.1965415E-07  0.2700183E+04  0.7818609E-02  0.8334946E-01
        1   -1    0    0  501    0  0.00000000000E+00  0.00000000000E+00  0.20914850860E+04  0.20914850861E+04  0.50400001928E-02 0. -1.
       -1   -1    0    0    0  501  0.00000000000E+00  0.00000000000E+00 -0.87150855168E+03  0.87150855169E+03  0.50400001928E-02 0.  1.
    10030    2    1    2    0    0  0.00000000000E+00  0.00000000000E+00  0.12199765344E+04  0.29629936377E+04  0.27001830591E+04 0.  0.
        4    1    3    3  502    0 -0.86288252899E+03 -0.62570679310E+03  0.15192975713E+04  0.18558938474E+04  0.12699999809E+01 0. -1.
       -4    1    3    3    0  502  0.86288252899E+03  0.62570679310E+03 -0.29932103692E+03  0.11070997904E+04  0.12699999809E+01 0.  1.
</event>
<event>
 5   0  0.1937896E-07  0.2700526E+04  0.7818609E-02  0.8334834E-01
       -1   -1    0    0    0  501  0.00000000000E+00  0.00000000000E+00  0.11230350960E+04  0.11230350960E+04  0.50400001928E-02 0.  1.
        1   -1    0    0  501    0  0.00000000000E+00  0.00000000000E+00 -0.16234669571E+04  0.16234669571E+04  0.50400001928E-02 0. -1.
    10030    2    1    2    0    0  0.00000000000E+00  0.00000000000E+00 -0.50043186116E+03  0.27465020531E+04  0.27005261488E+04 0.  0.
        3    1    3    3  502    0  0.74372565956E+02  0.75936410715E+03 -0.13832040262E+04  0.15796893726E+04  0.10100000352E+00 0. -1.
       -3    1    3    3    0  502 -0.74372565956E+02 -0.75936410715E+03  0.88277216501E+03  0.11668126805E+04  0.10100000352E+00 0.  1.
</event>
<event>
 5   0  0.1965415E-07  0.2699686E+04  0.7818609E-02  0.8335107E-01
       -1   -1    0    0    0  501  0.00000000000E+00  0.00000000000E+00  0.71069757525E+03  0.71069757527E+03  0.50400001928E-02 0.  1.
        1   -1    0    0  501    0  0.00000000000E+00  0.00000000000E+00 -0.25637861835E+04  0.25637861835E+04  0.50400001928E-02 0. -1.
    10030    2    1    2    0    0  0.00000000000E+00  0.00000000000E+00 -0.18530886083E+04  0.32744837588E+04  0.26996863700E+04 0.  0.
        4    1    3    3  502    0  0.95771384169E+03 -0.56576506729E+03 -0.18540609953E+04  0.21621400743E+04  0.12699999809E+01 0. -1.
       -4    1    3    3    0  502 -0.95771384169E+03  0.56576506729E+03  0.97238700659E+00  0.11123436845E+04  0.12699999809E+01 0.  1.
</event>
<event>
 5   0  0.4983208E-07  0.2698536E+04  0.7818609E-02  0.8335480E-01
        2   -1    0    0  501    0  0.00000000000E+00  0.00000000000E+00  0.13378109171E+04  0.13378109171E+04  0.25500000920E-02 0.  1.
       -2   -1    0    0    0  501  0.00000000000E+00  0.00000000000E+00 -0.13608226993E+04  0.13608226993E+04  0.25500000920E-02 0. -1.
    10030    2    1    2    0    0  0.00000000000E+00  0.00000000000E+00 -0.23011782156E+02  0.26986336164E+04  0.26985355017E+04 0.  0.
        4    1    3    3  502    0 -0.48982164019E+03  0.12456225332E+04  0.15885615403E+03  0.13478640974E+04  0.12699999809E+01 0. -1.
       -4    1    3    3    0  502  0.48982164019E+03 -0.12456225332E+04 -0.18186793619E+03  0.13507695190E+04  0.12699999809E+01 0.  1.
</event>
<event>
 5   0  0.4735120E-07  0.2700098E+04  0.7818609E-02  0.8334973E-01
        2   -1    0    0  501    0  0.00000000000E+00  0.00000000000E+00  0.90293268902E+03  0.90293268902E+03  0.25500000920E-02 0.  1.
       -2   -1    0    0    0  501  0.00000000000E+00  0.00000000000E+00 -0.20185695599E+04  0.20185695599E+04  0.25500000920E-02 0. -1.
    10030    2    1    2    0    0  0.00000000000E+00  0.00000000000E+00 -0.11156368709E+04  0.29215022490E+04  0.27000981025E+04 0.  0.
        2    1    3    3  502    0  0.12510375533E+04  0.46911496329E+03 -0.76725890402E+03  0.15407303575E+04  0.25500000920E-02 0.  1.
       -2    1    3    3    0  502 -0.12510375533E+04 -0.46911496329E+03 -0.34837796691E+03  0.13807718915E+04  0.25500000920E-02 0. -1.
</event>
<event>
 5   0  0.4843887E-07  0.2701335E+04  0.7818609E-02  0.8334572E-01
        2   -1    0    0  501    0  0.00000000000E+00  0.00000000000E+00  0.10406948045E+04  0.10406948045E+04  0.25500000920E-02 0. -1.
       -2   -1    0    0    0  501  0.00000000000E+00  0.00000000000E+00 -0.17529666136E+04  0.17529666136E+04  0.25500000920E-02 0.  1.
    10030    2    1    2    0    0  0.00000000000E+00  0.00000000000E+00 -0.71227180907E+03  0.27936614180E+04  0.27013354084E+04 0.  0.
        5    1    3    3  502    0  0.77869579201E+03 -0.10871842447E+04 -0.16006592113E+03  0.13468407135E+04  0.46999998093E+01 0.  1.
       -5    1    3    3    0  502 -0.77869579201E+03  0.10871842447E+04 -0.55220588795E+03  0.14468207045E+04  0.46999998093E+01 0. -1.
</event>
<event>
 5   0  0.5043890E-07  0.2699868E+04  0.7818609E-02  0.8335048E-01
       -2   -1    0    0    0  501  0.00000000000E+00  0.00000000000E+00  0.14234995833E+04  0.14234995833E+04  0.25500000920E-02 0. -1.
        2   -1    0    0  501    0  0.00000000000E+00  0.00000000000E+00 -0.12801707059E+04  0.12801707059E+04  0.25500000920E-02 0.  1.
    10030    2    1    2    0    0  0.00000000000E+00  0.00000000000E+00  0.14332887734E+03  0.27036702892E+04  0.26998684904E+04 0.  0.
        3    1    3    3  502    0  0.74483128300E+03  0.28915667778E+03 -0.10179565428E+04  0.12940713882E+04  0.10100000352E+00 0.  1.
       -3    1    3    3    0  502 -0.74483128300E+03 -0.28915667778E+03  0.11612854202E+04  0.14095989010E+04  0.10100000352E+00 0. -1.
</event>
<event>
 5   0  0.4992668E-07  0.2700781E+04  0.7818609E-02  0.8334752E-01
        2   -1    0    0  501    0  0.00000000000E+00  0.00000000000E+00  0.17731697683E+04  0.17731697683E+04  0.25500000920E-02 0. -1.
       -2   -1    0    0    0  501  0.00000000000E+00  0.00000000000E+00 -0.10284150968E+04  0.10284150968E+04  0.25500000920E-02 0.  1.
    10030    2    1    2    0    0  0.00000000000E+00  0.00000000000E+00  0.74475467146E+03  0.28015848651E+04  0.27007810418E+04 0.  0.
        1    1    3    3  502    0 -0.50123405374E+03  0.89493892457E+03 -0.53869981170E+03  0.11585977484E+04  0.50400001928E-02 0.  1.
       -1    1    3    3    0  502  0.50123405374E+03 -0.89493892457E+03  0.12834544832E+04  0.16429871167E+04  0.50400001928E-02 0. -1.
</event>
<event>
 5   0  0.1937896E-07  0.2699650E+04  0.7818609E-02  0.8335119E-01
       -1   -1    0    0    0  501  0.00000000000E+00  0.00000000000E+00  0.76151957147E+03  0.76151957148E+03  0.50400001928E-02 0. -1.
        1   -1    0    0  501    0  0.00000000000E+00  0.00000000000E+00 -0.23926202714E+04  0.23926202714E+04  0.50400001928E-02 0.  1.
    10030    2    1    2    0    0  0.00000000000E+00  0.00000000000E+00 -0.16311006999E+04  0.31541398428E+04  0.26996497282E+04 0.  0.
        3    1    3    3  502    0  0.38976983055E+03  0.10057490410E+04 -0.17636987357E+04  0.20673860053E+04  0.10100000352E+00 0. -1.
       -3    1    3    3    0  502 -0.38976983055E+03 -0.10057490410E+04  0.13259803582E+03  0.10867538376E+04  0.10100000352E+00 0.  1.
</event>
<event>
 5   0  0.1937896E-07  0.2698756E+04  0.7818609E-02  0.8335409E-01
       -1   -1    0    0    0  501  0.00000000000E+00  0.00000000000E+00  0.98153147741E+03  0.98153147743E+03  0.50400001928E-02 0. -1.
        1   -1    0    0  501    0  0.00000000000E+00  0.00000000000E+00 -0.18550818572E+04  0.18550818572E+04  0.50400001928E-02 0.  1.
    10030    2    1    2    0    0  0.00000000000E+00  0.00000000000E+00 -0.87355037979E+03  0.28366133346E+04  0.26987561847E+04 0.  0.
        3    1    3    3  502    0  0.45474277930E+03  0.12295097801E+04 -0.77301610764E+03  0.15218538719E+04  0.10100000352E+00 0. -1.
       -3    1    3    3    0  502 -0.45474277930E+03 -0.12295097801E+04 -0.10053427215E+03  0.13147594627E+04  0.10100000352E+00 0.  1.
</event>
<event>
 5   0  0.4843887E-07  0.2698525E+04  0.7818609E-02  0.8335484E-01
        2   -1    0    0  501    0  0.00000000000E+00  0.00000000000E+00  0.21165920583E+04  0.21165920583E+04  0.25500000920E-02 0. -1.
       -2   -1    0    0    0  501  0.00000000000E+00  0.00000000000E+00 -0.86011346172E+03  0.86011346173E+03  0.25500000920E-02 0.  1.
    10030    2    1    2    0    0  0.00000000000E+00  0.00000000000E+00  0.12564785966E+04  0.29767055200E+04  0.26985250211E+04 0.  0.
        5    1    3    3  502    0  0.12501985757E+04 -0.35761149432E+03  0.10253576170E+04  0.16559778961E+04  0.46999998093E+01 0. -1.
       -5    1    3    3    0  502 -0.12501985757E+04  0.35761149432E+03  0.23112097955E+03  0.13207276239E+04  0.46999998093E+01 0.  1.
</event>
<event>
 5   0  0.1965415E-07  0.2700121E+04  0.7818609E-02  0.8334966E-01
        1   -1    0    0  501    0  0.00000000000E+00  0.00000000000E+00  0.13197297246E+04  0.13197297246E+04  0.50400001928E-02 0. -1.
       -1   -1    0    0    0  501  0.00000000000E+00  0.00000000000E+00 -0.13810885125E+04  0.13810885125E+04  0.50400001928E-02 0.  1.
    10030    2    1    2    0    0  0.00000000000E+00  0.00000000000E+00 -0.61358787841E+02  0.27008182371E+04  0.27001211545E+04 0.  0.
        4    1    3    3  502    0  0.66089792091E+03 -0.11770845221E+04 -0.12022089844E+02  0.13499852509E+04  0.12699999809E+01 0. -1.
       -4    1    3    3    0  502 -0.66089792091E+03  0.11770845221E+04 -0.49336697997E+02  0.13508329862E+04  0.12699999809E+01 0.  1.
</event>
<event>
 5   0  0.4992668E-07  0.2703281E+04  0.7818609E-02  0.8333941E-01
        2   -1    0    0  501    0  0.00000000000E+00  0.00000000000E+00  0.12267272197E+04  0.12267272197E+04  0.25500000920E-02 0. -1.
       -2   -1    0    0    0  501  0.00000000000E+00  0.00000000000E+00 -0.14892733230E+04  0.14892733230E+04  0.25500000920E-02 0.  1.
    10030    2    1    2    0    0  0.00000000000E+00  0.00000000000E+00 -0.26254610327E+03  0.27160005427E+04  0.27032810604E+04 0.  0.
        1    1    3    3  502    0  0.53436376348E+03 -0.12135370856E+04  0.13209625631E+03  0.13325412980E+04  0.50400001928E-02 0.  1.
       -1    1    3    3    0  502 -0.53436376348E+03  0.12135370856E+04 -0.39464235958E+03  0.13834592447E+04  0.50400001928E-02 0. -1.
</event>
<event>
 5   0  0.5043890E-07  0.2696416E+04  0.7818609E-02  0.8336169E-01
       -2   -1    0    0    0  501  0.00000000000E+00  0.00000000000E+00  0.13468483949E+04  0.13468483949E+04  0.25500000920E-02 0.  1.
        2   -1    0    0  501    0  0.00000000000E+00  0.00000000000E+00 -0.13495691228E+04  0.13495691228E+04  0.25500000920E-02 0. -1.
    10030    2    1    2    0    0  0.00000000000E+00  0.00000000000E+00 -0.27207279015E+01  0.26964175177E+04  0.26964161451E+04 0.  0.
        3    1    3    3  502    0 -0.16651526128E+03 -0.10456982604E+04  0.83317754521E+03  0.13473666969E+04  0.10100000352E+00 0.  1.
       -3    1    3    3    0  502  0.16651526128E+03  0.10456982604E+04 -0.83589827311E+03  0.13490508208E+04  0.10100000352E+00 0. -1.
</event>
<event>
 5   0  0.1937896E-07  0.2679859E+04  0.7818609E-02  0.8341570E-01
       -1   -1    0    0    0  501  0.00000000000E+00  0.00000000000E+00  0.11433694876E+04  0.11433694877E+04  0.50400001928E-02 0.  1.
        1   -1    0    0  501    0  0.00000000000E+00  0.00000000000E+00 -0.15702808781E+04  0.15702808781E+04  0.50400001928E-02 0. -1.
    10030    2    1    2    0    0  0.00000000000E+00  0.00000000000E+00 -0.42691139042E+03  0.27136503657E+04  0.26798591329E+04 0.  0.
        3    1    3    3  502    0 -0.14241233863E+03 -0.12727817486E+04  0.18541030951E+03  0.12940755955E+04  0.10100000352E+00 0.  1.
       -3    1    3    3    0  502  0.14241233863E+03  0.12727817486E+04 -0.61232169993E+03  0.14195747702E+04  0.10100000352E+00 0. -1.
</event>
<event>
 5   0  0.5043890E-07  0.2699643E+04  0.7818609E-02  0.8335121E-01
        2   -1    0    0  501    0  0.00000000000E+00  0.00000000000E+00  0.19796682717E+04  0.19796682717E+04  0.25500000920E-02 0.  1.
       -2   -1    0    0    0  501  0.00000000000E+00  0.00000000000E+00 -0.92036526181E+03  0.92036526182E+03  0.25500000920E-02 0. -1.
    10030    2    1    2    0    0  0.00000000000E+00  0.00000000000E+00  0.10593030098E+04  0.29000335335E+04  0.26996428706E+04 0.  0.
        3    1    3    3  502    0 -0.13112751340E+04 -0.27537861502E+03  0.35398297940E+03  0.13858498543E+04  0.10100000352E+00 0. -1.
       -3    1    3    3    0  502  0.13112751340E+04  0.27537861502E+03  0.70532003044E+03  0.15141836792E+04  0.10100000352E+00 0.  1.
</event>
<event>
 5   0  0.4992668E-07  0.2700431E+04  0.7818609E-02  0.8334865E-01
       -2   -1    0    0    0  501  0.00000000000E+00  0.00000000000E+00  0.87320557570E+03  0.87320557571E+03  0.25500000920E-02 0.  1.
        2   -1    0    0  501    0  0.00000000000E+00  0.00000000000E+00 -0.20878045420E+04  0.20878045420E+04  0.25500000920E-02 0. -1.
    10030    2    1    2    0    0  0.00000000000E+00  0.00000000000E+00 -0.12145989663E+04  0.29610101177E+04  0.27004314967E+04 0.  0.
        1    1    3    3  502    0 -0.31716852705E+03 -0.66497974877E+03 -0.18479820225E+04  0.19894299426E+04  0.50400001928E-02 0. -1.
       -1    1    3    3    0  502  0.31716852705E+03  0.66497974877E+03  0.63338305621E+03  0.97158017515E+03  0.50400001928E-02 0.  1.
</event>
<event>
 5   0  0.1964242E-07  0.2700771E+04  0.7818609E-02  0.8334755E-01
        1   -1    0    0  501    0  0.00000000000E+00  0.00000000000E+00  0.19574424767E+04  0.19574424767E+04  0.50400001928E-02 0. -1.
       -1   -1    0    0    0  501  0.00000000000E+00  0.00000000000E+00 -0.93159337420E+03  0.93159337421E+03  0.50400001928E-02 0.  1.
    10030    2    1    2    0    0  0.00000000000E+00  0.00000000000E+00  0.10258491025E+04  0.28890358510E+04  0.27007705876E+04 0.  0.
        2    1    3    3  502    0 -0.12866100172E+03  0.12181844181E+04 -0.95036252706E+02  0.12286410457E+04  0.25500000920E-02 0.  1.
       -2    1    3    3    0  502  0.12866100172E+03 -0.12181844181E+04  0.11208853552E+04  0.16603948053E+04  0.25500000920E-02 0. -1.
</event>
<event>
 5   0  0.4983208E-07  0.2699227E+04  0.7818609E-02  0.8335256E-01
       -2   -1    0    0    0  501  0.00000000000E+00  0.00000000000E+00  0.84759875645E+03  0.84759875646E+03  0.25500000920E-02 0.  1.
        2   -1    0    0  501    0  0.00000000000E+00  0.00000000000E+00 -0.21489610131E+04  0.21489610131E+04  0.25500000920E-02 0. -1.
    10030    2    1    2    0    0  0.00000000000E+00  0.00000000000E+00 -0.13013622566E+04  0.29965597695E+04  0.26992270615E+04 0.  0.
        4    1    3    3  502    0  0.11860888591E+04  0.57987477037E+03 -0.33985060546E+03  0.13632907166E+04  0.12699999809E+01 0.  1.
       -4    1    3    3    0  502 -0.11860888591E+04 -0.57987477037E+03 -0.96151165117E+03  0.16332690529E+04  0.12699999809E+01 0. -1.
</event>
<event>
 5   0  0.4735120E-07  0.2699979E+04  0.7818609E-02  0.8335012E-01
        2   -1    0    0  501    0  0.00000000000E+00  0.00000000000E+00  0.12455137954E+04  0.12455137954E+04  0.25500000920E-02 0. -1.
       -2   -1    0    0    0  501  0.00000000000E+00  0.00000000000E+00 -0.14632291241E+04  0.14632291241E+04  0.25500000920E-02 0.  1.
    10030    2    1    2    0    0  0.00000000000E+00  0.00000000000E+00 -0.21771532864E+03  0.27087429195E+04  0.26999793036E+04 0.  0.
        2    1    3    3  502    0  0.65742744330E+03 -0.75769155919E+03 -0.10152083388E+04  0.14272194342E+04  0.25500000920E-02 0.  1.
       -2    1    3    3    0  502 -0.65742744330E+03  0.75769155919E+03  0.79749301021E+03  0.12815234853E+04  0.25500000920E-02 0. -1.
</event>
<event>
 5   0  0.1937896E-07  0.2697472E+04  0.7818609E-02  0.8335826E-01
        1   -1    0    0  501    0  0.00000000000E+00  0.00000000000E+00  0.97556927891E+03  0.97556927893E+03  0.50400001928E-02 0. -1.
       -1   -1    0    0    0  501  0.00000000000E+00  0.00000000000E+00 -0.18646429338E+04  0.18646429338E+04  0.50400001928E-02 0.  1.
    10030    2    1    2    0    0  0.00000000000E+00  0.00000000000E+00 -0.88907365490E+03  0.28402122127E+04  0.26974716773E+04 0.  0.
        3    1    3    3  502    0 -0.98248739075E+03 -0.24783555464E+03  0.49272700849E+03  0.11267137393E+04  0.10100000352E+00 0. -1.
       -3    1    3    3    0  502  0.98248739075E+03  0.24783555464E+03 -0.13818006634E+04  0.17134984735E+04  0.10100000352E+00 0.  1.
</event>
<event>
 5   0  0.1965415E-07  0.2699286E+04  0.7818609E-02  0.8335237E-01
       -1   -1    0    0    0  501  0.00000000000E+00  0.00000000000E+00  0.12366242201E+04  0.12366242201E+04  0.50400001928E-02 0.  1.
        1   -1    0    0  501    0  0.00000000000E+00  0.00000000000E+00 -0.14729908337E+04  0.14729908337E+04  0.50400001928E-02 0. -1.
    10030    2    1    2    0    0  0.00000000000E+00  0.00000000000E+00 -0.23636661358E+03  0.27096150539E+04  0.26992859360E+04 0.  0.
        4    1    3    3  502    0  0.65393560168E+03 -0.84188188632E+03  0.71271451469E+03  0.12823261964E+04  0.12699999809E+01 0.  1.
       -4    1    3    3    0  502 -0.65393560168E+03  0.84188188632E+03 -0.94908112828E+03  0.14272888575E+04  0.12699999809E+01 0. -1.
</event>
<event>
 5   0  0.1971600E-07  0.2695975E+04  0.7818609E-02  0.8336312E-01
        1   -1    0    0  501    0  0.00000000000E+00  0.00000000000E+00  0.22890689375E+04  0.22890689376E+04  0.50400001928E-02 0. -1.
       -1   -1    0    0    0  501  0.00000000000E+00  0.00000000000E+00 -0.79380323470E+03  0.79380323472E+03  0.50400001928E-02 0.  1.
    10030    2    1    2    0    0  0.00000000000E+00  0.00000000000E+00  0.14952657028E+04  0.30828721723E+04  0.26959750200E+04 0.  0.
        5    1    3    3  502    0 -0.92832173950E+02 -0.58009577261E+03 -0.63970315035E+03  0.86854540957E+03  0.46999998093E+01 0.  1.
       -5    1    3    3    0  502  0.92832173950E+02  0.58009577261E+03  0.21349688532E+04  0.22143267627E+04  0.46999998093E+01 0. -1.
</event>
<event>
 5   0  0.1965415E-07  0.2701500E+04  0.7818609E-02  0.8334519E-01
       -1   -1    0    0    0  501  0.00000000000E+00  0.00000000000E+00  0.12550337732E+04  0.12550337732E+04  0.50400001928E-02 0. -1.
        1   -1    0    0  501    0  0.00000000000E+00  0.00000000000E+00 -0.14537658112E+04  0.14537658112E+04  0.50400001928E-02 0.  1.
    10030    2    1    2    0    0  0.00000000000E+00  0.00000000000E+00 -0.19873203801E+03  0.27087995844E+04  0.27014997253E+04 0.  0.
        4    1    3    3  502    0 -0.12430083209E+04 -0.52122883230E+03 -0.10955221994E+02  0.13479135029E+04  0.12699999809E+01 0.  1.
       -4    1    3    3    0  502  0.12430083209E+04  0.52122883230E+03 -0.18777681601E+03  0.13608860816E+04  0.12699999809E+01 0. -1.
</event>
<event>
 5   0  0.1888149E-07  0.2699594E+04  0.7818609E-02  0.8335137E-01
        1   -1    0    0  501    0  0.00000000000E+00  0.00000000000E+00  0.19446647312E+04  0.19446647312E+04  0.50400001928E-02 0.  1.
       -1   -1    0    0    0  501  0.00000000000E+00  0.00000000000E+00 -0.93689773079E+03  0.93689773080E+03  0.50400001928E-02 0. -1.
    10030    2    1    2    0    0  0.00000000000E+00  0.00000000000E+00  0.10077670004E+04  0.28815624620E+04  0.26995940242E+04 0.  0.
        1    1    3    3  502    0  0.38777292906E+03 -0.57845649661E+03 -0.73033135715E+03  0.10091400568E+04  0.50400001928E-02 0. -1.
       -1    1    3    3    0  502 -0.38777292906E+03  0.57845649661E+03  0.17380983575E+04  0.18724224052E+04  0.50400001928E-02 0.  1.
</event>
<event>
 5   0  0.4843887E-07  0.2698989E+04  0.7818609E-02  0.8335333E-01
        2   -1    0    0  501    0  0.00000000000E+00  0.00000000000E+00  0.12316001977E+04  0.12316001977E+04  0.25500000920E-02 0.  1.
       -2   -1    0    0    0  501  0.00000000000E+00  0.00000000000E+00 -0.14786741401E+04  0.14786741401E+04  0.25500000920E-02 0. -1.
    10030    2    1    2    0    0  0.00000000000E+00  0.00000000000E+00 -0.24707394247E+03  0.27102743378E+04  0.26989889687E+04 0.  0.
        5    1    3    3  502    0 -0.12582056181E+04 -0.46889222478E+03  0.11830164291E+02  0.13427968344E+04  0.46999998093E+01 0.  1.
       -5    1    3    3    0  502  0.12582056181E+04  0.46889222478E+03 -0.25890410676E+03  0.13674775034E+04  0.46999998093E+01 0. -1.
</event>
<event>
 5   0  0.1965415E-07  0.2707881E+04  0.7818609E-02  0.8332452E-01
        1   -1    0    0  501    0  0.00000000000E+00  0.00000000000E+00  0.19241950321E+04  0.19241950321E+04  0.50400001928E-02 0. -1.
       -1   -1    0    0    0  501  0.00000000000E+00  0.00000000000E+00 -0.95268647764E+03  0.95268647765E+03  0.50400001928E-02 0.  1.
    10030    2    1    2    0    0  0.00000000000E+00  0.00000000000E+00  0.97150855450E+03  0.28768815098E+04  0.27078807858E+04 0.  0.
        4    1    3    3  502    0  0.54677895123E+03 -0.23172085889E+03  0.17784471340E+04  0.18749766930E+04  0.12699999809E+01 0. -1.
       -4    1    3    3    0  502 -0.54677895123E+03  0.23172085889E+03 -0.80693857949E+03  0.10019048168E+04  0.12699999809E+01 0.  1.
</event>
<event>
 5   0  0.1641625E-07  0.2699990E+04  0.7818609E-02  0.8335008E-01
        4   -1    0    0  501    0  0.00000000000E+00  0.00000000000E+00  0.14533531563E+04  0.14533537112E+04  0.12699999809E+01 0.  1.
       -4   -1    0    0    0  501  0.00000000000E+00  0.00000000000E+00 -0.12539862558E+04  0.12539868989E+04  0.12699999809E+01 0. -1.
    10030    2    1    2    0    0  0.00000000000E+00  0.00000000000E+00  0.19936690053E+03  0.27073406101E+04  0.26999900033E+04 0.  0.
        5    1    3    3  502    0 -0.10939110877E+04  0.89033654665E+02  0.88788705659E+03  0.14117131347E+04  0.46999998093E+01 0.  1.
       -5    1    3    3    0  502  0.10939110877E+04 -0.89033654665E+02 -0.68852015605E+03  0.12956274753E+04  0.46999998093E+01 0. -1.
</event>
<event>
 5   0  0.5043890E-07  0.2700647E+04  0.7818609E-02  0.8334795E-01
        2   -1    0    0  501    0  0.00000000000E+00  0.00000000000E+00  0.21907907337E+04  0.21907907337E+04  0.25500000920E-02 0.  1.
       -2   -1    0    0    0  501  0.00000000000E+00  0.00000000000E+00 -0.83229026668E+03  0.83229026669E+03  0.25500000920E-02 0. -1.
    10030    2    1    2    0    0  0.00000000000E+00  0.00000000000E+00  0.13585004670E+04  0.30230810004E+04  0.27006471846E+04 0.  0.
        3    1    3    3  502    0  0.23097308701E+02 -0.19207112433E+03  0.21751980975E+04  0.21837837750E+04  0.10100000352E+00 0.  1.
       -3    1    3    3    0  502 -0.23097308701E+02  0.19207112433E+03 -0.81669763054E+03  0.83929722531E+03  0.10100000352E+00 0. -1.
</event>
<event>
 5   0  0.5043890E-07  0.2699228E+04  0.7818609E-02  0.8335256E-01
       -2   -1    0    0    0  501  0.00000000000E+00  0.00000000000E+00  0.14072832025E+04  0.14072832025E+04  0.25500000920E-02 0. -1.
        2   -1    0    0  501    0  0.00000000000E+00  0.00000000000E+00 -0.12943077882E+04  0.12943077882E+04  0.25500000920E-02 0.  1.
    10030    2    1    2    0    0  0.00000000000E+00  0.00000000000E+00  0.11297541426E+03  0.27015909907E+04  0.26992277482E+04 0.  0.
        3    1    3    3  502    0  0.92214918722E+03 -0.78303968504E+03 -0.54232310231E+03  0.13257543624E+04  0.10100000352E+00 0. -1.
       -3    1    3    3    0  502 -0.92214918722E+03  0.78303968504E+03  0.65529851657E+03  0.13758366283E+04  0.10100000352E+00 0.  1.
</event>
<event>
 5   0  0.1971600E-07  0.2700422E+04  0.7818609E-02  0.8334868E-01
        1   -1    0    0  501    0  0.00000000000E+00  0.00000000000E+00  0.90196408573E+03  0.90196408575E+03  0.50400001928E-02 0.  1.
       -1   -1    0    0    0  501  0.00000000000E+00  0.00000000000E+00 -0.20212217599E+04  0.20212217599E+04  0.50400001928E-02 0. -1.
    10030    2    1    2    0    0  0.00000000000E+00  0.00000000000E+00 -0.11192576742E+04  0.29231858457E+04  0.27004217721E+04 0.  0.
        5    1    3    3  502    0 -0.13415630906E+04 -0.16975214259E+02 -0.39557619514E+03  0.13987788603E+04  0.46999998093E+01 0.  1.
       -5    1    3    3    0  502  0.13415630906E+04  0.16975214259E+02 -0.72368147904E+03  0.15244069854E+04  0.46999998093E+01 0. -1.
</event>
<event>
 5   0  0.4843887E-07  0.2699120E+04  0.7818609E-02  0.8335290E-01
        2   -1    0    0  501    0  0.00000000000E+00  0.00000000000E+00  0.19106654883E+04  0.19106654883E+04  0.25500000920E-02 0. -1.
       -2   -1    0    0    0  501  0.00000000000E+00  0.00000000000E+00 -0.95323457603E+03  0.95323457603E+03  0.25500000920E-02 0.  1.
    10030    2    1    2    0    0  0.00000000000E+00  0.00000000000E+00  0.95743091224E+03  0.28639000643E+04  0.26991201579E+04 0.  0.
        5    1    3    3  502    0  0.96640542492E+03  0.63862088509E+03 -0.25602912771E+03  0.11863174467E+04  0.46999998093E+01 0.  1.
       -5    1    3    3    0  502 -0.96640542492E+03 -0.63862088509E+03  0.12134600400E+04  0.16775826176E+04  0.46999998093E+01 0. -1.
</event>
<event>
 5   0  0.5043890E-07  0.2703866E+04  0.7818609E-02  0.8333752E-01
        2   -1    0    0  501    0  0.00000000000E+00  0.00000000000E+00  0.22082085886E+04  0.22082085886E+04  0.25500000920E-02 0.  1.
       -2   -1    0    0    0  501  0.00000000000E+00  0.00000000000E+00 -0.82769475254E+03  0.82769475255E+03  0.25500000920E-02 0. -1.
    10030    2    1    2    0    0  0.00000000000E+00  0.00000000000E+00  0.13805138361E+04  0.30359033412E+04  0.27038658704E+04 0.  0.
        3    1    3    3  502    0  0.12270755787E+04  0.27712812338E+03  0.12462511318E+04  0.17707784634E+04  0.10100000352E+00 0.  1.
       -3    1    3    3    0  502 -0.12270755787E+04 -0.27712812338E+03  0.13426270427E+03  0.12651248778E+04  0.10100000352E+00 0. -1.
</event>
<event>
 5   0  0.1937896E-07  0.2700308E+04  0.7818609E-02  0.8334905E-01
       -1   -1    0    0    0  501  0.00000000000E+00  0.00000000000E+00  0.13099535833E+04  0.13099535833E+04  0.50400001928E-02 0.  1.
        1   -1    0    0  501    0  0.00000000000E+00  0.00000000000E+00 -0.13915878395E+04  0.13915878395E+04  0.50400001928E-02 0. -1.
    10030    2    1    2    0    0  0.00000000000E+00  0.00000000000E+00 -0.81634256169E+02  0.27015414228E+04  0.27003077430E+04 0.  0.
        3    1    3    3  502    0 -0.53434794540E+03  0.12050006080E+04  0.25148287150E+03  0.13419380898E+04  0.10100000352E+00 0. -1.
       -3    1    3    3    0  502  0.53434794540E+03 -0.12050006080E+04 -0.33311712767E+03  0.13596033329E+04  0.10100000352E+00 0.  1.
</event>
<event>
 5   0  0.1937896E-07  0.2700040E+04  0.7818609E-02  0.8334992E-01
        1   -1    0    0  501    0  0.00000000000E+00  0.00000000000E+00  0.11045804070E+04  0.11045804070E+04  0.50400001928E-02 0. -1.
       -1   -1    0    0    0  501  0.00000000000E+00  0.00000000000E+00 -0.16499966539E+04  0.16499966539E+04  0.50400001928E-02 0.  1.
    10030    2    1    2    0    0  0.00000000000E+00  0.00000000000E+00 -0.54541624692E+03  0.27545770610E+04  0.27000399816E+04 0.  0.
        3    1    3    3  502    0 -0.33109724472E+03  0.96880495992E+03  0.62503508662E+03  0.11995321194E+04  0.10100000352E+00 0. -1.
       -3    1    3    3    0  502  0.33109724472E+03 -0.96880495992E+03 -0.11704513335E+04  0.15550449415E+04  0.10100000352E+00 0.  1.
</event>
<event>
 5   0  0.1965415E-07  0.2698673E+04  0.7818609E-02  0.8335436E-01
       -1   -1    0    0    0  501  0.00000000000E+00  0.00000000000E+00  0.12768140833E+04  0.12768140833E+04  0.50400001928E-02 0. -1.
        1   -1    0    0  501    0  0.00000000000E+00  0.00000000000E+00 -0.14259782787E+04  0.14259782787E+04  0.50400001928E-02 0.  1.
    10030    2    1    2    0    0  0.00000000000E+00  0.00000000000E+00 -0.14916419542E+03  0.27027923620E+04  0.26986731174E+04 0.  0.
        4    1    3    3  502    0 -0.10453465555E+04  0.29969250684E+03 -0.87463967040E+03  0.13955504955E+04  0.12699999809E+01 0.  1.
       -4    1    3    3    0  502  0.10453465555E+04 -0.29969250684E+03  0.72547547498E+03  0.13072418664E+04  0.12699999809E+01 0. -1.
</event>
<event>
 5   0  0.4992668E-07  0.2700191E+04  0.7818609E-02  0.8334943E-01
        2   -1    0    0  501    0  0.00000000000E+00  0.00000000000E+00  0.20052124087E+04  0.20052124087E+04  0.25500000920E-02 0.  1.
       -2   -1    0    0    0  501  0.00000000000E+00  0.00000000000E+00 -0.90900991113E+03  0.90900991113E+03  0.25500000920E-02 0. -1.
    10030    2    1    2    0    0  0.00000000000E+00  0.00000000000E+00  0.10962024976E+04  0.29142223198E+04  0.27001910699E+04 0.  0.
        1    1    3    3  502    0 -0.12340586611E+04 -0.13938535590E+03  0.11196319509E+04  0.16720959189E+04  0.50400001928E-02 0.  1.
       -1    1    3    3    0  502  0.12340586611E+04  0.13938535590E+03 -0.23429453362E+02  0.12421264009E+04  0.50400001928E-02 0. -1.
</event>
<event>
 5   0  0.1641625E-07  0.2700271E+04  0.7818609E-02  0.8334917E-01
       -4   -1    0    0    0  501  0.00000000000E+00  0.00000000000E+00  0.12206006254E+04  0.12206012861E+04  0.12699999809E+01 0.  1.
        4   -1    0    0  501    0  0.00000000000E+00  0.00000000000E+00 -0.14934156004E+04  0.14934161404E+04  0.12699999809E+01 0. -1.
    10030    2    1    2    0    0  0.00000000000E+00  0.00000000000E+00 -0.27281497493E+03  0.27140174265E+04  0.27002708347E+04 0.  0.
        1    1    3    3  502    0 -0.12089042897E+04  0.53743460737E+03 -0.40718594269E+03  0.13842275575E+04  0.50400001928E-02 0. -1.
       -1    1    3    3    0  502  0.12089042897E+04 -0.53743460737E+03  0.13437096776E+03  0.13297898691E+04  0.50400001928E-02 0.  1.
</event>
<event>
 5   0  0.4735120E-07  0.2700140E+04  0.7818609E-02  0.8334960E-01
       -2   -1    0    0    0  501  0.00000000000E+00  0.00000000000E+00  0.69501736766E+03  0.69501736767E+03  0.25500000920E-02 0.  1.
        2   -1    0    0  501    0  0.00000000000E+00  0.00000000000E+00 -0.26225087936E+04  0.26225087936E+04  0.25500000920E-02 0. -1.
    10030    2    1    2    0    0  0.00000000000E+00  0.00000000000E+00 -0.19274914260E+04  0.33175261613E+04  0.27001401137E+04 0.  0.
        2    1    3    3  502    0 -0.11851909700E+04  0.47001992313E+03 -0.15092063677E+04  0.19756771558E+04  0.25500000920E-02 0.  1.
       -2    1    3    3    0  502  0.11851909700E+04 -0.47001992313E+03 -0.41828505823E+03  0.13418490055E+04  0.25500000920E-02 0. -1.
</event>
<event>
 5   0  0.5043890E-07  0.2704880E+04  0.7818609E-02  0.8333423E-01
        2   -1    0    0  501    0  0.00000000000E+00  0.00000000000E+00  0.20365236409E+04  0.20365236409E+04  0.25500000920E-02 0.  1.
       -2   -1    0    0    0  501  0.00000000000E+00  0.00000000000E+00 -0.89814491749E+03  0.89814491750E+03  0.25500000920E-02 0. -1.
    10030    2    1    2    0    0  0.00000000000E+00  0.00000000000E+00  0.11383787234E+04  0.29346685584E+04  0.27048795592E+04 0.  0.
        3    1    3    3  502    0 -0.10442796147E+04 -0.81984508941E+03  0.84882013265E+03  0.15758050362E+04  0.10100000352E+00 0.  1.
       -3    1    3    3    0  502  0.10442796147E+04  0.81984508941E+03  0.28955859075E+03  0.13588635222E+04  0.10100000352E+00 0. -1.
</event>
<event>
 5   0  0.1965415E-07  0.2699686E+04  0.7818609E-02  0.8335107E-01
        1   -1    0    0  501    0  0.00000000000E+00  0.00000000000E+00  0.56365971001E+03  0.56365971003E+03  0.50400001928E-02 0.  1.
       -1   -1    0    0    0  501  0.00000000000E+00  0.00000000000E+00 -0.32325808599E+04  0.32325808599E+04  0.50400001928E-02 0. -1.
    10030    2    1    2    0    0  0.00000000000E+00  0.00000000000E+00 -0.26689211499E+04  0.37962405699E+04  0.26996856040E+04 0.  0.
        4    1    3    3  502    0 -0.75525445440E+03  0.42102520450E+03 -0.27920124926E+04  0.29228422615E+04  0.12699999809E+01 0. -1.
       -4    1    3    3    0  502  0.75525445440E+03 -0.42102520450E+03  0.12309134269E+03  0.87339830848E+03  0.12699999809E+01 0.  1.
</event>
<event>
 5   0  0.1888149E-07  0.2699845E+04  0.7818609E-02  0.8335055E-01
        1   -1    0    0  501    0  0.00000000000E+00  0.00000000000E+00  0.13910940625E+04  0.13910940625E+04  0.50400001928E-02 0.  1.
       -1   -1    0    0    0  501  0.00000000000E+00  0.00000000000E+00 -0.13099691866E+04  0.13099691866E+04  0.50400001928E-02 0. -1.
    10030    2    1    2    0    0  0.00000000000E+00  0.00000000000E+00  0.81124875954E+02  0.27010632491E+04  0.26998447048E+04 0.  0.
        1    1    3    3  502    0  0.15851526369E+03 -0.13143306438E+04 -0.22356093608E+03  0.13425988314E+04  0.50400001928E-02 0.  1.
       -1    1    3    3    0  502 -0.15851526369E+03  0.13143306438E+04  0.30468581204E+03  0.13584644177E+04  0.50400001928E-02 0. -1.
</event>
<event>
 5   0  0.5043890E-07  0.2699790E+04  0.7818609E-02  0.8335073E-01
        2   -1    0    0  501    0  0.00000000000E+00  0.00000000000E+00  0.19535575931E+04  0.19535575931E+04  0.25500000920E-02 0. -1.
       -2   -1    0    0    0  501  0.00000000000E+00  0.00000000000E+00 -0.93276857934E+03  0.93276857935E+03  0.25500000920E-02 0.  1.
    10030    2    1    2    0    0  0.00000000000E+00  0.00000000000E+00  0.10207890137E+04  0.28863261724E+04  0.26997904665E+04 0.  0.
        3    1    3    3  502    0 -0.54016308722E+03 -0.29804899752E+03 -0.77323267318E+03  0.98919065037E+03  0.10100000352E+00 0.  1.
       -3    1    3    3    0  502  0.54016308722E+03  0.29804899752E+03  0.17940216869E+04  0.18971355220E+04  0.10100000352E+00 0. -1.
</event>
<event>
 5   0  0.4843887E-07  0.2703948E+04  0.7818609E-02  0.8333725E-01
        2   -1    0    0  501    0  0.00000000000E+00  0.00000000000E+00  0.18223146092E+04  0.18223146092E+04  0.25500000920E-02 0. -1.
       -2   -1    0    0    0  501  0.00000000000E+00  0.00000000000E+00 -0.10030289059E+04  0.10030289059E+04  0.25500000920E-02 0.  1.
    10030    2    1    2    0    0  0.00000000000E+00  0.00000000000E+00  0.81928570334E+03  0.28253435151E+04  0.27039483935E+04 0.  0.
        5    1    3    3  502    0  0.72464828808E+03 -0.10882605756E+04  0.76916270747E+03  0.15169243825E+04  0.46999998093E+01 0.  1.
       -5    1    3    3    0  502 -0.72464828808E+03  0.10882605756E+04  0.50122995867E+02  0.13084191326E+04  0.46999998093E+01 0. -1.
</event>
<event>
 5   0  0.1937896E-07  0.2694205E+04  0.7818609E-02  0.8336888E-01
       -1   -1    0    0    0  501  0.00000000000E+00  0.00000000000E+00  0.11772469872E+04  0.11772469872E+04  0.50400001928E-02 0.  1.
        1   -1    0    0  501    0  0.00000000000E+00  0.00000000000E+00 -0.15414653243E+04  0.15414653243E+04  0.50400001928E-02 0. -1.
    10030    2    1    2    0    0  0.00000000000E+00  0.00000000000E+00 -0.36421833707E+03  0.27187123115E+04  0.26942051955E+04 0.  0.
        3    1    3    3  502    0  0.81678445825E+03 -0.81502597755E+03  0.51939868377E+03  0.12653770972E+04  0.10100000352E+00 0.  1.
       -3    1    3    3    0  502 -0.81678445825E+03  0.81502597755E+03 -0.88361702084E+03  0.14533352143E+04  0.10100000352E+00 0. -1.
</event>
<event>
 5   0  0.1965415E-07  0.2699960E+04  0.7818609E-02  0.8335018E-01
        1   -1    0    0  501    0  0.00000000000E+00  0.00000000000E+00  0.17423062155E+04  0.17423062155E+04  0.50400001928E-02 0.  1.
       -1   -1    0    0    0  501  0.00000000000E+00  0.00000000000E+00 -0.10459961772E+04  0.10459961772E+04  0.50400001928E-02 0. -1.
    10030    2    1    2    0    0  0.00000000000E+00  0.00000000000E+00  0.69631003836E+03  0.27883023927E+04  0.26999597337E+04 0.  0.
        4    1    3    3  502    0 -0.59116309309E+03 -0.94654058839E+03 -0.43632558347E+03  0.11982464337E+04  0.12699999809E+01 0. -1.
       -4    1    3    3    0  502  0.59116309309E+03  0.94654058839E+03  0.11326356218E+04  0.15900559590E+04  0.12699999809E+01 0.  1.
</event>
<event>
 5   0  0.1964242E-07  0.2702518E+04  0.7818609E-02  0.8334189E-01
       -1   -1    0    0    0  501  0.00000000000E+00  0.00000000000E+00  0.13805453060E+04  0.13805453060E+04  0.50400001928E-02 0.  1.
        1   -1    0    0  501    0  0.00000000000E+00  0.00000000000E+00 -0.13225935779E+04  0.13225935779E+04  0.50400001928E-02 0. -1.
    10030    2    1    2    0    0  0.00000000000E+00  0.00000000000E+00  0.57951728046E+02  0.27031388839E+04  0.27025176082E+04 0.  0.
        2    1    3    3  502    0  0.16981250915E+02 -0.34698984480E+03  0.13351129718E+04  0.13795712967E+04  0.25500000920E-02 0.  1.
       -2    1    3    3    0  502 -0.16981250915E+02  0.34698984480E+03 -0.12771612438E+04  0.13235675872E+04  0.25500000920E-02 0. -1.
</event>
<event>
 5   0  0.4983208E-07  0.2701274E+04  0.7818609E-02  0.8334592E-01
       -2   -1    0    0    0  501  0.00000000000E+00  0.00000000000E+00  0.13594901652E+04  0.13594901652E+04  0.25500000920E-02 0. -1.
        2   -1    0    0  501    0  0.00000000000E+00  0.00000000000E+00 -0.13418414431E+04  0.13418414431E+04  0.25500000920E-02 0.  1.
    10030    2    1    2    0    0  0.00000000000E+00  0.00000000000E+00  0.17648722156E+02  0.27013316083E+04  0.27012739551E+04 0.  0.
        4    1    3    3  502    0 -0.36972707444E+03  0.61403279609E+03  0.11536126331E+04  0.13581450970E+04  0.12699999809E+01 0. -1.
       -4    1    3    3    0  502  0.36972707444E+03 -0.61403279609E+03 -0.11359639110E+04  0.13431865113E+04  0.12699999809E+01 0.  1.
</event>
<event>
 5   0  0.1971600E-07  0.2700316E+04  0.7818609E-02  0.8334903E-01
        1   -1    0    0  501    0  0.00000000000E+00  0.00000000000E+00  0.16512308332E+04  0.16512308332E+04  0.50400001928E-02 0.  1.
       -1   -1    0    0    0  501  0.00000000000E+00  0.00000000000E+00 -0.11039802824E+04  0.11039802824E+04  0.50400001928E-02 0. -1.
    10030    2    1    2    0    0  0.00000000000E+00  0.00000000000E+00  0.54725055080E+03  0.27552111156E+04  0.27003157456E+04 0.  0.
        5    1    3    3  502    0 -0.53989594469E+03  0.16121871249E+03 -0.97827549765E+03  0.11289482467E+04  0.46999998093E+01 0. -1.
       -5    1    3    3    0  502  0.53989594469E+03 -0.16121871249E+03  0.15255260485E+04  0.16262628689E+04  0.46999998093E+01 0.  1.
</event>
<event>
 5   0  0.4843887E-07  0.2697036E+04  0.7818609E-02  0.8335967E-01
        2   -1    0    0  501    0  0.00000000000E+00  0.00000000000E+00  0.19351373547E+04  0.19351373547E+04  0.25500000920E-02 0.  1.
       -2   -1    0    0    0  501  0.00000000000E+00  0.00000000000E+00 -0.93972698133E+03  0.93972698134E+03  0.25500000920E-02 0. -1.
    10030    2    1    2    0    0  0.00000000000E+00  0.00000000000E+00  0.99541037339E+03  0.28748643361E+04  0.26970359915E+04 0.  0.
        5    1    3    3  502    0 -0.26995522152E+03 -0.11883860346E+04 -0.11772006185E+03  0.12243436168E+04  0.46999998093E+01 0.  1.
       -5    1    3    3    0  502  0.26995522152E+03  0.11883860346E+04  0.11131304352E+04  0.16505207193E+04  0.46999998093E+01 0. -1.
</event>
<event>
 5   0  0.1964242E-07  0.2699699E+04  0.7818609E-02  0.8335103E-01
        1   -1    0    0  501    0  0.00000000000E+00  0.00000000000E+00  0.13084092630E+04  0.13084092630E+04  0.50400001928E-02 0.  1.
       -1   -1    0    0    0  501  0.00000000000E+00  0.00000000000E+00 -0.13926021871E+04  0.13926021871E+04  0.50400001928E-02 0. -1.
    10030    2    1    2    0    0  0.00000000000E+00  0.00000000000E+00 -0.84192924145E+02  0.27010114501E+04  0.26996989472E+04 0.  0.
        2    1    3    3  502    0  0.60506160891E+03 -0.11994154138E+04 -0.17405719627E+03  0.13546190583E+04  0.25500000920E-02 0.  1.
       -2    1    3    3    0  502 -0.60506160891E+03  0.11994154138E+04  0.89864272121E+02  0.13463923919E+04  0.25500000920E-02 0. -1.
</event>
<event>
 5   0  0.4992668E-07  0.2699091E+04  0.7818609E-02  0.8335300E-01
       -2   -1    0    0    0  501  0.00000000000E+00  0.00000000000E+00  0.80216348653E+03  0.80216348654E+03  0.25500000920E-02 0.  1.
        2   -1    0    0  501    0  0.00000000000E+00  0.00000000000E+00 -0.22704509765E+04  0.22704509765E+04  0.25500000920E-02 0. -1.
    10030    2    1    2    0    0  0.00000000000E+00  0.00000000000E+00 -0.14682874900E+04  0.30726144631E+04  0.26990908628E+04 0.  0.
        1    1    3    3  502    0 -0.66459577797E+02  0.52192942452E+03  0.68059707141E+03  0.86025552791E+03  0.50400001928E-02 0.  1.
       -1    1    3    3    0  502  0.66459577797E+02 -0.52192942452E+03 -0.21488845614E+04  0.22123589352E+04  0.50400001928E-02 0. -1.
</event>
<event>
 5   0  0.1971600E-07  0.2699646E+04  0.7818609E-02  0.8335120E-01
        1   -1    0    0  501    0  0.00000000000E+00  0.00000000000E+00  0.19114490566E+04  0.19114490566E+04  0.50400001928E-02 0.  1.
       -1   -1    0    0    0  501  0.00000000000E+00  0.00000000000E+00 -0.95321520443E+03  0.95321520445E+03  0.50400001928E-02 0. -1.
    10030    2    1    2    0    0  0.00000000000E+00  0.00000000000E+00  0.95823385214E+03  0.28646642610E+04  0.26996461274E+04 0.  0.
        5    1    3    3  502    0 -0.12398721526E+04  0.29930510622E+03  0.10375817431E+02  0.12755376313E+04  0.46999998093E+01 0. -1.
       -5    1    3    3    0  502  0.12398721526E+04 -0.29930510622E+03  0.94785803471E+03  0.15891266297E+04  0.46999998093E+01 0.  1.
</event>
<event>
 5   0  0.1964242E-07  0.2700626E+04  0.7818609E-02  0.8334802E-01
        1   -1    0    0  501    0  0.00000000000E+00  0.00000000000E+00  0.19330720433E+04  0.19330720433E+04  0.50400001928E-02 0. -1.
       -1   -1    0    0    0  501  0.00000000000E+00  0.00000000000E+00 -0.94323696377E+03  0.94323696378E+03  0.50400001928E-02 0.  1.
    10030    2    1    2    0    0  0.00000000000E+00  0.00000000000E+00  0.98983507956E+03  0.28763090071E+04  0.27006258570E+04 0.  0.
        2    1    3    3  502    0  0.18544957080E+02  0.79592486836E+03  0.16565111110E+04  0.18378980854E+04  0.25500000920E-02 0. -1.
       -2    1    3    3    0  502 -0.18544957080E+02 -0.79592486836E+03 -0.66667603141E+03  0.10384109217E+04  0.25500000920E-02 0.  1.
</event>
<event>
 5   0  0.4735120E-07  0.2699645E+04  0.7818609E-02  0.8335120E-01
        2   -1    0    0  501    0  0.00000000000E+00  0.00000000000E+00  0.10055527835E+04  0.10055527835E+04  0.25500000920E-02 0.  1.
       -2   -1    0    0    0  501  0.00000000000E+00  0.00000000000E+00 -0.18119589831E+04  0.18119589831E+04  0.25500000920E-02 0. -1.
    10030    2    1    2    0    0  0.00000000000E+00  0.00000000000E+00 -0.80640619967E+03  0.28175117666E+04  0.26996447166E+04 0.  0.
        2    1    3    3  502    0 -0.73514860261E+03 -0.52694295294E+03  0.64249446060E+03  0.11094644994E+04  0.25500000920E-02 0.  1.
       -2    1    3    3    0  502  0.73514860261E+03  0.52694295294E+03 -0.14489006603E+04  0.17080472672E+04  0.25500000920E-02 0. -1.
</event>
<event>
 5   0  0.4735120E-07  0.2681521E+04  0.7818609E-02  0.8341026E-01
       -2   -1    0    0    0  501  0.00000000000E+00  0.00000000000E+00  0.33178575592E+04  0.33178575592E+04  0.25500000920E-02 0. -1.
        2   -1    0    0  501    0  0.00000000000E+00  0.00000000000E+00 -0.54180706460E+03  0.54180706461E+03  0.25500000920E-02 0.  1.
    10030    2    1    2    0    0  0.00000000000E+00  0.00000000000E+00  0.27760504946E+04  0.38596646238E+04  0.26815209601E+04 0.  0.
        2    1    3    3  502    0  0.73831152042E+03  0.90324078119E+03  0.23391892853E+04  0.26139537720E+04  0.25500000920E-02 0. -1.
       -2    1    3    3    0  502 -0.73831152042E+03 -0.90324078119E+03  0.43686120932E+03  0.12457108518E+04  0.25500000920E-02 0.  1.
</event>
<event>
 5   0  0.4983208E-07  0.2701966E+04  0.7818609E-02  0.8334367E-01
        2   -1    0    0  501    0  0.00000000000E+00  0.00000000000E+00  0.12201445334E+04  0.12201445334E+04  0.25500000920E-02 0.  1.
       -2   -1    0    0    0  501  0.00000000000E+00  0.00000000000E+00 -0.14958511348E+04  0.14958511348E+04  0.25500000920E-02 0. -1.
    10030    2    1    2    0    0  0.00000000000E+00  0.00000000000E+00 -0.27570660140E+03  0.27159956682E+04  0.27019656437E+04 0.  0.
        4    1    3    3  502    0  0.65221913815E+03 -0.10461769257E+04  0.41753445214E+03  0.13016192207E+04  0.12699999809E+01 0.  1.
       -4    1    3    3    0  502 -0.65221913815E+03  0.10461769257E+04 -0.69324105354E+03  0.14143764475E+04  0.12699999809E+01 0. -1.
</event>
<event>
 5   0  0.4735120E-07  0.2698893E+04  0.7818609E-02  0.8335364E-01
       -2   -1    0    0    0  501  0.00000000000E+00  0.00000000000E+00  0.86472383910E+03  0.86472383910E+03  0.25500000920E-02 0.  1.
        2   -1    0    0  501    0  0.00000000000E+00  0.00000000000E+00 -0.21058819857E+04  0.21058819857E+04  0.25500000920E-02 0. -1.
    10030    2    1    2    0    0  0.00000000000E+00  0.00000000000E+00 -0.12411581466E+04  0.29706058248E+04  0.26988933698E+04 0.  0.
        2    1    3    3  502    0  0.10287466449E+03  0.41877349270E+01 -0.21015524340E+04  0.21040730421E+04  0.25500000920E-02 0. -1.
       -2    1    3    3    0  502 -0.10287466449E+03 -0.41877349270E+01  0.86039428739E+03  0.86653278270E+03  0.25500000920E-02 0.  1.
</event>
<event>
 5   0  0.4735120E-07  0.2693412E+04  0.7818609E-02  0.8337146E-01
        2   -1    0    0  501    0  0.00000000000E+00  0.00000000000E+00  0.30309395003E+04  0.30309395003E+04  0.25500000920E-02 0. -1.
       -2   -1    0    0    0  501  0.00000000000E+00  0.00000000000E+00 -0.59836788070E+03  0.59836788070E+03  0.25500000920E-02 0.  1.
    10030    2    1    2    0    0  0.00000000000E+00  0.00000000000E+00  0.24325716196E+04  0.36293073810E+04  0.26934118477E+04 0.  0.
        2    1    3    3  502    0 -0.58122031048E+03  0.31410809230E+03 -0.36499640428E+03  0.75478693557E+03  0.25500000920E-02 0.  1.
       -2    1    3    3    0  502  0.58122031048E+03 -0.31410809230E+03  0.27975680239E+04  0.28745204454E+04  0.25500000920E-02 0. -1.
</event>
<event>
 5   0  0.5043890E-07  0.2699670E+04  0.7818609E-02  0.8335112E-01
       -2   -1    0    0    0  501  0.00000000000E+00  0.00000000000E+00  0.12907529229E+04  0.12907529229E+04  0.25500000920E-02 0. -1.
        2   -1    0    0  501    0  0.00000000000E+00  0.00000000000E+00 -0.14116213572E+04  0.14116213572E+04  0.25500000920E-02 0.  1.
    10030    2    1    2    0    0  0.00000000000E+00  0.00000000000E+00 -0.12086843427E+03  0.27023742802E+04  0.26996699005E+04 0.  0.
        3    1    3    3  502    0  0.10040689967E+04  0.34242123391E+03 -0.89592446605E+03  0.13885559083E+04  0.10100000352E+00 0.  1.
       -3    1    3    3    0  502 -0.10040689967E+04 -0.34242123391E+03  0.77505603178E+03  0.13138183718E+04  0.10100000352E+00 0. -1.
</event>
<event>
 5   0  0.1965415E-07  0.2699212E+04  0.7818609E-02  0.8335261E-01
       -1   -1    0    0    0  501  0.00000000000E+00  0.00000000000E+00  0.20500495832E+04  0.20500495832E+04  0.50400001928E-02 0.  1.
        1   -1    0    0  501    0  0.00000000000E+00  0.00000000000E+00 -0.88848388437E+03  0.88848388438E+03  0.50400001928E-02 0. -1.
    10030    2    1    2    0    0  0.00000000000E+00  0.00000000000E+00  0.11615656988E+04  0.29385334676E+04  0.26992117493E+04 0.  0.
        4    1    3    3  502    0 -0.86788386082E+02  0.24051802012E+03  0.20234379905E+04  0.20395303519E+04  0.12699999809E+01 0.  1.
       -4    1    3    3    0  502  0.86788386082E+02 -0.24051802012E+03 -0.86187229168E+03  0.89900311570E+03  0.12699999809E+01 0. -1.
</event>
<event>
 5   0  0.1888149E-07  0.2699657E+04  0.7818609E-02  0.8335116E-01
       -1   -1    0    0    0  501  0.00000000000E+00  0.00000000000E+00  0.10202977858E+04  0.10202977859E+04  0.50400001928E-02 0.  1.
        1   -1    0    0  501    0  0.00000000000E+00  0.00000000000E+00 -0.17857895889E+04  0.17857895889E+04  0.50400001928E-02 0. -1.
    10030    2    1    2    0    0  0.00000000000E+00  0.00000000000E+00 -0.76549180306E+03  0.28060873748E+04  0.26996571364E+04 0.  0.
        1    1    3    3  502    0 -0.76216647855E+03 -0.33030957428E+03 -0.14886628337E+04  0.17047343453E+04  0.50400001928E-02 0. -1.
       -1    1    3    3    0  502  0.76216647855E+03  0.33030957428E+03  0.72317103059E+03  0.11013530294E+04  0.50400001928E-02 0.  1.
</event>
<event>
 5   0  0.1937896E-07  0.2700831E+04  0.7818609E-02  0.8334735E-01
       -1   -1    0    0    0  501  0.00000000000E+00  0.00000000000E+00  0.75139692289E+03  0.75139692290E+03  0.50400001928E-02 0.  1.
        1   -1    0    0  501    0  0.00000000000E+00  0.00000000000E+00 -0.24269755396E+04  0.24269755396E+04  0.50400001928E-02 0. -1.
    10030    2    1    2    0    0  0.00000000000E+00  0.00000000000E+00 -0.16755786167E+04  0.31783724625E+04  0.27008309480E+04 0.  0.
        3    1    3    3  502    0  0.42515198144E+03 -0.94189855052E+03  0.18522243887E+03  0.10498735395E+04  0.10100000352E+00 0.  1.
       -3    1    3    3    0  502 -0.42515198144E+03  0.94189855052E+03 -0.18608010556E+04  0.21284989231E+04  0.10100000352E+00 0. -1.
</event>
<event>
 5   0  0.1964242E-07  0.2699968E+04  0.7818609E-02  0.8335016E-01
       -1   -1    0    0    0  501  0.00000000000E+00  0.00000000000E+00  0.10771679098E+04  0.10771679098E+04  0.50400001928E-02 0.  1.
        1   -1    0    0  501    0  0.00000000000E+00  0.00000000000E+00 -0.16918960691E+04  0.16918960692E+04  0.50400001928E-02 0. -1.
    10030    2    1    2    0    0  0.00000000000E+00  0.00000000000E+00 -0.61472815935E+03  0.27690639790E+04  0.26999675201E+04 0.  0.
        2    1    3    3  502    0  0.10891297457E+03  0.83162609703E+03  0.77753157717E+03  0.11436867381E+04  0.25500000920E-02 0.  1.
       -2    1    3    3    0  502 -0.10891297457E+03 -0.83162609703E+03 -0.13922597365E+04  0.16253772409E+04  0.25500000920E-02 0. -1.
</event>
<event>
 5   0  0.1937896E-07  0.2694450E+04  0.7818609E-02  0.8336808E-01
       -1   -1    0    0    0  501  0.00000000000E+00  0.00000000000E+00  0.14874337966E+04  0.14874337966E+04  0.50400001928E-02 0.  1.
        1   -1    0    0  501    0  0.00000000000E+00  0.00000000000E+00 -0.12202325711E+04  0.12202325711E+04  0.50400001928E-02 0. -1.
    10030    2    1    2    0    0  0.00000000000E+00  0.00000000000E+00  0.26720122555E+03  0.27076663677E+04  0.26944499743E+04 0.  0.
        3    1    3    3  502    0 -0.62437827444E+03 -0.18804607458E+03  0.13182833344E+04  0.14707414850E+04  0.10100000352E+00 0.  1.
       -3    1    3    3    0  502  0.62437827444E+03  0.18804607458E+03 -0.10510821088E+04  0.12369248827E+04  0.10100000352E+00 0. -1.
</event>
<event>
 5   0  0.4983208E-07  0.2697550E+04  0.7818609E-02  0.8335800E-01
       -2   -1    0    0    0  501  0.00000000000E+00  0.00000000000E+00  0.15486756563E+04  0.15486756563E+04  0.25500000920E-02 0. -1.
        2   -1    0    0  501    0  0.00000000000E+00  0.00000000000E+00 -0.11746771912E+04  0.11746771912E+04  0.25500000920E-02 0.  1.
    10030    2    1    2    0    0  0.00000000000E+00  0.00000000000E+00  0.37399846506E+03  0.27233528475E+04  0.26975499773E+04 0.  0.
        4    1    3    3  502    0  0.12546303436E+04 -0.22900603641E+03  0.63011823911E+03  0.14225300250E+04  0.12699999809E+01 0. -1.
       -4    1    3    3    0  502 -0.12546303436E+04  0.22900603641E+03 -0.25611977405E+03  0.13008228225E+04  0.12699999809E+01 0.  1.
</event>
<event>
 5   0  0.4983208E-07  0.2701231E+04  0.7818609E-02  0.8334606E-01
        2   -1    0    0  501    0  0.00000000000E+00  0.00000000000E+00  0.13870622792E+04  0.13870622792E+04  0.25500000920E-02 0. -1.
       -2   -1    0    0    0  501  0.00000000000E+00  0.00000000000E+00 -0.13151263005E+04  0.13151263005E+04  0.25500000920E-02 0.  1.
    10030    2    1    2    0    0  0.00000000000E+00  0.00000000000E+00  0.71935978701E+02  0.27021885796E+04  0.27012308925E+04 0.  0.
        4    1    3    3  502    0 -0.10602652027E+04  0.82016391804E+03  0.20134241362E+03  0.13554967846E+04  0.12699999809E+01 0. -1.
       -4    1    3    3    0  502  0.10602652027E+04 -0.82016391804E+03 -0.12940643492E+03  0.13466917951E+04  0.12699999809E+01 0.  1.
</event>
<event>
 5   0  0.4735120E-07  0.2700329E+04  0.7818609E-02  0.8334898E-01
       -2   -1    0    0    0  501  0.00000000000E+00  0.00000000000E+00  0.12644470048E+04  0.12644470048E+04  0.25500000920E-02 0.  1.
        2   -1    0    0  501    0  0.00000000000E+00  0.00000000000E+00 -0.14416929293E+04  0.14416929293E+04  0.25500000920E-02 0. -1.
    10030    2    1    2    0    0  0.00000000000E+00  0.00000000000E+00 -0.17724592451E+03  0.27061399341E+04  0.27003290957E+04 0.  0.
        2    1    3    3  502    0 -0.60437563058E+03 -0.89152883532E+03 -0.90453140425E+03  0.14065100882E+04  0.25500000920E-02 0. -1.
       -2    1    3    3    0  502  0.60437563058E+03  0.89152883532E+03  0.72728547974E+03  0.12996298458E+04  0.25500000920E-02 0.  1.
</event>
<event>
 5   0  0.1641625E-07  0.2699960E+04  0.7818609E-02  0.8335018E-01
        3   -1    0    0  501    0  0.00000000000E+00  0.00000000000E+00  0.64911838276E+03  0.64911839061E+03  0.10100000352E+00 0.  1.
       -3   -1    0    0    0  501  0.00000000000E+00  0.00000000000E+00 -0.28075709451E+04  0.28075709469E+04  0.10100000352E+00 0. -1.
    10030    2    1    2    0    0  0.00000000000E+00  0.00000000000E+00 -0.21584525623E+04  0.34566893375E+04  0.26999599464E+04 0.  0.
        5    1    3    3  502    0 -0.44405382019E+03  0.76840307255E+03  0.22313224878E+03  0.91511593122E+03  0.46999998093E+01 0.  1.
       -5    1    3    3    0  502  0.44405382019E+03 -0.76840307255E+03 -0.23815848111E+04  0.25415734063E+04  0.46999998093E+01 0. -1.
</event>
<event>
 5   0  0.1965415E-07  0.2701494E+04  0.7818609E-02  0.8334520E-01
       -1   -1    0    0    0  501  0.00000000000E+00  0.00000000000E+00  0.11148062106E+04  0.11148062106E+04  0.50400001928E-02 0.  1.
        1   -1    0    0  501    0  0.00000000000E+00  0.00000000000E+00 -0.16366229898E+04  0.16366229898E+04  0.50400001928E-02 0. -1.
    10030    2    1    2    0    0  0.00000000000E+00  0.00000000000E+00 -0.52181677918E+03  0.27514292004E+04  0.27014940114E+04 0.  0.
        4    1    3    3  502    0  0.12565901087E+04 -0.24588343508E+03 -0.69902062018E+03  0.14588038954E+04  0.12699999809E+01 0.  1.
       -4    1    3    3    0  502 -0.12565901087E+04  0.24588343508E+03  0.17720384100E+03  0.12926253050E+04  0.12699999809E+01 0. -1.
</event>
<event>
 5   0  0.1937896E-07  0.2699994E+04  0.7818609E-02  0.8335007E-01
        1   -1    0    0  501    0  0.00000000000E+00  0.00000000000E+00  0.15526247820E+04  0.15526247820E+04  0.50400001928E-02 0.  1.
       -1   -1    0    0    0  501  0.00000000000E+00  0.00000000000E+00 -0.11738134865E+04  0.11738134866E+04  0.50400001928E-02 0. -1.
    10030    2    1    2    0    0  0.00000000000E+00  0.00000000000E+00  0.37881129548E+03  0.27264382686E+04  0.26999940065E+04 0.  0.
        3    1    3    3  502    0  0.99120427977E+03 -0.53061881773E+02  0.11133482478E+04  0.14915917064E+04  0.10100000352E+00 0.  1.
       -3    1    3    3    0  502 -0.99120427977E+03  0.53061881773E+02 -0.73453695235E+03  0.12348465622E+04  0.10100000352E+00 0. -1.
</event>
<event>
 5   0  0.1965415E-07  0.2697818E+04  0.7818609E-02  0.8335713E-01
       -1   -1    0    0    0  501  0.00000000000E+00  0.00000000000E+00  0.81856166654E+03  0.81856166655E+03  0.50400001928E-02 0. -1.
        1   -1    0    0  501    0  0.00000000000E+00  0.00000000000E+00 -0.22228690715E+04  0.22228690715E+04  0.50400001928E-02 0.  1.
    10030    2    1    2    0    0  0.00000000000E+00  0.00000000000E+00 -0.14043074050E+04  0.30414307381E+04  0.26978179418E+04 0.  0.
        4    1    3    3  502    0 -0.11905743490E+04  0.70876942854E+02 -0.14125406768E+04  0.18487194481E+04  0.12699999809E+01 0.  1.
       -4    1    3    3    0  502  0.11905743490E+04 -0.70876942854E+02  0.82332717703E+01  0.11927112900E+04  0.12699999809E+01 0. -1.
</event>
<event>
 5   0  0.1965415E-07  0.2699231E+04  0.7818609E-02  0.8335255E-01
       -1   -1    0    0    0  501  0.00000000000E+00  0.00000000000E+00  0.10789096352E+04  0.10789096352E+04  0.50400001928E-02 0. -1.
        1   -1    0    0  501    0  0.00000000000E+00  0.00000000000E+00 -0.16882427691E+04  0.16882427691E+04  0.50400001928E-02 0.  1.
    10030    2    1    2    0    0  0.00000000000E+00  0.00000000000E+00 -0.60933313391E+03  0.27671524044E+04  0.26992305498E+04 0.  0.
        4    1    3    3  502    0 -0.22686036525E+02 -0.13487876418E+04 -0.26218695142E+03  0.13742220961E+04  0.12699999809E+01 0. -1.
       -4    1    3    3    0  502  0.22686036525E+02  0.13487876418E+04 -0.34714618249E+03  0.13929303083E+04  0.12699999809E+01 0.  1.
</event>
<event>
 5   0  0.4992668E-07  0.2703591E+04  0.7818609E-02  0.8333841E-01
       -2   -1    0    0    0  501  0.00000000000E+00  0.00000000000E+00  0.17705547899E+04  0.17705547900E+04  0.25500000920E-02 0. -1.
        2   -1    0    0  501    0  0.00000000000E+00  0.00000000000E+00 -0.10320782152E+04  0.10320782152E+04  0.25500000920E-02 0.  1.
    10030    2    1    2    0    0  0.00000000000E+00  0.00000000000E+00  0.73847657477E+03  0.28026330051E+04  0.27035909657E+04 0.  0.
        1    1    3    3  502    0  0.19333944608E+03 -0.30656469240E+03 -0.98077100563E+03  0.10455973496E+04  0.50400001928E-02 0.  1.
       -1    1    3    3    0  502 -0.19333944608E+03  0.30656469240E+03  0.17192475804E+04  0.17570356555E+04  0.50400001928E-02 0. -1.
</event>
<event>
 5   0  0.4735120E-07  0.2697593E+04  0.7818609E-02  0.8335786E-01
       -2   -1    0    0    0  501  0.00000000000E+00  0.00000000000E+00  0.29666509257E+04  0.29666509257E+04  0.25500000920E-02 0. -1.
        2   -1    0    0  501    0  0.00000000000E+00  0.00000000000E+00 -0.61323411179E+03  0.61323411180E+03  0.25500000920E-02 0.  1.
    10030    2    1    2    0    0  0.00000000000E+00  0.00000000000E+00  0.23534168139E+04  0.35798850375E+04  0.26975926641E+04 0.  0.
        2    1    3    3  502    0  0.46099812123E+03 -0.89542581521E+03 -0.13918742278E+02  0.10072241010E+04  0.25500000920E-02 0.  1.
       -2    1    3    3    0  502 -0.46099812123E+03  0.89542581521E+03  0.23673355562E+04  0.25726609364E+04  0.25500000920E-02 0. -1.
</event>
<event>
 5   0  0.5043890E-07  0.2699587E+04  0.7818609E-02  0.8335139E-01
       -2   -1    0    0    0  501  0.00000000000E+00  0.00000000000E+00  0.17112516088E+04  0.17112516088E+04  0.25500000920E-02 0. -1.
        2   -1    0    0  501    0  0.00000000000E+00  0.00000000000E+00 -0.10646845184E+04  0.10646845184E+04  0.25500000920E-02 0.  1.
    10030    2    1    2    0    0  0.00000000000E+00  0.00000000000E+00  0.64656709045E+03  0.27759361272E+04  0.26995874462E+04 0.  0.
        3    1    3    3  502    0 -0.72927178556E+03 -0.16311578987E+03 -0.83256124035E+03  0.11187503418E+04  0.10100000352E+00 0.  1.
       -3    1    3    3    0  502  0.72927178556E+03  0.16311578987E+03  0.14791283308E+04  0.16571857854E+04  0.10100000352E+00 0. -1.
</event>
<event>
 5   0  0.4843887E-07  0.2709241E+04  0.7818609E-02  0.8332013E-01
        2   -1    0    0  501    0  0.00000000000E+00  0.00000000000E+00  0.15993875434E+04  0.15993875434E+04  0.25500000920E-02 0.  1.
       -2   -1    0    0    0  501  0.00000000000E+00  0.00000000000E+00 -0.11473117026E+04  0.11473117026E+04  0.25500000920E-02 0. -1.
    10030    2    1    2    0    0  0.00000000000E+00  0.00000000000E+00  0.45207584076E+03  0.27466992460E+04  0.27092405176E+04 0.  0.
        5    1    3    3  502    0 -0.39721725731E+03 -0.10878050202E+04 -0.48643937937E+03  0.12560838631E+04  0.46999998093E+01 0.  1.
       -5    1    3    3    0  502  0.39721725731E+03  0.10878050202E+04  0.93851522012E+03  0.14906153829E+04  0.46999998093E+01 0. -1.
</event>
<event>
 5   0  0.1971600E-07  0.2707588E+04  0.7818609E-02  0.8332547E-01
        1   -1    0    0  501    0  0.00000000000E+00  0.00000000000E+00  0.11556948894E+04  0.11556948894E+04  0.50400001928E-02 0. -1.
       -1   -1    0    0    0  501  0.00000000000E+00  0.00000000000E+00 -0.15858492756E+04  0.15858492756E+04  0.50400001928E-02 0.  1.
    10030    2    1    2    0    0  0.00000000000E+00  0.00000000000E+00 -0.43015438618E+03  0.27415441651E+04  0.27075877849E+04 0.  0.
        5    1    3    3  502    0  0.10752076709E+04 -0.63710465296E+02 -0.10454876860E+04  0.15010653386E+04  0.46999998093E+01 0.  1.
       -5    1    3    3    0  502 -0.10752076709E+04  0.63710465296E+02  0.61533329985E+03  0.12404788265E+04  0.46999998093E+01 0. -1.
</event>
<event>
 5   0  0.1964242E-07  0.2701290E+04  0.7818609E-02  0.8334586E-01
       -1   -1    0    0    0  501  0.00000000000E+00  0.00000000000E+00  0.96805852073E+03  0.96805852074E+03  0.50400001928E-02 0. -1.
        1   -1    0    0  501    0  0.00000000000E+00  0.00000000000E+00 -0.18844337857E+04  0.18844337857E+04  0.50400001928E-02 0.  1.
    10030    2    1    2    0    0  0.00000000000E+00  0.00000000000E+00 -0.91637526496E+03  0.28524923064E+04  0.27012901977E+04 0.  0.
        2    1    3    3  502    0  0.21133434499E+03  0.28416420269E+03  0.91816046639E+03  0.98408848256E+03  0.25500000920E-02 0. -1.
       -2    1    3    3    0  502 -0.21133434499E+03 -0.28416420269E+03 -0.18345357313E+04  0.18684038239E+04  0.25500000920E-02 0.  1.
</event>
<event>
 5   0  0.1971600E-07  0.2698600E+04  0.7818609E-02  0.8335459E-01
        1   -1    0    0  501    0  0.00000000000E+00  0.00000000000E+00  0.23499426341E+04  0.23499426341E+04  0.50400001928E-02 0.  1.
       -1   -1    0    0    0  501  0.00000000000E+00  0.00000000000E+00 -0.77474656060E+03  0.77474656062E+03  0.50400001928E-02 0. -1.
    10030    2    1    2    0    0  0.00000000000E+00  0.00000000000E+00  0.15751960735E+04  0.31246891947E+04  0.26985996171E+04 0.  0.
        5    1    3    3  502    0  0.67584490457E+03 -0.10165339000E+04  0.12195527939E+03  0.12267855089E+04  0.46999998093E+01 0. -1.
       -5    1    3    3    0  502 -0.67584490457E+03  0.10165339000E+04  0.14532407941E+04  0.18979036857E+04  0.46999998093E+01 0.  1.
</event>
<event>
 5   0  0.4735120E-07  0.2700525E+04  0.7818609E-02  0.8334835E-01
       -2   -1    0    0    0  501  0.00000000000E+00  0.00000000000E+00  0.10566448294E+04  0.10566448294E+04  0.25500000920E-02 0. -1.
        2   -1    0    0  501    0  0.00000000000E+00  0.00000000000E+00 -0.17254701607E+04  0.17254701607E+04  0.25500000920E-02 0.  1.
    10030    2    1    2    0    0  0.00000000000E+00  0.00000000000E+00 -0.66882533132E+03  0.27821149902E+04  0.27005252257E+04 0.  0.
        2    1    3    3  502    0 -0.44240901042E+03  0.12734696471E+04 -0.25623555712E+03  0.13722635808E+04  0.25500000920E-02 0. -1.
       -2    1    3    3    0  502  0.44240901042E+03 -0.12734696471E+04 -0.41258977420E+03  0.14098514093E+04  0.25500000920E-02 0.  1.
</event>
<event>
 5   0  0.4992668E-07  0.2700379E+04  0.7818609E-02  0.8334882E-01
       -2   -1    0    0    0  501  0.00000000000E+00  0.00000000000E+00  0.15189803600E+04  0.15189803600E+04  0.25500000920E-02 0. -1.
        2   -1    0    0  501    0  0.00000000000E+00  0.00000000000E+00 -0.12001548721E+04  0.12001548721E+04  0.25500000920E-02 0.  1.
    10030    2    1    2    0    0  0.00000000000E+00  0.00000000000E+00  0.31882548782E+03  0.27191352321E+04  0.27003789954E+04 0.  0.
        1    1    3    3  502    0 -0.13322169652E+04  0.16405699534E+03  0.30635418438E+03  0.13767968718E+04  0.50400001928E-02 0.  1.
       -1    1    3    3    0  502  0.13322169652E+04 -0.16405699534E+03  0.12471303434E+02  0.13423383603E+04  0.50400001928E-02 0. -1.
</event>
<event>
 5   0  0.4992668E-07  0.2700352E+04  0.7818609E-02  0.8334891E-01
        2   -1    0    0  501    0  0.00000000000E+00  0.00000000000E+00  0.17840445471E+04  0.17840445471E+04  0.25500000920E-02 0.  1.
       -2   -1    0    0    0  501  0.00000000000E+00  0.00000000000E+00 -0.10218216820E+04  0.10218216820E+04  0.25500000920E-02 0. -1.
    10030    2    1    2    0    0  0.00000000000E+00  0.00000000000E+00  0.76222286508E+03  0.28058662291E+04  0.27003521251E+04 0.  0.
        1    1    3    3  502    0 -0.56153347088E+03 -0.79184297825E+03  0.13562039639E+04  0.16678202340E+04  0.50400001928E-02 0.  1.
       -1    1    3    3    0  502  0.56153347088E+03  0.79184297825E+03 -0.59398109883E+03  0.11380459951E+04  0.50400001928E-02 0. -1.
</event>
<event>
 5   0  0.5043890E-07  0.2699869E+04  0.7818609E-02  0.8335047E-01
        2   -1    0    0  501    0  0.00000000000E+00  0.00000000000E+00  0.16301225123E+04  0.16301225123E+04  0.25500000920E-02 0.  1.
       -2   -1    0    0    0  501  0.00000000000E+00  0.00000000000E+00 -0.11179058400E+04  0.11179058400E+04  0.25500000920E-02 0. -1.
    10030    2    1    2    0    0  0.00000000000E+00  0.00000000000E+00  0.51221667229E+03  0.27480283523E+04  0.26998692386E+04 0.  0.
        3    1    3    3  502    0 -0.52220397334E+03 -0.12262943057E+04  0.47400345154E+03  0.14146285719E+04  0.10100000352E+00 0.  1.
       -3    1    3    3    0  502  0.52220397334E+03  0.12262943057E+04  0.38213220750E+02  0.13333997804E+04  0.10100000352E+00 0. -1.
</event>
<event>
 5   0  0.1965415E-07  0.2700320E+04  0.7818609E-02  0.8334901E-01
        1   -1    0    0  501    0  0.00000000000E+00  0.00000000000E+00  0.14156232009E+04  0.14156232009E+04  0.50400001928E-02 0. -1.
       -1   -1    0    0    0  501  0.00000000000E+00  0.00000000000E+00 -0.12877239900E+04  0.12877239900E+04  0.50400001928E-02 0.  1.
    10030    2    1    2    0    0  0.00000000000E+00  0.00000000000E+00  0.12789921086E+03  0.27033471909E+04  0.27003199489E+04 0.  0.
        4    1    3    3  502    0 -0.43604320736E+03 -0.12726496031E+04  0.17879373826E+03  0.13571070351E+04  0.12699999809E+01 0. -1.
       -4    1    3    3    0  502  0.43604320736E+03  0.12726496031E+04 -0.50894527403E+02  0.13462401557E+04  0.12699999809E+01 0.  1.
</event>
<event>
 5   0  0.5043890E-07  0.2698680E+04  0.7818609E-02  0.8335433E-01
       -2   -1    0    0    0  501  0.00000000000E+00  0.00000000000E+00  0.15943880240E+04  0.15943880240E+04  0.25500000920E-02 0.  1.
        2   -1    0    0  501    0  0.00000000000E+00  0.00000000000E+00 -0.11419542749E+04  0.11419542749E+04  0.25500000920E-02 0. -1.
    10030    2    1    2    0    0  0.00000000000E+00  0.00000000000E+00  0.45243374911E+03  0.27363422988E+04  0.26986798400E+04 0.  0.
        3    1    3    3  502    0 -0.10870223528E+03 -0.99025409131E+03 -0.69659376508E+03  0.12155913068E+04  0.10100000352E+00 0. -1.
       -3    1    3    3    0  502  0.10870223528E+03  0.99025409131E+03  0.11490275142E+04  0.15207509921E+04  0.10100000352E+00 0.  1.
</event>
<event>
 5   0  0.1964242E-07  0.2693417E+04  0.7818609E-02  0.8337144E-01
        1   -1    0    0  501    0  0.00000000000E+00  0.00000000000E+00  0.69581478308E+03  0.69581478310E+03  0.50400001928E-02 0.  1.
       -1   -1    0    0    0  501  0.00000000000E+00  0.00000000000E+00 -0.26064750858E+04  0.26064750858E+04  0.50400001928E-02 0. -1.
    10030    2    1    2    0    0  0.00000000000E+00  0.00000000000E+00 -0.19106603027E+04  0.33022898689E+04  0.26934170835E+04 0.  0.
        2    1    3    3  502    0  0.38221869744E+03 -0.87040844925E+03 -0.21248662724E+04  0.23278227331E+04  0.25500000920E-02 0. -1.
       -2    1    3    3    0  502 -0.38221869744E+03  0.87040844925E+03  0.21420596971E+03  0.97446713576E+03  0.25500000920E-02 0.  1.
</event>
<event>
 5   0  0.4843887E-07  0.2701058E+04  0.7818609E-02  0.8334662E-01
       -2   -1    0    0    0  501  0.00000000000E+00  0.00000000000E+00  0.15132510970E+04  0.15132510970E+04  0.25500000920E-02 0. -1.
        2   -1    0    0  501    0  0.00000000000E+00  0.00000000000E+00 -0.12053045506E+04  0.12053045506E+04  0.25500000920E-02 0.  1.
    10030    2    1    2    0    0  0.00000000000E+00  0.00000000000E+00  0.30794654643E+03  0.27185556476E+04  0.27010578916E+04 0.  0.
        5    1    3    3  502    0 -0.85058304734E+03 -0.10481167241E+04  0.11049440130E+03  0.13543527201E+04  0.46999998093E+01 0.  1.
       -5    1    3    3    0  502  0.85058304734E+03  0.10481167241E+04  0.19745214513E+03  0.13642029275E+04  0.46999998093E+01 0. -1.
</event>
<event>
 5   0  0.5043890E-07  0.2700515E+04  0.7818609E-02  0.8334838E-01
        2   -1    0    0  501    0  0.00000000000E+00  0.00000000000E+00  0.28426041067E+04  0.28426041067E+04  0.25500000920E-02 0.  1.
       -2   -1    0    0    0  501  0.00000000000E+00  0.00000000000E+00 -0.64138199221E+03  0.64138199221E+03  0.25500000920E-02 0. -1.
    10030    2    1    2    0    0  0.00000000000E+00  0.00000000000E+00  0.22012221145E+04  0.34839860989E+04  0.27005148287E+04 0.  0.
        3    1    3    3  502    0 -0.19516479729E+03 -0.12753065137E+04  0.58666558785E+03  0.14172764459E+04  0.10100000352E+00 0. -1.
       -3    1    3    3    0  502  0.19516479729E+03  0.12753065137E+04  0.16145565266E+04  0.20667096530E+04  0.10100000352E+00 0.  1.
</event>
<event>
 5   0  0.1964242E-07  0.2701946E+04  0.7818609E-02  0.8334374E-01
       -1   -1    0    0    0  501  0.00000000000E+00  0.00000000000E+00  0.23502471213E+04  0.23502471213E+04  0.50400001928E-02 0. -1.
        1   -1    0    0  501    0  0.00000000000E+00  0.00000000000E+00 -0.77656834709E+03  0.77656834710E+03  0.50400001928E-02 0.  1.
    10030    2    1    2    0    0  0.00000000000E+00  0.00000000000E+00  0.15736787742E+04  0.31268154684E+04  0.27019456118E+04 0.  0.
        2    1    3    3  502    0 -0.11704761899E+04  0.57534072598E+03  0.37917324290E+03  0.13582355504E+04  0.25500000920E-02 0.  1.
       -2    1    3    3    0  502  0.11704761899E+04 -0.57534072598E+03  0.11945055313E+04  0.17685799180E+04  0.25500000920E-02 0. -1.
</event>
<event>
 5   0  0.1964242E-07  0.2699154E+04  0.7818609E-02  0.8335280E-01
       -1   -1    0    0    0  501  0.00000000000E+00  0.00000000000E+00  0.11018238559E+04  0.11018238559E+04  0.50400001928E-02 0. -1.
        1   -1    0    0  501    0  0.00000000000E+00  0.00000000000E+00 -0.16530387113E+04  0.16530387113E+04  0.50400001928E-02 0.  1.
    10030    2    1    2    0    0  0.00000000000E+00  0.00000000000E+00 -0.55121485540E+03  0.27548625672E+04  0.26991535613E+04 0.  0.
        2    1    3    3  502    0 -0.12433056125E+04 -0.47253048755E+03 -0.50893814623E+03  0.14241179531E+04  0.25500000920E-02 0.  1.
       -2    1    3    3    0  502  0.12433056125E+04  0.47253048755E+03 -0.42276709172E+02  0.13307446141E+04  0.25500000920E-02 0. -1.
</event>
<event>
 5   0  0.1641625E-07  0.2699692E+04  0.7818609E-02  0.8335105E-01
       -3   -1    0    0    0  501  0.00000000000E+00  0.00000000000E+00  0.23956319903E+04  0.23956319924E+04  0.10100000352E+00 0. -1.
        3   -1    0    0  501    0  0.00000000000E+00  0.00000000000E+00 -0.76058616515E+03  0.76058617185E+03  0.10100000352E+00 0.  1.
    10030    2    1    2    0    0  0.00000000000E+00  0.00000000000E+00  0.16350458251E+04  0.31562181642E+04  0.26996922510E+04 0.  0.
        4    1    3    3  502    0  0.11126051341E+04 -0.45957500987E+03  0.15315219213E+04  0.19479888045E+04  0.12699999809E+01 0. -1.
       -4    1    3    3    0  502 -0.11126051341E+04  0.45957500987E+03  0.10352390382E+03  0.12082293597E+04  0.12699999809E+01 0.  1.
</event>
<event>
 5   0  0.4735120E-07  0.2699619E+04  0.7818609E-02  0.8335128E-01
        2   -1    0    0  501    0  0.00000000000E+00  0.00000000000E+00  0.16862663472E+04  0.16862663472E+04  0.25500000920E-02 0. -1.
       -2   -1    0    0    0  501  0.00000000000E+00  0.00000000000E+00 -0.10804854690E+04  0.10804854690E+04  0.25500000920E-02 0.  1.
    10030    2    1    2    0    0  0.00000000000E+00  0.00000000000E+00  0.60578087825E+03  0.27667518162E+04  0.26996194436E+04 0.  0.
        2    1    3    3  502    0  0.24250825943E+03 -0.67326350319E+03 -0.87007562740E+03  0.11265547470E+04  0.25500000920E-02 0.  1.
       -2    1    3    3    0  502 -0.24250825943E+03  0.67326350319E+03  0.14758565056E+04  0.16401970692E+04  0.25500000920E-02 0. -1.
</event>
<event>
 5   0  0.4735120E-07  0.2698779E+04  0.7818609E-02  0.8335401E-01
       -2   -1    0    0    0  501  0.00000000000E+00  0.00000000000E+00  0.14514416792E+04  0.14514416792E+04  0.25500000920E-02 0. -1.
        2   -1    0    0  501    0  0.00000000000E+00  0.00000000000E+00 -0.12545128857E+04  0.12545128857E+04  0.25500000920E-02 0.  1.
    10030    2    1    2    0    0  0.00000000000E+00  0.00000000000E+00  0.19692879355E+03  0.27059545649E+04  0.26987791977E+04 0.  0.
        2    1    3    3  502    0  0.61488659337E+03  0.24071639893E+02  0.13025683524E+04  0.14406072606E+04  0.25500000920E-02 0. -1.
       -2    1    3    3    0  502 -0.61488659337E+03 -0.24071639893E+02 -0.11056395588E+04  0.12653473044E+04  0.25500000920E-02 0.  1.
</event>
<event>
 5   0  0.1937896E-07  0.2700057E+04  0.7818609E-02  0.8334986E-01
        1   -1    0    0  501    0  0.00000000000E+00  0.00000000000E+00  0.13579034478E+04  0.13579034478E+04  0.50400001928E-02 0.  1.
       -1   -1    0    0    0  501  0.00000000000E+00  0.00000000000E+00 -0.13421994256E+04  0.13421994256E+04  0.50400001928E-02 0. -1.
    10030    2    1    2    0    0  0.00000000000E+00  0.00000000000E+00  0.15704022178E+02  0.27001028734E+04  0.27000572051E+04 0.  0.
        3    1    3    3  502    0 -0.96023571249E+03  0.43126451582E+03  0.85316833211E+03  0.13549678665E+04  0.10100000352E+00 0.  1.
       -3    1    3    3    0  502  0.96023571249E+03 -0.43126451582E+03 -0.83746430994E+03  0.13451350069E+04  0.10100000352E+00 0. -1.
</event>
<event>
 5   0  0.4983208E-07  0.2699483E+04  0.7818609E-02  0.8335173E-01
        2   -1    0    0  501    0  0.00000000000E+00  0.00000000000E+00  0.10892288630E+04  0.10892288630E+04  0.25500000920E-02 0. -1.
       -2   -1    0    0    0  501  0.00000000000E+00  0.00000000000E+00 -0.16725617887E+04  0.16725617887E+04  0.25500000920E-02 0.  1.
    10030    2    1    2    0    0  0.00000000000E+00  0.00000000000E+00 -0.58333292567E+03  0.27617906517E+04  0.26994833397E+04 0.  0.
        4    1    3    3  502    0 -0.54023913393E+03  0.21917888473E+03 -0.15370984909E+04  0.16439498438E+04  0.12699999809E+01 0.  1.
       -4    1    3    3    0  502  0.54023913393E+03 -0.21917888473E+03  0.95376556525E+03  0.11178408079E+04  0.12699999809E+01 0. -1.
</event>
<event>
 5   0  0.1888149E-07  0.2700843E+04  0.7818609E-02  0.8334731E-01
       -1   -1    0    0    0  501  0.00000000000E+00  0.00000000000E+00  0.15435407070E+04  0.15435407071E+04  0.50400001928E-02 0. -1.
        1   -1    0    0  501    0  0.00000000000E+00  0.00000000000E+00 -0.11814646045E+04  0.11814646045E+04  0.50400001928E-02 0.  1.
    10030    2    1    2    0    0  0.00000000000E+00  0.00000000000E+00  0.36207610256E+03  0.27250053116E+04  0.27008433579E+04 0.  0.
        1    1    3    3  502    0  0.39591533732E+01 -0.54345283743E+03 -0.10662584734E+04  0.11967722396E+04  0.50400001928E-02 0.  1.
       -1    1    3    3    0  502 -0.39591533732E+01  0.54345283743E+03  0.14283345759E+04  0.15282330720E+04  0.50400001928E-02 0. -1.
</event>
<event>
 5   0  0.4735120E-07  0.2697305E+04  0.7818609E-02  0.8335880E-01
       -2   -1    0    0    0  501  0.00000000000E+00  0.00000000000E+00  0.85611680869E+03  0.85611680869E+03  0.25500000920E-02 0. -1.
        2   -1    0    0  501    0  0.00000000000E+00  0.00000000000E+00 -0.21245502898E+04  0.21245502898E+04  0.25500000920E-02 0.  1.
    10030    2    1    2    0    0  0.00000000000E+00  0.00000000000E+00 -0.12684334811E+04  0.29806670985E+04  0.26973047392E+04 0.  0.
        2    1    3    3  502    0 -0.86593485020E+03 -0.75368980723E+02  0.50529668214E+03  0.10054095608E+04  0.25500000920E-02 0. -1.
       -2    1    3    3    0  502  0.86593485020E+03  0.75368980723E+02 -0.17737301633E+04  0.19752575377E+04  0.25500000920E-02 0.  1.
</event>
<event>
 5   0  0.1971600E-07  0.2700690E+04  0.7818609E-02  0.8334781E-01
        1   -1    0    0  501    0  0.00000000000E+00  0.00000000000E+00  0.21425108765E+04  0.21425108766E+04  0.50400001928E-02 0.  1.
       -1   -1    0    0    0  501  0.00000000000E+00  0.00000000000E+00 -0.85107249538E+03  0.85107249539E+03  0.50400001928E-02 0. -1.
    10030    2    1    2    0    0  0.00000000000E+00  0.00000000000E+00  0.12914383812E+04  0.29935833719E+04  0.27006903400E+04 0.  0.
        5    1    3    3  502    0  0.99522334224E+03  0.53791412716E+03  0.14629633931E+04  0.18493526134E+04  0.46999998093E+01 0.  1.
       -5    1    3    3    0  502 -0.99522334224E+03 -0.53791412716E+03 -0.17152501191E+03  0.11442307586E+04  0.46999998093E+01 0. -1.
</event>
<event>
 5   0  0.4992668E-07  0.2699464E+04  0.7818609E-02  0.8335179E-01
       -2   -1    0    0    0  501  0.00000000000E+00  0.00000000000E+00  0.95885583410E+03  0.95885583411E+03  0.25500000920E-02 0.  1.
        2   -1    0    0  501    0  0.00000000000E+00  0.00000000000E+00 -0.18999488580E+04  0.18999488580E+04  0.25500000920E-02 0. -1.
    10030    2    1    2    0    0  0.00000000000E+00  0.00000000000E+00 -0.94109302393E+03  0.28588046921E+04  0.26994644262E+04 0.  0.
        1    1    3    3  502    0  0.96349554544E+03  0.68618776272E+03  0.21790203535E+03  0.12027712205E+04  0.50400001928E-02 0.  1.
       -1    1    3    3    0  502 -0.96349554544E+03 -0.68618776272E+03 -0.11589950593E+04  0.16560334717E+04  0.50400001928E-02 0. -1.
</event>
<event>
 5   0  0.1641625E-07  0.2700175E+04  0.7818609E-02  0.8334948E-01
       -4   -1    0    0    0  501  0.00000000000E+00  0.00000000000E+00  0.15304567202E+04  0.15304572472E+04  0.12699999809E+01 0. -1.
        4   -1    0    0  501    0  0.00000000000E+00  0.00000000000E+00 -0.11909740738E+04  0.11909747510E+04  0.12699999809E+01 0.  1.
    10030    2    1    2    0    0  0.00000000000E+00  0.00000000000E+00  0.33948264642E+03  0.27214319981E+04  0.27001747450E+04 0.  0.
        4    1    3    3  502    0 -0.78879651875E+02 -0.10607992361E+04  0.10076812987E+04  0.14652440860E+04  0.12699999809E+01 0. -1.
       -4    1    3    3    0  502  0.78879651875E+02  0.10607992361E+04 -0.66819865233E+03  0.12561879122E+04  0.12699999809E+01 0.  1.
</event>
<event>
 5   0  0.1888149E-07  0.2699833E+04  0.7818609E-02  0.8335059E-01
       -1   -1    0    0    0  501  0.00000000000E+00  0.00000000000E+00  0.12025553786E+04  0.12025553786E+04  0.50400001928E-02 0.  1.
        1   -1    0    0  501    0  0.00000000000E+00  0.00000000000E+00 -0.15153357054E+04  0.15153357054E+04  0.50400001928E-02 0. -1.
    10030    2    1    2    0    0  0.00000000000E+00  0.00000000000E+00 -0.31278032684E+03  0.27178910840E+04  0.26998334044E+04 0.  0.
        1    1    3    3  502    0 -0.79266979216E+02 -0.72417324245E+03  0.98768145034E+03  0.12272834988E+04  0.50400001928E-02 0.  1.
       -1    1    3    3    0  502  0.79266979216E+02  0.72417324245E+03 -0.13004617772E+04  0.14906075852E+04  0.50400001928E-02 0. -1.
</event>
<event>
 5   0  0.1965415E-07  0.2699695E+04  0.7818609E-02  0.8335104E-01
        1   -1    0    0  501    0  0.00000000000E+00  0.00000000000E+00  0.19482345868E+04  0.19482345868E+04  0.50400001928E-02 0. -1.
       -1   -1    0    0    0  501  0.00000000000E+00  0.00000000000E+00 -0.93525064035E+03  0.93525064037E+03  0.50400001928E-02 0.  1.
    10030    2    1    2    0    0  0.00000000000E+00  0.00000000000E+00  0.10129839465E+04  0.28834852272E+04  0.26996945345E+04 0.  0.
        4    1    3    3  502    0  0.42913092235E+03  0.89038841596E+03  0.14883930313E+04  0.17866897628E+04  0.12699999809E+01 0. -1.
       -4    1    3    3    0  502 -0.42913092235E+03 -0.89038841596E+03 -0.47540908490E+03  0.10967954644E+04  0.12699999809E+01 0.  1.
</event>
<event>
 5   0  0.1965415E-07  0.2701604E+04  0.7818609E-02  0.8334485E-01
       -1   -1    0    0    0  501  0.00000000000E+00  0.00000000000E+00  0.10496266958E+04  0.10496266958E+04  0.50400001928E-02 0. -1.
        1   -1    0    0  501    0  0.00000000000E+00  0.00000000000E+00 -0.17383947195E+04  0.17383947195E+04  0.50400001928E-02 0.  1.
    10030    2    1    2    0    0  0.00000000000E+00  0.00000000000E+00 -0.68876802372E+03  0.27880214153E+04  0.27016036019E+04 0.  0.
        4    1    3    3  502    0  0.95539688364E+03  0.46641507760E+03 -0.12043075569E+04  0.16064509125E+04  0.12699999809E+01 0.  1.
       -4    1    3    3    0  502 -0.95539688364E+03 -0.46641507760E+03  0.51553953314E+03  0.11815705028E+04  0.12699999809E+01 0. -1.
</event>
<event>
 5   0  0.4735120E-07  0.2701466E+04  0.7818609E-02  0.8334529E-01
       -2   -1    0    0    0  501  0.00000000000E+00  0.00000000000E+00  0.73351461033E+03  0.73351461034E+03  0.25500000920E-02 0. -1.
        2   -1    0    0  501    0  0.00000000000E+00  0.00000000000E+00 -0.24873120511E+04  0.24873120511E+04  0.25500000920E-02 0.  1.
    10030    2    1    2    0    0  0.00000000000E+00  0.00000000000E+00 -0.17537974408E+04  0.32208266615E+04  0.27014660686E+04 0.  0.
        2    1    3    3  502    0 -0.78139131372E+03 -0.54073399130E+03 -0.20214067050E+04  0.22336182981E+04  0.25500000920E-02 0.  1.
       -2    1    3    3    0  502  0.78139131372E+03  0.54073399130E+03  0.26760926418E+03  0.98720836340E+03  0.25500000920E-02 0. -1.
</event>
<event>
 5   0  0.4735120E-07  0.2700259E+04  0.7818609E-02  0.8334921E-01
        2   -1    0    0  501    0  0.00000000000E+00  0.00000000000E+00  0.16949806233E+04  0.16949806233E+04  0.25500000920E-02 0.  1.
       -2   -1    0    0    0  501  0.00000000000E+00  0.00000000000E+00 -0.10754400956E+04  0.10754400956E+04  0.25500000920E-02 0. -1.
    10030    2    1    2    0    0  0.00000000000E+00  0.00000000000E+00  0.61954052775E+03  0.27704207189E+04  0.27002593384E+04 0.  0.
        2    1    3    3  502    0  0.67546276041E+03  0.10576811151E+04 -0.20107339828E+03  0.12709719877E+04  0.25500000920E-02 0. -1.
       -2    1    3    3    0  502 -0.67546276041E+03 -0.10576811151E+04  0.82061392604E+03  0.14994487312E+04  0.25500000920E-02 0.  1.
</event>
<event>
 5   0  0.4983208E-07  0.2697949E+04  0.7818609E-02  0.8335671E-01
       -2   -1    0    0    0  501  0.00000000000E+00  0.00000000000E+00  0.95839900356E+03  0.95839900357E+03  0.25500000920E-02 0. -1.
        2   -1    0    0  501    0  0.00000000000E+00  0.00000000000E+00 -0.18987202819E+04  0.18987202819E+04  0.25500000920E-02 0.  1.
    10030    2    1    2    0    0  0.00000000000E+00  0.00000000000E+00 -0.94032127835E+03  0.28571192855E+04  0.26979485734E+04 0.  0.
        4    1    3    3  502    0 -0.91166709356E+03  0.53872852025E+03 -0.13551455108E+04  0.17198215827E+04  0.12699999809E+01 0.  1.
       -4    1    3    3    0  502  0.91166709356E+03 -0.53872852025E+03  0.41482423245E+03  0.11372977028E+04  0.12699999809E+01 0. -1.
</event>
<event>
 5   0  0.4843887E-07  0.2699831E+04  0.7818609E-02  0.8335060E-01
        2   -1    0    0  501    0  0.00000000000E+00  0.00000000000E+00  0.12019635906E+04  0.12019635906E+04  0.25500000920E-02 0.  1.
       -2   -1    0    0    0  501  0.00000000000E+00  0.00000000000E+00 -0.15160793516E+04  0.15160793516E+04  0.25500000920E-02 0. -1.
    10030    2    1    2    0    0  0.00000000000E+00  0.00000000000E+00 -0.31411576103E+03  0.27180429422E+04  0.26998312400E+04 0.  0.
        5    1    3    3  502    0  0.33075171111E+03 -0.86954039300E+03 -0.11417933690E+04  0.14728242858E+04  0.46999998093E+01 0. -1.
       -5    1    3    3    0  502 -0.33075171111E+03  0.86954039300E+03  0.82767760795E+03  0.12452186564E+04  0.46999998093E+01 0.  1.
</event>
<event>
 5   0  0.4735120E-07  0.2701001E+04  0.7818609E-02  0.8334680E-01
        2   -1    0    0  501    0  0.00000000000E+00  0.00000000000E+00  0.23601274182E+04  0.23601274182E+04  0.25500000920E-02 0. -1.
       -2   -1    0    0    0  501  0.00000000000E+00  0.00000000000E+00 -0.77277665348E+03  0.77277665348E+03  0.25500000920E-02 0.  1.
    10030    2    1    2    0    0  0.00000000000E+00  0.00000000000E+00  0.15873507647E+04  0.31329040717E+04  0.27010008279E+04 0.  0.
        2    1    3    3  502    0  0.41457234411E+03 -0.82479509807E+03  0.19370464065E+04  0.21457646570E+04  0.25500000920E-02 0. -1.
       -2    1    3    3    0  502 -0.41457234411E+03  0.82479509807E+03 -0.34969564171E+03  0.98713941475E+03  0.25500000920E-02 0.  1.
</event>
<event>
 5   0  0.4992668E-07  0.2699144E+04  0.7818609E-02  0.8335283E-01
       -2   -1    0    0    0  501  0.00000000000E+00  0.00000000000E+00  0.62743063421E+03  0.62743063421E+03  0.25500000920E-02 0.  1.
        2   -1    0    0  501    0  0.00000000000E+00  0.00000000000E+00 -0.29028620148E+04  0.29028620148E+04  0.25500000920E-02 0. -1.
    10030    2    1    2    0    0  0.00000000000E+00  0.00000000000E+00 -0.22754313806E+04  0.35302926491E+04  0.26991439791E+04 0.  0.
        1    1    3    3  502    0 -0.18588734511E+03 -0.13364004066E+04 -0.11752695415E+04  0.17893514599E+04  0.50400001928E-02 0.  1.
       -1    1    3    3    0  502  0.18588734511E+03  0.13364004066E+04 -0.11001618391E+04  0.17409411892E+04  0.50400001928E-02 0. -1.
</event>
<event>
 5   0  0.4983208E-07  0.2699636E+04  0.7818609E-02  0.8335123E-01
       -2   -1    0    0    0  501  0.00000000000E+00  0.00000000000E+00  0.78871241752E+03  0.78871241752E+03  0.25500000920E-02 0.  1.
        2   -1    0    0  501    0  0.00000000000E+00  0.00000000000E+00 -0.23101051936E+04  0.23101051936E+04  0.25500000920E-02 0. -1.
    10030    2    1    2    0    0  0.00000000000E+00  0.00000000000E+00 -0.15213927761E+04  0.30988176111E+04  0.26996360140E+04 0.  0.
        4    1    3    3  502    0 -0.92778196132E+03 -0.93670772709E+03 -0.10929954764E+04  0.17125540745E+04  0.12699999809E+01 0.  1.
       -4    1    3    3    0  502  0.92778196132E+03  0.93670772709E+03 -0.42839729968E+03  0.13862635366E+04  0.12699999809E+01 0. -1.
</event>
<event>
 5   0  0.4983208E-07  0.2699100E+04  0.7818609E-02  0.8335297E-01
        2   -1    0    0  501    0  0.00000000000E+00  0.00000000000E+00  0.25247796420E+04  0.25247796420E+04  0.25500000920E-02 0. -1.
       -2   -1    0    0    0  501  0.00000000000E+00  0.00000000000E+00 -0.72136398399E+03  0.72136398399E+03  0.25500000920E-02 0.  1.
    10030    2    1    2    0    0  0.00000000000E+00  0.00000000000E+00  0.18034156580E+04  0.32461436260E+04  0.26990999250E+04 0.  0.
        4    1    3    3  502    0 -0.89987435309E+03  0.19941866697E+03  0.20872696842E+04  0.22817182130E+04  0.12699999809E+01 0. -1.
       -4    1    3    3    0  502  0.89987435309E+03 -0.19941866697E+03 -0.28385402620E+03  0.96442541297E+03  0.12699999809E+01 0.  1.
</event>
<event>
 5   0  0.4843887E-07  0.2699867E+04  0.7818609E-02  0.8335048E-01
        2   -1    0    0  501    0  0.00000000000E+00  0.00000000000E+00  0.17806078531E+04  0.17806078531E+04  0.25500000920E-02 0.  1.
       -2   -1    0    0    0  501  0.00000000000E+00  0.00000000000E+00 -0.10234260431E+04  0.10234260431E+04  0.25500000920E-02 0. -1.
    10030    2    1    2    0    0  0.00000000000E+00  0.00000000000E+00  0.75718180992E+03  0.28040338962E+04  0.26998669963E+04 0.  0.
        5    1    3    3  502    0  0.65773511373E+03 -0.86790393006E+03  0.12071332818E+04  0.16257507686E+04  0.46999998093E+01 0.  1.
       -5    1    3    3    0  502 -0.65773511373E+03  0.86790393006E+03 -0.44995147189E+03  0.11782831276E+04  0.46999998093E+01 0. -1.
</event>
<event>
 5   0  0.1965415E-07  0.2700718E+04  0.7818609E-02  0.8334772E-01
       -1   -1    0    0    0  501  0.00000000000E+00  0.00000000000E+00  0.13776197631E+04  0.13776197631E+04  0.50400001928E-02 0. -1.
        1   -1    0    0  501    0  0.00000000000E+00  0.00000000000E+00 -0.13236380158E+04  0.13236380158E+04  0.50400001928E-02 0.  1.
    10030    2    1    2    0    0  0.00000000000E+00  0.00000000000E+00  0.53981747302E+02  0.27012577788E+04  0.27007183412E+04 0.  0.
        4    1    3    3  502    0 -0.95022791400E+03 -0.86657398993E+03  0.43887976665E+03  0.13588600484E+04  0.12699999809E+01 0. -1.
       -4    1    3    3    0  502  0.95022791400E+03  0.86657398993E+03 -0.38489801935E+03  0.13423977305E+04  0.12699999809E+01 0.  1.
</event>
<event>
 5   0  0.4843887E-07  0.2699533E+04  0.7818609E-02  0.8335156E-01
       -2   -1    0    0    0  501  0.00000000000E+00  0.00000000000E+00  0.15976110837E+04  0.15976110837E+04  0.25500000920E-02 0. -1.
        2   -1    0    0  501    0  0.00000000000E+00  0.00000000000E+00 -0.11403715321E+04  0.11403715321E+04  0.25500000920E-02 0.  1.
    10030    2    1    2    0    0  0.00000000000E+00  0.00000000000E+00  0.45723955159E+03  0.27379826159E+04  0.26995334407E+04 0.  0.
        5    1    3    3  502    0 -0.25113381645E+03  0.10523075830E+04  0.10472266884E+04  0.15056976024E+04  0.46999998093E+01 0. -1.
       -5    1    3    3    0  502  0.25113381645E+03 -0.10523075830E+04 -0.58998713680E+03  0.12322850135E+04  0.46999998093E+01 0.  1.
</event>
<event>
 5   0  0.5043890E-07  0.2700517E+04  0.7818609E-02  0.8334837E-01
        2   -1    0    0  501    0  0.00000000000E+00  0.00000000000E+00  0.93946009994E+03  0.93946009994E+03  0.25500000920E-02 0. -1.
       -2   -1    0    0    0  501  0.00000000000E+00  0.00000000000E+00 -0.19406870744E+04  0.19406870744E+04  0.25500000920E-02 0.  1.
    10030    2    1    2    0    0  0.00000000000E+00  0.00000000000E+00 -0.10012269744E+04  0.28801471743E+04  0.27005170415E+04 0.  0.
        3    1    3    3  502    0 -0.26644209960E+03 -0.91525045281E+03  0.51930424096E+03  0.10855190872E+04  0.10100000352E+00 0. -1.
       -3    1    3    3    0  502  0.26644209960E+03  0.91525045281E+03 -0.15205312154E+04  0.17946280871E+04  0.10100000352E+00 0.  1.
</event>
<event>
 5   0  0.1641625E-07  0.2701450E+04  0.7818609E-02  0.8334535E-01
       -4   -1    0    0    0  501  0.00000000000E+00  0.00000000000E+00  0.11955603618E+04  0.11955610363E+04  0.12699999809E+01 0.  1.
        4   -1    0    0  501    0  0.00000000000E+00  0.00000000000E+00 -0.15260263252E+04  0.15260268537E+04  0.12699999809E+01 0. -1.
    10030    2    1    2    0    0  0.00000000000E+00  0.00000000000E+00 -0.33046596344E+03  0.27215878900E+04  0.27014501457E+04 0.  0.
        5    1    3    3  502    0 -0.85206132806E+03  0.54237111112E+03 -0.10687242638E+04  0.14704994291E+04  0.46999998093E+01 0. -1.
       -5    1    3    3    0  502  0.85206132806E+03 -0.54237111112E+03  0.73825830035E+03  0.12510884609E+04  0.46999998093E+01 0.  1.
</event>
<event>
 5   0  0.1888149E-07  0.2701137E+04  0.7818609E-02  0.8334636E-01
       -1   -1    0    0    0  501  0.00000000000E+00  0.00000000000E+00  0.10286532873E+04  0.10286532873E+04  0.50400001928E-02 0.  1.
        1   -1    0    0  501    0  0.00000000000E+00  0.00000000000E+00 -0.17732269600E+04  0.17732269600E+04  0.50400001928E-02 0. -1.
    10030    2    1    2    0    0  0.00000000000E+00  0.00000000000E+00 -0.74457367271E+03  0.28018802474E+04  0.27011373468E+04 0.  0.
        1    1    3    3  502    0  0.19122323786E+02 -0.13501055642E+04 -0.34142758962E+03  0.13927395653E+04  0.50400001928E-02 0.  1.
       -1    1    3    3    0  502 -0.19122323786E+02  0.13501055642E+04 -0.40314608309E+03  0.14091406821E+04  0.50400001928E-02 0. -1.
</event>
<event>
 5   0  0.1971600E-07  0.2700010E+04  0.7818609E-02  0.8335002E-01
       -1   -1    0    0    0  501  0.00000000000E+00  0.00000000000E+00  0.81848757292E+03  0.81848757294E+03  0.50400001928E-02 0. -1.
        1   -1    0    0  501    0  0.00000000000E+00  0.00000000000E+00 -0.22266851143E+04  0.22266851143E+04  0.50400001928E-02 0.  1.
    10030    2    1    2    0    0  0.00000000000E+00  0.00000000000E+00 -0.14081975414E+04  0.30451726873E+04  0.27000104407E+04 0.  0.
        5    1    3    3  502    0 -0.93946460162E+03  0.23306017866E+03  0.35725625692E+03  0.10317775476E+04  0.46999998093E+01 0.  1.
       -5    1    3    3    0  502  0.93946460162E+03 -0.23306017866E+03 -0.17654537983E+04  0.20133951397E+04  0.46999998093E+01 0. -1.
</event>
<event>
 5   0  0.1971600E-07  0.2701209E+04  0.7818609E-02  0.8334613E-01
        1   -1    0    0  501    0  0.00000000000E+00  0.00000000000E+00  0.21554288877E+04  0.21554288877E+04  0.50400001928E-02 0. -1.
       -1   -1    0    0    0  501  0.00000000000E+00  0.00000000000E+00 -0.84629676940E+03  0.84629676941E+03  0.50400001928E-02 0.  1.
    10030    2    1    2    0    0  0.00000000000E+00  0.00000000000E+00  0.13091321183E+04  0.30017256571E+04  0.27012089918E+04 0.  0.
        5    1    3    3  502    0  0.52247962872E+03 -0.56347964333E+03  0.18888151973E+04  0.20391515909E+04  0.46999998093E+01 0. -1.
       -5    1    3    3    0  502 -0.52247962872E+03  0.56347964333E+03 -0.57968307904E+03  0.96257406624E+03  0.46999998093E+01 0.  1.
</event>
<event>
 5   0  0.4992668E-07  0.2703423E+04  0.7818609E-02  0.8333895E-01
       -2   -1    0    0    0  501  0.00000000000E+00  0.00000000000E+00  0.10083939903E+04  0.10083939903E+04  0.25500000920E-02 0.  1.
        2   -1    0    0  501    0  0.00000000000E+00  0.00000000000E+00 -0.18119152928E+04  0.18119152928E+04  0.25500000920E-02 0. -1.
    10030    2    1    2    0    0  0.00000000000E+00  0.00000000000E+00 -0.80352130244E+03  0.28203092831E+04  0.27034233795E+04 0.  0.
        1    1    3    3  502    0  0.17385917220E+03 -0.41163319555E+03 -0.17326355840E+04  0.17893280768E+04  0.50400001928E-02 0. -1.
       -1    1    3    3    0  502 -0.17385917220E+03  0.41163319555E+03  0.92911428156E+03  0.10309812063E+04  0.50400001928E-02 0.  1.
</event>
<event>
 5   0  0.4992668E-07  0.2698832E+04  0.7818609E-02  0.8335384E-01
        2   -1    0    0  501    0  0.00000000000E+00  0.00000000000E+00  0.27461578233E+04  0.27461578233E+04  0.25500000920E-02 0. -1.
       -2   -1    0    0    0  501  0.00000000000E+00  0.00000000000E+00 -0.66308042709E+03  0.66308042709E+03  0.25500000920E-02 0.  1.
    10030    2    1    2    0    0  0.00000000000E+00  0.00000000000E+00  0.20830773963E+04  0.34092382504E+04  0.26988319713E+04 0.  0.
        1    1    3    3  502    0  0.13137265054E+04 -0.23182672447E+03  0.12982647204E+04  0.18614811967E+04  0.50400001928E-02 0. -1.
       -1    1    3    3    0  502 -0.13137265054E+04  0.23182672447E+03  0.78481267583E+03  0.15477570538E+04  0.50400001928E-02 0.  1.
</event>
<event>
 5   0  0.1888149E-07  0.2696805E+04  0.7818609E-02  0.8336042E-01
       -1   -1    0    0    0  501  0.00000000000E+00  0.00000000000E+00  0.13229780114E+04  0.13229780114E+04  0.50400001928E-02 0. -1.
        1   -1    0    0  501    0  0.00000000000E+00  0.00000000000E+00 -0.13743152900E+04  0.13743152900E+04  0.50400001928E-02 0.  1.
    10030    2    1    2    0    0  0.00000000000E+00  0.00000000000E+00 -0.51337278635E+02  0.26972933014E+04  0.26968047089E+04 0.  0.
        1    1    3    3  502    0 -0.32040998731E+03 -0.20358787674E+03  0.12684275634E+04  0.13240162639E+04  0.50400001928E-02 0. -1.
       -1    1    3    3    0  502  0.32040998731E+03  0.20358787674E+03 -0.13197648420E+04  0.13732770375E+04  0.50400001928E-02 0.  1.
</event>
<event>
 5   0  0.4735120E-07  0.2700574E+04  0.7818609E-02  0.8334819E-01
        2   -1    0    0  501    0  0.00000000000E+00  0.00000000000E+00  0.11294397196E+04  0.11294397196E+04  0.25500000920E-02 0.  1.
       -2   -1    0    0    0  501  0.00000000000E+00  0.00000000000E+00 -0.16143183326E+04  0.16143183326E+04  0.25500000920E-02 0. -1.
    10030    2    1    2    0    0  0.00000000000E+00  0.00000000000E+00 -0.48487861298E+03  0.27437580523E+04  0.27005741945E+04 0.  0.
        2    1    3    3  502    0  0.16679905075E+03  0.13277178371E+03  0.11122328364E+04  0.11324805306E+04  0.25500000920E-02 0.  1.
       -2    1    3    3    0  502 -0.16679905075E+03 -0.13277178371E+03 -0.15971114494E+04  0.16112775216E+04  0.25500000920E-02 0. -1.
</event>
<event>
 5   0  0.4843887E-07  0.2699367E+04  0.7818609E-02  0.8335210E-01
       -2   -1    0    0    0  501  0.00000000000E+00  0.00000000000E+00  0.10152656897E+04  0.10152656897E+04  0.25500000920E-02 0. -1.
        2   -1    0    0  501    0  0.00000000000E+00  0.00000000000E+00 -0.17942547626E+04  0.17942547626E+04  0.25500000920E-02 0.  1.
    10030    2    1    2    0    0  0.00000000000E+00  0.00000000000E+00 -0.77898907288E+03  0.28095204523E+04  0.26993668140E+04 0.  0.
        5    1    3    3  502    0 -0.11520576288E+03  0.71399320042E+03  0.79655291631E+03  0.10759076617E+04  0.46999998093E+01 0. -1.
       -5    1    3    3    0  502  0.11520576288E+03 -0.71399320042E+03 -0.15755419892E+04  0.17336127906E+04  0.46999998093E+01 0.  1.
</event>
<event>
 5   0  0.4843887E-07  0.2699437E+04  0.7818609E-02  0.8335188E-01
        2   -1    0    0  501    0  0.00000000000E+00  0.00000000000E+00  0.22775387377E+04  0.22775387377E+04  0.25500000920E-02 0. -1.
       -2   -1    0    0    0  501  0.00000000000E+00  0.00000000000E+00 -0.79987206469E+03  0.79987206469E+03  0.25500000920E-02 0.  1.
    10030    2    1    2    0    0  0.00000000000E+00  0.00000000000E+00  0.14776666730E+04  0.30774108024E+04  0.26994366913E+04 0.  0.
        5    1    3    3  502    0  0.76718791724E+03 -0.86553199603E+03  0.15319417904E+04  0.19195287640E+04  0.46999998093E+01 0. -1.
       -5    1    3    3    0  502 -0.76718791724E+03  0.86553199603E+03 -0.54275117408E+02  0.11578820384E+04  0.46999998093E+01 0.  1.
</event>
<event>
 5   0  0.1888149E-07  0.2697885E+04  0.7818609E-02  0.8335691E-01
       -1   -1    0    0    0  501  0.00000000000E+00  0.00000000000E+00  0.11201212652E+04  0.11201212652E+04  0.50400001928E-02 0.  1.
        1   -1    0    0  501    0  0.00000000000E+00  0.00000000000E+00 -0.16245083388E+04  0.16245083389E+04  0.50400001928E-02 0. -1.
    10030    2    1    2    0    0  0.00000000000E+00  0.00000000000E+00 -0.50438707365E+03  0.27446296041E+04  0.26978853466E+04 0.  0.
        1    1    3    3  502    0  0.17391386150E+03  0.15789111052E+03 -0.16035423976E+04  0.16206553783E+04  0.50400001928E-02 0. -1.
       -1    1    3    3    0  502 -0.17391386150E+03 -0.15789111052E+03  0.10991553240E+04  0.11239742258E+04  0.50400001928E-02 0.  1.
</event>
<event>
 5   0  0.1965415E-07  0.2700162E+04  0.7818609E-02  0.8334952E-01
       -1   -1    0    0    0  501  0.00000000000E+00  0.00000000000E+00  0.10578780124E+04  0.10578780124E+04  0.50400001928E-02 0.  1.
        1   -1    0    0  501    0  0.00000000000E+00  0.00000000000E+00 -0.17229948113E+04  0.17229948113E+04  0.50400001928E-02 0. -1.
    10030    2    1    2    0    0  0.00000000000E+00  0.00000000000E+00 -0.66511679884E+03  0.27808728237E+04  0.27001617184E+04 0.  0.
        4    1    3    3  502    0  0.52951252789E+03 -0.11228015506E+04 -0.87912883037E+03  0.15211626976E+04  0.12699999809E+01 0. -1.
       -4    1    3    3    0  502 -0.52951252789E+03  0.11228015506E+04  0.21401203153E+03  0.12597101261E+04  0.12699999809E+01 0.  1.
</event>
<event>
 5   0  0.5043890E-07  0.2699527E+04  0.7818609E-02  0.8335159E-01
        2   -1    0    0  501    0  0.00000000000E+00  0.00000000000E+00  0.10196282848E+04  0.10196282848E+04  0.25500000920E-02 0.  1.
       -2   -1    0    0    0  501  0.00000000000E+00  0.00000000000E+00 -0.17867893738E+04  0.17867893738E+04  0.25500000920E-02 0. -1.
    10030    2    1    2    0    0  0.00000000000E+00  0.00000000000E+00 -0.76716108898E+03  0.28064176587E+04  0.26995266138E+04 0.  0.
        3    1    3    3  502    0 -0.11406046954E+04 -0.49235047498E+03  0.16501991856E+03  0.12532436496E+04  0.10100000352E+00 0.  1.
       -3    1    3    3    0  502  0.11406046954E+04  0.49235047498E+03 -0.93218100755E+03  0.15531740091E+04  0.10100000352E+00 0. -1.
</event>
<event>
 5   0  0.4992668E-07  0.2700155E+04  0.7818609E-02  0.8334955E-01
       -2   -1    0    0    0  501  0.00000000000E+00  0.00000000000E+00  0.17014881816E+04  0.17014881816E+04  0.25500000920E-02 0.  1.
        2   -1    0    0  501    0  0.00000000000E+00  0.00000000000E+00 -0.10712441489E+04  0.10712441489E+04  0.25500000920E-02 0. -1.
    10030    2    1    2    0    0  0.00000000000E+00  0.00000000000E+00  0.63024403272E+03  0.27727323305E+04  0.27001550022E+04 0.  0.
        1    1    3    3  502    0 -0.13340946422E+04  0.19054496848E+03  0.23173995479E+03  0.13674133633E+04  0.50400001928E-02 0. -1.
       -1    1    3    3    0  502  0.13340946422E+04 -0.19054496848E+03  0.39850407793E+03  0.14053189672E+04  0.50400001928E-02 0.  1.
</event>
<event>
 5   0  0.4843887E-07  0.2702732E+04  0.7818609E-02  0.8334119E-01
       -2   -1    0    0    0  501  0.00000000000E+00  0.00000000000E+00  0.11942810033E+04  0.11942810033E+04  0.25500000920E-02 0. -1.
        2   -1    0    0  501    0  0.00000000000E+00  0.00000000000E+00 -0.15291124341E+04  0.15291124341E+04  0.25500000920E-02 0.  1.
    10030    2    1    2    0    0  0.00000000000E+00  0.00000000000E+00 -0.33483143081E+03  0.27233934374E+04  0.27027319009E+04 0.  0.
        5    1    3    3  502    0 -0.21491233950E+03 -0.43554848753E+03  0.11032869774E+04  0.12054683916E+04  0.46999998093E+01 0. -1.
       -5    1    3    3    0  502  0.21491233950E+03  0.43554848753E+03 -0.14381184082E+04  0.15179250458E+04  0.46999998093E+01 0.  1.
</event>
<event>
 5   0  0.1964242E-07  0.2703929E+04  0.7818609E-02  0.8333731E-01
       -1   -1    0    0    0  501  0.00000000000E+00  0.00000000000E+00  0.13001873039E+04  0.13001873039E+04  0.50400001928E-02 0.  1.
        1   -1    0    0  501    0  0.00000000000E+00  0.00000000000E+00 -0.14058035453E+04  0.14058035453E+04  0.50400001928E-02 0. -1.
    10030    2    1    2    0    0  0.00000000000E+00  0.00000000000E+00 -0.10561624141E+03  0.27059908492E+04  0.27039289350E+04 0.  0.
        2    1    3    3  502    0 -0.47228290733E+03 -0.12447825805E+04 -0.28808972806E+03  0.13621785891E+04  0.25500000920E-02 0. -1.
       -2    1    3    3    0  502  0.47228290733E+03  0.12447825805E+04  0.18247348665E+03  0.13438122601E+04  0.25500000920E-02 0.  1.
</event>
<event>
 5   0  0.5043890E-07  0.2697159E+04  0.7818609E-02  0.8335927E-01
        2   -1    0    0  501    0  0.00000000000E+00  0.00000000000E+00  0.19585360434E+04  0.19585360434E+04  0.25500000920E-02 0.  1.
       -2   -1    0    0    0  501  0.00000000000E+00  0.00000000000E+00 -0.92858457472E+03  0.92858457472E+03  0.25500000920E-02 0. -1.
    10030    2    1    2    0    0  0.00000000000E+00  0.00000000000E+00  0.10299514687E+04  0.28871206182E+04  0.26971587710E+04 0.  0.
        3    1    3    3  502    0  0.42502436933E+03  0.72546411590E+03 -0.61366729562E+03  0.10409281713E+04  0.10100000352E+00 0. -1.
       -3    1    3    3    0  502 -0.42502436933E+03 -0.72546411590E+03  0.16436187644E+04  0.18461924468E+04  0.10100000352E+00 0.  1.
</event>
<event>
 5   0  0.4983208E-07  0.2700823E+04  0.7818609E-02  0.8334738E-01
        2   -1    0    0  501    0  0.00000000000E+00  0.00000000000E+00  0.24110919722E+04  0.24110919722E+04  0.25500000920E-02 0.  1.
       -2   -1    0    0    0  501  0.00000000000E+00  0.00000000000E+00 -0.75634260910E+03  0.75634260910E+03  0.25500000920E-02 0. -1.
    10030    2    1    2    0    0  0.00000000000E+00  0.00000000000E+00  0.16547493631E+04  0.31674345813E+04  0.27008232767E+04 0.  0.
        4    1    3    3  502    0  0.25535631809E+03 -0.70645327894E+03  0.21434499422E+04  0.22712688859E+04  0.12699999809E+01 0.  1.
       -4    1    3    3    0  502 -0.25535631809E+03  0.70645327894E+03 -0.48870057916E+03  0.89616569533E+03  0.12699999809E+01 0. -1.
</event>
<event>
 5   0  0.1641625E-07  0.2700015E+04  0.7818609E-02  0.8335000E-01
       -3   -1    0    0    0  501  0.00000000000E+00  0.00000000000E+00  0.20557634727E+04  0.20557634751E+04  0.10100000352E+00 0.  1.
        3   -1    0    0  501    0  0.00000000000E+00  0.00000000000E+00 -0.88654162095E+03  0.88654162670E+03  0.10100000352E+00 0. -1.
    10030    2    1    2    0    0  0.00000000000E+00  0.00000000000E+00  0.11692218517E+04  0.29423051018E+04  0.27000147359E+04 0.  0.
        3    1    3    3  502    0  0.12778010093E+04 -0.15398107469E+01  0.10992821533E+03  0.12825217399E+04  0.10100000352E+00 0. -1.
       -3    1    3    3    0  502 -0.12778010093E+04  0.15398107469E+01  0.10592936364E+04  0.16597833620E+04  0.10100000352E+00 0.  1.
</event>
<event>
 5   0  0.5043890E-07  0.2702079E+04  0.7818609E-02  0.8334331E-01
        2   -1    0    0  501    0  0.00000000000E+00  0.00000000000E+00  0.15988163542E+04  0.15988163542E+04  0.25500000920E-02 0.  1.
       -2   -1    0    0    0  501  0.00000000000E+00  0.00000000000E+00 -0.11416620214E+04  0.11416620214E+04  0.25500000920E-02 0. -1.
    10030    2    1    2    0    0  0.00000000000E+00  0.00000000000E+00  0.45715433277E+03  0.27404783756E+04  0.27020791334E+04 0.  0.
        3    1    3    3  502    0  0.23552015919E+03  0.64358003464E+03 -0.95228978110E+03  0.11732522507E+04  0.10100000352E+00 0. -1.
       -3    1    3    3    0  502 -0.23552015919E+03 -0.64358003464E+03  0.14094441139E+04  0.15672261249E+04  0.10100000352E+00 0.  1.
</event>
<event>
 5   0  0.4983208E-07  0.2700655E+04  0.7818609E-02  0.8334792E-01
        2   -1    0    0  501    0  0.00000000000E+00  0.00000000000E+00  0.91602817689E+03  0.91602817689E+03  0.25500000920E-02 0.  1.
       -2   -1    0    0    0  501  0.00000000000E+00  0.00000000000E+00 -0.19905330108E+04  0.19905330108E+04  0.25500000920E-02 0. -1.
    10030    2    1    2    0    0  0.00000000000E+00  0.00000000000E+00 -0.10745048339E+04  0.29065611877E+04  0.27006549761E+04 0.  0.
        4    1    3    3  502    0 -0.92038914036E+03 -0.98587184447E+03 -0.60801692184E+03  0.14794409936E+04  0.12699999809E+01 0. -1.
       -4    1    3    3    0  502  0.92038914036E+03  0.98587184447E+03 -0.46648791209E+03  0.14271201941E+04  0.12699999809E+01 0.  1.
</event>
<event>
 5   0  0.4992668E-07  0.2687694E+04  0.7818609E-02  0.8339009E-01
       -2   -1    0    0    0  501  0.00000000000E+00  0.00000000000E+00  0.17886304533E+04  0.17886304533E+04  0.25500000920E-02 0.  1.
        2   -1    0    0  501    0  0.00000000000E+00  0.00000000000E+00 -0.10096692702E+04  0.10096692703E+04  0.25500000920E-02 0. -1.
    10030    2    1    2    0    0  0.00000000000E+00  0.00000000000E+00  0.77896118310E+03  0.27982997236E+04  0.26876943313E+04 0.  0.
        1    1    3    3  502    0 -0.80420118415E+03  0.22372640934E+03 -0.70701275838E+03  0.10939196000E+04  0.50400001928E-02 0. -1.
       -1    1    3    3    0  502  0.80420118415E+03 -0.22372640934E+03  0.14859739415E+04  0.17043801236E+04  0.50400001928E-02 0.  1.
</event>
<event>
 5   0  0.1965415E-07  0.2699732E+04  0.7818609E-02  0.8335092E-01
        1   -1    0    0  501    0  0.00000000000E+00  0.00000000000E+00  0.16976754542E+04  0.16976754542E+04  0.50400001928E-02 0.  1.
       -1   -1    0    0    0  501  0.00000000000E+00  0.00000000000E+00 -0.10733139470E+04  0.10733139470E+04  0.50400001928E-02 0. -1.
    10030    2    1    2    0    0  0.00000000000E+00  0.00000000000E+00  0.62436150716E+03  0.27709894012E+04  0.26997323886E+04 0.  0.
        4    1    3    3  502    0 -0.86676067582E+03  0.99753716685E+03  0.59473320138E+03  0.14491596400E+04  0.12699999809E+01 0.  1.
       -4    1    3    3    0  502  0.86676067582E+03 -0.99753716685E+03  0.29628305776E+02  0.13218297613E+04  0.12699999809E+01 0. -1.
</event>
<event>
 5   0  0.5043890E-07  0.2700893E+04  0.7818609E-02  0.8334715E-01
       -2   -1    0    0    0  501  0.00000000000E+00  0.00000000000E+00  0.12097913978E+04  0.12097913978E+04  0.25500000920E-02 0.  1.
        2   -1    0    0  501    0  0.00000000000E+00  0.00000000000E+00 -0.15074548346E+04  0.15074548346E+04  0.25500000920E-02 0. -1.
    10030    2    1    2    0    0  0.00000000000E+00  0.00000000000E+00 -0.29766343681E+03  0.27172462325E+04  0.27008931053E+04 0.  0.
        3    1    3    3  502    0  0.10012400794E+04  0.81715566029E+03 -0.54297002170E+03  0.14017993881E+04  0.10100000352E+00 0. -1.
       -3    1    3    3    0  502 -0.10012400794E+04 -0.81715566029E+03  0.24530658489E+03  0.13154468444E+04  0.10100000352E+00 0.  1.
</event>
<event>
 5   0  0.4843887E-07  0.2700437E+04  0.7818609E-02  0.8334863E-01
       -2   -1    0    0    0  501  0.00000000000E+00  0.00000000000E+00  0.91589661246E+03  0.91589661246E+03  0.25500000920E-02 0.  1.
        2   -1    0    0  501    0  0.00000000000E+00  0.00000000000E+00 -0.19904977254E+04  0.19904977254E+04  0.25500000920E-02 0. -1.
    10030    2    1    2    0    0  0.00000000000E+00  0.00000000000E+00 -0.10746011129E+04  0.29063943378E+04  0.27004370934E+04 0.  0.
        5    1    3    3  502    0  0.28268592380E+03  0.53873293932E+03 -0.18346048379E+04  0.19328583789E+04  0.46999998093E+01 0. -1.
       -5    1    3    3    0  502 -0.28268592380E+03 -0.53873293932E+03  0.76000372500E+03  0.97353595898E+03  0.46999998093E+01 0.  1.
</event>
<event>
 5   0  0.1937896E-07  0.2700064E+04  0.7818609E-02  0.8334984E-01
        1   -1    0    0  501    0  0.00000000000E+00  0.00000000000E+00  0.15896237269E+04  0.15896237269E+04  0.50400001928E-02 0. -1.
       -1   -1    0    0    0  501  0.00000000000E+00  0.00000000000E+00 -0.11465520308E+04  0.11465520308E+04  0.50400001928E-02 0.  1.
    10030    2    1    2    0    0  0.00000000000E+00  0.00000000000E+00  0.44307169616E+03  0.27361757577E+04  0.27000639343E+04 0.  0.
        3    1    3    3  502    0 -0.98776846365E+03 -0.54246533449E+03  0.97486992597E+03  0.14900760248E+04  0.10100000352E+00 0. -1.
       -3    1    3    3    0  502  0.98776846365E+03  0.54246533449E+03 -0.53179822981E+03  0.12460997329E+04  0.10100000352E+00 0.  1.
</event>
<event>
 5   0  0.1965415E-07  0.2699857E+04  0.7818609E-02  0.8335051E-01
        1   -1    0    0  501    0  0.00000000000E+00  0.00000000000E+00  0.14479991898E+04  0.14479991899E+04  0.50400001928E-02 0. -1.
       -1   -1    0    0    0  501  0.00000000000E+00  0.00000000000E+00 -0.12585000980E+04  0.12585000980E+04  0.50400001928E-02 0.  1.
    10030    2    1    2    0    0  0.00000000000E+00  0.00000000000E+00  0.18949909181E+03  0.27064992879E+04  0.26998571239E+04 0.  0.
        4    1    3    3  502    0 -0.82854575953E+03 -0.93386967416E+03  0.60953492864E+03  0.13892930166E+04  0.12699999809E+01 0. -1.
       -4    1    3    3    0  502  0.82854575953E+03  0.93386967416E+03 -0.42003583683E+03  0.13172062713E+04  0.12699999809E+01 0.  1.
</event>
<event>
 5   0  0.4983208E-07  0.2700251E+04  0.7818609E-02  0.8334924E-01
       -2   -1    0    0    0  501  0.00000000000E+00  0.00000000000E+00  0.12432507629E+04  0.12432507629E+04  0.25500000920E-02 0. -1.
        2   -1    0    0  501    0  0.00000000000E+00  0.00000000000E+00 -0.14661875378E+04  0.14661875378E+04  0.25500000920E-02 0.  1.
    10030    2    1    2    0    0  0.00000000000E+00  0.00000000000E+00 -0.22293677484E+03  0.27094383007E+04  0.27002509328E+04 0.  0.
        4    1    3    3  502    0  0.11459856329E+04 -0.40493141888E+03  0.47839624190E+03  0.13061841762E+04  0.12699999809E+01 0. -1.
       -4    1    3    3    0  502 -0.11459856329E+04  0.40493141888E+03 -0.70133301675E+03  0.14032541246E+04  0.12699999809E+01 0.  1.
</event>
<event>
 5   0  0.1937896E-07  0.2700891E+04  0.7818609E-02  0.8334716E-01
        1   -1    0    0  501    0  0.00000000000E+00  0.00000000000E+00  0.17266909621E+04  0.17266909621E+04  0.50400001928E-02 0.  1.
       -1   -1    0    0    0  501  0.00000000000E+00  0.00000000000E+00 -0.10561836993E+04  0.10561836993E+04  0.50400001928E-02 0. -1.
    10030    2    1    2    0    0  0.00000000000E+00  0.00000000000E+00  0.67050726279E+03  0.27828746613E+04  0.27008908514E+04 0.  0.
        3    1    3    3  502    0 -0.33411229114E+03  0.11123101269E+04  0.10452552592E+04  0.15625054907E+04  0.10100000352E+00 0.  1.
       -3    1    3    3    0  502  0.33411229114E+03 -0.11123101269E+04 -0.37474799637E+03  0.12203691706E+04  0.10100000352E+00 0. -1.
</event>
<event>
 5   0  0.4843887E-07  0.2700113E+04  0.7818609E-02  0.8334968E-01
       -2   -1    0    0    0  501  0.00000000000E+00  0.00000000000E+00  0.10254705489E+04  0.10254705489E+04  0.25500000920E-02 0.  1.
        2   -1    0    0  501    0  0.00000000000E+00  0.00000000000E+00 -0.17773819028E+04  0.17773819028E+04  0.25500000920E-02 0. -1.
    10030    2    1    2    0    0  0.00000000000E+00  0.00000000000E+00 -0.75191135391E+03  0.28028524516E+04  0.27001131794E+04 0.  0.
        5    1    3    3  502    0 -0.61351812542E+03  0.45746101328E+03  0.77854802390E+03  0.10917115848E+04  0.46999998093E+01 0.  1.
       -5    1    3    3    0  502  0.61351812542E+03 -0.45746101328E+03 -0.15304593778E+04  0.17111408668E+04  0.46999998093E+01 0. -1.
</event>
<event>
 5   0  0.4735120E-07  0.2700324E+04  0.7818609E-02  0.8334900E-01
       -2   -1    0    0    0  501  0.00000000000E+00  0.00000000000E+00  0.12967882335E+04  0.12967882335E+04  0.25500000920E-02 0.  1.
        2   -1    0    0  501    0  0.00000000000E+00  0.00000000000E+00 -0.14057329216E+04  0.14057329216E+04  0.25500000920E-02 0. -1.
    10030    2    1    2    0    0  0.00000000000E+00  0.00000000000E+00 -0.10894468812E+03  0.27025211551E+04  0.27003243599E+04 0.  0.
        2    1    3    3  502    0 -0.67117393504E+03  0.61069461877E+03 -0.10550434196E+04  0.13915958414E+04  0.25500000920E-02 0. -1.
       -2    1    3    3    0  502  0.67117393504E+03 -0.61069461877E+03  0.94609873147E+03  0.13109253137E+04  0.25500000920E-02 0.  1.
</event>
<event>
 5   0  0.4843887E-07  0.2700732E+04  0.7818609E-02  0.8334767E-01
        2   -1    0    0  501    0  0.00000000000E+00  0.00000000000E+00  0.14984432365E+04  0.14984432365E+04  0.25500000920E-02 0.  1.
       -2   -1    0    0    0  501  0.00000000000E+00  0.00000000000E+00 -0.12169221936E+04  0.12169221937E+04  0.25500000920E-02 0. -1.
    10030    2    1    2    0    0  0.00000000000E+00  0.00000000000E+00  0.28152104282E+03  0.27153654301E+04  0.27007323676E+04 0.  0.
        5    1    3    3  502    0  0.78378518406E+03 -0.89688826794E+03  0.78039849860E+03  0.14239984854E+04  0.46999998093E+01 0.  1.
       -5    1    3    3    0  502 -0.78378518406E+03  0.89688826794E+03 -0.49887745578E+03  0.12913669447E+04  0.46999998093E+01 0. -1.
</event>
<event>
 5   0  0.1971600E-07  0.2700118E+04  0.7818609E-02  0.8334967E-01
       -1   -1    0    0    0  501  0.00000000000E+00  0.00000000000E+00  0.21301289606E+04  0.21301289606E+04  0.50400001928E-02 0. -1.
        1   -1    0    0  501    0  0.00000000000E+00  0.00000000000E+00 -0.85565660173E+03  0.85565660174E+03  0.50400001928E-02 0.  1.
    10030    2    1    2    0    0  0.00000000000E+00  0.00000000000E+00  0.12744723588E+04  0.29857855623E+04  0.27001177068E+04 0.  0.
        5    1    3    3  502    0 -0.71168363532E+03  0.20128955263E+03  0.18861646137E+04  0.20259936132E+04  0.46999998093E+01 0. -1.
       -5    1    3    3    0  502  0.71168363532E+03 -0.20128955263E+03 -0.61169225491E+03  0.95979194907E+03  0.46999998093E+01 0.  1.
</event>
<event>
 5   0  0.1965415E-07  0.2701029E+04  0.7818609E-02  0.8334671E-01
       -1   -1    0    0    0  501  0.00000000000E+00  0.00000000000E+00  0.14723010308E+04  0.14723010309E+04  0.50400001928E-02 0.  1.
        1   -1    0    0  501    0  0.00000000000E+00  0.00000000000E+00 -0.12388019775E+04  0.12388019775E+04  0.50400001928E-02 0. -1.
    10030    2    1    2    0    0  0.00000000000E+00  0.00000000000E+00  0.23349905334E+03  0.27111030084E+04  0.27010290102E+04 0.  0.
        4    1    3    3  502    0  0.98274466267E+03  0.14243605301E+03 -0.80198543543E+03  0.12764236572E+04  0.12699999809E+01 0. -1.
       -4    1    3    3    0  502 -0.98274466267E+03 -0.14243605301E+03  0.10354844888E+04  0.14346793511E+04  0.12699999809E+01 0.  1.
</event>
<event>
 5   0  0.5043890E-07  0.2702911E+04  0.7818609E-02  0.8334061E-01
       -2   -1    0    0    0  501  0.00000000000E+00  0.00000000000E+00  0.89598751227E+03  0.89598751228E+03  0.25500000920E-02 0. -1.
        2   -1    0    0  501    0  0.00000000000E+00  0.00000000000E+00 -0.20384567108E+04  0.20384567108E+04  0.25500000920E-02 0.  1.
    10030    2    1    2    0    0  0.00000000000E+00  0.00000000000E+00 -0.11424691985E+04  0.29344442231E+04  0.27029108437E+04 0.  0.
        3    1    3    3  502    0  0.50895039139E+03  0.12091856725E+04 -0.92348300804E+03  0.16043632281E+04  0.10100000352E+00 0. -1.
       -3    1    3    3    0  502 -0.50895039139E+03 -0.12091856725E+04 -0.21898619051E+03  0.13300809950E+04  0.10100000352E+00 0.  1.
</event>
<event>
 5   0  0.1964242E-07  0.2701761E+04  0.7818609E-02  0.8334434E-01
       -1   -1    0    0    0  501  0.00000000000E+00  0.00000000000E+00  0.16072680319E+04  0.16072680319E+04  0.50400001928E-02 0. -1.
        1   -1    0    0  501    0  0.00000000000E+00  0.00000000000E+00 -0.11353913648E+04  0.11353913648E+04  0.50400001928E-02 0.  1.
    10030    2    1    2    0    0  0.00000000000E+00  0.00000000000E+00  0.47187666707E+03  0.27426593967E+04  0.27017610881E+04 0.  0.
        2    1    3    3  502    0 -0.69600246805E+02  0.72591861818E+03 -0.91841030587E+03  0.11727231236E+04  0.25500000920E-02 0.  1.
       -2    1    3    3    0  502  0.69600246805E+02 -0.72591861818E+03  0.13902869729E+04  0.15699362731E+04  0.25500000920E-02 0. -1.
</event>
<event>
 5   0  0.4983208E-07  0.2692769E+04  0.7818609E-02  0.8337355E-01
       -2   -1    0    0    0  501  0.00000000000E+00  0.00000000000E+00  0.20655746841E+04  0.20655746841E+04  0.25500000920E-02 0. -1.
        2   -1    0    0  501    0  0.00000000000E+00  0.00000000000E+00 -0.87760129435E+03  0.87760129435E+03  0.25500000920E-02 0.  1.
    10030    2    1    2    0    0  0.00000000000E+00  0.00000000000E+00  0.11879733898E+04  0.29431759785E+04  0.26927688474E+04 0.  0.
        4    1    3    3  502    0 -0.13444016577E+04  0.60487452448E+02  0.63871739316E+03  0.14896429338E+04  0.12699999809E+01 0.  1.
       -4    1    3    3    0  502  0.13444016577E+04 -0.60487452448E+02  0.54925599664E+03  0.14535330446E+04  0.12699999809E+01 0. -1.
</event>
<event>
 5   0  0.1965415E-07  0.2698517E+04  0.7818609E-02  0.8335486E-01
        1   -1    0    0  501    0  0.00000000000E+00  0.00000000000E+00  0.10380761361E+04  0.10380761362E+04  0.50400001928E-02 0. -1.
       -1   -1    0    0    0  501  0.00000000000E+00  0.00000000000E+00 -0.17537235950E+04  0.17537235950E+04  0.50400001928E-02 0.  1.
    10030    2    1    2    0    0  0.00000000000E+00  0.00000000000E+00 -0.71564745888E+03  0.27917997312E+04  0.26985170842E+04 0.  0.
        4    1    3    3  502    0 -0.73335417768E+03  0.10772665849E+04 -0.71945724032E+03  0.14886006780E+04  0.12699999809E+01 0.  1.
       -4    1    3    3    0  502  0.73335417768E+03 -0.10772665849E+04  0.38097814378E+01  0.13031990532E+04  0.12699999809E+01 0. -1.
</event>
<event>
 5   0  0.1888149E-07  0.2700806E+04  0.7818609E-02  0.8334743E-01
        1   -1    0    0  501    0  0.00000000000E+00  0.00000000000E+00  0.19032940208E+04  0.19032940208E+04  0.50400001928E-02 0.  1.
       -1   -1    0    0    0  501  0.00000000000E+00  0.00000000000E+00 -0.95812244966E+03  0.95812244968E+03  0.50400001928E-02 0. -1.
    10030    2    1    2    0    0  0.00000000000E+00  0.00000000000E+00  0.94517157116E+03  0.28614164705E+04  0.27008063460E+04 0.  0.
        1    1    3    3  502    0 -0.95241033072E+03 -0.71907971442E+03  0.11421722919E+04  0.16518833549E+04  0.50400001928E-02 0.  1.
       -1    1    3    3    0  502  0.95241033072E+03  0.71907971442E+03 -0.19700072074E+03  0.12095331156E+04  0.50400001928E-02 0. -1.
</event>
<event>
 5   0  0.1971600E-07  0.2699117E+04  0.7818609E-02  0.8335291E-01
       -1   -1    0    0    0  501  0.00000000000E+00  0.00000000000E+00  0.15454611490E+04  0.15454611490E+04  0.50400001928E-02 0.  1.
        1   -1    0    0  501    0  0.00000000000E+00  0.00000000000E+00 -0.11784886804E+04  0.11784886804E+04  0.50400001928E-02 0. -1.
    10030    2    1    2    0    0  0.00000000000E+00  0.00000000000E+00  0.36697246861E+03  0.27239498293E+04  0.26991172409E+04 0.  0.
        5    1    3    3  502    0  0.39070295205E+03  0.12917401169E+04  0.17671227796E+03  0.13610623224E+04  0.46999998093E+01 0. -1.
       -5    1    3    3    0  502 -0.39070295205E+03 -0.12917401169E+04  0.19026019065E+03  0.13628875069E+04  0.46999998093E+01 0.  1.
</event>
<event>
 5   0  0.1937896E-07  0.2699986E+04  0.7818609E-02  0.8335010E-01
        1   -1    0    0  501    0  0.00000000000E+00  0.00000000000E+00  0.76885256359E+03  0.76885256361E+03  0.50400001928E-02 0.  1.
       -1   -1    0    0    0  501  0.00000000000E+00  0.00000000000E+00 -0.23703903524E+04  0.23703903524E+04  0.50400001928E-02 0. -1.
    10030    2    1    2    0    0  0.00000000000E+00  0.00000000000E+00 -0.16015377888E+04  0.31392429160E+04  0.26999857031E+04 0.  0.
        3    1    3    3  502    0 -0.12388514678E+03 -0.61694170404E+03  0.58790987580E+03  0.86116353153E+03  0.10100000352E+00 0.  1.
       -3    1    3    3    0  502  0.12388514678E+03  0.61694170404E+03 -0.21894476646E+04  0.22780793845E+04  0.10100000352E+00 0. -1.
</event>
<event>
 5   0  0.4735120E-07  0.2699923E+04  0.7818609E-02  0.8335030E-01
        2   -1    0    0  501    0  0.00000000000E+00  0.00000000000E+00  0.94435464701E+03  0.94435464702E+03  0.25500000920E-02 0. -1.
       -2   -1    0    0    0  501  0.00000000000E+00  0.00000000000E+00 -0.19297788338E+04  0.19297788338E+04  0.25500000920E-02 0.  1.
    10030    2    1    2    0    0  0.00000000000E+00  0.00000000000E+00 -0.98542418681E+03  0.28741334808E+04  0.26999226726E+04 0.  0.
        2    1    3    3  502    0  0.43802737145E+02 -0.14418363066E+03 -0.19207976264E+04  0.19266995409E+04  0.25500000920E-02 0.  1.
       -2    1    3    3    0  502 -0.43802737145E+02  0.14418363066E+03  0.93537343959E+03  0.94743393998E+03  0.25500000920E-02 0. -1.
</event>
<event>
 5   0  0.1965415E-07  0.2700366E+04  0.7818609E-02  0.8334886E-01
       -1   -1    0    0    0  501  0.00000000000E+00  0.00000000000E+00  0.16127630499E+04  0.16127630499E+04  0.50400001928E-02 0. -1.
        1   -1    0    0  501    0  0.00000000000E+00  0.00000000000E+00 -0.11303545203E+04  0.11303545203E+04  0.50400001928E-02 0.  1.
    10030    2    1    2    0    0  0.00000000000E+00  0.00000000000E+00  0.48240852962E+03  0.27431175702E+04  0.27003659038E+04 0.  0.
        4    1    3    3  502    0 -0.54818678307E+02  0.67713800420E+03 -0.94408969626E+03  0.11631113153E+04  0.12699999809E+01 0.  1.
       -4    1    3    3    0  502  0.54818678307E+02 -0.67713800420E+03  0.14264982259E+04  0.15800062549E+04  0.12699999809E+01 0. -1.
</event>
<event>
 5   0  0.4843887E-07  0.2697743E+04  0.7818609E-02  0.8335738E-01
        2   -1    0    0  501    0  0.00000000000E+00  0.00000000000E+00  0.20040111927E+04  0.20040111927E+04  0.25500000920E-02 0. -1.
       -2   -1    0    0    0  501  0.00000000000E+00  0.00000000000E+00 -0.90790608100E+03  0.90790608100E+03  0.25500000920E-02 0.  1.
    10030    2    1    2    0    0  0.00000000000E+00  0.00000000000E+00  0.10961051117E+04  0.29119172737E+04  0.26977427218E+04 0.  0.
        5    1    3    3  502    0 -0.45730776380E+03  0.10798217822E+04  0.12675181099E+04  0.17267801600E+04  0.46999998093E+01 0. -1.
       -5    1    3    3    0  502  0.45730776380E+03 -0.10798217822E+04 -0.17141299824E+03  0.11851371136E+04  0.46999998093E+01 0.  1.
</event>
<event>
 5   0  0.4983208E-07  0.2699087E+04  0.7818609E-02  0.8335301E-01
        2   -1    0    0  501    0  0.00000000000E+00  0.00000000000E+00  0.19380275560E+04  0.19380275560E+04  0.25500000920E-02 0. -1.
       -2   -1    0    0    0  501  0.00000000000E+00  0.00000000000E+00 -0.93975293111E+03  0.93975293111E+03  0.25500000920E-02 0.  1.
    10030    2    1    2    0    0  0.00000000000E+00  0.00000000000E+00  0.99827462485E+03  0.28777804871E+04  0.26990865687E+04 0.  0.
        4    1    3    3  502    0  0.10384758221E+04 -0.82665458259E+03  0.75915948353E+03  0.15290894566E+04  0.12699999809E+01 0. -1.
       -4    1    3    3    0  502 -0.10384758221E+04  0.82665458259E+03  0.23911514131E+03  0.13486910305E+04  0.12699999809E+01 0.  1.
</event>
<event>
 5   0  0.1888149E-07  0.2700489E+04  0.7818609E-02  0.8334846E-01
        1   -1    0    0  501    0  0.00000000000E+00  0.00000000000E+00  0.27496858403E+04  0.27496858403E+04  0.50400001928E-02 0.  1.
       -1   -1    0    0    0  501  0.00000000000E+00  0.00000000000E+00 -0.66304287320E+03  0.66304287322E+03  0.50400001928E-02 0. -1.
    10030    2    1    2    0    0  0.00000000000E+00  0.00000000000E+00  0.20866429671E+04  0.34127287136E+04  0.27004885484E+04 0.  0.
        1    1    3    3  502    0 -0.29179171273E+03  0.64989746444E+03  0.24928597711E+04  0.25926548085E+04  0.50400001928E-02 0.  1.
       -1    1    3    3    0  502  0.29179171273E+03 -0.64989746444E+03 -0.40621680393E+03  0.82007390504E+03  0.50400001928E-02 0. -1.
</event>
<event>
 5   0  0.4843887E-07  0.2700778E+04  0.7818609E-02  0.8334753E-01
        2   -1    0    0  501    0  0.00000000000E+00  0.00000000000E+00  0.20421580020E+04  0.20421580020E+04  0.25500000920E-02 0. -1.
       -2   -1    0    0    0  501  0.00000000000E+00  0.00000000000E+00 -0.89295248816E+03  0.89295248817E+03  0.25500000920E-02 0.  1.
    10030    2    1    2    0    0  0.00000000000E+00  0.00000000000E+00  0.11492055138E+04  0.29351104901E+04  0.27007777169E+04 0.  0.
        5    1    3    3  502    0 -0.11837755786E+04 -0.63858960013E+03  0.70504479756E+03  0.15186281818E+04  0.46999998093E+01 0.  1.
       -5    1    3    3    0  502  0.11837755786E+04  0.63858960013E+03  0.44416071622E+03  0.14164823083E+04  0.46999998093E+01 0. -1.
</event>
<event>
 5   0  0.4992668E-07  0.2700212E+04  0.7818609E-02  0.8334936E-01
        2   -1    0    0  501    0  0.00000000000E+00  0.00000000000E+00  0.12672412944E+04  0.12672412944E+04  0.25500000920E-02 0. -1.
       -2   -1    0    0    0  501  0.00000000000E+00  0.00000000000E+00 -0.14383896319E+04  0.14383896319E+04  0.25500000920E-02 0.  1.
    10030    2    1    2    0    0  0.00000000000E+00  0.00000000000E+00 -0.17114833744E+03  0.27056309263E+04  0.27002123909E+04 0.  0.
        1    1    3    3  502    0 -0.10937574496E+04  0.10110321780E+03  0.70102312730E+03  0.13030581891E+04  0.50400001928E-02 0. -1.
       -1    1    3    3    0  502  0.10937574496E+04 -0.10110321780E+03 -0.87217146474E+03  0.14025727372E+04  0.50400001928E-02 0.  1.
</event>
<event>
 5   0  0.5043890E-07  0.2699438E+04  0.7818609E-02  0.8335187E-01
       -2   -1    0    0    0  501  0.00000000000E+00  0.00000000000E+00  0.14939622937E+04  0.14939622937E+04  0.25500000920E-02 0. -1.
        2   -1    0    0  501    0  0.00000000000E+00  0.00000000000E+00 -0.12194029454E+04  0.12194029454E+04  0.25500000920E-02 0.  1.
    10030    2    1    2    0    0  0.00000000000E+00  0.00000000000E+00  0.27455934836E+03  0.27133652391E+04  0.26994384759E+04 0.  0.
        3    1    3    3  502    0  0.27982914310E+03  0.89941545516E+02  0.14614020835E+04  0.14906675990E+04  0.10100000352E+00 0. -1.
       -3    1    3    3    0  502 -0.27982914310E+03 -0.89941545516E+02 -0.11868427351E+04  0.12226976401E+04  0.10100000352E+00 0.  1.
</event>
<event>
 5   0  0.1888149E-07  0.2695512E+04  0.7818609E-02  0.8336463E-01
       -1   -1    0    0    0  501  0.00000000000E+00  0.00000000000E+00  0.13904723791E+04  0.13904723791E+04  0.50400001928E-02 0.  1.
        1   -1    0    0  501    0  0.00000000000E+00  0.00000000000E+00 -0.13063521052E+04  0.13063521052E+04  0.50400001928E-02 0. -1.
    10030    2    1    2    0    0  0.00000000000E+00  0.00000000000E+00  0.84120273896E+02  0.26968244844E+04  0.26955122109E+04 0.  0.
        1    1    3    3  502    0 -0.10783506781E+04 -0.80845866259E+03  0.43022711402E+02  0.13484422671E+04  0.50400001928E-02 0. -1.
       -1    1    3    3    0  502  0.10783506781E+04  0.80845866259E+03  0.41097562495E+02  0.13483822172E+04  0.50400001928E-02 0.  1.
</event>
<event>
 5   0  0.1964242E-07  0.2700092E+04  0.7818609E-02  0.8334975E-01
        1   -1    0    0  501    0  0.00000000000E+00  0.00000000000E+00  0.12984746430E+04  0.12984746430E+04  0.50400001928E-02 0.  1.
       -1   -1    0    0    0  501  0.00000000000E+00  0.00000000000E+00 -0.14036660065E+04  0.14036660065E+04  0.50400001928E-02 0. -1.
    10030    2    1    2    0    0  0.00000000000E+00  0.00000000000E+00 -0.10519136350E+03  0.27021406495E+04  0.27000923811E+04 0.  0.
        2    1    3    3  502    0 -0.53246582270E+03 -0.91249245356E+03 -0.89374645681E+03  0.13838153993E+04  0.25500000920E-02 0. -1.
       -2    1    3    3    0  502  0.53246582270E+03  0.91249245356E+03  0.78855509331E+03  0.13183252502E+04  0.25500000920E-02 0.  1.
</event>
<event>
 5   0  0.4992668E-07  0.2699911E+04  0.7818609E-02  0.8335034E-01
        2   -1    0    0  501    0  0.00000000000E+00  0.00000000000E+00  0.13650875158E+04  0.13650875158E+04  0.25500000920E-02 0. -1.
       -2   -1    0    0    0  501  0.00000000000E+00  0.00000000000E+00 -0.13349912492E+04  0.13349912492E+04  0.25500000920E-02 0.  1.
    10030    2    1    2    0    0  0.00000000000E+00  0.00000000000E+00  0.30096266570E+02  0.27000787650E+04  0.26999110267E+04 0.  0.
        1    1    3    3  502    0  0.10569999986E+04  0.83881406234E+03 -0.23965312052E+02  0.13496045215E+04  0.50400001928E-02 0.  1.
       -1    1    3    3    0  502 -0.10569999986E+04 -0.83881406234E+03  0.54061578622E+02  0.13504742435E+04  0.50400001928E-02 0. -1.
</event>
<event>
 5   0  0.5043890E-07  0.2699262E+04  0.7818609E-02  0.8335244E-01
        2   -1    0    0  501    0  0.00000000000E+00  0.00000000000E+00  0.62315738577E+03  0.62315738578E+03  0.25500000920E-02 0. -1.
       -2   -1    0    0    0  501  0.00000000000E+00  0.00000000000E+00 -0.29230235939E+04  0.29230235939E+04  0.25500000920E-02 0.  1.
    10030    2    1    2    0    0  0.00000000000E+00  0.00000000000E+00 -0.22998662081E+04  0.35461809797E+04  0.26992619297E+04 0.  0.
        3    1    3    3  502    0 -0.13213818969E+04 -0.11632150175E+03 -0.14768531768E+04  0.19851136304E+04  0.10100000352E+00 0.  1.
       -3    1    3    3    0  502  0.13213818969E+04  0.11632150175E+03 -0.82301303129E+03  0.15610673493E+04  0.10100000352E+00 0. -1.
</event>
<event>
 5   0  0.1971600E-07  0.2699455E+04  0.7818609E-02  0.8335182E-01
        1   -1    0    0  501    0  0.00000000000E+00  0.00000000000E+00  0.16148930091E+04  0.16148930091E+04  0.50400001928E-02 0.  1.
       -1   -1    0    0    0  501  0.00000000000E+00  0.00000000000E+00 -0.11281019851E+04  0.11281019851E+04  0.50400001928E-02 0. -1.
    10030    2    1    2    0    0  0.00000000000E+00  0.00000000000E+00  0.48679102400E+03  0.27429949943E+04  0.26994547667E+04 0.  0.
        5    1    3    3  502    0 -0.11992134620E+04  0.63873216722E+02  0.86940800882E+03  0.14825940412E+04  0.46999998093E+01 0.  1.
       -5    1    3    3    0  502  0.11992134620E+04 -0.63873216722E+02 -0.38261698481E+03  0.12604009530E+04  0.46999998093E+01 0. -1.
</event>
<event>
 5   0  0.5043890E-07  0.2703436E+04  0.7818609E-02  0.8333891E-01
        2   -1    0    0  501    0  0.00000000000E+00  0.00000000000E+00  0.19738729583E+04  0.19738729583E+04  0.25500000920E-02 0.  1.
       -2   -1    0    0    0  501  0.00000000000E+00  0.00000000000E+00 -0.92566286170E+03  0.92566286171E+03  0.25500000920E-02 0. -1.
    10030    2    1    2    0    0  0.00000000000E+00  0.00000000000E+00  0.10482100966E+04  0.28995358200E+04  0.27034355115E+04 0.  0.
        3    1    3    3  502    0 -0.77112590219E+02  0.39612469842E+03 -0.85954298094E+03  0.94956583477E+03  0.10100000352E+00 0. -1.
       -3    1    3    3    0  502  0.77112590219E+02 -0.39612469842E+03  0.19077530776E+04  0.19499699853E+04  0.10100000352E+00 0.  1.
</event>
<event>
 5   0  0.1965415E-07  0.2699689E+04  0.7818609E-02  0.8335106E-01
       -1   -1    0    0    0  501  0.00000000000E+00  0.00000000000E+00  0.11470874133E+04  0.11470874133E+04  0.50400001928E-02 0. -1.
        1   -1    0    0  501    0  0.00000000000E+00  0.00000000000E+00 -0.15884410957E+04  0.15884410957E+04  0.50400001928E-02 0.  1.
    10030    2    1    2    0    0  0.00000000000E+00  0.00000000000E+00 -0.44135368243E+03  0.27355285090E+04  0.26996894545E+04 0.  0.
        4    1    3    3  502    0  0.34485603043E+03  0.29413498235E+03  0.10676730963E+04  0.11599002212E+04  0.12699999809E+01 0. -1.
       -4    1    3    3    0  502 -0.34485603043E+03 -0.29413498235E+03 -0.15090267787E+04  0.15756282878E+04  0.12699999809E+01 0.  1.
</event>
<event>
 5   0  0.1965415E-07  0.2700452E+04  0.7818609E-02  0.8334858E-01
        1   -1    0    0  501    0  0.00000000000E+00  0.00000000000E+00  0.18038082708E+04  0.18038082708E+04  0.50400001928E-02 0. -1.
       -1   -1    0    0    0  501  0.00000000000E+00  0.00000000000E+00 -0.10107005087E+04  0.10107005087E+04  0.50400001928E-02 0.  1.
    10030    2    1    2    0    0  0.00000000000E+00  0.00000000000E+00  0.79310776206E+03  0.28145087795E+04  0.27004517673E+04 0.  0.
        4    1    3    3  502    0  0.12611871782E+04  0.97947028013E+02  0.88864130237E+03  0.15459209863E+04  0.12699999809E+01 0. -1.
       -4    1    3    3    0  502 -0.12611871782E+04 -0.97947028013E+02 -0.95533540315E+02  0.12685877932E+04  0.12699999809E+01 0.  1.
</event>
<event>
 5   0  0.5043890E-07  0.2699609E+04  0.7818609E-02  0.8335132E-01
        2   -1    0    0  501    0  0.00000000000E+00  0.00000000000E+00  0.13178975556E+04  0.13178975556E+04  0.25500000920E-02 0. -1.
       -2   -1    0    0    0  501  0.00000000000E+00  0.00000000000E+00 -0.13824834741E+04  0.13824834741E+04  0.25500000920E-02 0.  1.
    10030    2    1    2    0    0  0.00000000000E+00  0.00000000000E+00 -0.64585918506E+02  0.27003810298E+04  0.26996085578E+04 0.  0.
        3    1    3    3  502    0 -0.23666965140E+03 -0.41071911372E+03  0.12318997040E+04  0.13199543951E+04  0.10100000352E+00 0. -1.
       -3    1    3    3    0  502  0.23666965140E+03  0.41071911372E+03 -0.12964856225E+04  0.13804266347E+04  0.10100000352E+00 0.  1.
</event>
<event>
 5   0  0.1971600E-07  0.2700251E+04  0.7818609E-02  0.8334924E-01
        1   -1    0    0  501    0  0.00000000000E+00  0.00000000000E+00  0.19552059667E+04  0.19552059667E+04  0.50400001928E-02 0. -1.
       -1   -1    0    0    0  501  0.00000000000E+00  0.00000000000E+00 -0.93230020085E+03  0.93230020086E+03  0.50400001928E-02 0.  1.
    10030    2    1    2    0    0  0.00000000000E+00  0.00000000000E+00  0.10229057659E+04  0.28875061676E+04  0.27002510369E+04 0.  0.
        5    1    3    3  502    0  0.33442666585E+02 -0.20758799775E+03 -0.91467546014E+03  0.93854380619E+03  0.46999998093E+01 0.  1.
       -5    1    3    3    0  502 -0.33442666585E+02  0.20758799775E+03  0.19375812260E+04  0.19489623614E+04  0.46999998093E+01 0. -1.
</event>
<event>
 5   0  0.1888149E-07  0.2693208E+04  0.7818609E-02  0.8337212E-01
       -1   -1    0    0    0  501  0.00000000000E+00  0.00000000000E+00  0.14363735135E+04  0.14363735135E+04  0.50400001928E-02 0. -1.
        1   -1    0    0  501    0  0.00000000000E+00  0.00000000000E+00 -0.12624451653E+04  0.12624451653E+04  0.50400001928E-02 0.  1.
    10030    2    1    2    0    0  0.00000000000E+00  0.00000000000E+00  0.17392834820E+03  0.26988186788E+04  0.26932083452E+04 0.  0.
        1    1    3    3  502    0  0.13437174799E+04 -0.85808775270E+02  0.10708050317E+03  0.13507057584E+04  0.50400001928E-02 0.  1.
       -1    1    3    3    0  502 -0.13437174799E+04  0.85808775270E+02  0.66847845024E+02  0.13481129204E+04  0.50400001928E-02 0. -1.
</event>
<event>
 5   0  0.1965415E-07  0.2699601E+04  0.7818609E-02  0.8335135E-01
       -1   -1    0    0    0  501  0.00000000000E+00  0.00000000000E+00  0.11365780561E+04  0.11365780561E+04  0.50400001928E-02 0. -1.
        1   -1    0    0  501    0  0.00000000000E+00  0.00000000000E+00 -0.16030232895E+04  0.16030232896E+04  0.50400001928E-02 0.  1.
    10030    2    1    2    0    0  0.00000000000E+00  0.00000000000E+00 -0.46644523345E+03  0.27396013457E+04  0.26996007811E+04 0.  0.
        4    1    3    3  502    0  0.23405819380E+03  0.11278116860E+04  0.48092109686E+03  0.12482103795E+04  0.12699999809E+01 0. -1.
       -4    1    3    3    0  502 -0.23405819380E+03 -0.11278116860E+04 -0.94736633031E+03  0.14913909662E+04  0.12699999809E+01 0.  1.
</event>
<event>
 5   0  0.4735120E-07  0.2699663E+04  0.7818609E-02  0.8335114E-01
        2   -1    0    0  501    0  0.00000000000E+00  0.00000000000E+00  0.12893626316E+04  0.12893626316E+04  0.25500000920E-02 0.  1.
       -2   -1    0    0    0  501  0.00000000000E+00  0.00000000000E+00 -0.14131362854E+04  0.14131362854E+04  0.25500000920E-02 0. -1.
    10030    2    1    2    0    0  0.00000000000E+00  0.00000000000E+00 -0.12377365380E+03  0.27024989169E+04  0.26996630306E+04 0.  0.
        2    1    3    3  502    0 -0.65011000774E+03 -0.11651965349E+04  0.14258035160E+03  0.13418849220E+04  0.25500000920E-02 0.  1.
       -2    1    3    3    0  502  0.65011000774E+03  0.11651965349E+04 -0.26635400539E+03  0.13606139950E+04  0.25500000920E-02 0. -1.
</event>
<event>
 5   0  0.4735120E-07  0.2699739E+04  0.7818609E-02  0.8335090E-01
        2   -1    0    0  501    0  0.00000000000E+00  0.00000000000E+00  0.16169600086E+04  0.16169600086E+04  0.25500000920E-02 0. -1.
       -2   -1    0    0    0  501  0.00000000000E+00  0.00000000000E+00 -0.11268971059E+04  0.11268971060E+04  0.25500000920E-02 0.  1.
    10030    2    1    2    0    0  0.00000000000E+00  0.00000000000E+00  0.49006290267E+03  0.27438571146E+04  0.26997389164E+04 0.  0.
        2    1    3    3  502    0  0.88987904806E+03  0.63591224892E+03 -0.55902163384E+03  0.12283217394E+04  0.25500000920E-02 0.  1.
       -2    1    3    3    0  502 -0.88987904806E+03 -0.63591224892E+03  0.10490845365E+04  0.15155353751E+04  0.25500000920E-02 0. -1.
</event>
<event>
 5   0  0.4735120E-07  0.2700838E+04  0.7818609E-02  0.8334733E-01
        2   -1    0    0  501    0  0.00000000000E+00  0.00000000000E+00  0.11098517135E+04  0.11098517135E+04  0.25500000920E-02 0.  1.
       -2   -1    0    0    0  501  0.00000000000E+00  0.00000000000E+00 -0.16431308649E+04  0.16431308649E+04  0.25500000920E-02 0. -1.
    10030    2    1    2    0    0  0.00000000000E+00  0.00000000000E+00 -0.53327915142E+03  0.27529825783E+04  0.27008380965E+04 0.  0.
        2    1    3    3  502    0  0.74819847609E+03  0.36463229144E+03 -0.13505964650E+04  0.15864641436E+04  0.25500000920E-02 0. -1.
       -2    1    3    3    0  502 -0.74819847609E+03 -0.36463229144E+03  0.81731731356E+03  0.11665184348E+04  0.25500000920E-02 0.  1.
</event>
<event>
 5   0  0.1964242E-07  0.2700534E+04  0.7818609E-02  0.8334832E-01
        1   -1    0    0  501    0  0.00000000000E+00  0.00000000000E+00  0.14405263062E+04  0.14405263062E+04  0.50400001928E-02 0.  1.
       -1   -1    0    0    0  501  0.00000000000E+00  0.00000000000E+00 -0.12656635226E+04  0.12656635226E+04  0.50400001928E-02 0. -1.
    10030    2    1    2    0    0  0.00000000000E+00  0.00000000000E+00  0.17486278359E+03  0.27061898289E+04  0.27005344650E+04 0.  0.
        2    1    3    3  502    0  0.37222592949E+03  0.57481855075E+02  0.13868215481E+04  0.14370561271E+04  0.25500000920E-02 0.  1.
       -2    1    3    3    0  502 -0.37222592949E+03 -0.57481855075E+02 -0.12119587645E+04  0.12691337018E+04  0.25500000920E-02 0. -1.
</event>
<event>
 5   0  0.1965415E-07  0.2699923E+04  0.7818609E-02  0.8335030E-01
       -1   -1    0    0    0  501  0.00000000000E+00  0.00000000000E+00  0.93145147734E+03  0.93145147735E+03  0.50400001928E-02 0.  1.
        1   -1    0    0  501    0  0.00000000000E+00  0.00000000000E+00 -0.19565122825E+04  0.19565122825E+04  0.50400001928E-02 0. -1.
    10030    2    1    2    0    0  0.00000000000E+00  0.00000000000E+00 -0.10250608052E+04  0.28879637599E+04  0.26999231515E+04 0.  0.
        4    1    3    3  502    0 -0.16555437551E+03  0.46315444176E+03  0.83219640520E+03  0.96668131145E+03  0.12699999809E+01 0.  1.
       -4    1    3    3    0  502  0.16555437551E+03 -0.46315444176E+03 -0.18572572104E+04  0.19212824484E+04  0.12699999809E+01 0. -1.
</event>
<event>
 5   0  0.1937896E-07  0.2699687E+04  0.7818609E-02  0.8335107E-01
        1   -1    0    0  501    0  0.00000000000E+00  0.00000000000E+00  0.21939192094E+04  0.21939192095E+04  0.50400001928E-02 0.  1.
       -1   -1    0    0    0  501  0.00000000000E+00  0.00000000000E+00 -0.83051255671E+03  0.83051255672E+03  0.50400001928E-02 0. -1.
    10030    2    1    2    0    0  0.00000000000E+00  0.00000000000E+00  0.13634066527E+04  0.30244317662E+04  0.26996869832E+04 0.  0.
        3    1    3    3  502    0  0.78941727057E+03 -0.97169757524E+03  0.11631576937E+03  0.12573405160E+04  0.10100000352E+00 0. -1.
       -3    1    3    3    0  502 -0.78941727057E+03  0.97169757524E+03  0.12470908834E+04  0.17670912502E+04  0.10100000352E+00 0.  1.
</event>
<event>
 5   0  0.4843887E-07  0.2699841E+04  0.7818609E-02  0.8335057E-01
       -2   -1    0    0    0  501  0.00000000000E+00  0.00000000000E+00  0.10483896336E+04  0.10483896336E+04  0.25500000920E-02 0.  1.
        2   -1    0    0  501    0  0.00000000000E+00  0.00000000000E+00 -0.17381754399E+04  0.17381754399E+04  0.25500000920E-02 0. -1.
    10030    2    1    2    0    0  0.00000000000E+00  0.00000000000E+00 -0.68978580631E+03  0.27865650735E+04  0.26998408195E+04 0.  0.
        5    1    3    3  502    0 -0.40717368662E+03 -0.94687664193E+03 -0.12446151575E+04  0.16159996183E+04  0.46999998093E+01 0. -1.
       -5    1    3    3    0  502  0.40717368662E+03  0.94687664193E+03  0.55482935115E+03  0.11705654552E+04  0.46999998093E+01 0.  1.
</event>
<event>
 5   0  0.1965415E-07  0.2712561E+04  0.7818609E-02  0.8330941E-01
        1   -1    0    0  501    0  0.00000000000E+00  0.00000000000E+00  0.11923833642E+04  0.11923833642E+04  0.50400001928E-02 0. -1.
       -1   -1    0    0    0  501  0.00000000000E+00  0.00000000000E+00 -0.15427061213E+04  0.15427061214E+04  0.50400001928E-02 0.  1.
    10030    2    1    2    0    0  0.00000000000E+00  0.00000000000E+00 -0.35032275716E+03  0.27350894856E+04  0.27125612361E+04 0.  0.
        4    1    3    3  502    0 -0.27662657888E+03  0.95461541877E+03  0.75536970804E+03  0.12483580699E+04  0.12699999809E+01 0. -1.
       -4    1    3    3    0  502  0.27662657888E+03 -0.95461541877E+03 -0.11056924652E+04  0.14867314157E+04  0.12699999809E+01 0.  1.
</event>
<event>
 5   0  0.4843887E-07  0.2700874E+04  0.7818609E-02  0.8334722E-01
        2   -1    0    0  501    0  0.00000000000E+00  0.00000000000E+00  0.17416998188E+04  0.17416998188E+04  0.25500000920E-02 0. -1.
       -2   -1    0    0    0  501  0.00000000000E+00  0.00000000000E+00 -0.10470688932E+04  0.10470688932E+04  0.25500000920E-02 0.  1.
    10030    2    1    2    0    0  0.00000000000E+00  0.00000000000E+00  0.69463092554E+03  0.27887687120E+04  0.27008737117E+04 0.  0.
        5    1    3    3  502    0 -0.89599856770E+03  0.94723354988E+03 -0.15682987196E+02  0.13039681275E+04  0.46999998093E+01 0.  1.
       -5    1    3    3    0  502  0.89599856770E+03 -0.94723354988E+03  0.71031391273E+03  0.14848005846E+04  0.46999998093E+01 0. -1.
</event>
<event>
 5   0  0.1965415E-07  0.2699997E+04  0.7818609E-02  0.8335006E-01
       -1   -1    0    0    0  501  0.00000000000E+00  0.00000000000E+00  0.28550333475E+04  0.28550333475E+04  0.50400001928E-02 0. -1.
        1   -1    0    0  501    0  0.00000000000E+00  0.00000000000E+00 -0.63834504102E+03  0.63834504104E+03  0.50400001928E-02 0.  1.
    10030    2    1    2    0    0  0.00000000000E+00  0.00000000000E+00  0.22166883065E+04  0.34933783886E+04  0.26999973181E+04 0.  0.
        4    1    3    3  502    0 -0.55293332034E+03 -0.10247382060E+04  0.19922128611E+04  0.23075392401E+04  0.12699999809E+01 0. -1.
       -4    1    3    3    0  502  0.55293332034E+03  0.10247382060E+04  0.22447544544E+03  0.11858391485E+04  0.12699999809E+01 0.  1.
</event>
<event>
 5   0  0.1641625E-07  0.2698997E+04  0.7818609E-02  0.8335330E-01
       -3   -1    0    0    0  501  0.00000000000E+00  0.00000000000E+00  0.78172426519E+03  0.78172427171E+03  0.10100000352E+00 0. -1.
        3   -1    0    0  501    0  0.00000000000E+00  0.00000000000E+00 -0.23296537248E+04  0.23296537270E+04  0.10100000352E+00 0.  1.
    10030    2    1    2    0    0  0.00000000000E+00  0.00000000000E+00 -0.15479294596E+04  0.31113779987E+04  0.26989974878E+04 0.  0.
        4    1    3    3  502    0 -0.10514040554E+04 -0.83976825294E+03 -0.65592868719E+03  0.14969653510E+04  0.12699999809E+01 0. -1.
       -4    1    3    3    0  502  0.10514040554E+04  0.83976825294E+03 -0.89200077246E+03  0.16144126478E+04  0.12699999809E+01 0.  1.
</event>
<event>
 5   0  0.1937896E-07  0.2694061E+04  0.7818609E-02  0.8336935E-01
        1   -1    0    0  501    0  0.00000000000E+00  0.00000000000E+00  0.19804158104E+04  0.19804158104E+04  0.50400001928E-02 0.  1.
       -1   -1    0    0    0  501  0.00000000000E+00  0.00000000000E+00 -0.91621714241E+03  0.91621714242E+03  0.50400001928E-02 0. -1.
    10030    2    1    2    0    0  0.00000000000E+00  0.00000000000E+00  0.10641986680E+04  0.28966329528E+04  0.26940608119E+04 0.  0.
        3    1    3    3  502    0 -0.41059333171E+03  0.12061380302E+04  0.62036120657E+02  0.12756191918E+04  0.10100000352E+00 0.  1.
       -3    1    3    3    0  502  0.41059333171E+03 -0.12061380302E+04  0.10021625473E+04  0.16210137610E+04  0.10100000352E+00 0. -1.
</event>
<event>
 5   0  0.1937896E-07  0.2700787E+04  0.7818609E-02  0.8334750E-01
       -1   -1    0    0    0  501  0.00000000000E+00  0.00000000000E+00  0.89985318775E+03  0.89985318777E+03  0.50400001928E-02 0.  1.
        1   -1    0    0  501    0  0.00000000000E+00  0.00000000000E+00 -0.20265110181E+04  0.20265110181E+04  0.50400001928E-02 0. -1.
    10030    2    1    2    0    0  0.00000000000E+00  0.00000000000E+00 -0.11266578303E+04  0.29263642059E+04  0.27007868481E+04 0.  0.
        3    1    3    3  502    0  0.82112032965E+02 -0.40227426643E+03 -0.19572444680E+04  0.19998432162E+04  0.10100000352E+00 0. -1.
       -3    1    3    3    0  502 -0.82112032965E+02  0.40227426643E+03  0.83058663771E+03  0.92652098969E+03  0.10100000352E+00 0.  1.
</event>
<event>
 5   0  0.4983208E-07  0.2700582E+04  0.7818609E-02  0.8334816E-01
       -2   -1    0    0    0  501  0.00000000000E+00  0.00000000000E+00  0.93947913063E+03  0.93947913063E+03  0.25500000920E-02 0.  1.
        2   -1    0    0  501    0  0.00000000000E+00  0.00000000000E+00 -0.19407416486E+04  0.19407416486E+04  0.25500000920E-02 0. -1.
    10030    2    1    2    0    0  0.00000000000E+00  0.00000000000E+00 -0.10012625180E+04  0.28802207792E+04  0.27005823645E+04 0.  0.
        4    1    3    3  502    0 -0.22665077635E+03  0.11980357044E+04 -0.11194183412E+04  0.16552217854E+04  0.12699999809E+01 0.  1.
       -4    1    3    3    0  502  0.22665077635E+03 -0.11980357044E+04  0.11815582318E+03  0.12249989938E+04  0.12699999809E+01 0. -1.
</event>
<event>
 5   0  0.4735120E-07  0.2699533E+04  0.7818609E-02  0.8335157E-01
        2   -1    0    0  501    0  0.00000000000E+00  0.00000000000E+00  0.14020009763E+04  0.14020009763E+04  0.25500000920E-02 0. -1.
       -2   -1    0    0    0  501  0.00000000000E+00  0.00000000000E+00 -0.12994780052E+04  0.12994780052E+04  0.25500000920E-02 0.  1.
    10030    2    1    2    0    0  0.00000000000E+00  0.00000000000E+00  0.10252297116E+03  0.27014789815E+04  0.26995328722E+04 0.  0.
        2    1    3    3  502    0 -0.10057247538E+04 -0.61992829714E+03 -0.60195409971E+03  0.13259495135E+04  0.25500000920E-02 0.  1.
       -2    1    3    3    0  502  0.10057247538E+04  0.61992829714E+03  0.70447707086E+03  0.13755294680E+04  0.25500000920E-02 0. -1.
</event>
<event>
 5   0  0.1937896E-07  0.2699702E+04  0.7818609E-02  0.8335102E-01
        1   -1    0    0  501    0  0.00000000000E+00  0.00000000000E+00  0.10469897601E+04  0.10469897601E+04  0.50400001928E-02 0.  1.
       -1   -1    0    0    0  501  0.00000000000E+00  0.00000000000E+00 -0.17403210773E+04  0.17403210773E+04  0.50400001928E-02 0. -1.
    10030    2    1    2    0    0  0.00000000000E+00  0.00000000000E+00 -0.69333131714E+03  0.27873108374E+04  0.26997024631E+04 0.  0.
        3    1    3    3  502    0 -0.26291061191E+03 -0.13230040642E+04 -0.39967971883E+03  0.14068424331E+04  0.10100000352E+00 0.  1.
       -3    1    3    3    0  502  0.26291061191E+03  0.13230040642E+04 -0.29365159831E+03  0.13804684043E+04  0.10100000352E+00 0. -1.
</event>
<event>
 5   0  0.5043890E-07  0.2696294E+04  0.7818609E-02  0.8336208E-01
       -2   -1    0    0    0  501  0.00000000000E+00  0.00000000000E+00  0.68173973042E+03  0.68173973043E+03  0.25500000920E-02 0. -1.
        2   -1    0    0  501    0  0.00000000000E+00  0.00000000000E+00 -0.26659737425E+04  0.26659737425E+04  0.25500000920E-02 0.  1.
    10030    2    1    2    0    0  0.00000000000E+00  0.00000000000E+00 -0.19842340120E+04  0.33477134729E+04  0.26962939161E+04 0.  0.
        3    1    3    3  502    0 -0.10858885351E+04  0.16294891184E+03 -0.19632610208E+04  0.22494666267E+04  0.10100000352E+00 0.  1.
       -3    1    3    3    0  502  0.10858885351E+04 -0.16294891184E+03 -0.20972991245E+02  0.10982468462E+04  0.10100000352E+00 0. -1.
</event>
<event>
 5   0  0.1888149E-07  0.2699343E+04  0.7818609E-02  0.8335218E-01
       -1   -1    0    0    0  501  0.00000000000E+00  0.00000000000E+00  0.10291648605E+04  0.10291648605E+04  0.50400001928E-02 0. -1.
        1   -1    0    0  501    0  0.00000000000E+00  0.00000000000E+00 -0.17699911185E+04  0.17699911185E+04  0.50400001928E-02 0.  1.
    10030    2    1    2    0    0  0.00000000000E+00  0.00000000000E+00 -0.74082625795E+03  0.27991559790E+04  0.26993426330E+04 0.  0.
        1    1    3    3  502    0  0.53898786500E+03  0.12053975773E+04 -0.66025035390E+03  0.14762864789E+04  0.50400001928E-02 0.  1.
       -1    1    3    3    0  502 -0.53898786500E+03 -0.12053975773E+04 -0.80575904054E+02  0.13228695001E+04  0.50400001928E-02 0. -1.
</event>
<event>
 5   0  0.1965415E-07  0.2691272E+04  0.7818609E-02  0.8337843E-01
       -1   -1    0    0    0  501  0.00000000000E+00  0.00000000000E+00  0.14773593386E+04  0.14773593386E+04  0.50400001928E-02 0.  1.
        1   -1    0    0  501    0  0.00000000000E+00  0.00000000000E+00 -0.12256568504E+04  0.12256568504E+04  0.50400001928E-02 0. -1.
    10030    2    1    2    0    0  0.00000000000E+00  0.00000000000E+00  0.25170248822E+03  0.27030161890E+04  0.26912715165E+04 0.  0.
        4    1    3    3  502    0 -0.37046816251E+03 -0.10664032523E+04 -0.60965008179E+03  0.12830188584E+04  0.12699999809E+01 0. -1.
       -4    1    3    3    0  502  0.37046816251E+03  0.10664032523E+04  0.86135257000E+03  0.14199973305E+04  0.12699999809E+01 0.  1.
</event>
<event>
 5   0  0.1971600E-07  0.2699389E+04  0.7818609E-02  0.8335203E-01
       -1   -1    0    0    0  501  0.00000000000E+00  0.00000000000E+00  0.96249168367E+03  0.96249168369E+03  0.50400001928E-02 0. -1.
        1   -1    0    0  501    0  0.00000000000E+00  0.00000000000E+00 -0.18926655719E+04  0.18926655719E+04  0.50400001928E-02 0.  1.
    10030    2    1    2    0    0  0.00000000000E+00  0.00000000000E+00 -0.93017388823E+03  0.28551572556E+04  0.26993887256E+04 0.  0.
        5    1    3    3  502    0  0.68063225742E+03  0.10176361067E+04 -0.10660359218E+04  0.16233601548E+04  0.46999998093E+01 0.  1.
       -5    1    3    3    0  502 -0.68063225742E+03 -0.10176361067E+04  0.13586203358E+03  0.12317971008E+04  0.46999998093E+01 0. -1.
</event>
<event>
 5   0  0.5043890E-07  0.2698050E+04  0.7818609E-02  0.8335638E-01
        2   -1    0    0  501    0  0.00000000000E+00  0.00000000000E+00  0.12019161094E+04  0.12019161094E+04  0.25500000920E-02 0. -1.
       -2   -1    0    0    0  501  0.00000000000E+00  0.00000000000E+00 -0.15141393065E+04  0.15141393065E+04  0.25500000920E-02 0.  1.
    10030    2    1    2    0    0  0.00000000000E+00  0.00000000000E+00 -0.31222319713E+03  0.27160554160E+04  0.26980499806E+04 0.  0.
        3    1    3    3  502    0  0.60121680799E+03 -0.88425425217E+03  0.67187425313E+03  0.12628468850E+04  0.10100000352E+00 0. -1.
       -3    1    3    3    0  502 -0.60121680799E+03  0.88425425217E+03 -0.98409745026E+03  0.14532085310E+04  0.10100000352E+00 0.  1.
</event>
<event>
 5   0  0.1888149E-07  0.2701492E+04  0.7818609E-02  0.8334521E-01
        1   -1    0    0  501    0  0.00000000000E+00  0.00000000000E+00  0.54754938560E+03  0.54754938562E+03  0.50400001928E-02 0. -1.
       -1   -1    0    0    0  501  0.00000000000E+00  0.00000000000E+00 -0.33321456851E+04  0.33321456851E+04  0.50400001928E-02 0.  1.
    10030    2    1    2    0    0  0.00000000000E+00  0.00000000000E+00 -0.27845962995E+04  0.38796950708E+04  0.27014916788E+04 0.  0.
        1    1    3    3  502    0 -0.11092993960E+04  0.58573747325E+03 -0.21116272980E+04  0.24561358641E+04  0.50400001928E-02 0.  1.
       -1    1    3    3    0  502  0.11092993960E+04 -0.58573747325E+03 -0.67296900158E+03  0.14235592066E+04  0.50400001928E-02 0. -1.
</event>
<event>
 5   0  0.4992668E-07  0.2696514E+04  0.7818609E-02  0.8336137E-01
       -2   -1    0    0    0  501  0.00000000000E+00  0.00000000000E+00  0.92894467301E+03  0.92894467301E+03  0.25500000920E-02 0.  1.
        2   -1    0    0  501    0  0.00000000000E+00  0.00000000000E+00 -0.19568411062E+04  0.19568411062E+04  0.25500000920E-02 0. -1.
    10030    2    1    2    0    0  0.00000000000E+00  0.00000000000E+00 -0.10278964331E+04  0.28857857792E+04  0.26965141361E+04 0.  0.
        1    1    3    3  502    0  0.56553078342E+03 -0.12155995412E+04 -0.36150771265E+03  0.13885946630E+04  0.50400001928E-02 0. -1.
       -1    1    3    3    0  502 -0.56553078342E+03  0.12155995412E+04 -0.66638872049E+03  0.14971911162E+04  0.50400001928E-02 0.  1.
</event>
<event>
 5   0  0.1965415E-07  0.2701572E+04  0.7818609E-02  0.8334495E-01
       -1   -1    0    0    0  501  0.00000000000E+00  0.00000000000E+00  0.10265928304E+04  0.10265928304E+04  0.50400001928E-02 0. -1.
        1   -1    0    0  501    0  0.00000000000E+00  0.00000000000E+00 -0.17773583055E+04  0.17773583055E+04  0.50400001928E-02 0.  1.
    10030    2    1    2    0    0  0.00000000000E+00  0.00000000000E+00 -0.75076547509E+03  0.28039511359E+04  0.27015723522E+04 0.  0.
        4    1    3    3  502    0  0.70459188209E+03 -0.18539651660E+03  0.80517552935E+03  0.10858779096E+04  0.12699999809E+01 0. -1.
       -4    1    3    3    0  502 -0.70459188209E+03  0.18539651660E+03 -0.15559410044E+04  0.17180732263E+04  0.12699999809E+01 0.  1.
</event>
<event>
 5   0  0.1971600E-07  0.2700621E+04  0.7818609E-02  0.8334804E-01
        1   -1    0    0  501    0  0.00000000000E+00  0.00000000000E+00  0.11982125957E+04  0.11982125957E+04  0.50400001928E-02 0. -1.
       -1   -1    0    0    0  501  0.00000000000E+00  0.00000000000E+00 -0.15217150796E+04  0.15217150796E+04  0.50400001928E-02 0.  1.
    10030    2    1    2    0    0  0.00000000000E+00  0.00000000000E+00 -0.32350248387E+03  0.27199276753E+04  0.27006207993E+04 0.  0.
        5    1    3    3  502    0 -0.93089089893E+03 -0.38390903774E+03 -0.10678339761E+04  0.14677314146E+04  0.46999998093E+01 0.  1.
       -5    1    3    3    0  502  0.93089089893E+03  0.38390903774E+03  0.74433149222E+03  0.12521962607E+04  0.46999998093E+01 0. -1.
</event>
<event>
 5   0  0.1964242E-07  0.2701079E+04  0.7818609E-02  0.8334655E-01
       -1   -1    0    0    0  501  0.00000000000E+00  0.00000000000E+00  0.13204534734E+04  0.13204534734E+04  0.50400001928E-02 0. -1.
        1   -1    0    0  501    0  0.00000000000E+00  0.00000000000E+00 -0.13813106146E+04  0.13813106146E+04  0.50400001928E-02 0.  1.
    10030    2    1    2    0    0  0.00000000000E+00  0.00000000000E+00 -0.60857141118E+02  0.27017640880E+04  0.27010785986E+04 0.  0.
        2    1    3    3  502    0  0.18568815785E+03 -0.62753677100E+03  0.11512576806E+04  0.13242646027E+04  0.25500000920E-02 0. -1.
       -2    1    3    3    0  502 -0.18568815785E+03  0.62753677100E+03 -0.12121148217E+04  0.13774994853E+04  0.25500000920E-02 0.  1.
</event>
<event>
 5   0  0.1965415E-07  0.2700557E+04  0.7818609E-02  0.8334824E-01
        1   -1    0    0  501    0  0.00000000000E+00  0.00000000000E+00  0.17224936243E+04  0.17224936243E+04  0.50400001928E-02 0. -1.
       -1   -1    0    0    0  501  0.00000000000E+00  0.00000000000E+00 -0.10584954651E+04  0.10584954651E+04  0.50400001928E-02 0.  1.
    10030    2    1    2    0    0  0.00000000000E+00  0.00000000000E+00  0.66399815915E+03  0.27809890894E+04  0.27005567500E+04 0.  0.
        4    1    3    3  502    0 -0.60732693175E+03  0.12059709759E+04  0.33835381308E+03  0.13920118219E+04  0.12699999809E+01 0.  1.
       -4    1    3    3    0  502  0.60732693175E+03 -0.12059709759E+04  0.32564434607E+03  0.13889772675E+04  0.12699999809E+01 0. -1.
</event>
<event>
 5   0  0.1971600E-07  0.2699786E+04  0.7818609E-02  0.8335075E-01
       -1   -1    0    0    0  501  0.00000000000E+00  0.00000000000E+00  0.81101378457E+03  0.81101378459E+03  0.50400001928E-02 0.  1.
        1   -1    0    0  501    0  0.00000000000E+00  0.00000000000E+00 -0.22468305248E+04  0.22468305248E+04  0.50400001928E-02 0. -1.
    10030    2    1    2    0    0  0.00000000000E+00  0.00000000000E+00 -0.14358167402E+04  0.30578443094E+04  0.26997855672E+04 0.  0.
        5    1    3    3  502    0  0.79716290995E+03 -0.32028668867E+03  0.46140172180E+03  0.97517480834E+03  0.46999998093E+01 0.  1.
       -5    1    3    3    0  502 -0.79716290995E+03  0.32028668867E+03 -0.18972184620E+04  0.20826695011E+04  0.46999998093E+01 0. -1.
</event>
<event>
 5   0  0.4735120E-07  0.2700531E+04  0.7818609E-02  0.8334833E-01
        2   -1    0    0  501    0  0.00000000000E+00  0.00000000000E+00  0.15949261750E+04  0.15949261750E+04  0.25500000920E-02 0. -1.
       -2   -1    0    0    0  501  0.00000000000E+00  0.00000000000E+00 -0.11431358778E+04  0.11431358778E+04  0.25500000920E-02 0.  1.
    10030    2    1    2    0    0  0.00000000000E+00  0.00000000000E+00  0.45179029725E+03  0.27380620528E+04  0.27005313055E+04 0.  0.
        2    1    3    3  502    0  0.28924641342E+03 -0.13120977789E+04  0.90043229302E+02  0.13466149606E+04  0.25500000920E-02 0. -1.
       -2    1    3    3    0  502 -0.28924641342E+03  0.13120977789E+04  0.36174706795E+03  0.13914470921E+04  0.25500000920E-02 0.  1.
</event>
<event>
 5   0  0.1888149E-07  0.2703375E+04  0.7818609E-02  0.8333911E-01
        1   -1    0    0  501    0  0.00000000000E+00  0.00000000000E+00  0.19141967866E+04  0.19141967867E+04  0.50400001928E-02 0. -1.
       -1   -1    0    0    0  501  0.00000000000E+00  0.00000000000E+00 -0.95447812561E+03  0.95447812562E+03  0.50400001928E-02 0.  1.
    10030    2    1    2    0    0  0.00000000000E+00  0.00000000000E+00  0.95971866104E+03  0.28686749123E+04  0.27033748989E+04 0.  0.
        1    1    3    3  502    0 -0.25403875372E+03  0.69665285444E+03  0.16790940285E+04  0.18355428746E+04  0.50400001928E-02 0. -1.
       -1    1    3    3    0  502  0.25403875372E+03 -0.69665285444E+03 -0.71937536743E+03  0.10331320377E+04  0.50400001928E-02 0.  1.
</event>
<event>
 5   0  0.1888149E-07  0.2706680E+04  0.7818609E-02  0.8332841E-01
       -1   -1    0    0    0  501  0.00000000000E+00  0.00000000000E+00  0.12549692734E+04  0.12549692734E+04  0.50400001928E-02 0.  1.
        1   -1    0    0  501    0  0.00000000000E+00  0.00000000000E+00 -0.14594210563E+04  0.14594210563E+04  0.50400001928E-02 0. -1.
    10030    2    1    2    0    0  0.00000000000E+00  0.00000000000E+00 -0.20445178285E+03  0.27143903297E+04  0.27066795766E+04 0.  0.
        1    1    3    3  502    0  0.11027143279E+04  0.69301110996E+03  0.26663341906E+03  0.13294121512E+04  0.50400001928E-02 0.  1.
       -1    1    3    3    0  502 -0.11027143279E+04 -0.69301110996E+03 -0.47108520192E+03  0.13849781785E+04  0.50400001928E-02 0. -1.
</event>
<event>
 5   0  0.1888149E-07  0.2699095E+04  0.7818609E-02  0.8335299E-01
        1   -1    0    0  501    0  0.00000000000E+00  0.00000000000E+00  0.14546234321E+04  0.14546234321E+04  0.50400001928E-02 0. -1.
       -1   -1    0    0    0  501  0.00000000000E+00  0.00000000000E+00 -0.12520613677E+04  0.12520613677E+04  0.50400001928E-02 0.  1.
    10030    2    1    2    0    0  0.00000000000E+00  0.00000000000E+00  0.20256206441E+03  0.27066847998E+04  0.26990945177E+04 0.  0.
        1    1    3    3  502    0  0.83501520091E+02  0.13221533573E+04  0.35932897750E+03  0.13726541146E+04  0.50400001928E-02 0.  1.
       -1    1    3    3    0  502 -0.83501520091E+02 -0.13221533573E+04 -0.15676691309E+03  0.13340306853E+04  0.50400001928E-02 0. -1.
</event>
<event>
 5   0  0.4983208E-07  0.2699624E+04  0.7818609E-02  0.8335127E-01
       -2   -1    0    0    0  501  0.00000000000E+00  0.00000000000E+00  0.81536129385E+03  0.81536129385E+03  0.25500000920E-02 0.  1.
        2   -1    0    0  501    0  0.00000000000E+00  0.00000000000E+00 -0.22345832190E+04  0.22345832190E+04  0.25500000920E-02 0. -1.
    10030    2    1    2    0    0  0.00000000000E+00  0.00000000000E+00 -0.14192219252E+04  0.30499445129E+04  0.26996241699E+04 0.  0.
        4    1    3    3  502    0  0.11544850529E+04  0.19539930607E+03 -0.14683013606E+04  0.18780114815E+04  0.12699999809E+01 0. -1.
       -4    1    3    3    0  502 -0.11544850529E+04 -0.19539930607E+03  0.49079435440E+02  0.11719330314E+04  0.12699999809E+01 0.  1.
</event>
<event>
 5   0  0.1937896E-07  0.2700286E+04  0.7818609E-02  0.8334912E-01
        1   -1    0    0  501    0  0.00000000000E+00  0.00000000000E+00  0.11886205420E+04  0.11886205420E+04  0.50400001928E-02 0.  1.
       -1   -1    0    0    0  501  0.00000000000E+00  0.00000000000E+00 -0.15336151852E+04  0.15336151852E+04  0.50400001928E-02 0. -1.
    10030    2    1    2    0    0  0.00000000000E+00  0.00000000000E+00 -0.34499464321E+03  0.27222357273E+04  0.27002862906E+04 0.  0.
        3    1    3    3  502    0  0.10049200946E+04  0.54379251913E+02 -0.10798494304E+04  0.14761084994E+04  0.10100000352E+00 0. -1.
       -3    1    3    3    0  502 -0.10049200946E+04 -0.54379251913E+02  0.73485478715E+03  0.12461272279E+04  0.10100000352E+00 0.  1.
</event>
<event>
 5   0  0.4983208E-07  0.2700379E+04  0.7818609E-02  0.8334882E-01
       -2   -1    0    0    0  501  0.00000000000E+00  0.00000000000E+00  0.22501267919E+04  0.22501267919E+04  0.25500000920E-02 0. -1.
        2   -1    0    0  501    0  0.00000000000E+00  0.00000000000E+00 -0.81018193830E+03  0.81018193831E+03  0.25500000920E-02 0.  1.
    10030    2    1    2    0    0  0.00000000000E+00  0.00000000000E+00  0.14399448536E+04  0.30603087302E+04  0.27003792961E+04 0.  0.
        4    1    3    3  502    0 -0.10321341637E+04  0.73209187620E+02 -0.26302056483E+03  0.10676338078E+04  0.12699999809E+01 0. -1.
       -4    1    3    3    0  502  0.10321341637E+04 -0.73209187620E+02  0.17029654184E+04  0.19926749224E+04  0.12699999809E+01 0.  1.
</event>
<event>
 5   0  0.5043890E-07  0.2699578E+04  0.7818609E-02  0.8335142E-01
        2   -1    0    0  501    0  0.00000000000E+00  0.00000000000E+00  0.13493159962E+04  0.13493159962E+04  0.25500000920E-02 0.  1.
       -2   -1    0    0    0  501  0.00000000000E+00  0.00000000000E+00 -0.13502624545E+04  0.13502624545E+04  0.25500000920E-02 0. -1.
    10030    2    1    2    0    0  0.00000000000E+00  0.00000000000E+00 -0.94645825817E+00  0.26995784507E+04  0.26995782848E+04 0.  0.
        3    1    3    3  502    0  0.19011241985E+03 -0.11377434892E+03  0.13310085026E+04  0.13493224147E+04  0.10100000352E+00 0.  1.
       -3    1    3    3    0  502 -0.19011241985E+03  0.11377434892E+03 -0.13319549609E+04  0.13502560360E+04  0.10100000352E+00 0. -1.
</event>
<event>
 5   0  0.4992668E-07  0.2698743E+04  0.7818609E-02  0.8335413E-01
       -2   -1    0    0    0  501  0.00000000000E+00  0.00000000000E+00  0.81047725409E+03  0.81047725410E+03  0.25500000920E-02 0. -1.
        2   -1    0    0  501    0  0.00000000000E+00  0.00000000000E+00 -0.22465823033E+04  0.22465823033E+04  0.25500000920E-02 0.  1.
    10030    2    1    2    0    0  0.00000000000E+00  0.00000000000E+00 -0.14361050492E+04  0.30570595574E+04  0.26987433048E+04 0.  0.
        1    1    3    3  502    0 -0.72055360575E+03  0.11352010721E+04 -0.58927038461E+03  0.14680322064E+04  0.50400001928E-02 0.  1.
       -1    1    3    3    0  502  0.72055360575E+03 -0.11352010721E+04 -0.84683466462E+03  0.15890273510E+04  0.50400001928E-02 0. -1.
</event>
<event>
 5   0  0.4983208E-07  0.2699883E+04  0.7818609E-02  0.8335043E-01
        2   -1    0    0  501    0  0.00000000000E+00  0.00000000000E+00  0.93750649227E+03  0.93750649227E+03  0.25500000920E-02 0. -1.
       -2   -1    0    0    0  501  0.00000000000E+00  0.00000000000E+00 -0.19438183550E+04  0.19438183550E+04  0.25500000920E-02 0.  1.
    10030    2    1    2    0    0  0.00000000000E+00  0.00000000000E+00 -0.10063118627E+04  0.28813248472E+04  0.26998832031E+04 0.  0.
        4    1    3    3  502    0  0.13145893051E+04 -0.13075630853E+03 -0.79948216624E+03  0.15441553032E+04  0.12699999809E+01 0.  1.
       -4    1    3    3    0  502 -0.13145893051E+04  0.13075630853E+03 -0.20682969645E+03  0.13371695440E+04  0.12699999809E+01 0. -1.
</event>
<event>
 5   0  0.1937896E-07  0.2700197E+04  0.7818609E-02  0.8334941E-01
        1   -1    0    0  501    0  0.00000000000E+00  0.00000000000E+00  0.24420151071E+04  0.24420151071E+04  0.50400001928E-02 0. -1.
       -1   -1    0    0    0  501  0.00000000000E+00  0.00000000000E+00 -0.74641878289E+03  0.74641878291E+03  0.50400001928E-02 0.  1.
    10030    2    1    2    0    0  0.00000000000E+00  0.00000000000E+00  0.16955963242E+04  0.31884338900E+04  0.27001969884E+04 0.  0.
        3    1    3    3  502    0 -0.72225774323E+03 -0.52259350894E+03  0.20450340639E+04  0.22309021843E+04  0.10100000352E+00 0. -1.
       -3    1    3    3    0  502  0.72225774323E+03  0.52259350894E+03 -0.34943773972E+03  0.95753170568E+03  0.10100000352E+00 0.  1.
</event>
<event>
 5   0  0.5043890E-07  0.2698391E+04  0.7818609E-02  0.8335527E-01
       -2   -1    0    0    0  501  0.00000000000E+00  0.00000000000E+00  0.10780542927E+04  0.10780542927E+04  0.25500000920E-02 0. -1.
        2   -1    0    0  501    0  0.00000000000E+00  0.00000000000E+00 -0.16885319567E+04  0.16885319567E+04  0.25500000920E-02 0.  1.
    10030    2    1    2    0    0  0.00000000000E+00  0.00000000000E+00 -0.61047766402E+03  0.27665862494E+04  0.26983914648E+04 0.  0.
        3    1    3    3  502    0  0.11468067441E+03 -0.96461544240E+03 -0.12652215216E+04  0.15951238565E+04  0.10100000352E+00 0.  1.
       -3    1    3    3    0  502 -0.11468067441E+03  0.96461544240E+03  0.65474385755E+03  0.11714623929E+04  0.10100000352E+00 0. -1.
</event>
<event>
 5   0  0.1937896E-07  0.2699932E+04  0.7818609E-02  0.8335027E-01
        1   -1    0    0  501    0  0.00000000000E+00  0.00000000000E+00  0.28099755846E+04  0.28099755846E+04  0.50400001928E-02 0. -1.
       -1   -1    0    0    0  501  0.00000000000E+00  0.00000000000E+00 -0.64854935773E+03  0.64854935775E+03  0.50400001928E-02 0.  1.
    10030    2    1    2    0    0  0.00000000000E+00  0.00000000000E+00  0.21614262268E+04  0.34585249423E+04  0.26999317478E+04 0.  0.
        3    1    3    3  502    0 -0.12692173697E+04 -0.22301613836E+02  0.16691190497E+04  0.20969903447E+04  0.10100000352E+00 0. -1.
       -3    1    3    3    0  502  0.12692173697E+04  0.22301613836E+02  0.49230717717E+03  0.13615345976E+04  0.10100000352E+00 0.  1.
</event>
<event>
 5   0  0.4983208E-07  0.2694374E+04  0.7818609E-02  0.8336833E-01
        2   -1    0    0  501    0  0.00000000000E+00  0.00000000000E+00  0.29307695054E+04  0.29307695054E+04  0.25500000920E-02 0.  1.
       -2   -1    0    0    0  501  0.00000000000E+00  0.00000000000E+00 -0.61926151756E+03  0.61926151757E+03  0.25500000920E-02 0. -1.
    10030    2    1    2    0    0  0.00000000000E+00  0.00000000000E+00  0.23115079879E+04  0.35500310230E+04  0.26943739693E+04 0.  0.
        4    1    3    3  502    0 -0.85910748410E+02  0.13093017268E+04  0.15581195466E+04  0.20370051063E+04  0.12699999809E+01 0.  1.
       -4    1    3    3    0  502  0.85910748410E+02 -0.13093017268E+04  0.75338844124E+03  0.15130259167E+04  0.12699999809E+01 0. -1.
</event>
<event>
 5   0  0.4735120E-07  0.2699816E+04  0.7818609E-02  0.8335065E-01
        2   -1    0    0  501    0  0.00000000000E+00  0.00000000000E+00  0.18652742420E+04  0.18652742420E+04  0.25500000920E-02 0.  1.
       -2   -1    0    0    0  501  0.00000000000E+00  0.00000000000E+00 -0.97693530050E+03  0.97693530050E+03  0.25500000920E-02 0. -1.
    10030    2    1    2    0    0  0.00000000000E+00  0.00000000000E+00  0.88833894154E+03  0.28422095425E+04  0.26998164768E+04 0.  0.
        2    1    3    3  502    0  0.12967903313E+04 -0.32414518554E+03  0.64256866836E+03  0.14831148837E+04  0.25500000920E-02 0. -1.
       -2    1    3    3    0  502 -0.12967903313E+04  0.32414518554E+03  0.24577027318E+03  0.13590946589E+04  0.25500000920E-02 0.  1.
</event>
<event>
 5   0  0.4992668E-07  0.2703325E+04  0.7818609E-02  0.8333927E-01
       -2   -1    0    0    0  501  0.00000000000E+00  0.00000000000E+00  0.17199658036E+04  0.17199658036E+04  0.25500000920E-02 0.  1.
        2   -1    0    0  501    0  0.00000000000E+00  0.00000000000E+00 -0.10622254539E+04  0.10622254539E+04  0.25500000920E-02 0. -1.
    10030    2    1    2    0    0  0.00000000000E+00  0.00000000000E+00  0.65774034977E+03  0.27821912575E+04  0.27033249575E+04 0.  0.
        1    1    3    3  502    0 -0.86357622110E+03  0.19284538329E+03  0.13804613370E+04  0.16397032458E+04  0.50400001928E-02 0.  1.
       -1    1    3    3    0  502  0.86357622110E+03 -0.19284538329E+03 -0.72272098720E+03  0.11424880117E+04  0.50400001928E-02 0. -1.
</event>
<event>
 5   0  0.5043890E-07  0.2699771E+04  0.7818609E-02  0.8335079E-01
       -2   -1    0    0    0  501  0.00000000000E+00  0.00000000000E+00  0.76394642480E+03  0.76394642481E+03  0.25500000920E-02 0. -1.
        2   -1    0    0  501    0  0.00000000000E+00  0.00000000000E+00 -0.23852334495E+04  0.23852334495E+04  0.25500000920E-02 0.  1.
    10030    2    1    2    0    0  0.00000000000E+00  0.00000000000E+00 -0.16212870247E+04  0.31491798743E+04  0.26997707799E+04 0.  0.
        3    1    3    3  502    0 -0.77445958190E+03 -0.58323687390E+03 -0.19062721394E+04  0.21386505967E+04  0.10100000352E+00 0.  1.
       -3    1    3    3    0  502  0.77445958190E+03  0.58323687390E+03  0.28498511472E+03  0.10105292776E+04  0.10100000352E+00 0. -1.
</event>
<event>
 5   0  0.4735120E-07  0.2700368E+04  0.7818609E-02  0.8334886E-01
        2   -1    0    0  501    0  0.00000000000E+00  0.00000000000E+00  0.13834534471E+04  0.13834534471E+04  0.25500000920E-02 0.  1.
       -2   -1    0    0    0  501  0.00000000000E+00  0.00000000000E+00 -0.13177143610E+04  0.13177143610E+04  0.25500000920E-02 0. -1.
    10030    2    1    2    0    0  0.00000000000E+00  0.00000000000E+00  0.65739086040E+02  0.27011678081E+04  0.27003677342E+04 0.  0.
        2    1    3    3  502    0  0.46336529534E+03  0.11536670079E+04 -0.49391872623E+03  0.13377633087E+04  0.25500000920E-02 0. -1.
       -2    1    3    3    0  502 -0.46336529534E+03 -0.11536670079E+04  0.55965781227E+03  0.13634044994E+04  0.25500000920E-02 0.  1.
</event>
<event>
 5   0  0.1964242E-07  0.2700273E+04  0.7818609E-02  0.8334917E-01
       -1   -1    0    0    0  501  0.00000000000E+00  0.00000000000E+00  0.12029966758E+04  0.12029966758E+04  0.50400001928E-02 0.  1.
        1   -1    0    0  501    0  0.00000000000E+00  0.00000000000E+00 -0.15152726404E+04  0.15152726404E+04  0.50400001928E-02 0. -1.
    10030    2    1    2    0    0  0.00000000000E+00  0.00000000000E+00 -0.31227596459E+03  0.27182693162E+04  0.27002725413E+04 0.  0.
        2    1    3    3  502    0  0.99920699807E+03  0.35483979195E+03  0.68522065738E+03  0.12624790106E+04  0.25500000920E-02 0.  1.
       -2    1    3    3    0  502 -0.99920699807E+03 -0.35483979195E+03 -0.99749662198E+03  0.14557903056E+04  0.25500000920E-02 0. -1.
</event>
<event>
 5   0  0.1964242E-07  0.2698470E+04  0.7818609E-02  0.8335501E-01
        1   -1    0    0  501    0  0.00000000000E+00  0.00000000000E+00  0.21725681038E+04  0.21725681038E+04  0.50400001928E-02 0.  1.
       -1   -1    0    0    0  501  0.00000000000E+00  0.00000000000E+00 -0.83791880814E+03  0.83791880816E+03  0.50400001928E-02 0. -1.
    10030    2    1    2    0    0  0.00000000000E+00  0.00000000000E+00  0.13346492957E+04  0.30104869120E+04  0.26984704380E+04 0.  0.
        2    1    3    3  502    0  0.12604598012E+04  0.48104638452E+03  0.68569499260E+03  0.15133876428E+04  0.25500000920E-02 0.  1.
       -2    1    3    3    0  502 -0.12604598012E+04 -0.48104638452E+03  0.64895430309E+03  0.14970992692E+04  0.25500000920E-02 0. -1.
</event>
<event>
 5   0  0.1965415E-07  0.2698232E+04  0.7818609E-02  0.8335579E-01
       -1   -1    0    0    0  501  0.00000000000E+00  0.00000000000E+00  0.18755050788E+04  0.18755050789E+04  0.50400001928E-02 0. -1.
        1   -1    0    0  501    0  0.00000000000E+00  0.00000000000E+00 -0.97046584328E+03  0.97046584329E+03  0.50400001928E-02 0.  1.
    10030    2    1    2    0    0  0.00000000000E+00  0.00000000000E+00  0.90503923557E+03  0.28459709221E+04  0.26982317306E+04 0.  0.
        4    1    3    3  502    0  0.43333005913E+03  0.33966680215E+03 -0.84656901609E+03  0.10098659260E+04  0.12699999809E+01 0.  1.
       -4    1    3    3    0  502 -0.43333005913E+03 -0.33966680215E+03  0.17516082517E+04  0.18361049961E+04  0.12699999809E+01 0. -1.
</event>
<event>
 5   0  0.1971600E-07  0.2698789E+04  0.7818609E-02  0.8335398E-01
       -1   -1    0    0    0  501  0.00000000000E+00  0.00000000000E+00  0.14001775146E+04  0.14001775146E+04  0.50400001928E-02 0.  1.
        1   -1    0    0  501    0  0.00000000000E+00  0.00000000000E+00 -0.13004529018E+04  0.13004529018E+04  0.50400001928E-02 0. -1.
    10030    2    1    2    0    0  0.00000000000E+00  0.00000000000E+00  0.99724612795E+02  0.27006304164E+04  0.26987885518E+04 0.  0.
        5    1    3    3  502    0 -0.61135792345E+03  0.11151098222E+04 -0.40168217121E+03  0.13336412872E+04  0.46999998093E+01 0. -1.
       -5    1    3    3    0  502  0.61135792345E+03 -0.11151098222E+04  0.50140678401E+03  0.13669891292E+04  0.46999998093E+01 0.  1.
</event>
<event>
 5   0  0.1971600E-07  0.2698576E+04  0.7818609E-02  0.8335467E-01
       -1   -1    0    0    0  501  0.00000000000E+00  0.00000000000E+00  0.14750015821E+04  0.14750015821E+04  0.50400001928E-02 0.  1.
        1   -1    0    0  501    0  0.00000000000E+00  0.00000000000E+00 -0.12342886190E+04  0.12342886191E+04  0.50400001928E-02 0. -1.
    10030    2    1    2    0    0  0.00000000000E+00  0.00000000000E+00  0.24071296302E+03  0.27092902011E+04  0.26985756731E+04 0.  0.
        5    1    3    3  502    0  0.39799460668E+03  0.61853628470E+03  0.12560280019E+04  0.14555463833E+04  0.46999998093E+01 0.  1.
       -5    1    3    3    0  502 -0.39799460668E+03 -0.61853628470E+03 -0.10153150389E+04  0.12537438178E+04  0.46999998093E+01 0. -1.
</event>
<event>
 5   0  0.5043890E-07  0.2701652E+04  0.7818609E-02  0.8334469E-01
        2   -1    0    0  501    0  0.00000000000E+00  0.00000000000E+00  0.14095224143E+04  0.14095224143E+04  0.25500000920E-02 0. -1.
       -2   -1    0    0    0  501  0.00000000000E+00  0.00000000000E+00 -0.12945735995E+04  0.12945735995E+04  0.25500000920E-02 0.  1.
    10030    2    1    2    0    0  0.00000000000E+00  0.00000000000E+00  0.11494881484E+03  0.27040960138E+04  0.27016517211E+04 0.  0.
        3    1    3    3  502    0  0.12278369046E+04 -0.39893347659E+03 -0.34037624029E+03  0.13351357153E+04  0.10100000352E+00 0.  1.
       -3    1    3    3    0  502 -0.12278369046E+04  0.39893347659E+03  0.45532505513E+03  0.13689602986E+04  0.10100000352E+00 0. -1.
</event>
<event>
 5   0  0.5043890E-07  0.2699571E+04  0.7818609E-02  0.8335144E-01
       -2   -1    0    0    0  501  0.00000000000E+00  0.00000000000E+00  0.97801340672E+03  0.97801340672E+03  0.25500000920E-02 0. -1.
        2   -1    0    0  501    0  0.00000000000E+00  0.00000000000E+00 -0.18628799397E+04  0.18628799397E+04  0.25500000920E-02 0.  1.
    10030    2    1    2    0    0  0.00000000000E+00  0.00000000000E+00 -0.88486653297E+03  0.28408933464E+04  0.26995714890E+04 0.  0.
        3    1    3    3  502    0  0.71140920333E+03 -0.65920264849E+03 -0.14303371179E+04  0.17281537742E+04  0.10100000352E+00 0.  1.
       -3    1    3    3    0  502 -0.71140920333E+03  0.65920264849E+03  0.54547058489E+03  0.11127395722E+04  0.10100000352E+00 0. -1.
</event>
<event>
 5   0  0.1641625E-07  0.2700679E+04  0.7818609E-02  0.8334785E-01
       -3   -1    0    0    0  501  0.00000000000E+00  0.00000000000E+00  0.15023240796E+04  0.15023240830E+04  0.10100000352E+00 0.  1.
        3   -1    0    0  501    0  0.00000000000E+00  0.00000000000E+00 -0.12137309755E+04  0.12137309798E+04  0.10100000352E+00 0. -1.
    10030    2    1    2    0    0  0.00000000000E+00  0.00000000000E+00  0.28859310407E+03  0.27160550628E+04  0.27006793820E+04 0.  0.
        4    1    3    3  502    0 -0.39023482581E+03 -0.12839736136E+04  0.29529866937E+03  0.13740721876E+04  0.12699999809E+01 0.  1.
       -4    1    3    3    0  502  0.39023482581E+03  0.12839736136E+04 -0.67055653032E+01  0.13419828752E+04  0.12699999809E+01 0. -1.
</event>
<event>
 5   0  0.4992668E-07  0.2699371E+04  0.7818609E-02  0.8335209E-01
       -2   -1    0    0    0  501  0.00000000000E+00  0.00000000000E+00  0.90371597669E+03  0.90371597669E+03  0.25500000920E-02 0. -1.
        2   -1    0    0  501    0  0.00000000000E+00  0.00000000000E+00 -0.20157334277E+04  0.20157334277E+04  0.25500000920E-02 0.  1.
    10030    2    1    2    0    0  0.00000000000E+00  0.00000000000E+00 -0.11120174510E+04  0.29194494044E+04  0.26993706699E+04 0.  0.
        1    1    3    3  502    0  0.36291550600E+03  0.87218210657E+03 -0.15985725696E+04  0.18568369750E+04  0.50400001928E-02 0. -1.
       -1    1    3    3    0  502 -0.36291550600E+03 -0.87218210657E+03  0.48655511862E+03  0.10626124293E+04  0.50400001928E-02 0.  1.
</event>
<event>
 5   0  0.1964242E-07  0.2699032E+04  0.7818609E-02  0.8335319E-01
        1   -1    0    0  501    0  0.00000000000E+00  0.00000000000E+00  0.10500336038E+04  0.10500336038E+04  0.50400001928E-02 0.  1.
       -1   -1    0    0    0  501  0.00000000000E+00  0.00000000000E+00 -0.17344146723E+04  0.17344146723E+04  0.50400001928E-02 0. -1.
    10030    2    1    2    0    0  0.00000000000E+00  0.00000000000E+00 -0.68438106845E+03  0.27844482761E+04  0.26990321887E+04 0.  0.
        2    1    3    3  502    0  0.65689144470E+03  0.22658826333E+03 -0.15356705294E+04  0.16855659542E+04  0.25500000920E-02 0. -1.
       -2    1    3    3    0  502 -0.65689144470E+03 -0.22658826333E+03  0.85128946091E+03  0.10988823219E+04  0.25500000920E-02 0.  1.
</event>
<event>
 5   0  0.5043890E-07  0.2700396E+04  0.7818609E-02  0.8334877E-01
       -2   -1    0    0    0  501  0.00000000000E+00  0.00000000000E+00  0.16859626839E+04  0.16859626839E+04  0.25500000920E-02 0. -1.
        2   -1    0    0  501    0  0.00000000000E+00  0.00000000000E+00 -0.10813015103E+04  0.10813015103E+04  0.25500000920E-02 0.  1.
    10030    2    1    2    0    0  0.00000000000E+00  0.00000000000E+00  0.60466117353E+03  0.27672641942E+04  0.27003955240E+04 0.  0.
        3    1    3    3  502    0 -0.40304146903E+03  0.31655533609E+03  0.15824162320E+04  0.16633372623E+04  0.10100000352E+00 0. -1.
       -3    1    3    3    0  502  0.40304146903E+03 -0.31655533609E+03 -0.97775505846E+03  0.11039269320E+04  0.10100000352E+00 0.  1.
</event>
<event>
 5   0  0.4983208E-07  0.2699848E+04  0.7818609E-02  0.8335054E-01
       -2   -1    0    0    0  501  0.00000000000E+00  0.00000000000E+00  0.15525076190E+04  0.15525076190E+04  0.25500000920E-02 0. -1.
        2   -1    0    0  501    0  0.00000000000E+00  0.00000000000E+00 -0.11737753389E+04  0.11737753389E+04  0.25500000920E-02 0.  1.
    10030    2    1    2    0    0  0.00000000000E+00  0.00000000000E+00  0.37873228007E+03  0.27262829579E+04  0.26998482600E+04 0.  0.
        4    1    3    3  502    0  0.50534343805E+03  0.12517574648E+04  0.18433713215E+03  0.13624428546E+04  0.12699999809E+01 0.  1.
       -4    1    3    3    0  502 -0.50534343805E+03 -0.12517574648E+04  0.19439514792E+03  0.13638401033E+04  0.12699999809E+01 0. -1.
</event>
<event>
 5   0  0.4843887E-07  0.2702167E+04  0.7818609E-02  0.8334302E-01
       -2   -1    0    0    0  501  0.00000000000E+00  0.00000000000E+00  0.13771343371E+04  0.13771343371E+04  0.25500000920E-02 0. -1.
        2   -1    0    0  501    0  0.00000000000E+00  0.00000000000E+00 -0.13255253865E+04  0.13255253865E+04  0.25500000920E-02 0.  1.
    10030    2    1    2    0    0  0.00000000000E+00  0.00000000000E+00  0.51608950638E+02  0.27026597236E+04  0.27021669263E+04 0.  0.
        5    1    3    3  502    0 -0.73111688460E+02 -0.17958045795E+03  0.13631384366E+04  0.13768670768E+04  0.46999998093E+01 0. -1.
       -5    1    3    3    0  502  0.73111688460E+02  0.17958045795E+03 -0.13115294859E+04  0.13257926468E+04  0.46999998093E+01 0.  1.
</event>
<event>
 5   0  0.1888149E-07  0.2699755E+04  0.7818609E-02  0.8335084E-01
       -1   -1    0    0    0  501  0.00000000000E+00  0.00000000000E+00  0.13942226175E+04  0.13942226175E+04  0.50400001928E-02 0. -1.
        1   -1    0    0  501    0  0.00000000000E+00  0.00000000000E+00 -0.13069427729E+04  0.13069427729E+04  0.50400001928E-02 0.  1.
    10030    2    1    2    0    0  0.00000000000E+00  0.00000000000E+00  0.87279844615E+02  0.27011653904E+04  0.26997549324E+04 0.  0.
        1    1    3    3  502    0 -0.49956382379E+02 -0.55989086600E+03  0.12715527672E+04  0.13902589189E+04  0.50400001928E-02 0. -1.
       -1    1    3    3    0  502  0.49956382379E+02  0.55989086600E+03 -0.11842729225E+04  0.13109064715E+04  0.50400001928E-02 0.  1.
</event>
<event>
 5   0  0.1937896E-07  0.2698342E+04  0.7818609E-02  0.8335543E-01
        1   -1    0    0  501    0  0.00000000000E+00  0.00000000000E+00  0.21058685823E+04  0.21058685823E+04  0.50400001928E-02 0. -1.
       -1   -1    0    0    0  501  0.00000000000E+00  0.00000000000E+00 -0.86437579717E+03  0.86437579718E+03  0.50400001928E-02 0.  1.
    10030    2    1    2    0    0  0.00000000000E+00  0.00000000000E+00  0.12414927851E+04  0.29702443795E+04  0.26983415904E+04 0.  0.
        3    1    3    3  502    0  0.12207265859E+04  0.28507487601E+02 -0.10901613144E+02  0.12211080745E+04  0.10100000352E+00 0.  1.
       -3    1    3    3    0  502 -0.12207265859E+04 -0.28507487601E+02  0.12523943983E+04  0.17491363049E+04  0.10100000352E+00 0. -1.
</event>
<event>
 5   0  0.1965415E-07  0.2700554E+04  0.7818609E-02  0.8334825E-01
       -1   -1    0    0    0  501  0.00000000000E+00  0.00000000000E+00  0.15479453467E+04  0.15479453467E+04  0.50400001928E-02 0. -1.
        1   -1    0    0  501    0  0.00000000000E+00  0.00000000000E+00 -0.11778503585E+04  0.11778503585E+04  0.50400001928E-02 0.  1.
    10030    2    1    2    0    0  0.00000000000E+00  0.00000000000E+00  0.37009498821E+03  0.27257957052E+04  0.27005540036E+04 0.  0.
        4    1    3    3  502    0  0.35915558292E+03  0.10013822311E+04 -0.65428208611E+03  0.12489378553E+04  0.12699999809E+01 0. -1.
       -4    1    3    3    0  502 -0.35915558292E+03 -0.10013822311E+04  0.10243770743E+04  0.14768578499E+04  0.12699999809E+01 0.  1.
</event>
<event>
 5   0  0.1971600E-07  0.2699589E+04  0.7818609E-02  0.8335138E-01
        1   -1    0    0  501    0  0.00000000000E+00  0.00000000000E+00  0.16259023377E+04  0.16259023377E+04  0.50400001928E-02 0. -1.
       -1   -1    0    0    0  501  0.00000000000E+00  0.00000000000E+00 -0.11205745000E+04  0.11205745000E+04  0.50400001928E-02 0.  1.
    10030    2    1    2    0    0  0.00000000000E+00  0.00000000000E+00  0.50532783773E+03  0.27464768377E+04  0.26995886347E+04 0.  0.
        5    1    3    3  502    0 -0.10993147840E+04  0.37455562284E+03 -0.44713316278E+03  0.12444818456E+04  0.46999998093E+01 0.  1.
       -5    1    3    3    0  502  0.10993147840E+04 -0.37455562284E+03  0.95246100051E+03  0.15019949921E+04  0.46999998093E+01 0. -1.
</event>
<event>
 5   0  0.5043890E-07  0.2693016E+04  0.7818609E-02  0.8337275E-01
        2   -1    0    0  501    0  0.00000000000E+00  0.00000000000E+00  0.87194296788E+03  0.87194296788E+03  0.25500000920E-02 0. -1.
       -2   -1    0    0    0  501  0.00000000000E+00  0.00000000000E+00 -0.20793599068E+04  0.20793599068E+04  0.25500000920E-02 0.  1.
    10030    2    1    2    0    0  0.00000000000E+00  0.00000000000E+00 -0.12074169389E+04  0.29513028747E+04  0.26930155948E+04 0.  0.
        3    1    3    3  502    0 -0.10502713377E+04 -0.82068772672E+03 -0.39437814288E+03  0.13900116393E+04  0.10100000352E+00 0.  1.
       -3    1    3    3    0  502  0.10502713377E+04  0.82068772672E+03 -0.81303879604E+03  0.15612912354E+04  0.10100000352E+00 0. -1.
</event>
<event>
 5   0  0.1964242E-07  0.2700425E+04  0.7818609E-02  0.8334867E-01
        1   -1    0    0  501    0  0.00000000000E+00  0.00000000000E+00  0.98259854143E+03  0.98259854145E+03  0.50400001928E-02 0. -1.
       -1   -1    0    0    0  501  0.00000000000E+00  0.00000000000E+00 -0.18553599577E+04  0.18553599577E+04  0.50400001928E-02 0.  1.
    10030    2    1    2    0    0  0.00000000000E+00  0.00000000000E+00 -0.87276141625E+03  0.28379584991E+04  0.27004251430E+04 0.  0.
        2    1    3    3  502    0 -0.78953317524E+03  0.81749998726E+03 -0.12024830083E+04  0.16545797803E+04  0.25500000920E-02 0.  1.
       -2    1    3    3    0  502  0.78953317524E+03 -0.81749998726E+03  0.32972159208E+03  0.11833787189E+04  0.25500000920E-02 0. -1.
</event>
<event>
 5   0  0.1965415E-07  0.2700283E+04  0.7818609E-02  0.8334913E-01
       -1   -1    0    0    0  501  0.00000000000E+00  0.00000000000E+00  0.26254562319E+04  0.26254562319E+04  0.50400001928E-02 0. -1.
        1   -1    0    0  501    0  0.00000000000E+00  0.00000000000E+00 -0.69431054814E+03  0.69431054816E+03  0.50400001928E-02 0.  1.
    10030    2    1    2    0    0  0.00000000000E+00  0.00000000000E+00  0.19311456838E+04  0.33197667801E+04  0.27002829152E+04 0.  0.
        4    1    3    3  502    0  0.12205856996E+04  0.56018149085E+03  0.79500919095E+03  0.15606645954E+04  0.12699999809E+01 0. -1.
       -4    1    3    3    0  502 -0.12205856996E+04 -0.56018149085E+03  0.11361364928E+04  0.17591021847E+04  0.12699999809E+01 0.  1.
</event>
<event>
 5   0  0.1937896E-07  0.2699649E+04  0.7818609E-02  0.8335119E-01
       -1   -1    0    0    0  501  0.00000000000E+00  0.00000000000E+00  0.10527336771E+04  0.10527336771E+04  0.50400001928E-02 0.  1.
        1   -1    0    0  501    0  0.00000000000E+00  0.00000000000E+00 -0.17307566502E+04  0.17307566502E+04  0.50400001928E-02 0. -1.
    10030    2    1    2    0    0  0.00000000000E+00  0.00000000000E+00 -0.67802297308E+03  0.27834903273E+04  0.26996487271E+04 0.  0.
        3    1    3    3  502    0 -0.45728984209E+02  0.28623995531E+02 -0.17296446270E+04  0.17304857754E+04  0.10100000352E+00 0. -1.
       -3    1    3    3    0  502  0.45728984209E+02 -0.28623995531E+02  0.10516216539E+04  0.10530045518E+04  0.10100000352E+00 0.  1.
</event>
<event>
 5   0  0.1965415E-07  0.2700427E+04  0.7818609E-02  0.8334867E-01
       -1   -1    0    0    0  501  0.00000000000E+00  0.00000000000E+00  0.14932970169E+04  0.14932970169E+04  0.50400001928E-02 0. -1.
        1   -1    0    0  501    0  0.00000000000E+00  0.00000000000E+00 -0.12208395776E+04  0.12208395776E+04  0.50400001928E-02 0.  1.
    10030    2    1    2    0    0  0.00000000000E+00  0.00000000000E+00  0.27245743924E+03  0.27141365945E+04  0.27004267066E+04 0.  0.
        4    1    3    3  502    0 -0.47622019359E+03  0.22284563663E+03 -0.11137203847E+04  0.12315926919E+04  0.12699999809E+01 0.  1.
       -4    1    3    3    0  502  0.47622019359E+03 -0.22284563663E+03  0.13861778240E+04  0.14825439026E+04  0.12699999809E+01 0. -1.
</event>
<event>
 5   0  0.4735120E-07  0.2700213E+04  0.7818609E-02  0.8334936E-01
       -2   -1    0    0    0  501  0.00000000000E+00  0.00000000000E+00  0.12346384599E+04  0.12346384599E+04  0.25500000920E-02 0. -1.
        2   -1    0    0  501    0  0.00000000000E+00  0.00000000000E+00 -0.14763732715E+04  0.14763732715E+04  0.25500000920E-02 0.  1.
    10030    2    1    2    0    0  0.00000000000E+00  0.00000000000E+00 -0.24173481158E+03  0.27110117314E+04  0.27002127488E+04 0.  0.
        2    1    3    3  502    0 -0.98164719607E+03 -0.53734687455E+03  0.63741090057E+03  0.12878918966E+04  0.25500000920E-02 0. -1.
       -2    1    3    3    0  502  0.98164719607E+03  0.53734687455E+03 -0.87914571215E+03  0.14231198348E+04  0.25500000920E-02 0.  1.
</event>
<event>
 5   0  0.4843887E-07  0.2700383E+04  0.7818609E-02  0.8334881E-01
        2   -1    0    0  501    0  0.00000000000E+00  0.00000000000E+00  0.15270178354E+04  0.15270178355E+04  0.25500000920E-02 0.  1.
       -2   -1    0    0    0  501  0.00000000000E+00  0.00000000000E+00 -0.11938409889E+04  0.11938409889E+04  0.25500000920E-02 0. -1.
    10030    2    1    2    0    0  0.00000000000E+00  0.00000000000E+00  0.33317684658E+03  0.27208588243E+04  0.27003825527E+04 0.  0.
        5    1    3    3  502    0 -0.71163205868E+03 -0.58149463773E+03 -0.83007245947E+03  0.12383854726E+04  0.46999998093E+01 0. -1.
       -5    1    3    3    0  502  0.71163205868E+03  0.58149463773E+03  0.11632493061E+04  0.14824733518E+04  0.46999998093E+01 0.  1.
</event>
<event>
 5   0  0.5043890E-07  0.2692680E+04  0.7818609E-02  0.8337384E-01
       -2   -1    0    0    0  501  0.00000000000E+00  0.00000000000E+00  0.99224643005E+03  0.99224643005E+03  0.25500000920E-02 0.  1.
        2   -1    0    0  501    0  0.00000000000E+00  0.00000000000E+00 -0.18267961264E+04  0.18267961264E+04  0.25500000920E-02 0. -1.
    10030    2    1    2    0    0  0.00000000000E+00  0.00000000000E+00 -0.83454969640E+03  0.28190425565E+04  0.26926804006E+04 0.  0.
        3    1    3    3  502    0  0.28193854065E+03 -0.32309126799E+03 -0.17533923495E+04  0.18050656635E+04  0.10100000352E+00 0. -1.
       -3    1    3    3    0  502 -0.28193854065E+03  0.32309126799E+03  0.91884265310E+03  0.10139768930E+04  0.10100000352E+00 0.  1.
</event>
<event>
 5   0  0.4843887E-07  0.2700430E+04  0.7818609E-02  0.8334865E-01
        2   -1    0    0  501    0  0.00000000000E+00  0.00000000000E+00  0.18335644676E+04  0.18335644676E+04  0.25500000920E-02 0. -1.
       -2   -1    0    0    0  501  0.00000000000E+00  0.00000000000E+00 -0.99428220834E+03  0.99428220834E+03  0.25500000920E-02 0.  1.
    10030    2    1    2    0    0  0.00000000000E+00  0.00000000000E+00  0.83928225924E+03  0.28278466759E+04  0.27004299865E+04 0.  0.
        5    1    3    3  502    0 -0.81726056563E+02  0.75225013901E+03  0.15906619431E+04  0.17614729425E+04  0.46999998093E+01 0. -1.
       -5    1    3    3    0  502  0.81726056563E+02 -0.75225013901E+03 -0.75137968387E+03  0.10663737334E+04  0.46999998093E+01 0.  1.
</event>
<event>
 5   0  0.1965415E-07  0.2706408E+04  0.7818609E-02  0.8332929E-01
        1   -1    0    0  501    0  0.00000000000E+00  0.00000000000E+00  0.10691973055E+04  0.10691973055E+04  0.50400001928E-02 0.  1.
       -1   -1    0    0    0  501  0.00000000000E+00  0.00000000000E+00 -0.17126497985E+04  0.17126497985E+04  0.50400001928E-02 0. -1.
    10030    2    1    2    0    0  0.00000000000E+00  0.00000000000E+00 -0.64345249299E+03  0.27818471040E+04  0.27064076189E+04 0.  0.
        4    1    3    3  502    0  0.11694949044E+04  0.59454219818E+03 -0.66257190823E+03  0.14697625329E+04  0.12699999809E+01 0. -1.
       -4    1    3    3    0  502 -0.11694949044E+04 -0.59454219818E+03  0.19119415246E+02  0.13120845711E+04  0.12699999809E+01 0.  1.
</event>
<event>
 5   0  0.1971600E-07  0.2699346E+04  0.7818609E-02  0.8335217E-01
       -1   -1    0    0    0  501  0.00000000000E+00  0.00000000000E+00  0.14634204224E+04  0.14634204224E+04  0.50400001928E-02 0.  1.
        1   -1    0    0  501    0  0.00000000000E+00  0.00000000000E+00 -0.12447672788E+04  0.12447672789E+04  0.50400001928E-02 0. -1.
    10030    2    1    2    0    0  0.00000000000E+00  0.00000000000E+00  0.21865314351E+03  0.27081877012E+04  0.26993464816E+04 0.  0.
        5    1    3    3  502    0 -0.89083434673E+03  0.63991710997E+03 -0.67970722683E+03  0.12903889899E+04  0.46999998093E+01 0. -1.
       -5    1    3    3    0  502  0.89083434673E+03 -0.63991710997E+03  0.89836037034E+03  0.14177987114E+04  0.46999998093E+01 0.  1.
</event>
<event>
 5   0  0.1937896E-07  0.2700007E+04  0.7818609E-02  0.8335003E-01
        1   -1    0    0  501    0  0.00000000000E+00  0.00000000000E+00  0.12078954246E+04  0.12078954246E+04  0.50400001928E-02 0.  1.
       -1   -1    0    0    0  501  0.00000000000E+00  0.00000000000E+00 -0.15088304868E+04  0.15088304868E+04  0.50400001928E-02 0. -1.
    10030    2    1    2    0    0  0.00000000000E+00  0.00000000000E+00 -0.30093506219E+03  0.27167259114E+04  0.27000069937E+04 0.  0.
        3    1    3    3  502    0 -0.10028836770E+04  0.87616979516E+03  0.72399496885E+02  0.13336757016E+04  0.10100000352E+00 0. -1.
       -3    1    3    3    0  502  0.10028836770E+04 -0.87616979516E+03 -0.37333455907E+03  0.13830502098E+04  0.10100000352E+00 0.  1.
</event>
<event>
 5   0  0.1971600E-07  0.2700407E+04  0.7818609E-02  0.8334873E-01
       -1   -1    0    0    0  501  0.00000000000E+00  0.00000000000E+00  0.54409183748E+03  0.54409183750E+03  0.50400001928E-02 0.  1.
        1   -1    0    0  501    0  0.00000000000E+00  0.00000000000E+00 -0.33506286504E+04  0.33506286504E+04  0.50400001928E-02 0. -1.
    10030    2    1    2    0    0  0.00000000000E+00  0.00000000000E+00 -0.28065368129E+04  0.38947204879E+04  0.27004071539E+04 0.  0.
        5    1    3    3  502    0  0.10432626179E+03 -0.13461475296E+04 -0.13953072881E+04  0.19416234595E+04  0.46999998093E+01 0.  1.
       -5    1    3    3    0  502 -0.10432626179E+03  0.13461475296E+04 -0.14112295248E+04  0.19530970284E+04  0.46999998093E+01 0. -1.
</event>
<event>
 5   0  0.4735120E-07  0.2700534E+04  0.7818609E-02  0.8334832E-01
       -2   -1    0    0    0  501  0.00000000000E+00  0.00000000000E+00  0.73888305938E+03  0.73888305939E+03  0.25500000920E-02 0.  1.
        2   -1    0    0  501    0  0.00000000000E+00  0.00000000000E+00 -0.24675360035E+04  0.24675360035E+04  0.25500000920E-02 0. -1.
    10030    2    1    2    0    0  0.00000000000E+00  0.00000000000E+00 -0.17286529441E+04  0.32064190628E+04  0.27005336890E+04 0.  0.
        2    1    3    3  502    0  0.82067171224E+03 -0.76532362036E+02  0.40553797388E+03  0.91859692465E+03  0.25500000920E-02 0.  1.
       -2    1    3    3    0  502 -0.82067171224E+03  0.76532362036E+02 -0.21341909180E+04  0.22878221382E+04  0.25500000920E-02 0. -1.
</event>
<event>
 5   0  0.5043890E-07  0.2699841E+04  0.7818609E-02  0.8335056E-01
        2   -1    0    0  501    0  0.00000000000E+00  0.00000000000E+00  0.14530274038E+04  0.14530274038E+04  0.25500000920E-02 0. -1.
       -2   -1    0    0    0  501  0.00000000000E+00  0.00000000000E+00 -0.12541304707E+04  0.12541304707E+04  0.25500000920E-02 0.  1.
    10030    2    1    2    0    0  0.00000000000E+00  0.00000000000E+00  0.19889693304E+03  0.27071578745E+04  0.26998414337E+04 0.  0.
        3    1    3    3  502    0 -0.24225482383E+03 -0.64218774609E+03 -0.10661100659E+04  0.12679444718E+04  0.10100000352E+00 0.  1.
       -3    1    3    3    0  502  0.24225482383E+03  0.64218774609E+03  0.12650069989E+04  0.14392134026E+04  0.10100000352E+00 0. -1.
</event>
<event>
 5   0  0.5043890E-07  0.2699022E+04  0.7818609E-02  0.8335322E-01
       -2   -1    0    0    0  501  0.00000000000E+00  0.00000000000E+00  0.13167153649E+04  0.13167153649E+04  0.25500000920E-02 0. -1.
        2   -1    0    0  501    0  0.00000000000E+00  0.00000000000E+00 -0.13831234209E+04  0.13831234209E+04  0.25500000920E-02 0.  1.
    10030    2    1    2    0    0  0.00000000000E+00  0.00000000000E+00 -0.66408056014E+02  0.26998387858E+04  0.26990219413E+04 0.  0.
        3    1    3    3  502    0 -0.10211311682E+04 -0.61280648358E+03  0.60176300456E+03  0.13343010803E+04  0.10100000352E+00 0. -1.
       -3    1    3    3    0  502  0.10211311682E+04  0.61280648358E+03 -0.66817106057E+03  0.13655377056E+04  0.10100000352E+00 0.  1.
</event>
<event>
 5   0  0.1964242E-07  0.2700093E+04  0.7818609E-02  0.8334975E-01
        1   -1    0    0  501    0  0.00000000000E+00  0.00000000000E+00  0.22018682639E+04  0.22018682639E+04  0.50400001928E-02 0. -1.
       -1   -1    0    0    0  501  0.00000000000E+00  0.00000000000E+00 -0.82776338890E+03  0.82776338891E+03  0.50400001928E-02 0.  1.
    10030    2    1    2    0    0  0.00000000000E+00  0.00000000000E+00  0.13741048750E+04  0.30296316528E+04  0.27000932843E+04 0.  0.
        2    1    3    3  502    0  0.59155664000E+03 -0.71131485557E+03  0.17902693997E+04  0.20151855015E+04  0.25500000920E-02 0. -1.
       -2    1    3    3    0  502 -0.59155664000E+03  0.71131485557E+03 -0.41616452475E+03  0.10144461512E+04  0.25500000920E-02 0.  1.
</event>
<event>
 5   0  0.4983208E-07  0.2700721E+04  0.7818609E-02  0.8334771E-01
       -2   -1    0    0    0  501  0.00000000000E+00  0.00000000000E+00  0.76320010490E+03  0.76320010491E+03  0.25500000920E-02 0. -1.
        2   -1    0    0  501    0  0.00000000000E+00  0.00000000000E+00 -0.23892467601E+04  0.23892467601E+04  0.25500000920E-02 0.  1.
    10030    2    1    2    0    0  0.00000000000E+00  0.00000000000E+00 -0.16260466552E+04  0.31524468650E+04  0.27007209245E+04 0.  0.
        4    1    3    3  502    0  0.24269791797E+03 -0.70741812019E+03 -0.21254159444E+04  0.22531616066E+04  0.12699999809E+01 0.  1.
       -4    1    3    3    0  502 -0.24269791797E+03  0.70741812019E+03  0.49936928913E+03  0.89928525841E+03  0.12699999809E+01 0. -1.
</event>
<event>
 5   0  0.5043890E-07  0.2699946E+04  0.7818609E-02  0.8335023E-01
       -2   -1    0    0    0  501  0.00000000000E+00  0.00000000000E+00  0.14253973914E+04  0.14253973914E+04  0.25500000920E-02 0. -1.
        2   -1    0    0  501    0  0.00000000000E+00  0.00000000000E+00 -0.12785395169E+04  0.12785395169E+04  0.25500000920E-02 0.  1.
    10030    2    1    2    0    0  0.00000000000E+00  0.00000000000E+00  0.14685787450E+03  0.27039369082E+04  0.26999458455E+04 0.  0.
        3    1    3    3  502    0  0.52640570805E+03  0.77255690017E+03 -0.90190993128E+03  0.12989952532E+04  0.10100000352E+00 0.  1.
       -3    1    3    3    0  502 -0.52640570805E+03 -0.77255690017E+03  0.10487678058E+04  0.14049416551E+04  0.10100000352E+00 0. -1.
</event>
<event>
 5   0  0.5043890E-07  0.2701994E+04  0.7818609E-02  0.8334358E-01
       -2   -1    0    0    0  501  0.00000000000E+00  0.00000000000E+00  0.91870958623E+03  0.91870958623E+03  0.25500000920E-02 0.  1.
        2   -1    0    0  501    0  0.00000000000E+00  0.00000000000E+00 -0.19866918787E+04  0.19866918787E+04  0.25500000920E-02 0. -1.
    10030    2    1    2    0    0  0.00000000000E+00  0.00000000000E+00 -0.10679822925E+04  0.29054014649E+04  0.27019939851E+04 0.  0.
        3    1    3    3  502    0  0.60538693099E+03 -0.10210717694E+04  0.15963727086E+03  0.11977332603E+04  0.10100000352E+00 0. -1.
       -3    1    3    3    0  502 -0.60538693099E+03  0.10210717694E+04 -0.12276195633E+04  0.17076682046E+04  0.10100000352E+00 0.  1.
</event>
<event>
 5   0  0.5043890E-07  0.2701386E+04  0.7818609E-02  0.8334555E-01
       -2   -1    0    0    0  501  0.00000000000E+00  0.00000000000E+00  0.13238269958E+04  0.13238269958E+04  0.25500000920E-02 0.  1.
        2   -1    0    0  501    0  0.00000000000E+00  0.00000000000E+00 -0.13781043422E+04  0.13781043422E+04  0.25500000920E-02 0. -1.
    10030    2    1    2    0    0  0.00000000000E+00  0.00000000000E+00 -0.54277346467E+02  0.27019313380E+04  0.27013861118E+04 0.  0.
        3    1    3    3  502    0 -0.67670400037E+03  0.46543979275E+03  0.10453693220E+04  0.13294207514E+04  0.10100000352E+00 0.  1.
       -3    1    3    3    0  502  0.67670400037E+03 -0.46543979275E+03 -0.10996466684E+04  0.13725105866E+04  0.10100000352E+00 0. -1.
</event>
<event>
 5   0  0.4843887E-07  0.2700101E+04  0.7818609E-02  0.8334972E-01
        2   -1    0    0  501    0  0.00000000000E+00  0.00000000000E+00  0.14615024490E+04  0.14615024490E+04  0.25500000920E-02 0.  1.
       -2   -1    0    0    0  501  0.00000000000E+00  0.00000000000E+00 -0.12470972695E+04  0.12470972695E+04  0.25500000920E-02 0. -1.
    10030    2    1    2    0    0  0.00000000000E+00  0.00000000000E+00  0.21440517944E+03  0.27085997185E+04  0.27001005267E+04 0.  0.
        5    1    3    3  502    0  0.11749474416E+04 -0.23581963412E+03  0.73085174352E+03  0.14036661823E+04  0.46999998093E+01 0.  1.
       -5    1    3    3    0  502 -0.11749474416E+04  0.23581963412E+03 -0.51644656409E+03  0.13049335362E+04  0.46999998093E+01 0. -1.
</event>
<event>
 5   0  0.1937896E-07  0.2703076E+04  0.7818609E-02  0.8334007E-01
        1   -1    0    0  501    0  0.00000000000E+00  0.00000000000E+00  0.16079821399E+04  0.16079821399E+04  0.50400001928E-02 0.  1.
       -1   -1    0    0    0  501  0.00000000000E+00  0.00000000000E+00 -0.11359923894E+04  0.11359923894E+04  0.50400001928E-02 0. -1.
    10030    2    1    2    0    0  0.00000000000E+00  0.00000000000E+00  0.47198975047E+03  0.27439745293E+04  0.27030763757E+04 0.  0.
        3    1    3    3  502    0 -0.85310120301E+03 -0.39269224185E+03 -0.75065039875E+03  0.12022748815E+04  0.10100000352E+00 0. -1.
       -3    1    3    3    0  502  0.85310120301E+03  0.39269224185E+03  0.12226401492E+04  0.15416996478E+04  0.10100000352E+00 0.  1.
</event>
<event>
 5   0  0.1964242E-07  0.2700699E+04  0.7818609E-02  0.8334778E-01
       -1   -1    0    0    0  501  0.00000000000E+00  0.00000000000E+00  0.11837240688E+04  0.11837240689E+04  0.50400001928E-02 0. -1.
        1   -1    0    0  501    0  0.00000000000E+00  0.00000000000E+00 -0.15404298253E+04  0.15404298253E+04  0.50400001928E-02 0.  1.
    10030    2    1    2    0    0  0.00000000000E+00  0.00000000000E+00 -0.35670575643E+03  0.27241538941E+04  0.27006990655E+04 0.  0.
        2    1    3    3  502    0 -0.86450803874E+03  0.75698666111E+03  0.53706056300E+03  0.12683993860E+04  0.25500000920E-02 0. -1.
       -2    1    3    3    0  502  0.86450803874E+03 -0.75698666111E+03 -0.89376631942E+03  0.14557545081E+04  0.25500000920E-02 0.  1.
</event>
<event>
 5   0  0.1965415E-07  0.2699447E+04  0.7818609E-02  0.8335185E-01
        1   -1    0    0  501    0  0.00000000000E+00  0.00000000000E+00  0.97120089192E+03  0.97120089193E+03  0.50400001928E-02 0.  1.
       -1   -1    0    0    0  501  0.00000000000E+00  0.00000000000E+00 -0.18757737304E+04  0.18757737304E+04  0.50400001928E-02 0. -1.
    10030    2    1    2    0    0  0.00000000000E+00  0.00000000000E+00 -0.90457283852E+03  0.28469746224E+04  0.26994466989E+04 0.  0.
        4    1    3    3  502    0 -0.11982673131E+04  0.28675276028E+03 -0.10334746315E+04  0.16081489751E+04  0.12699999809E+01 0. -1.
       -4    1    3    3    0  502  0.11982673131E+04 -0.28675276028E+03  0.12890179299E+03  0.12388256473E+04  0.12699999809E+01 0.  1.
</event>
<event>
 5   0  0.5043890E-07  0.2699745E+04  0.7818609E-02  0.8335088E-01
        2   -1    0    0  501    0  0.00000000000E+00  0.00000000000E+00  0.15638983012E+04  0.15638983012E+04  0.25500000920E-02 0. -1.
       -2   -1    0    0    0  501  0.00000000000E+00  0.00000000000E+00 -0.11651372140E+04  0.11651372140E+04  0.25500000920E-02 0.  1.
    10030    2    1    2    0    0  0.00000000000E+00  0.00000000000E+00  0.39876108720E+03  0.27290355152E+04  0.26997452544E+04 0.  0.
        3    1    3    3  502    0 -0.41463276638E+02 -0.15341746138E+03  0.15544088038E+04  0.15625117153E+04  0.10100000352E+00 0. -1.
       -3    1    3    3    0  502  0.41463276638E+02  0.15341746138E+03 -0.11556477166E+04  0.11665238000E+04  0.10100000352E+00 0.  1.
</event>
<event>
 5   0  0.5043890E-07  0.2700212E+04  0.7818609E-02  0.8334936E-01
       -2   -1    0    0    0  501  0.00000000000E+00  0.00000000000E+00  0.92555844537E+03  0.92555844538E+03  0.25500000920E-02 0.  1.
        2   -1    0    0  501    0  0.00000000000E+00  0.00000000000E+00 -0.19693913269E+04  0.19693913269E+04  0.25500000920E-02 0. -1.
    10030    2    1    2    0    0  0.00000000000E+00  0.00000000000E+00 -0.10438328815E+04  0.28949497723E+04  0.27002124175E+04 0.  0.
        3    1    3    3  502    0  0.25312600970E+03 -0.12846808985E+04 -0.87475442292E+03  0.15746977800E+04  0.10100000352E+00 0. -1.
       -3    1    3    3    0  502 -0.25312600970E+03  0.12846808985E+04 -0.16907845858E+03  0.13202519923E+04  0.10100000352E+00 0.  1.
</event>
<event>
 5   0  0.4992668E-07  0.2699744E+04  0.7818609E-02  0.8335088E-01
       -2   -1    0    0    0  501  0.00000000000E+00  0.00000000000E+00  0.90475520049E+03  0.90475520049E+03  0.25500000920E-02 0.  1.
        2   -1    0    0  501    0  0.00000000000E+00  0.00000000000E+00 -0.20139749485E+04  0.20139749485E+04  0.25500000920E-02 0. -1.
    10030    2    1    2    0    0  0.00000000000E+00  0.00000000000E+00 -0.11092197480E+04  0.29187301489E+04  0.26997439199E+04 0.  0.
        1    1    3    3  502    0  0.10389978875E+03  0.17254578997E+03 -0.19976383496E+04  0.20077664683E+04  0.50400001928E-02 0. -1.
       -1    1    3    3    0  502 -0.10389978875E+03 -0.17254578997E+03  0.88841860158E+03  0.91096368062E+03  0.50400001928E-02 0.  1.
</event>
<event>
 5   0  0.1888149E-07  0.2700355E+04  0.7818609E-02  0.8334890E-01
        1   -1    0    0  501    0  0.00000000000E+00  0.00000000000E+00  0.17467065450E+04  0.17467065450E+04  0.50400001928E-02 0. -1.
       -1   -1    0    0    0  501  0.00000000000E+00  0.00000000000E+00 -0.10436669466E+04  0.10436669466E+04  0.50400001928E-02 0.  1.
    10030    2    1    2    0    0  0.00000000000E+00  0.00000000000E+00  0.70303959843E+03  0.27903734916E+04  0.27003554481E+04 0.  0.
        1    1    3    3  502    0 -0.31401534133E+03 -0.10983124332E+03  0.17036943911E+04  0.17358695558E+04  0.50400001928E-02 0. -1.
       -1    1    3    3    0  502  0.31401534133E+03  0.10983124332E+03 -0.10006547926E+04  0.10545039358E+04  0.50400001928E-02 0.  1.
</event>
<event>
 5   0  0.4735120E-07  0.2700759E+04  0.7818609E-02  0.8334759E-01
        2   -1    0    0  501    0  0.00000000000E+00  0.00000000000E+00  0.19015333451E+04  0.19015333451E+04  0.25500000920E-02 0. -1.
       -2   -1    0    0    0  501  0.00000000000E+00  0.00000000000E+00 -0.95897580205E+03  0.95897580205E+03  0.25500000920E-02 0.  1.
    10030    2    1    2    0    0  0.00000000000E+00  0.00000000000E+00  0.94255754308E+03  0.28605091472E+04  0.27007587562E+04 0.  0.
        2    1    3    3  502    0 -0.12288534063E+04 -0.48248212200E+00 -0.12169735436E+03  0.12348648400E+04  0.25500000920E-02 0.  1.
       -2    1    3    3    0  502  0.12288534063E+04  0.48248212200E+00  0.10642548974E+04  0.16256443072E+04  0.25500000920E-02 0. -1.
</event>
<event>
 5   0  0.5043890E-07  0.2702375E+04  0.7818609E-02  0.8334235E-01
       -2   -1    0    0    0  501  0.00000000000E+00  0.00000000000E+00  0.12880692934E+04  0.12880692934E+04  0.25500000920E-02 0.  1.
        2   -1    0    0  501    0  0.00000000000E+00  0.00000000000E+00 -0.14173981211E+04  0.14173981211E+04  0.25500000920E-02 0. -1.
    10030    2    1    2    0    0  0.00000000000E+00  0.00000000000E+00 -0.12932882772E+03  0.27054674145E+04  0.27023745087E+04 0.  0.
        3    1    3    3  502    0 -0.10490720379E+04 -0.85149793076E+03 -0.74977626902E+02  0.13532267074E+04  0.10100000352E+00 0. -1.
       -3    1    3    3    0  502  0.10490720379E+04  0.85149793076E+03 -0.54351200817E+02  0.13522407071E+04  0.10100000352E+00 0.  1.
</event>
<event>
 5   0  0.1888149E-07  0.2701735E+04  0.7818609E-02  0.8334442E-01
       -1   -1    0    0    0  501  0.00000000000E+00  0.00000000000E+00  0.10232567494E+04  0.10232567494E+04  0.50400001928E-02 0.  1.
        1   -1    0    0  501    0  0.00000000000E+00  0.00000000000E+00 -0.17833677565E+04  0.17833677565E+04  0.50400001928E-02 0. -1.
    10030    2    1    2    0    0  0.00000000000E+00  0.00000000000E+00 -0.76011100709E+03  0.28066245059E+04  0.27017350673E+04 0.  0.
        1    1    3    3  502    0  0.12337735806E+04  0.51831571656E+03 -0.18852104214E+03  0.13514394598E+04  0.50400001928E-02 0.  1.
       -1    1    3    3    0  502 -0.12337735806E+04 -0.51831571656E+03 -0.57158996496E+03  0.14551850461E+04  0.50400001928E-02 0. -1.
</event>
<event>
 5   0  0.4983208E-07  0.2700247E+04  0.7818609E-02  0.8334925E-01
        2   -1    0    0  501    0  0.00000000000E+00  0.00000000000E+00  0.22786381060E+04  0.22786381060E+04  0.25500000920E-02 0. -1.
       -2   -1    0    0    0  501  0.00000000000E+00  0.00000000000E+00 -0.79996641230E+03  0.79996641231E+03  0.25500000920E-02 0.  1.
    10030    2    1    2    0    0  0.00000000000E+00  0.00000000000E+00  0.14786716937E+04  0.30786045183E+04  0.27002473595E+04 0.  0.
        4    1    3    3  502    0 -0.11865658880E+04  0.23792726044E+03  0.56896165620E+02  0.12115225027E+04  0.12699999809E+01 0.  1.
       -4    1    3    3    0  502  0.11865658880E+04 -0.23792726044E+03  0.14217755281E+04  0.18670820156E+04  0.12699999809E+01 0. -1.
</event>
<event>
 5   0  0.1641625E-07  0.2701662E+04  0.7818609E-02  0.8334466E-01
        3   -1    0    0  501    0  0.00000000000E+00  0.00000000000E+00  0.15785008751E+04  0.15785008783E+04  0.10100000352E+00 0.  1.
       -3   -1    0    0    0  501  0.00000000000E+00  0.00000000000E+00 -0.11559980761E+04  0.11559980806E+04  0.10100000352E+00 0. -1.
    10030    2    1    2    0    0  0.00000000000E+00  0.00000000000E+00  0.42250279895E+03  0.27344989589E+04  0.27016616999E+04 0.  0.
        1    1    3    3  502    0 -0.35682527833E+03 -0.46700802753E+02  0.15290900194E+04  0.15708664908E+04  0.50400001928E-02 0.  1.
       -1    1    3    3    0  502  0.35682527833E+03  0.46700802753E+02 -0.11065872205E+04  0.11636324681E+04  0.50400001928E-02 0. -1.
</event>
<event>
 5   0  0.4843887E-07  0.2700360E+04  0.7818609E-02  0.8334888E-01
        2   -1    0    0  501    0  0.00000000000E+00  0.00000000000E+00  0.90342605727E+03  0.90342605727E+03  0.25500000920E-02 0.  1.
       -2   -1    0    0    0  501  0.00000000000E+00  0.00000000000E+00 -0.20178585420E+04  0.20178585420E+04  0.25500000920E-02 0. -1.
    10030    2    1    2    0    0  0.00000000000E+00  0.00000000000E+00 -0.11144324847E+04  0.29212845992E+04  0.27003599662E+04 0.  0.
        5    1    3    3  502    0 -0.35227285573E+03  0.11221564382E+04  0.16007773211E+03  0.11870038782E+04  0.46999998093E+01 0.  1.
       -5    1    3    3    0  502  0.35227285573E+03 -0.11221564382E+04 -0.12745102168E+04  0.17342807210E+04  0.46999998093E+01 0. -1.
</event>
<event>
 5   0  0.4983208E-07  0.2704419E+04  0.7818609E-02  0.8333573E-01
        2   -1    0    0  501    0  0.00000000000E+00  0.00000000000E+00  0.17064642103E+04  0.17064642103E+04  0.25500000920E-02 0.  1.
       -2   -1    0    0    0  501  0.00000000000E+00  0.00000000000E+00 -0.10714965261E+04  0.10714965261E+04  0.25500000920E-02 0. -1.
    10030    2    1    2    0    0  0.00000000000E+00  0.00000000000E+00  0.63496768420E+03  0.27779607363E+04  0.27044189566E+04 0.  0.
        4    1    3    3  502    0 -0.56201682400E+03  0.45737753784E+03 -0.85523241443E+03  0.11209287302E+04  0.12699999809E+01 0. -1.
       -4    1    3    3    0  502  0.56201682400E+03 -0.45737753784E+03  0.14902000986E+04  0.16570320062E+04  0.12699999809E+01 0.  1.
</event>
<event>
 5   0  0.5043890E-07  0.2701181E+04  0.7818609E-02  0.8334622E-01
        2   -1    0    0  501    0  0.00000000000E+00  0.00000000000E+00  0.15033266617E+04  0.15033266617E+04  0.25500000920E-02 0. -1.
       -2   -1    0    0    0  501  0.00000000000E+00  0.00000000000E+00 -0.12133724189E+04  0.12133724189E+04  0.25500000920E-02 0.  1.
    10030    2    1    2    0    0  0.00000000000E+00  0.00000000000E+00  0.28995424286E+03  0.27166990806E+04  0.27011813030E+04 0.  0.
        3    1    3    3  502    0  0.11333054925E+04  0.64289785417E+03 -0.21258758951E+03  0.13201865337E+04  0.10100000352E+00 0.  1.
       -3    1    3    3    0  502 -0.11333054925E+04 -0.64289785417E+03  0.50254183237E+03  0.13965125469E+04  0.10100000352E+00 0. -1.
</event>
<event>
 5   0  0.5043890E-07  0.2699634E+04  0.7818609E-02  0.8335124E-01
       -2   -1    0    0    0  501  0.00000000000E+00  0.00000000000E+00  0.12105915381E+04  0.12105915381E+04  0.25500000920E-02 0.  1.
        2   -1    0    0  501    0  0.00000000000E+00  0.00000000000E+00 -0.15050544717E+04  0.15050544717E+04  0.25500000920E-02 0. -1.
    10030    2    1    2    0    0  0.00000000000E+00  0.00000000000E+00 -0.29446293362E+03  0.27156460098E+04  0.26996342032E+04 0.  0.
        3    1    3    3  502    0 -0.81307909084E+03  0.86637701292E+03 -0.79157683286E+03  0.14276906629E+04  0.10100000352E+00 0. -1.
       -3    1    3    3    0  502  0.81307909084E+03 -0.86637701292E+03  0.49711389924E+03  0.12879553469E+04  0.10100000352E+00 0.  1.
</event>
<event>
 5   0  0.4735120E-07  0.2699000E+04  0.7818609E-02  0.8335329E-01
        2   -1    0    0  501    0  0.00000000000E+00  0.00000000000E+00  0.93881391469E+03  0.93881391470E+03  0.25500000920E-02 0.  1.
       -2   -1    0    0    0  501  0.00000000000E+00  0.00000000000E+00 -0.19398421424E+04  0.19398421424E+04  0.25500000920E-02 0. -1.
    10030    2    1    2    0    0  0.00000000000E+00  0.00000000000E+00 -0.10010282277E+04  0.28786560571E+04  0.26990004043E+04 0.  0.
        2    1    3    3  502    0 -0.11246463838E+04  0.20154082938E+03  0.26541131711E+03  0.11729839563E+04  0.25500000920E-02 0.  1.
       -2    1    3    3    0  502  0.11246463838E+04 -0.20154082938E+03 -0.12664395448E+04  0.17056721007E+04  0.25500000920E-02 0. -1.
</event>
<event>
 5   0  0.5043890E-07  0.2699204E+04  0.7818609E-02  0.8335263E-01
        2   -1    0    0  501    0  0.00000000000E+00  0.00000000000E+00  0.11766159290E+04  0.11766159290E+04  0.25500000920E-02 0. -1.
       -2   -1    0    0    0  501  0.00000000000E+00  0.00000000000E+00 -0.15480203689E+04  0.15480203689E+04  0.25500000920E-02 0.  1.
    10030    2    1    2    0    0  0.00000000000E+00  0.00000000000E+00 -0.37140443994E+03  0.27246362980E+04  0.26992039008E+04 0.  0.
        3    1    3    3  502    0 -0.10206943462E+04  0.22631862758E+03 -0.10472003500E+04  0.14797518889E+04  0.10100000352E+00 0.  1.
       -3    1    3    3    0  502  0.10206943462E+04 -0.22631862758E+03  0.67579591006E+03  0.12448844090E+04  0.10100000352E+00 0. -1.
</event>
<event>
 5   0  0.1971600E-07  0.2700166E+04  0.7818609E-02  0.8334951E-01
       -1   -1    0    0    0  501  0.00000000000E+00  0.00000000000E+00  0.22773835329E+04  0.22773835329E+04  0.50400001928E-02 0. -1.
        1   -1    0    0  501    0  0.00000000000E+00  0.00000000000E+00 -0.80035912837E+03  0.80035912839E+03  0.50400001928E-02 0.  1.
    10030    2    1    2    0    0  0.00000000000E+00  0.00000000000E+00  0.14770244045E+04  0.30777426613E+04  0.27001664388E+04 0.  0.
        5    1    3    3  502    0  0.11452858042E+02 -0.41373536423E+03 -0.72625020376E+03  0.83592437938E+03  0.46999998093E+01 0.  1.
       -5    1    3    3    0  502 -0.11452858042E+02  0.41373536423E+03  0.22032746083E+04  0.22418182819E+04  0.46999998093E+01 0. -1.
</event>
<event>
 5   0  0.4992668E-07  0.2699817E+04  0.7818609E-02  0.8335064E-01
        2   -1    0    0  501    0  0.00000000000E+00  0.00000000000E+00  0.17901220136E+04  0.17901220136E+04  0.25500000920E-02 0.  1.
       -2   -1    0    0    0  501  0.00000000000E+00  0.00000000000E+00 -0.10179490785E+04  0.10179490785E+04  0.25500000920E-02 0. -1.
    10030    2    1    2    0    0  0.00000000000E+00  0.00000000000E+00  0.77217293506E+03  0.28080710921E+04  0.26998170710E+04 0.  0.
        1    1    3    3  502    0  0.11554949745E+04 -0.62790098279E+03  0.69198528836E+02  0.13168966234E+04  0.50400001928E-02 0. -1.
       -1    1    3    3    0  502 -0.11554949745E+04  0.62790098279E+03  0.70297440622E+03  0.14911744687E+04  0.50400001928E-02 0.  1.
</event>
<event>
 5   0  0.1937896E-07  0.2705347E+04  0.7818609E-02  0.8333272E-01
        1   -1    0    0  501    0  0.00000000000E+00  0.00000000000E+00  0.19037947345E+04  0.19037947346E+04  0.50400001928E-02 0.  1.
       -1   -1    0    0    0  501  0.00000000000E+00  0.00000000000E+00 -0.96109407155E+03  0.96109407157E+03  0.50400001928E-02 0. -1.
    10030    2    1    2    0    0  0.00000000000E+00  0.00000000000E+00  0.94270066299E+03  0.28648888061E+04  0.27053471739E+04 0.  0.
        3    1    3    3  502    0  0.18094865563E+03  0.53750123386E+03  0.17718084039E+04  0.18603642178E+04  0.10100000352E+00 0.  1.
       -3    1    3    3    0  502 -0.18094865563E+03 -0.53750123386E+03 -0.82910774091E+03  0.10045245884E+04  0.10100000352E+00 0. -1.
</event>
<event>
 5   0  0.4983208E-07  0.2698510E+04  0.7818609E-02  0.8335489E-01
        2   -1    0    0  501    0  0.00000000000E+00  0.00000000000E+00  0.18062235000E+04  0.18062235000E+04  0.25500000920E-02 0. -1.
       -2   -1    0    0    0  501  0.00000000000E+00  0.00000000000E+00 -0.10078978905E+04  0.10078978905E+04  0.25500000920E-02 0.  1.
    10030    2    1    2    0    0  0.00000000000E+00  0.00000000000E+00  0.79832560958E+03  0.28141213905E+04  0.26985098521E+04 0.  0.
        4    1    3    3  502    0  0.20542972029E+03 -0.26058574300E+02  0.17895529267E+04  0.18014942991E+04  0.12699999809E+01 0. -1.
       -4    1    3    3    0  502 -0.20542972029E+03  0.26058574300E+02 -0.99122731711E+03  0.10126270915E+04  0.12699999809E+01 0.  1.
</event>
<event>
 5   0  0.4983208E-07  0.2698393E+04  0.7818609E-02  0.8335527E-01
       -2   -1    0    0    0  501  0.00000000000E+00  0.00000000000E+00  0.16940155568E+04  0.16940155568E+04  0.25500000920E-02 0.  1.
        2   -1    0    0  501    0  0.00000000000E+00  0.00000000000E+00 -0.10745656295E+04  0.10745656295E+04  0.25500000920E-02 0. -1.
    10030    2    1    2    0    0  0.00000000000E+00  0.00000000000E+00  0.61944992730E+03  0.27685811863E+04  0.26983927758E+04 0.  0.
        4    1    3    3  502    0 -0.59883318401E+02  0.51095740162E+03 -0.96998116631E+03  0.10979656434E+04  0.12699999809E+01 0. -1.
       -4    1    3    3    0  502  0.59883318401E+02 -0.51095740162E+03  0.15894310936E+04  0.16706155429E+04  0.12699999809E+01 0.  1.
</event>
<event>
 5   0  0.4983208E-07  0.2700040E+04  0.7818609E-02  0.8334992E-01
        2   -1    0    0  501    0  0.00000000000E+00  0.00000000000E+00  0.10749095278E+04  0.10749095278E+04  0.25500000920E-02 0. -1.
       -2   -1    0    0    0  501  0.00000000000E+00  0.00000000000E+00 -0.16955418887E+04  0.16955418887E+04  0.25500000920E-02 0.  1.
    10030    2    1    2    0    0  0.00000000000E+00  0.00000000000E+00 -0.62063236090E+03  0.27704514164E+04  0.27000400966E+04 0.  0.
        4    1    3    3  502    0  0.12500323283E+04  0.50935184738E+03 -0.28664085539E+03  0.13799219975E+04  0.12699999809E+01 0. -1.
       -4    1    3    3    0  502 -0.12500323283E+04 -0.50935184738E+03 -0.33399150551E+03  0.13905294189E+04  0.12699999809E+01 0.  1.
</event>
<event>
 5   0  0.4992668E-07  0.2699588E+04  0.7818609E-02  0.8335139E-01
        2   -1    0    0  501    0  0.00000000000E+00  0.00000000000E+00  0.58322131820E+03  0.58322131821E+03  0.25500000920E-02 0.  1.
       -2   -1    0    0    0  501  0.00000000000E+00  0.00000000000E+00 -0.31239323672E+04  0.31239323672E+04  0.25500000920E-02 0. -1.
    10030    2    1    2    0    0  0.00000000000E+00  0.00000000000E+00 -0.25407110490E+04  0.37071536854E+04  0.26995880820E+04 0.  0.
        1    1    3    3  502    0  0.74051855728E+03  0.35340509521E+03  0.20142420882E+03  0.84488733386E+03  0.50400001928E-02 0.  1.
       -1    1    3    3    0  502 -0.74051855728E+03 -0.35340509521E+03 -0.27421352578E+04  0.28622663515E+04  0.50400001928E-02 0. -1.
</event>
<event>
 5   0  0.1965415E-07  0.2700524E+04  0.7818609E-02  0.8334835E-01
        1   -1    0    0  501    0  0.00000000000E+00  0.00000000000E+00  0.12364560209E+04  0.12364560209E+04  0.50400001928E-02 0. -1.
       -1   -1    0    0    0  501  0.00000000000E+00  0.00000000000E+00 -0.14745432462E+04  0.14745432462E+04  0.50400001928E-02 0.  1.
    10030    2    1    2    0    0  0.00000000000E+00  0.00000000000E+00 -0.23808722531E+03  0.27109992672E+04  0.27005243009E+04 0.  0.
        4    1    3    3  502    0 -0.13326862022E+04  0.76174712889E+02  0.85095003870E+02  0.13375716329E+04  0.12699999809E+01 0. -1.
       -4    1    3    3    0  502  0.13326862022E+04 -0.76174712889E+02 -0.32318222918E+03  0.13734276343E+04  0.12699999809E+01 0.  1.
</event>
<event>
 5   0  0.1971600E-07  0.2703282E+04  0.7818609E-02  0.8333941E-01
       -1   -1    0    0    0  501  0.00000000000E+00  0.00000000000E+00  0.79410497657E+03  0.79410497658E+03  0.50400001928E-02 0.  1.
        1   -1    0    0  501    0  0.00000000000E+00  0.00000000000E+00 -0.23006198574E+04  0.23006198574E+04  0.50400001928E-02 0. -1.
    10030    2    1    2    0    0  0.00000000000E+00  0.00000000000E+00 -0.15065148808E+04  0.30947248340E+04  0.27032822109E+04 0.  0.
        5    1    3    3  502    0  0.23723849714E+03  0.86909962638E+03 -0.19067820020E+04  0.21088992290E+04  0.46999998093E+01 0. -1.
       -5    1    3    3    0  502 -0.23723849714E+03 -0.86909962638E+03  0.40026712116E+03  0.98582560495E+03  0.46999998093E+01 0.  1.
</event>
<event>
 5   0  0.4983208E-07  0.2699717E+04  0.7818609E-02  0.8335097E-01
       -2   -1    0    0    0  501  0.00000000000E+00  0.00000000000E+00  0.90382023305E+03  0.90382023305E+03  0.25500000920E-02 0.  1.
        2   -1    0    0  501    0  0.00000000000E+00  0.00000000000E+00 -0.20160181024E+04  0.20160181024E+04  0.25500000920E-02 0. -1.
    10030    2    1    2    0    0  0.00000000000E+00  0.00000000000E+00 -0.11121978693E+04  0.29198383354E+04  0.26997169860E+04 0.  0.
        4    1    3    3  502    0  0.13735266002E+03 -0.13427468093E+04 -0.57424782706E+03  0.14668322763E+04  0.12699999809E+01 0. -1.
       -4    1    3    3    0  502 -0.13735266002E+03  0.13427468093E+04 -0.53795004226E+03  0.14530060591E+04  0.12699999809E+01 0.  1.
</event>
<event>
 5   0  0.4992668E-07  0.2698985E+04  0.7818609E-02  0.8335334E-01
        2   -1    0    0  501    0  0.00000000000E+00  0.00000000000E+00  0.24844721121E+04  0.24844721121E+04  0.25500000920E-02 0. -1.
       -2   -1    0    0    0  501  0.00000000000E+00  0.00000000000E+00 -0.73300462598E+03  0.73300462598E+03  0.25500000920E-02 0.  1.
    10030    2    1    2    0    0  0.00000000000E+00  0.00000000000E+00  0.17514674861E+04  0.32174767380E+04  0.26989846619E+04 0.  0.
        1    1    3    3  502    0  0.38635092560E+03 -0.12474358270E+04  0.47012602645E+03  0.13879415193E+04  0.50400001928E-02 0.  1.
       -1    1    3    3    0  502 -0.38635092560E+03  0.12474358270E+04  0.12813414596E+04  0.18295352187E+04  0.50400001928E-02 0. -1.
</event>
<event>
 5   0  0.4735120E-07  0.2697510E+04  0.7818609E-02  0.8335813E-01
       -2   -1    0    0    0  501  0.00000000000E+00  0.00000000000E+00  0.13437197649E+04  0.13437197649E+04  0.25500000920E-02 0.  1.
        2   -1    0    0  501    0  0.00000000000E+00  0.00000000000E+00 -0.13538089930E+04  0.13538089930E+04  0.25500000920E-02 0. -1.
    10030    2    1    2    0    0  0.00000000000E+00  0.00000000000E+00 -0.10089228092E+02  0.26975287579E+04  0.26975098901E+04 0.  0.
        2    1    3    3  502    0 -0.52701114383E+03 -0.15470608962E+03 -0.12369075974E+04  0.13533717614E+04  0.25500000920E-02 0. -1.
       -2    1    3    3    0  502  0.52701114383E+03  0.15470608962E+03  0.12268183693E+04  0.13441569965E+04  0.25500000920E-02 0.  1.
</event>
<event>
 5   0  0.4843887E-07  0.2699534E+04  0.7818609E-02  0.8335156E-01
        2   -1    0    0  501    0  0.00000000000E+00  0.00000000000E+00  0.10422821013E+04  0.10422821013E+04  0.25500000920E-02 0. -1.
       -2   -1    0    0    0  501  0.00000000000E+00  0.00000000000E+00 -0.17479630942E+04  0.17479630942E+04  0.25500000920E-02 0.  1.
    10030    2    1    2    0    0  0.00000000000E+00  0.00000000000E+00 -0.70568099288E+03  0.27902451956E+04  0.26995337723E+04 0.  0.
        5    1    3    3  502    0  0.54293909190E+02  0.10024488233E+04 -0.12853752560E+04  0.16309699907E+04  0.46999998093E+01 0.  1.
       -5    1    3    3    0  502 -0.54293909190E+02 -0.10024488233E+04  0.57969426314E+03  0.11592752048E+04  0.46999998093E+01 0. -1.
</event>
<event>
 5   0  0.4735120E-07  0.2700875E+04  0.7818609E-02  0.8334721E-01
       -2   -1    0    0    0  501  0.00000000000E+00  0.00000000000E+00  0.11616178798E+04  0.11616178798E+04  0.25500000920E-02 0. -1.
        2   -1    0    0  501    0  0.00000000000E+00  0.00000000000E+00 -0.15699501042E+04  0.15699501042E+04  0.25500000920E-02 0.  1.
    10030    2    1    2    0    0  0.00000000000E+00  0.00000000000E+00 -0.40833222435E+03  0.27315679840E+04  0.27008754962E+04 0.  0.
        2    1    3    3  502    0  0.91404456006E+03 -0.63392521819E+03 -0.97859847963E+03  0.14815510873E+04  0.25500000920E-02 0.  1.
       -2    1    3    3    0  502 -0.91404456006E+03  0.63392521819E+03  0.57026625528E+03  0.12500168967E+04  0.25500000920E-02 0. -1.
</event>
<event>
 5   0  0.1937896E-07  0.2700830E+04  0.7818609E-02  0.8334736E-01
       -1   -1    0    0    0  501  0.00000000000E+00  0.00000000000E+00  0.28305735354E+04  0.28305735354E+04  0.50400001928E-02 0.  1.
        1   -1    0    0  501    0  0.00000000000E+00  0.00000000000E+00 -0.64425851563E+03  0.64425851565E+03  0.50400001928E-02 0. -1.
    10030    2    1    2    0    0  0.00000000000E+00  0.00000000000E+00  0.21863150198E+04  0.34748320511E+04  0.27008303200E+04 0.  0.
        3    1    3    3  502    0 -0.35490047344E+03  0.11275758114E+04  0.25318826604E+03  0.12089192962E+04  0.10100000352E+00 0. -1.
       -3    1    3    3    0  502  0.35490047344E+03 -0.11275758114E+04  0.19331267538E+04  0.22659127549E+04  0.10100000352E+00 0.  1.
</event>
<event>
 5   0  0.4992668E-07  0.2700125E+04  0.7818609E-02  0.8334964E-01
       -2   -1    0    0    0  501  0.00000000000E+00  0.00000000000E+00  0.13611150207E+04  0.13611150207E+04  0.25500000920E-02 0. -1.
        2   -1    0    0  501    0  0.00000000000E+00  0.00000000000E+00 -0.13391000269E+04  0.13391000269E+04  0.25500000920E-02 0.  1.
    10030    2    1    2    0    0  0.00000000000E+00  0.00000000000E+00  0.22014993865E+02  0.27002150476E+04  0.27001253014E+04 0.  0.
        1    1    3    3  502    0 -0.94117631158E+03  0.55126289283E+03  0.80662525176E+03  0.13565942368E+04  0.50400001928E-02 0. -1.
       -1    1    3    3    0  502  0.94117631158E+03 -0.55126289283E+03 -0.78461025789E+03  0.13436208108E+04  0.50400001928E-02 0.  1.
</event>
<event>
 5   0  0.1965415E-07  0.2700054E+04  0.7818609E-02  0.8334988E-01
        1   -1    0    0  501    0  0.00000000000E+00  0.00000000000E+00  0.15399886298E+04  0.15399886298E+04  0.50400001928E-02 0. -1.
       -1   -1    0    0    0  501  0.00000000000E+00  0.00000000000E+00 -0.11834972127E+04  0.11834972127E+04  0.50400001928E-02 0.  1.
    10030    2    1    2    0    0  0.00000000000E+00  0.00000000000E+00  0.35649141711E+03  0.27234858426E+04  0.27000535188E+04 0.  0.
        4    1    3    3  502    0 -0.95222339811E+03  0.11016669071E+03 -0.78063809081E+03  0.12362295666E+04  0.12699999809E+01 0.  1.
       -4    1    3    3    0  502  0.95222339811E+03 -0.11016669071E+03  0.11371295079E+04  0.14872562759E+04  0.12699999809E+01 0. -1.
</event>
<event>
 5   0  0.1965415E-07  0.2699005E+04  0.7818609E-02  0.8335328E-01
        1   -1    0    0  501    0  0.00000000000E+00  0.00000000000E+00  0.24736983760E+04  0.24736983760E+04  0.50400001928E-02 0. -1.
       -1   -1    0    0    0  501  0.00000000000E+00  0.00000000000E+00 -0.73620806879E+03  0.73620806881E+03  0.50400001928E-02 0.  1.
    10030    2    1    2    0    0  0.00000000000E+00  0.00000000000E+00  0.17374903072E+04  0.32099064448E+04  0.26990047826E+04 0.  0.
        4    1    3    3  502    0  0.20767356001E+03 -0.29426675003E+03 -0.67799097974E+03  0.76772039781E+03  0.12699999809E+01 0.  1.
       -4    1    3    3    0  502 -0.20767356001E+03  0.29426675003E+03  0.24154812869E+04  0.24421860470E+04  0.12699999809E+01 0. -1.
</event>
<event>
 5   0  0.5043890E-07  0.2700403E+04  0.7818609E-02  0.8334874E-01
       -2   -1    0    0    0  501  0.00000000000E+00  0.00000000000E+00  0.13024242146E+04  0.13024242146E+04  0.25500000920E-02 0.  1.
        2   -1    0    0  501    0  0.00000000000E+00  0.00000000000E+00 -0.13997312312E+04  0.13997312312E+04  0.25500000920E-02 0. -1.
    10030    2    1    2    0    0  0.00000000000E+00  0.00000000000E+00 -0.97307016557E+02  0.27021554458E+04  0.27004028214E+04 0.  0.
        3    1    3    3  502    0  0.10142275754E+04 -0.49091409182E+03 -0.79303793686E+03  0.13778836670E+04  0.10100000352E+00 0. -1.
       -3    1    3    3    0  502 -0.10142275754E+04  0.49091409182E+03  0.69573092030E+03  0.13242717788E+04  0.10100000352E+00 0.  1.
</event>
<event>
 5   0  0.4843887E-07  0.2700850E+04  0.7818609E-02  0.8334729E-01
       -2   -1    0    0    0  501  0.00000000000E+00  0.00000000000E+00  0.16385929566E+04  0.16385929566E+04  0.25500000920E-02 0. -1.
        2   -1    0    0  501    0  0.00000000000E+00  0.00000000000E+00 -0.11129354301E+04  0.11129354301E+04  0.25500000920E-02 0.  1.
    10030    2    1    2    0    0  0.00000000000E+00  0.00000000000E+00  0.52565752647E+03  0.27515283867E+04  0.27008503527E+04 0.  0.
        5    1    3    3  502    0 -0.77935925751E+03  0.10884900860E+04  0.82261556831E+02  0.13412682704E+04  0.46999998093E+01 0.  1.
       -5    1    3    3    0  502  0.77935925751E+03 -0.10884900860E+04  0.44339596964E+03  0.14102601162E+04  0.46999998093E+01 0. -1.
</event>
<event>
 5   0  0.4843887E-07  0.2699625E+04  0.7818609E-02  0.8335127E-01
       -2   -1    0    0    0  501  0.00000000000E+00  0.00000000000E+00  0.79954567806E+03  0.79954567806E+03  0.25500000920E-02 0. -1.
        2   -1    0    0  501    0  0.00000000000E+00  0.00000000000E+00 -0.22787860923E+04  0.22787860923E+04  0.25500000920E-02 0.  1.
    10030    2    1    2    0    0  0.00000000000E+00  0.00000000000E+00 -0.14792404142E+04  0.30783317703E+04  0.26996248416E+04 0.  0.
        5    1    3    3  502    0  0.37448140400E+03 -0.78364121842E+03 -0.19178357633E+04  0.21053374994E+04  0.46999998093E+01 0.  1.
       -5    1    3    3    0  502 -0.37448140400E+03  0.78364121842E+03  0.43859534909E+03  0.97299427099E+03  0.46999998093E+01 0. -1.
</event>
<event>
 5   0  0.4992668E-07  0.2697566E+04  0.7818609E-02  0.8335795E-01
        2   -1    0    0  501    0  0.00000000000E+00  0.00000000000E+00  0.20363958498E+04  0.20363958498E+04  0.25500000920E-02 0.  1.
       -2   -1    0    0    0  501  0.00000000000E+00  0.00000000000E+00 -0.89335053169E+03  0.89335053169E+03  0.25500000920E-02 0. -1.
    10030    2    1    2    0    0  0.00000000000E+00  0.00000000000E+00  0.11430453181E+04  0.29297463815E+04  0.26975658028E+04 0.  0.
        1    1    3    3  502    0  0.75954362360E+03  0.18170167971E+03  0.17658511765E+04  0.19308424053E+04  0.50400001928E-02 0.  1.
       -1    1    3    3    0  502 -0.75954362360E+03 -0.18170167971E+03 -0.62280585833E+03  0.99890397624E+03  0.50400001928E-02 0. -1.
</event>
<event>
 5   0  0.1888149E-07  0.2700292E+04  0.7818609E-02  0.8334910E-01
       -1   -1    0    0    0  501  0.00000000000E+00  0.00000000000E+00  0.15347538557E+04  0.15347538557E+04  0.50400001928E-02 0. -1.
        1   -1    0    0  501    0  0.00000000000E+00  0.00000000000E+00 -0.11877438078E+04  0.11877438078E+04  0.50400001928E-02 0.  1.
    10030    2    1    2    0    0  0.00000000000E+00  0.00000000000E+00  0.34701004790E+03  0.27224976635E+04  0.27002921239E+04 0.  0.
        1    1    3    3  502    0 -0.71268590990E+03 -0.11443074826E+04  0.24850469930E+03  0.13708083040E+04  0.50400001928E-02 0. -1.
       -1    1    3    3    0  502  0.71268590990E+03  0.11443074826E+04  0.98505348604E+02  0.13516893595E+04  0.50400001928E-02 0.  1.
</event>
<event>
 5   0  0.1641625E-07  0.2701792E+04  0.7818609E-02  0.8334424E-01
        3   -1    0    0  501    0  0.00000000000E+00  0.00000000000E+00  0.14097406640E+04  0.14097406677E+04  0.10100000352E+00 0.  1.
       -3   -1    0    0    0  501  0.00000000000E+00  0.00000000000E+00 -0.12945078201E+04  0.12945078240E+04  0.10100000352E+00 0. -1.
    10030    2    1    2    0    0  0.00000000000E+00  0.00000000000E+00  0.11523284396E+03  0.27042484917E+04  0.27017922378E+04 0.  0.
        1    1    3    3  502    0  0.12138048930E+04  0.20493079518E+03 -0.49930777445E+03  0.13283927141E+04  0.50400001928E-02 0. -1.
       -1    1    3    3    0  502 -0.12138048930E+04 -0.20493079518E+03  0.61454061841E+03  0.13758557776E+04  0.50400001928E-02 0.  1.
</event>
<event>
 5   0  0.4843887E-07  0.2695953E+04  0.7818609E-02  0.8336319E-01
        2   -1    0    0  501    0  0.00000000000E+00  0.00000000000E+00  0.19965175733E+04  0.19965175733E+04  0.25500000920E-02 0.  1.
       -2   -1    0    0    0  501  0.00000000000E+00  0.00000000000E+00 -0.91010526927E+03  0.91010526927E+03  0.25500000920E-02 0. -1.
    10030    2    1    2    0    0  0.00000000000E+00  0.00000000000E+00  0.10864123041E+04  0.29066228426E+04  0.26959533851E+04 0.  0.
        5    1    3    3  502    0 -0.73171710718E+02  0.42587137044E+03 -0.83340053471E+03  0.93877530041E+03  0.46999998093E+01 0. -1.
       -5    1    3    3    0  502  0.73171710718E+02 -0.42587137044E+03  0.19198128388E+04  0.19678475422E+04  0.46999998093E+01 0.  1.
</event>
<event>
 5   0  0.4735120E-07  0.2700421E+04  0.7818609E-02  0.8334868E-01
        2   -1    0    0  501    0  0.00000000000E+00  0.00000000000E+00  0.11791650437E+04  0.11791650437E+04  0.25500000920E-02 0.  1.
       -2   -1    0    0    0  501  0.00000000000E+00  0.00000000000E+00 -0.15460670250E+04  0.15460670250E+04  0.25500000920E-02 0. -1.
    10030    2    1    2    0    0  0.00000000000E+00  0.00000000000E+00 -0.36690198126E+03  0.27252320687E+04  0.27004208495E+04 0.  0.
        2    1    3    3  502    0 -0.21902933681E+03  0.71028123459E+03 -0.13210143463E+04  0.15157678535E+04  0.25500000920E-02 0. -1.
       -2    1    3    3    0  502  0.21902933681E+03 -0.71028123459E+03  0.95411236506E+03  0.12094642152E+04  0.25500000920E-02 0.  1.
</event>
<event>
 5   0  0.5043890E-07  0.2694690E+04  0.7818609E-02  0.8336730E-01
       -2   -1    0    0    0  501  0.00000000000E+00  0.00000000000E+00  0.10583757243E+04  0.10583757243E+04  0.25500000920E-02 0. -1.
        2   -1    0    0  501    0  0.00000000000E+00  0.00000000000E+00 -0.17152122962E+04  0.17152122962E+04  0.25500000920E-02 0.  1.
    10030    2    1    2    0    0  0.00000000000E+00  0.00000000000E+00 -0.65683657190E+03  0.27735880205E+04  0.26946903765E+04 0.  0.
        3    1    3    3  502    0 -0.12087033385E+03  0.51942684649E+03  0.94511429984E+03  0.10851981093E+04  0.10100000352E+00 0. -1.
       -3    1    3    3    0  502  0.12087033385E+03 -0.51942684649E+03 -0.16019508717E+04  0.16883899112E+04  0.10100000352E+00 0.  1.
</event>
<event>
 5   0  0.1888149E-07  0.2700245E+04  0.7818609E-02  0.8334925E-01
        1   -1    0    0  501    0  0.00000000000E+00  0.00000000000E+00  0.15131532853E+04  0.15131532853E+04  0.50400001928E-02 0. -1.
       -1   -1    0    0    0  501  0.00000000000E+00  0.00000000000E+00 -0.12046571170E+04  0.12046571170E+04  0.50400001928E-02 0.  1.
    10030    2    1    2    0    0  0.00000000000E+00  0.00000000000E+00  0.30849616834E+03  0.27178104023E+04  0.27002450809E+04 0.  0.
        1    1    3    3  502    0 -0.95536147342E+03  0.64702005031E+03  0.85986513600E+03  0.14389991461E+04  0.50400001928E-02 0. -1.
       -1    1    3    3    0  502  0.95536147342E+03 -0.64702005031E+03 -0.55136896766E+03  0.12788112562E+04  0.50400001928E-02 0.  1.
</event>
<event>
 5   0  0.5043890E-07  0.2700535E+04  0.7818609E-02  0.8334831E-01
        2   -1    0    0  501    0  0.00000000000E+00  0.00000000000E+00  0.15025043039E+04  0.15025043039E+04  0.25500000920E-02 0. -1.
       -2   -1    0    0    0  501  0.00000000000E+00  0.00000000000E+00 -0.12134559785E+04  0.12134559786E+04  0.25500000920E-02 0.  1.
    10030    2    1    2    0    0  0.00000000000E+00  0.00000000000E+00  0.28904832532E+03  0.27159602824E+04  0.27005353768E+04 0.  0.
        3    1    3    3  502    0 -0.66337122248E+03  0.75365242448E+03 -0.76350018801E+03  0.12613428967E+04  0.10100000352E+00 0.  1.
       -3    1    3    3    0  502  0.66337122248E+03 -0.75365242448E+03  0.10525485133E+04  0.14546173857E+04  0.10100000352E+00 0. -1.
</event>
<event>
 5   0  0.4843887E-07  0.2699865E+04  0.7818609E-02  0.8335049E-01
       -2   -1    0    0    0  501  0.00000000000E+00  0.00000000000E+00  0.91447138486E+03  0.91447138486E+03  0.25500000920E-02 0. -1.
        2   -1    0    0  501    0  0.00000000000E+00  0.00000000000E+00 -0.19927559086E+04  0.19927559086E+04  0.25500000920E-02 0.  1.
    10030    2    1    2    0    0  0.00000000000E+00  0.00000000000E+00 -0.10782845238E+04  0.29072272935E+04  0.26998653711E+04 0.  0.
        5    1    3    3  502    0  0.13270660642E+04 -0.19782035882E+02 -0.27362641543E+03  0.13551343745E+04  0.46999998093E+01 0. -1.
       -5    1    3    3    0  502 -0.13270660642E+04  0.19782035882E+02 -0.80465810833E+03  0.15520929190E+04  0.46999998093E+01 0.  1.
</event>
<event>
 5   0  0.1888149E-07  0.2700644E+04  0.7818609E-02  0.8334796E-01
        1   -1    0    0  501    0  0.00000000000E+00  0.00000000000E+00  0.15921333414E+04  0.15921333414E+04  0.50400001928E-02 0. -1.
       -1   -1    0    0    0  501  0.00000000000E+00  0.00000000000E+00 -0.11452366437E+04  0.11452366437E+04  0.50400001928E-02 0.  1.
    10030    2    1    2    0    0  0.00000000000E+00  0.00000000000E+00  0.44689669775E+03  0.27373699851E+04  0.27006439559E+04 0.  0.
        1    1    3    3  502    0  0.83409624644E+03 -0.29443283682E+03  0.12575986167E+04  0.15375179754E+04  0.50400001928E-02 0. -1.
       -1    1    3    3    0  502 -0.83409624644E+03  0.29443283682E+03 -0.81070191899E+03  0.11998520097E+04  0.50400001928E-02 0.  1.
</event>
<event>
 5   0  0.1964242E-07  0.2700815E+04  0.7818609E-02  0.8334741E-01
       -1   -1    0    0    0  501  0.00000000000E+00  0.00000000000E+00  0.88237199827E+03  0.88237199828E+03  0.50400001928E-02 0.  1.
        1   -1    0    0  501    0  0.00000000000E+00  0.00000000000E+00 -0.20667025358E+04  0.20667025358E+04  0.50400001928E-02 0. -1.
    10030    2    1    2    0    0  0.00000000000E+00  0.00000000000E+00 -0.11843305375E+04  0.29490745341E+04  0.27008150225E+04 0.  0.
        2    1    3    3  502    0 -0.38549860342E+03 -0.10938965754E+04 -0.13473933360E+04  0.17778323016E+04  0.25500000920E-02 0.  1.
       -2    1    3    3    0  502  0.38549860342E+03  0.10938965754E+04  0.16306279842E+03  0.11712422325E+04  0.25500000920E-02 0. -1.
</event>
<event>
 5   0  0.4983208E-07  0.2699358E+04  0.7818609E-02  0.8335213E-01
        2   -1    0    0  501    0  0.00000000000E+00  0.00000000000E+00  0.19643033797E+04  0.19643033797E+04  0.25500000920E-02 0. -1.
       -2   -1    0    0    0  501  0.00000000000E+00  0.00000000000E+00 -0.92736887139E+03  0.92736887139E+03  0.25500000920E-02 0.  1.
    10030    2    1    2    0    0  0.00000000000E+00  0.00000000000E+00  0.10369345083E+04  0.28916722511E+04  0.26993583002E+04 0.  0.
        4    1    3    3  502    0  0.17931972451E+03 -0.91180064825E+03 -0.53009228094E+03  0.10698296243E+04  0.12699999809E+01 0.  1.
       -4    1    3    3    0  502 -0.17931972451E+03  0.91180064825E+03  0.15670267892E+04  0.18218426268E+04  0.12699999809E+01 0. -1.
</event>
<event>
 5   0  0.4983208E-07  0.2700714E+04  0.7818609E-02  0.8334773E-01
       -2   -1    0    0    0  501  0.00000000000E+00  0.00000000000E+00  0.15920570766E+04  0.15920570766E+04  0.25500000920E-02 0.  1.
        2   -1    0    0  501    0  0.00000000000E+00  0.00000000000E+00 -0.11453507565E+04  0.11453507565E+04  0.25500000920E-02 0. -1.
    10030    2    1    2    0    0  0.00000000000E+00  0.00000000000E+00  0.44670632007E+03  0.27374078331E+04  0.27007138146E+04 0.  0.
        4    1    3    3  502    0 -0.77591953346E+03  0.72492437850E+03 -0.62218461003E+03  0.12307240872E+04  0.12699999809E+01 0. -1.
       -4    1    3    3    0  502  0.77591953346E+03 -0.72492437850E+03  0.10688909301E+04  0.15066837459E+04  0.12699999809E+01 0.  1.
</event>
<event>
 5   0  0.4735120E-07  0.2700073E+04  0.7818609E-02  0.8334981E-01
        2   -1    0    0  501    0  0.00000000000E+00  0.00000000000E+00  0.22163380064E+04  0.22163380064E+04  0.25500000920E-02 0. -1.
       -2   -1    0    0    0  501  0.00000000000E+00  0.00000000000E+00 -0.82234703048E+03  0.82234703049E+03  0.25500000920E-02 0.  1.
    10030    2    1    2    0    0  0.00000000000E+00  0.00000000000E+00  0.13939909759E+04  0.30386850369E+04  0.27000733161E+04 0.  0.
        2    1    3    3  502    0 -0.10625262069E+04  0.39940876629E+03  0.15194755009E+04  0.18966536586E+04  0.25500000920E-02 0. -1.
       -2    1    3    3    0  502  0.10625262069E+04 -0.39940876629E+03 -0.12548452500E+03  0.11420313783E+04  0.25500000920E-02 0.  1.
</event>
<event>
 5   0  0.4992668E-07  0.2700709E+04  0.7818609E-02  0.8334775E-01
       -2   -1    0    0    0  501  0.00000000000E+00  0.00000000000E+00  0.82051296719E+03  0.82051296719E+03  0.25500000920E-02 0.  1.
        2   -1    0    0  501    0  0.00000000000E+00  0.00000000000E+00 -0.22223376559E+04  0.22223376559E+04  0.25500000920E-02 0. -1.
    10030    2    1    2    0    0  0.00000000000E+00  0.00000000000E+00 -0.14018246888E+04  0.30428506231E+04  0.27007086953E+04 0.  0.
        1    1    3    3  502    0 -0.11290543642E+04 -0.73813621303E+03 -0.77080355475E+03  0.15536238111E+04  0.50400001928E-02 0.  1.
       -1    1    3    3    0  502  0.11290543642E+04  0.73813621303E+03 -0.63102113400E+03  0.14892268121E+04  0.50400001928E-02 0. -1.
</event>
<event>
 5   0  0.4983208E-07  0.2700773E+04  0.7818609E-02  0.8334754E-01
       -2   -1    0    0    0  501  0.00000000000E+00  0.00000000000E+00  0.19493749259E+04  0.19493749259E+04  0.25500000920E-02 0.  1.
        2   -1    0    0  501    0  0.00000000000E+00  0.00000000000E+00 -0.93545049720E+03  0.93545049721E+03  0.25500000920E-02 0. -1.
    10030    2    1    2    0    0  0.00000000000E+00  0.00000000000E+00  0.10139244287E+04  0.28848254231E+04  0.27007730328E+04 0.  0.
        4    1    3    3  502    0  0.41259584396E+03  0.12625038886E+04  0.76727217468E+03  0.15339033875E+04  0.12699999809E+01 0.  1.
       -4    1    3    3    0  502 -0.41259584396E+03 -0.12625038886E+04  0.24665225406E+03  0.13509220357E+04  0.12699999809E+01 0. -1.
</event>
<event>
 5   0  0.4843887E-07  0.2699270E+04  0.7818609E-02  0.8335242E-01
       -2   -1    0    0    0  501  0.00000000000E+00  0.00000000000E+00  0.77933017391E+03  0.77933017391E+03  0.25500000920E-02 0.  1.
        2   -1    0    0  501    0  0.00000000000E+00  0.00000000000E+00 -0.23372822362E+04  0.23372822362E+04  0.25500000920E-02 0. -1.
    10030    2    1    2    0    0  0.00000000000E+00  0.00000000000E+00 -0.15579520623E+04  0.31166124101E+04  0.26992699544E+04 0.  0.
        5    1    3    3  502    0 -0.11363662328E+04 -0.31534023971E+03 -0.21207764855E+02  0.11795081776E+04  0.46999998093E+01 0.  1.
       -5    1    3    3    0  502  0.11363662328E+04  0.31534023971E+03 -0.15367442974E+04  0.19371042325E+04  0.46999998093E+01 0. -1.
</event>
<event>
 5   0  0.1937896E-07  0.2700954E+04  0.7818609E-02  0.8334696E-01
        1   -1    0    0  501    0  0.00000000000E+00  0.00000000000E+00  0.14717748979E+04  0.14717748979E+04  0.50400001928E-02 0.  1.
       -1   -1    0    0    0  501  0.00000000000E+00  0.00000000000E+00 -0.12391757961E+04  0.12391757961E+04  0.50400001928E-02 0. -1.
    10030    2    1    2    0    0  0.00000000000E+00  0.00000000000E+00  0.23259910181E+03  0.27109506940E+04  0.27009537803E+04 0.  0.
        3    1    3    3  502    0 -0.79375471803E+03  0.86511826614E+02 -0.97688593092E+03  0.12616802213E+04  0.10100000352E+00 0. -1.
       -3    1    3    3    0  502  0.79375471803E+03 -0.86511826614E+02  0.12094850327E+04  0.14492704727E+04  0.10100000352E+00 0.  1.
</event>
<event>
 5   0  0.1937896E-07  0.2702418E+04  0.7818609E-02  0.8334221E-01
       -1   -1    0    0    0  501  0.00000000000E+00  0.00000000000E+00  0.65820740979E+03  0.65820740981E+03  0.50400001928E-02 0. -1.
        1   -1    0    0  501    0  0.00000000000E+00  0.00000000000E+00 -0.27738447710E+04  0.27738447710E+04  0.50400001928E-02 0.  1.
    10030    2    1    2    0    0  0.00000000000E+00  0.00000000000E+00 -0.21156373612E+04  0.34320521808E+04  0.27024175709E+04 0.  0.
        3    1    3    3  502    0 -0.25959501457E+03 -0.12747897621E+04 -0.59416386706E+03  0.14302129982E+04  0.10100000352E+00 0. -1.
       -3    1    3    3    0  502  0.25959501457E+03  0.12747897621E+04 -0.15214734941E+04  0.20018391825E+04  0.10100000352E+00 0.  1.
</event>
<event>
 5   0  0.1965415E-07  0.2691254E+04  0.7818609E-02  0.8337848E-01
       -1   -1    0    0    0  501  0.00000000000E+00  0.00000000000E+00  0.92458082629E+03  0.92458082630E+03  0.50400001928E-02 0.  1.
        1   -1    0    0  501    0  0.00000000000E+00  0.00000000000E+00 -0.19584141157E+04  0.19584141157E+04  0.50400001928E-02 0. -1.
    10030    2    1    2    0    0  0.00000000000E+00  0.00000000000E+00 -0.10338332894E+04  0.28829949420E+04  0.26912540878E+04 0.  0.
        4    1    3    3  502    0  0.10377288206E+04 -0.33116235702E+03 -0.13632422166E+04  0.17449872681E+04  0.12699999809E+01 0. -1.
       -4    1    3    3    0  502 -0.10377288206E+04  0.33116235702E+03  0.32940892715E+03  0.11380076739E+04  0.12699999809E+01 0.  1.
</event>
<event>
 5   0  0.1888149E-07  0.2699098E+04  0.7818609E-02  0.8335298E-01
       -1   -1    0    0    0  501  0.00000000000E+00  0.00000000000E+00  0.10179834287E+04  0.10179834287E+04  0.50400001928E-02 0.  1.
        1   -1    0    0  501    0  0.00000000000E+00  0.00000000000E+00 -0.17891085920E+04  0.17891085920E+04  0.50400001928E-02 0. -1.
    10030    2    1    2    0    0  0.00000000000E+00  0.00000000000E+00 -0.77112516329E+03  0.28070920207E+04  0.26990982929E+04 0.  0.
        1    1    3    3  502    0 -0.95273448575E+03 -0.33914033550E+03 -0.13149413355E+04  0.16588519775E+04  0.50400001928E-02 0. -1.
       -1    1    3    3    0  502  0.95273448575E+03  0.33914033550E+03  0.54381617220E+03  0.11482400431E+04  0.50400001928E-02 0.  1.
</event>
<event>
 5   0  0.4992668E-07  0.2701354E+04  0.7818609E-02  0.8334566E-01
       -2   -1    0    0    0  501  0.00000000000E+00  0.00000000000E+00  0.83230036647E+03  0.83230036647E+03  0.25500000920E-02 0.  1.
        2   -1    0    0  501    0  0.00000000000E+00  0.00000000000E+00 -0.21919110184E+04  0.21919110184E+04  0.25500000920E-02 0. -1.
    10030    2    1    2    0    0  0.00000000000E+00  0.00000000000E+00 -0.13596106520E+04  0.30242113849E+04  0.27013539893E+04 0.  0.
        1    1    3    3  502    0 -0.85047645989E+03  0.31327166608E+03  0.44132193751E+03  0.10080745995E+04  0.50400001928E-02 0.  1.
       -1    1    3    3    0  502  0.85047645989E+03 -0.31327166608E+03 -0.18009325895E+04  0.20161367854E+04  0.50400001928E-02 0. -1.
</event>
<event>
 5   0  0.4983208E-07  0.2699476E+04  0.7818609E-02  0.8335175E-01
       -2   -1    0    0    0  501  0.00000000000E+00  0.00000000000E+00  0.10362725353E+04  0.10362725353E+04  0.25500000920E-02 0. -1.
        2   -1    0    0  501    0  0.00000000000E+00  0.00000000000E+00 -0.17580243890E+04  0.17580243890E+04  0.25500000920E-02 0.  1.
    10030    2    1    2    0    0  0.00000000000E+00  0.00000000000E+00 -0.72175185374E+03  0.27942969243E+04  0.26994757941E+04 0.  0.
        4    1    3    3  502    0  0.11204699356E+04  0.26257939718E+03 -0.10909074659E+04  0.15857116789E+04  0.12699999809E+01 0.  1.
       -4    1    3    3    0  502 -0.11204699356E+04 -0.26257939718E+03  0.36915561219E+03  0.12085852454E+04  0.12699999809E+01 0. -1.
</event>
<event>
 5   0  0.4735120E-07  0.2700213E+04  0.7818609E-02  0.8334936E-01
       -2   -1    0    0    0  501  0.00000000000E+00  0.00000000000E+00  0.10724064349E+04  0.10724064349E+04  0.25500000920E-02 0. -1.
        2   -1    0    0  501    0  0.00000000000E+00  0.00000000000E+00 -0.16997176037E+04  0.16997176037E+04  0.25500000920E-02 0.  1.
    10030    2    1    2    0    0  0.00000000000E+00  0.00000000000E+00 -0.62731116875E+03  0.27721240386E+04  0.27002133958E+04 0.  0.
        2    1    3    3  502    0  0.10133611964E+04  0.31457099708E+03  0.54340171526E+03  0.11921162907E+04  0.25500000920E-02 0. -1.
       -2    1    3    3    0  502 -0.10133611964E+04 -0.31457099708E+03 -0.11707128840E+04  0.15800077479E+04  0.25500000920E-02 0.  1.
</event>
<event>
 5   0  0.1641625E-07  0.2700908E+04  0.7818609E-02  0.8334710E-01
       -3   -1    0    0    0  501  0.00000000000E+00  0.00000000000E+00  0.18591275971E+04  0.18591275998E+04  0.10100000352E+00 0. -1.
        3   -1    0    0  501    0  0.00000000000E+00  0.00000000000E+00 -0.98095782113E+03  0.98095782633E+03  0.10100000352E+00 0.  1.
    10030    2    1    2    0    0  0.00000000000E+00  0.00000000000E+00  0.87816977597E+03  0.28400854262E+04  0.27009078238E+04 0.  0.
        2    1    3    3  502    0 -0.21527079984E+03 -0.11959193946E+04 -0.18048048670E+03  0.12284697480E+04  0.25500000920E-02 0. -1.
       -2    1    3    3    0  502  0.21527079984E+03  0.11959193946E+04  0.10586502627E+04  0.16116156782E+04  0.25500000920E-02 0.  1.
</event>
<event>
 5   0  0.1937896E-07  0.2698986E+04  0.7818609E-02  0.8335334E-01
       -1   -1    0    0    0  501  0.00000000000E+00  0.00000000000E+00  0.12521696147E+04  0.12521696147E+04  0.50400001928E-02 0. -1.
        1   -1    0    0  501    0  0.00000000000E+00  0.00000000000E+00 -0.14543809273E+04  0.14543809273E+04  0.50400001928E-02 0.  1.
    10030    2    1    2    0    0  0.00000000000E+00  0.00000000000E+00 -0.20221131260E+03  0.27065505421E+04  0.26989861841E+04 0.  0.
        3    1    3    3  502    0  0.15007388800E+03 -0.26478759331E+03  0.12173022214E+04  0.12547746211E+04  0.10100000352E+00 0. -1.
       -3    1    3    3    0  502 -0.15007388800E+03  0.26478759331E+03 -0.14195135339E+04  0.14517759210E+04  0.10100000352E+00 0.  1.
</event>
<event>
 5   0  0.4992668E-07  0.2699890E+04  0.7818609E-02  0.8335041E-01
        2   -1    0    0  501    0  0.00000000000E+00  0.00000000000E+00  0.19968820752E+04  0.19968820752E+04  0.25500000920E-02 0.  1.
       -2   -1    0    0    0  501  0.00000000000E+00  0.00000000000E+00 -0.91259817580E+03  0.91259817580E+03  0.25500000920E-02 0. -1.
    10030    2    1    2    0    0  0.00000000000E+00  0.00000000000E+00  0.10842838994E+04  0.29094802510E+04  0.26998895823E+04 0.  0.
        1    1    3    3  502    0  0.62938943848E+03 -0.79585493133E+03 -0.41739292351E+03  0.10971476608E+04  0.50400001928E-02 0. -1.
       -1    1    3    3    0  502 -0.62938943848E+03  0.79585493133E+03  0.15016768229E+04  0.18123325902E+04  0.50400001928E-02 0.  1.
</event>
<event>
 5   0  0.1965415E-07  0.2703478E+04  0.7818609E-02  0.8333877E-01
       -1   -1    0    0    0  501  0.00000000000E+00  0.00000000000E+00  0.14717500130E+04  0.14717500130E+04  0.50400001928E-02 0.  1.
        1   -1    0    0  501    0  0.00000000000E+00  0.00000000000E+00 -0.12415142456E+04  0.12415142456E+04  0.50400001928E-02 0. -1.
    10030    2    1    2    0    0  0.00000000000E+00  0.00000000000E+00  0.23023576745E+03  0.27132642586E+04  0.27034782093E+04 0.  0.
        4    1    3    3  502    0 -0.86369486494E+03 -0.84936650578E+03  0.71712641333E+03  0.14077159466E+04  0.12699999809E+01 0.  1.
       -4    1    3    3    0  502  0.86369486494E+03  0.84936650578E+03 -0.48689064587E+03  0.13055483119E+04  0.12699999809E+01 0. -1.
</event>
<event>
 5   0  0.1937896E-07  0.2700814E+04  0.7818609E-02  0.8334741E-01
        1   -1    0    0  501    0  0.00000000000E+00  0.00000000000E+00  0.21541239015E+04  0.21541239015E+04  0.50400001928E-02 0.  1.
       -1   -1    0    0    0  501  0.00000000000E+00  0.00000000000E+00 -0.84656160224E+03  0.84656160226E+03  0.50400001928E-02 0. -1.
    10030    2    1    2    0    0  0.00000000000E+00  0.00000000000E+00  0.13075622993E+04  0.30006855038E+04  0.27008136415E+04 0.  0.
        3    1    3    3  502    0  0.96962558806E+03 -0.89949832225E+03  0.35088008794E+03  0.13683522423E+04  0.10100000352E+00 0. -1.
       -3    1    3    3    0  502 -0.96962558806E+03  0.89949832225E+03  0.95668221132E+03  0.16323332614E+04  0.10100000352E+00 0.  1.
</event>
<event>
 5   0  0.1888149E-07  0.2700259E+04  0.7818609E-02  0.8334921E-01
        1   -1    0    0  501    0  0.00000000000E+00  0.00000000000E+00  0.20010377812E+04  0.20010377812E+04  0.50400001928E-02 0. -1.
       -1   -1    0    0    0  501  0.00000000000E+00  0.00000000000E+00 -0.91095202062E+03  0.91095202064E+03  0.50400001928E-02 0.  1.
    10030    2    1    2    0    0  0.00000000000E+00  0.00000000000E+00  0.10900857605E+04  0.29119898018E+04  0.27002588099E+04 0.  0.
        1    1    3    3  502    0 -0.98255590499E+03  0.81183682335E+02  0.15397816594E+04  0.18283693433E+04  0.50400001928E-02 0. -1.
       -1    1    3    3    0  502  0.98255590499E+03 -0.81183682335E+02 -0.44969589886E+03  0.10836204585E+04  0.50400001928E-02 0.  1.
</event>
<event>
 5   0  0.1641625E-07  0.2699595E+04  0.7818609E-02  0.8335136E-01
       -3   -1    0    0    0  501  0.00000000000E+00  0.00000000000E+00  0.14324572127E+04  0.14324572162E+04  0.10100000352E+00 0.  1.
        3   -1    0    0  501    0  0.00000000000E+00  0.00000000000E+00 -0.12719076994E+04  0.12719077034E+04  0.10100000352E+00 0. -1.
    10030    2    1    2    0    0  0.00000000000E+00  0.00000000000E+00  0.16054951326E+03  0.27043649196E+04  0.26995950571E+04 0.  0.
        2    1    3    3  502    0 -0.91311913774E+03  0.40078225642E+02  0.10752872660E+04  0.14112531765E+04  0.25500000920E-02 0.  1.
       -2    1    3    3    0  502  0.91311913774E+03 -0.40078225642E+02 -0.91473775272E+03  0.12931117431E+04  0.25500000920E-02 0. -1.
</event>
<event>
 5   0  0.1937896E-07  0.2700340E+04  0.7818609E-02  0.8334895E-01
        1   -1    0    0  501    0  0.00000000000E+00  0.00000000000E+00  0.13693819620E+04  0.13693819620E+04  0.50400001928E-02 0. -1.
       -1   -1    0    0    0  501  0.00000000000E+00  0.00000000000E+00 -0.13312272517E+04  0.13312272517E+04  0.50400001928E-02 0.  1.
    10030    2    1    2    0    0  0.00000000000E+00  0.00000000000E+00  0.38154710320E+02  0.27006092137E+04  0.27003396718E+04 0.  0.
        3    1    3    3  502    0 -0.86949317088E+03 -0.10204279078E+04 -0.14114814413E+03  0.13480409111E+04  0.10100000352E+00 0. -1.
       -3    1    3    3    0  502  0.86949317088E+03  0.10204279078E+04  0.17930285445E+03  0.13525683026E+04  0.10100000352E+00 0.  1.
</event>
<event>
 5   0  0.4983208E-07  0.2700568E+04  0.7818609E-02  0.8334821E-01
        2   -1    0    0  501    0  0.00000000000E+00  0.00000000000E+00  0.21784536623E+04  0.21784536623E+04  0.25500000920E-02 0.  1.
       -2   -1    0    0    0  501  0.00000000000E+00  0.00000000000E+00 -0.83695452384E+03  0.83695452385E+03  0.25500000920E-02 0. -1.
    10030    2    1    2    0    0  0.00000000000E+00  0.00000000000E+00  0.13414991385E+04  0.30154081862E+04  0.27005678275E+04 0.  0.
        4    1    3    3  502    0  0.10137688629E+04  0.84461318251E+03  0.35068479171E+03  0.13653132137E+04  0.12699999809E+01 0. -1.
       -4    1    3    3    0  502 -0.10137688629E+04 -0.84461318251E+03  0.99081434678E+03  0.16500949725E+04  0.12699999809E+01 0.  1.
</event>
<event>
 5   0  0.4992668E-07  0.2698788E+04  0.7818609E-02  0.8335398E-01
        2   -1    0    0  501    0  0.00000000000E+00  0.00000000000E+00  0.16848765222E+04  0.16848765222E+04  0.25500000920E-02 0. -1.
       -2   -1    0    0    0  501  0.00000000000E+00  0.00000000000E+00 -0.10807106899E+04  0.10807106899E+04  0.25500000920E-02 0.  1.
    10030    2    1    2    0    0  0.00000000000E+00  0.00000000000E+00  0.60416583232E+03  0.27655872121E+04  0.26987879270E+04 0.  0.
        1    1    3    3  502    0 -0.10443419761E+04 -0.79130008920E+03  0.63264762947E+03  0.14550082534E+04  0.50400001928E-02 0. -1.
       -1    1    3    3    0  502  0.10443419761E+04  0.79130008920E+03 -0.28481797144E+02  0.13105789587E+04  0.50400001928E-02 0.  1.
</event>
<event>
 5   0  0.1965415E-07  0.2697114E+04  0.7818609E-02  0.8335942E-01
        1   -1    0    0  501    0  0.00000000000E+00  0.00000000000E+00  0.26584366607E+04  0.26584366607E+04  0.50400001928E-02 0.  1.
       -1   -1    0    0    0  501  0.00000000000E+00  0.00000000000E+00 -0.68408862910E+03  0.68408862912E+03  0.50400001928E-02 0. -1.
    10030    2    1    2    0    0  0.00000000000E+00  0.00000000000E+00  0.19743480316E+04  0.33425252898E+04  0.26971142288E+04 0.  0.
        4    1    3    3  502    0  0.38651731562E+03 -0.12229449781E+04  0.47079508660E+03  0.13662502264E+04  0.12699999809E+01 0. -1.
       -4    1    3    3    0  502 -0.38651731562E+03  0.12229449781E+04  0.15035529450E+04  0.19762750633E+04  0.12699999809E+01 0.  1.
</event>
<event>
 5   0  0.4843887E-07  0.2698487E+04  0.7818609E-02  0.8335496E-01
        2   -1    0    0  501    0  0.00000000000E+00  0.00000000000E+00  0.11466351250E+04  0.11466351250E+04  0.25500000920E-02 0.  1.
       -2   -1    0    0    0  501  0.00000000000E+00  0.00000000000E+00 -0.15876524640E+04  0.15876524640E+04  0.25500000920E-02 0. -1.
    10030    2    1    2    0    0  0.00000000000E+00  0.00000000000E+00 -0.44101733898E+03  0.27342875890E+04  0.26984870439E+04 0.  0.
        5    1    3    3  502    0  0.10362839874E+03 -0.19549746005E+03 -0.15691352715E+04  0.15846657983E+04  0.46999998093E+01 0. -1.
       -5    1    3    3    0  502 -0.10362839874E+03  0.19549746005E+03  0.11281179326E+04  0.11496217907E+04  0.46999998093E+01 0.  1.
</event>
<event>
 5   0  0.1965415E-07  0.2699886E+04  0.7818609E-02  0.8335042E-01
        1   -1    0    0  501    0  0.00000000000E+00  0.00000000000E+00  0.10263087772E+04  0.10263087772E+04  0.50400001928E-02 0.  1.
       -1   -1    0    0    0  501  0.00000000000E+00  0.00000000000E+00 -0.17756308215E+04  0.17756308215E+04  0.50400001928E-02 0. -1.
    10030    2    1    2    0    0  0.00000000000E+00  0.00000000000E+00 -0.74932204423E+03  0.28019395987E+04  0.26998855511E+04 0.  0.
        4    1    3    3  502    0  0.33345503274E+03  0.10853954409E+04  0.38305220433E+03  0.11983347304E+04  0.12699999809E+01 0.  1.
       -4    1    3    3    0  502 -0.33345503274E+03 -0.10853954409E+04 -0.11323742486E+04  0.16036048683E+04  0.12699999809E+01 0. -1.
</event>
<event>
 5   0  0.1888149E-07  0.2699570E+04  0.7818609E-02  0.8335144E-01
        1   -1    0    0  501    0  0.00000000000E+00  0.00000000000E+00  0.18881485205E+04  0.18881485205E+04  0.50400001928E-02 0. -1.
       -1   -1    0    0    0  501  0.00000000000E+00  0.00000000000E+00 -0.96492408456E+03  0.96492408458E+03  0.50400001928E-02 0.  1.
    10030    2    1    2    0    0  0.00000000000E+00  0.00000000000E+00  0.92322443591E+03  0.28530726051E+04  0.26995703233E+04 0.  0.
        1    1    3    3  502    0 -0.77863752870E+03 -0.14358467062E+03 -0.69372041842E+03  0.10526827526E+04  0.50400001928E-02 0.  1.
       -1    1    3    3    0  502  0.77863752870E+03  0.14358467062E+03  0.16169448543E+04  0.18003898524E+04  0.50400001928E-02 0. -1.
</event>
<event>
 5   0  0.1888149E-07  0.2694443E+04  0.7818609E-02  0.8336810E-01
       -1   -1    0    0    0  501  0.00000000000E+00  0.00000000000E+00  0.79823506494E+03  0.79823506495E+03  0.50400001928E-02 0.  1.
        1   -1    0    0  501    0  0.00000000000E+00  0.00000000000E+00 -0.22737741987E+04  0.22737741987E+04  0.50400001928E-02 0. -1.
    10030    2    1    2    0    0  0.00000000000E+00  0.00000000000E+00 -0.14755391338E+04  0.30720092637E+04  0.26944433898E+04 0.  0.
        1    1    3    3  502    0  0.40236253811E+03  0.11583236758E+04 -0.10154471194E+03  0.12304148400E+04  0.50400001928E-02 0.  1.
       -1    1    3    3    0  502 -0.40236253811E+03 -0.11583236758E+04 -0.13739944218E+04  0.18415944237E+04  0.50400001928E-02 0. -1.
</event>
<event>
 5   0  0.1937896E-07  0.2699138E+04  0.7818609E-02  0.8335285E-01
       -1   -1    0    0    0  501  0.00000000000E+00  0.00000000000E+00  0.11036626659E+04  0.11036626659E+04  0.50400001928E-02 0. -1.
        1   -1    0    0  501    0  0.00000000000E+00  0.00000000000E+00 -0.16502658391E+04  0.16502658391E+04  0.50400001928E-02 0.  1.
    10030    2    1    2    0    0  0.00000000000E+00  0.00000000000E+00 -0.54660317314E+03  0.27539285050E+04  0.26991382295E+04 0.  0.
        3    1    3    3  502    0 -0.56340352588E+03 -0.12085441110E+04 -0.60906801425E+02  0.13348078700E+04  0.10100000352E+00 0. -1.
       -3    1    3    3    0  502  0.56340352588E+03  0.12085441110E+04 -0.48569637172E+03  0.14191206350E+04  0.10100000352E+00 0.  1.
</event>
<event>
 5   0  0.4843887E-07  0.2702918E+04  0.7818609E-02  0.8334059E-01
        2   -1    0    0  501    0  0.00000000000E+00  0.00000000000E+00  0.16427638166E+04  0.16427638166E+04  0.25500000920E-02 0.  1.
       -2   -1    0    0    0  501  0.00000000000E+00  0.00000000000E+00 -0.11118097902E+04  0.11118097902E+04  0.25500000920E-02 0. -1.
    10030    2    1    2    0    0  0.00000000000E+00  0.00000000000E+00  0.53095402637E+03  0.27545736068E+04  0.27029176045E+04 0.  0.
        5    1    3    3  502    0  0.59999286698E+03  0.59999348566E+03  0.13374517815E+04  0.15839138174E+04  0.46999998093E+01 0.  1.
       -5    1    3    3    0  502 -0.59999286698E+03 -0.59999348566E+03 -0.80649775513E+03  0.11706597893E+04  0.46999998093E+01 0. -1.
</event>
<event>
 5   0  0.4992668E-07  0.2696272E+04  0.7818609E-02  0.8336216E-01
       -2   -1    0    0    0  501  0.00000000000E+00  0.00000000000E+00  0.91202179462E+03  0.91202179462E+03  0.25500000920E-02 0. -1.
        2   -1    0    0  501    0  0.00000000000E+00  0.00000000000E+00 -0.19927932550E+04  0.19927932550E+04  0.25500000920E-02 0.  1.
    10030    2    1    2    0    0  0.00000000000E+00  0.00000000000E+00 -0.10807714603E+04  0.29048150496E+04  0.26962721530E+04 0.  0.
        1    1    3    3  502    0 -0.19669367687E+03  0.66770122612E+03  0.70344968799E+03  0.98962356149E+03  0.50400001928E-02 0. -1.
       -1    1    3    3    0  502  0.19669367687E+03 -0.66770122612E+03 -0.17842211483E+04  0.19151914881E+04  0.50400001928E-02 0.  1.
</event>
<event>
 5   0  0.1965415E-07  0.2696408E+04  0.7818609E-02  0.8336171E-01
       -1   -1    0    0    0  501  0.00000000000E+00  0.00000000000E+00  0.12713554212E+04  0.12713554212E+04  0.50400001928E-02 0.  1.
        1   -1    0    0  501    0  0.00000000000E+00  0.00000000000E+00 -0.14296981907E+04  0.14296981907E+04  0.50400001928E-02 0. -1.
    10030    2    1    2    0    0  0.00000000000E+00  0.00000000000E+00 -0.15834276953E+03  0.27010536119E+04  0.26964083856E+04 0.  0.
        4    1    3    3  502    0 -0.10938272774E+03 -0.12649164724E+04  0.37512359655E+03  0.13238948557E+04  0.12699999809E+01 0.  1.
       -4    1    3    3    0  502  0.10938272774E+03  0.12649164724E+04 -0.53346636608E+03  0.13771587563E+04  0.12699999809E+01 0. -1.
</event>
<event>
 5   0  0.1937896E-07  0.2700067E+04  0.7818609E-02  0.8334983E-01
       -1   -1    0    0    0  501  0.00000000000E+00  0.00000000000E+00  0.14491559968E+04  0.14491559969E+04  0.50400001928E-02 0.  1.
        1   -1    0    0  501    0  0.00000000000E+00  0.00000000000E+00 -0.12576910828E+04  0.12576910828E+04  0.50400001928E-02 0. -1.
    10030    2    1    2    0    0  0.00000000000E+00  0.00000000000E+00  0.19146491402E+03  0.27068470797E+04  0.27000670917E+04 0.  0.
        3    1    3    3  502    0 -0.39444658004E+03  0.12061207377E+04  0.55762273577E+03  0.13860946808E+04  0.10100000352E+00 0.  1.
       -3    1    3    3    0  502  0.39444658004E+03 -0.12061207377E+04 -0.36615782175E+03  0.13207523989E+04  0.10100000352E+00 0. -1.
</event>
<event>
 5   0  0.4843887E-07  0.2700217E+04  0.7818609E-02  0.8334934E-01
       -2   -1    0    0    0  501  0.00000000000E+00  0.00000000000E+00  0.17235902468E+04  0.17235902468E+04  0.25500000920E-02 0. -1.
        2   -1    0    0  501    0  0.00000000000E+00  0.00000000000E+00 -0.10575561431E+04  0.10575561431E+04  0.25500000920E-02 0.  1.
    10030    2    1    2    0    0  0.00000000000E+00  0.00000000000E+00  0.66603410365E+03  0.27811463899E+04  0.27002173644E+04 0.  0.
        5    1    3    3  502    0 -0.49517230718E+03  0.54815533184E+03  0.14969764409E+04  0.16693203516E+04  0.46999998093E+01 0. -1.
       -5    1    3    3    0  502  0.49517230718E+03 -0.54815533184E+03 -0.83094233725E+03  0.11118260383E+04  0.46999998093E+01 0.  1.
</event>
<event>
 5   0  0.1971600E-07  0.2698016E+04  0.7818609E-02  0.8335649E-01
       -1   -1    0    0    0  501  0.00000000000E+00  0.00000000000E+00  0.78463788330E+03  0.78463788332E+03  0.50400001928E-02 0.  1.
        1   -1    0    0  501    0  0.00000000000E+00  0.00000000000E+00 -0.23193159613E+04  0.23193159613E+04  0.50400001928E-02 0. -1.
    10030    2    1    2    0    0  0.00000000000E+00  0.00000000000E+00 -0.15346780780E+04  0.31039538447E+04  0.26980164319E+04 0.  0.
        5    1    3    3  502    0  0.13074456743E+04 -0.25082184030E+03 -0.10180102604E+04  0.16759155012E+04  0.46999998093E+01 0. -1.
       -5    1    3    3    0  502 -0.13074456743E+04  0.25082184030E+03 -0.51666781764E+03  0.14280383435E+04  0.46999998093E+01 0.  1.
</event>
<event>
 5   0  0.1937896E-07  0.2699396E+04  0.7818609E-02  0.8335201E-01
       -1   -1    0    0    0  501  0.00000000000E+00  0.00000000000E+00  0.20962927436E+04  0.20962927436E+04  0.50400001928E-02 0.  1.
        1   -1    0    0  501    0  0.00000000000E+00  0.00000000000E+00 -0.86900269895E+03  0.86900269896E+03  0.50400001928E-02 0. -1.
    10030    2    1    2    0    0  0.00000000000E+00  0.00000000000E+00  0.12272900446E+04  0.29652954426E+04  0.26993955264E+04 0.  0.
        3    1    3    3  502    0 -0.60272871758E+02 -0.79092787927E+03 -0.58593101999E+03  0.98616170057E+03  0.10100000352E+00 0. -1.
       -3    1    3    3    0  502  0.60272871758E+02  0.79092787927E+03  0.18132210646E+04  0.19791337420E+04  0.10100000352E+00 0.  1.
</event>
<event>
 5   0  0.4983208E-07  0.2699828E+04  0.7818609E-02  0.8335061E-01
        2   -1    0    0  501    0  0.00000000000E+00  0.00000000000E+00  0.21775208771E+04  0.21775208771E+04  0.25500000920E-02 0. -1.
       -2   -1    0    0    0  501  0.00000000000E+00  0.00000000000E+00 -0.83685417720E+03  0.83685417720E+03  0.25500000920E-02 0.  1.
    10030    2    1    2    0    0  0.00000000000E+00  0.00000000000E+00  0.13406666999E+04  0.30143750543E+04  0.26998277293E+04 0.  0.
        4    1    3    3  502    0 -0.32344843040E+03  0.41989518229E+03  0.20564818220E+04  0.21236878180E+04  0.12699999809E+01 0. -1.
       -4    1    3    3    0  502  0.32344843040E+03 -0.41989518229E+03 -0.71581512202E+03  0.89068723637E+03  0.12699999809E+01 0.  1.
</event>
<event>
 5   0  0.4735120E-07  0.2699953E+04  0.7818609E-02  0.8335020E-01
       -2   -1    0    0    0  501  0.00000000000E+00  0.00000000000E+00  0.13107007573E+04  0.13107007573E+04  0.25500000920E-02 0. -1.
        2   -1    0    0  501    0  0.00000000000E+00  0.00000000000E+00 -0.13904286689E+04  0.13904286689E+04  0.25500000920E-02 0.  1.
    10030    2    1    2    0    0  0.00000000000E+00  0.00000000000E+00 -0.79727911537E+02  0.27011294262E+04  0.26999525250E+04 0.  0.
        2    1    3    3  502    0 -0.73677730528E+03 -0.82143813090E+03  0.73818611645E+03  0.13275993910E+04  0.25500000920E-02 0. -1.
       -2    1    3    3    0  502  0.73677730528E+03  0.82143813090E+03 -0.81791402799E+03  0.13735300352E+04  0.25500000920E-02 0.  1.
</event>
<event>
 5   0  0.1964242E-07  0.2699719E+04  0.7818609E-02  0.8335096E-01
       -1   -1    0    0    0  501  0.00000000000E+00  0.00000000000E+00  0.15768935138E+04  0.15768935138E+04  0.50400001928E-02 0. -1.
        1   -1    0    0  501    0  0.00000000000E+00  0.00000000000E+00 -0.11555126088E+04  0.11555126088E+04  0.50400001928E-02 0.  1.
    10030    2    1    2    0    0  0.00000000000E+00  0.00000000000E+00  0.42138090506E+03  0.27324061226E+04  0.26997187542E+04 0.  0.
        2    1    3    3  502    0  0.18069041586E+03  0.58229629174E+03 -0.10082176732E+04  0.11782278533E+04  0.25500000920E-02 0.  1.
       -2    1    3    3    0  502 -0.18069041586E+03 -0.58229629174E+03  0.14295985783E+04  0.15541782693E+04  0.25500000920E-02 0. -1.
</event>
<event>
 5   0  0.4735120E-07  0.2699702E+04  0.7818609E-02  0.8335102E-01
       -2   -1    0    0    0  501  0.00000000000E+00  0.00000000000E+00  0.74046313760E+03  0.74046313761E+03  0.25500000920E-02 0.  1.
        2   -1    0    0  501    0  0.00000000000E+00  0.00000000000E+00 -0.24607546294E+04  0.24607546294E+04  0.25500000920E-02 0. -1.
    10030    2    1    2    0    0  0.00000000000E+00  0.00000000000E+00 -0.17202914918E+04  0.32012177670E+04  0.26997022752E+04 0.  0.
        2    1    3    3  502    0 -0.80365337490E+03  0.23645869028E+03 -0.21152265189E+04  0.22750724572E+04  0.25500000920E-02 0. -1.
       -2    1    3    3    0  502  0.80365337490E+03 -0.23645869028E+03  0.39493502713E+03  0.92614530980E+03  0.25500000920E-02 0.  1.
</event>
<event>
 5   0  0.1964242E-07  0.2699576E+04  0.7818609E-02  0.8335143E-01
        1   -1    0    0  501    0  0.00000000000E+00  0.00000000000E+00  0.14906480156E+04  0.14906480156E+04  0.50400001928E-02 0. -1.
       -1   -1    0    0    0  501  0.00000000000E+00  0.00000000000E+00 -0.12222387606E+04  0.12222387606E+04  0.50400001928E-02 0.  1.
    10030    2    1    2    0    0  0.00000000000E+00  0.00000000000E+00  0.26840925501E+03  0.27128867762E+04  0.26995761023E+04 0.  0.
        2    1    3    3  502    0 -0.11987433456E+04  0.51201180595E+03  0.48634082445E+03  0.13912832550E+04  0.25500000920E-02 0. -1.
       -2    1    3    3    0  502  0.11987433456E+04 -0.51201180595E+03 -0.21793156945E+03  0.13216035211E+04  0.25500000920E-02 0.  1.
</event>
<event>
 5   0  0.1888149E-07  0.2699672E+04  0.7818609E-02  0.8335111E-01
        1   -1    0    0  501    0  0.00000000000E+00  0.00000000000E+00  0.17324275861E+04  0.17324275861E+04  0.50400001928E-02 0.  1.
       -1   -1    0    0    0  501  0.00000000000E+00  0.00000000000E+00 -0.10517363328E+04  0.10517363328E+04  0.50400001928E-02 0. -1.
    10030    2    1    2    0    0  0.00000000000E+00  0.00000000000E+00  0.68069125332E+03  0.27841639189E+04  0.26996718587E+04 0.  0.
        1    1    3    3  502    0  0.39640067222E+03 -0.63552049365E+03  0.14984502047E+04  0.16752232111E+04  0.50400001928E-02 0.  1.
       -1    1    3    3    0  502 -0.39640067222E+03  0.63552049365E+03 -0.81775895143E+03  0.11089407078E+04  0.50400001928E-02 0. -1.
</event>
<event>
 5   0  0.4735120E-07  0.2699896E+04  0.7818609E-02  0.8335039E-01
        2   -1    0    0  501    0  0.00000000000E+00  0.00000000000E+00  0.19633393417E+04  0.19633393417E+04  0.25500000920E-02 0. -1.
       -2   -1    0    0    0  501  0.00000000000E+00  0.00000000000E+00 -0.92819377539E+03  0.92819377540E+03  0.25500000920E-02 0.  1.
    10030    2    1    2    0    0  0.00000000000E+00  0.00000000000E+00  0.10351455663E+04  0.28915331171E+04  0.26998958172E+04 0.  0.
        2    1    3    3  502    0 -0.10666441576E+03  0.16215067951E+02  0.19587145653E+04  0.19616837090E+04  0.25500000920E-02 0. -1.
       -2    1    3    3    0  502  0.10666441576E+03 -0.16215067951E+02 -0.92356899892E+03  0.92984940812E+03  0.25500000920E-02 0.  1.
</event>
<event>
 5   0  0.4983208E-07  0.2701220E+04  0.7818609E-02  0.8334609E-01
       -2   -1    0    0    0  501  0.00000000000E+00  0.00000000000E+00  0.81891071643E+03  0.81891071644E+03  0.25500000920E-02 0.  1.
        2   -1    0    0  501    0  0.00000000000E+00  0.00000000000E+00 -0.22275288995E+04  0.22275288995E+04  0.25500000920E-02 0. -1.
    10030    2    1    2    0    0  0.00000000000E+00  0.00000000000E+00 -0.14086181830E+04  0.30464396159E+04  0.27012199370E+04 0.  0.
        4    1    3    3  502    0 -0.11693105868E+04  0.65859825046E+03 -0.53287300260E+03  0.14439508834E+04  0.12699999809E+01 0.  1.
       -4    1    3    3    0  502  0.11693105868E+04 -0.65859825046E+03 -0.87574518045E+03  0.16024887325E+04  0.12699999809E+01 0. -1.
</event>
<event>
 5   0  0.4992668E-07  0.2700715E+04  0.7818609E-02  0.8334773E-01
       -2   -1    0    0    0  501  0.00000000000E+00  0.00000000000E+00  0.13934252128E+04  0.13934252128E+04  0.25500000920E-02 0.  1.
        2   -1    0    0  501    0  0.00000000000E+00  0.00000000000E+00 -0.13086205350E+04  0.13086205350E+04  0.25500000920E-02 0. -1.
    10030    2    1    2    0    0  0.00000000000E+00  0.00000000000E+00  0.84804677866E+02  0.27020457478E+04  0.27007146073E+04 0.  0.
        1    1    3    3  502    0 -0.10949513605E+04 -0.43591476556E+03  0.70191210328E+03  0.13717218251E+04  0.50400001928E-02 0.  1.
       -1    1    3    3    0  502  0.10949513605E+04  0.43591476556E+03 -0.61710742542E+03  0.13303239227E+04  0.50400001928E-02 0. -1.
</event>
<event>
 5   0  0.4992668E-07  0.2701611E+04  0.7818609E-02  0.8334483E-01
        2   -1    0    0  501    0  0.00000000000E+00  0.00000000000E+00  0.14433098281E+04  0.14433098281E+04  0.25500000920E-02 0.  1.
       -2   -1    0    0    0  501  0.00000000000E+00  0.00000000000E+00 -0.12642295254E+04  0.12642295254E+04  0.25500000920E-02 0. -1.
    10030    2    1    2    0    0  0.00000000000E+00  0.00000000000E+00  0.17908030262E+03  0.27075393535E+04  0.27016105559E+04 0.  0.
        1    1    3    3  502    0  0.59411645620E+03  0.19742979554E+03  0.12891306015E+04  0.14331122062E+04  0.50400001928E-02 0.  1.
       -1    1    3    3    0  502 -0.59411645620E+03 -0.19742979554E+03 -0.11100502989E+04  0.12744271473E+04  0.50400001928E-02 0. -1.
</event>
<event>
 5   0  0.1964242E-07  0.2699342E+04  0.7818609E-02  0.8335218E-01
        1   -1    0    0  501    0  0.00000000000E+00  0.00000000000E+00  0.16733948561E+04  0.16733948561E+04  0.50400001928E-02 0.  1.
       -1   -1    0    0    0  501  0.00000000000E+00  0.00000000000E+00 -0.10885728096E+04  0.10885728096E+04  0.50400001928E-02 0. -1.
    10030    2    1    2    0    0  0.00000000000E+00  0.00000000000E+00  0.58482204644E+03  0.27619676657E+04  0.26993422459E+04 0.  0.
        2    1    3    3  502    0  0.93407587288E+02 -0.10184295677E+04 -0.60875390361E+03  0.11901701882E+04  0.25500000920E-02 0. -1.
       -2    1    3    3    0  502 -0.93407587288E+02  0.10184295677E+04  0.11935759501E+04  0.15717974775E+04  0.25500000920E-02 0.  1.
</event>
<event>
 5   0  0.1964242E-07  0.2689590E+04  0.7818609E-02  0.8338391E-01
        1   -1    0    0  501    0  0.00000000000E+00  0.00000000000E+00  0.14635291175E+04  0.14635291175E+04  0.50400001928E-02 0.  1.
       -1   -1    0    0    0  501  0.00000000000E+00  0.00000000000E+00 -0.12356932357E+04  0.12356932358E+04  0.50400001928E-02 0. -1.
    10030    2    1    2    0    0  0.00000000000E+00  0.00000000000E+00  0.22783588174E+03  0.26992223532E+04  0.26895895827E+04 0.  0.
        2    1    3    3  502    0 -0.43228030134E+03  0.10630181834E+04 -0.58973449173E+03  0.12902173026E+04  0.25500000920E-02 0.  1.
       -2    1    3    3    0  502  0.43228030134E+03 -0.10630181834E+04  0.81757037347E+03  0.14090050506E+04  0.25500000920E-02 0. -1.
</event>
<event>
 5   0  0.4992668E-07  0.2699942E+04  0.7818609E-02  0.8335024E-01
       -2   -1    0    0    0  501  0.00000000000E+00  0.00000000000E+00  0.16841187924E+04  0.16841187924E+04  0.25500000920E-02 0. -1.
        2   -1    0    0  501    0  0.00000000000E+00  0.00000000000E+00 -0.10821221994E+04  0.10821221994E+04  0.25500000920E-02 0.  1.
    10030    2    1    2    0    0  0.00000000000E+00  0.00000000000E+00  0.60199659297E+03  0.27662409918E+04  0.26999424673E+04 0.  0.
        1    1    3    3  502    0  0.21575622098E+03 -0.12260320221E+04  0.83604496020E+03  0.14995587490E+04  0.50400001928E-02 0. -1.
       -1    1    3    3    0  502 -0.21575622098E+03  0.12260320221E+04 -0.23404836723E+03  0.12666822429E+04  0.50400001928E-02 0.  1.
</event>
<event>
 5   0  0.4843887E-07  0.2699227E+04  0.7818609E-02  0.8335256E-01
        2   -1    0    0  501    0  0.00000000000E+00  0.00000000000E+00  0.17269093472E+04  0.17269093472E+04  0.25500000920E-02 0.  1.
       -2   -1    0    0    0  501  0.00000000000E+00  0.00000000000E+00 -0.10547492936E+04  0.10547492936E+04  0.25500000920E-02 0. -1.
    10030    2    1    2    0    0  0.00000000000E+00  0.00000000000E+00  0.67216005361E+03  0.27816586409E+04  0.26992268627E+04 0.  0.
        5    1    3    3  502    0  0.44746954972E+03 -0.12727497940E+04  0.37342605837E+03  0.13998536163E+04  0.46999998093E+01 0. -1.
       -5    1    3    3    0  502 -0.44746954972E+03  0.12727497940E+04  0.29873399524E+03  0.13818050246E+04  0.46999998093E+01 0.  1.
</event>
<event>
 5   0  0.4983208E-07  0.2699685E+04  0.7818609E-02  0.8335107E-01
       -2   -1    0    0    0  501  0.00000000000E+00  0.00000000000E+00  0.10647728312E+04  0.10647728312E+04  0.25500000920E-02 0.  1.
        2   -1    0    0  501    0  0.00000000000E+00  0.00000000000E+00 -0.17112329492E+04  0.17112329492E+04  0.25500000920E-02 0. -1.
    10030    2    1    2    0    0  0.00000000000E+00  0.00000000000E+00 -0.64646011798E+03  0.27760057805E+04  0.26996846870E+04 0.  0.
        4    1    3    3  502    0 -0.60311107236E+03 -0.95927234324E+03 -0.10775393381E+04  0.15636620582E+04  0.12699999809E+01 0.  1.
       -4    1    3    3    0  502  0.60311107236E+03  0.95927234324E+03  0.43107922011E+03  0.12123437223E+04  0.12699999809E+01 0. -1.
</event>
<event>
 5   0  0.1888149E-07  0.2697378E+04  0.7818609E-02  0.8335856E-01
        1   -1    0    0  501    0  0.00000000000E+00  0.00000000000E+00  0.19626054599E+04  0.19626054599E+04  0.50400001928E-02 0.  1.
       -1   -1    0    0    0  501  0.00000000000E+00  0.00000000000E+00 -0.92680947983E+03  0.92680947985E+03  0.50400001928E-02 0. -1.
    10030    2    1    2    0    0  0.00000000000E+00  0.00000000000E+00  0.10357959800E+04  0.28894149397E+04  0.26973775008E+04 0.  0.
        1    1    3    3  502    0  0.11554430982E+04 -0.38127980661E+03 -0.10536607615E+03  0.12212800883E+04  0.50400001928E-02 0.  1.
       -1    1    3    3    0  502 -0.11554430982E+04  0.38127980661E+03  0.11411620562E+04  0.16681348514E+04  0.50400001928E-02 0. -1.
</event>
<event>
 5   0  0.5043890E-07  0.2700710E+04  0.7818609E-02  0.8334774E-01
        2   -1    0    0  501    0  0.00000000000E+00  0.00000000000E+00  0.15645797173E+04  0.15645797173E+04  0.25500000920E-02 0. -1.
       -2   -1    0    0    0  501  0.00000000000E+00  0.00000000000E+00 -0.11654626457E+04  0.11654626457E+04  0.25500000920E-02 0.  1.
    10030    2    1    2    0    0  0.00000000000E+00  0.00000000000E+00  0.39911707156E+03  0.27300423630E+04  0.27007104375E+04 0.  0.
        3    1    3    3  502    0  0.97423541546E+03  0.91749272500E+03  0.38188280642E+03  0.13916759800E+04  0.10100000352E+00 0. -1.
       -3    1    3    3    0  502 -0.97423541546E+03 -0.91749272500E+03  0.17234265140E+02  0.13383663830E+04  0.10100000352E+00 0.  1.
</event>
<event>
 5   0  0.4992668E-07  0.2699870E+04  0.7818609E-02  0.8335047E-01
       -2   -1    0    0    0  501  0.00000000000E+00  0.00000000000E+00  0.13430539653E+04  0.13430539653E+04  0.25500000920E-02 0. -1.
        2   -1    0    0  501    0  0.00000000000E+00  0.00000000000E+00 -0.13568508812E+04  0.13568508812E+04  0.25500000920E-02 0.  1.
    10030    2    1    2    0    0  0.00000000000E+00  0.00000000000E+00 -0.13796915927E+02  0.26999048465E+04  0.26998695941E+04 0.  0.
        1    1    3    3  502    0  0.49685507239E+03  0.62190123085E+03 -0.10971869035E+04  0.13555239596E+04  0.50400001928E-02 0.  1.
       -1    1    3    3    0  502 -0.49685507239E+03 -0.62190123085E+03  0.10833899875E+04  0.13443808869E+04  0.50400001928E-02 0. -1.
</event>
<event>
 5   0  0.1965415E-07  0.2699371E+04  0.7818609E-02  0.8335209E-01
       -1   -1    0    0    0  501  0.00000000000E+00  0.00000000000E+00  0.14295297824E+04  0.14295297824E+04  0.50400001928E-02 0. -1.
        1   -1    0    0  501    0  0.00000000000E+00  0.00000000000E+00 -0.12743007965E+04  0.12743007965E+04  0.50400001928E-02 0.  1.
    10030    2    1    2    0    0  0.00000000000E+00  0.00000000000E+00  0.15522898590E+03  0.27038305790E+04  0.26993709937E+04 0.  0.
        4    1    3    3  502    0 -0.11179810361E+04  0.29599087048E+03  0.77457804443E+03  0.13919285012E+04  0.12699999809E+01 0. -1.
       -4    1    3    3    0  502  0.11179810361E+04 -0.29599087048E+03 -0.61934905853E+03  0.13119020778E+04  0.12699999809E+01 0.  1.
</event>
<event>
 5   0  0.5043890E-07  0.2702908E+04  0.7818609E-02  0.8334062E-01
        2   -1    0    0  501    0  0.00000000000E+00  0.00000000000E+00  0.12346531094E+04  0.12346531094E+04  0.25500000920E-02 0. -1.
       -2   -1    0    0    0  501  0.00000000000E+00  0.00000000000E+00 -0.14793042505E+04  0.14793042505E+04  0.25500000920E-02 0.  1.
    10030    2    1    2    0    0  0.00000000000E+00  0.00000000000E+00 -0.24465114107E+03  0.27139573600E+04  0.27029077622E+04 0.  0.
        3    1    3    3  502    0  0.79230708317E+03  0.90919404360E+03  0.49012143401E+03  0.13017693164E+04  0.10100000352E+00 0. -1.
       -3    1    3    3    0  502 -0.79230708317E+03 -0.90919404360E+03 -0.73477257508E+03  0.14121880435E+04  0.10100000352E+00 0.  1.
</event>
<event>
 5   0  0.4992668E-07  0.2702169E+04  0.7818609E-02  0.8334302E-01
        2   -1    0    0  501    0  0.00000000000E+00  0.00000000000E+00  0.29542541368E+04  0.29542541368E+04  0.25500000920E-02 0.  1.
       -2   -1    0    0    0  501  0.00000000000E+00  0.00000000000E+00 -0.61789838233E+03  0.61789838234E+03  0.25500000920E-02 0. -1.
    10030    2    1    2    0    0  0.00000000000E+00  0.00000000000E+00  0.23363557545E+04  0.35721525192E+04  0.27021686492E+04 0.  0.
        1    1    3    3  502    0  0.59785781147E+03 -0.83189125554E+03  0.36901306505E+01  0.10244465046E+04  0.50400001928E-02 0. -1.
       -1    1    3    3    0  502 -0.59785781147E+03  0.83189125554E+03  0.23326656239E+04  0.25477060145E+04  0.50400001928E-02 0.  1.
</event>
<event>
 5   0  0.1964242E-07  0.2699623E+04  0.7818609E-02  0.8335127E-01
        1   -1    0    0  501    0  0.00000000000E+00  0.00000000000E+00  0.11214214174E+04  0.11214214174E+04  0.50400001928E-02 0. -1.
       -1   -1    0    0    0  501  0.00000000000E+00  0.00000000000E+00 -0.16247160269E+04  0.16247160269E+04  0.50400001928E-02 0.  1.
    10030    2    1    2    0    0  0.00000000000E+00  0.00000000000E+00 -0.50329460954E+03  0.27461374443E+04  0.26996231957E+04 0.  0.
        2    1    3    3  502    0 -0.12377630362E+04 -0.16965461014E+03  0.26818736296E+03  0.12777967296E+04  0.25500000920E-02 0. -1.
       -2    1    3    3    0  502  0.12377630362E+04  0.16965461014E+03 -0.77148197250E+03  0.14683407147E+04  0.25500000920E-02 0.  1.
</event>
<event>
 5   0  0.4843887E-07  0.2696876E+04  0.7818609E-02  0.8336019E-01
       -2   -1    0    0    0  501  0.00000000000E+00  0.00000000000E+00  0.13777061487E+04  0.13777061487E+04  0.25500000920E-02 0.  1.
        2   -1    0    0  501    0  0.00000000000E+00  0.00000000000E+00 -0.13197915251E+04  0.13197915251E+04  0.25500000920E-02 0. -1.
    10030    2    1    2    0    0  0.00000000000E+00  0.00000000000E+00  0.57914623625E+02  0.26974976738E+04  0.26968758956E+04 0.  0.
        5    1    3    3  502    0 -0.93168137283E+03 -0.31498644547E+03 -0.89376075185E+03  0.13289383029E+04  0.46999998093E+01 0. -1.
       -5    1    3    3    0  502  0.93168137283E+03  0.31498644547E+03  0.95167537548E+03  0.13685593709E+04  0.46999998093E+01 0.  1.
</event>
<event>
 5   0  0.1888149E-07  0.2700684E+04  0.7818609E-02  0.8334783E-01
       -1   -1    0    0    0  501  0.00000000000E+00  0.00000000000E+00  0.10984544386E+04  0.10984544386E+04  0.50400001928E-02 0.  1.
        1   -1    0    0  501    0  0.00000000000E+00  0.00000000000E+00 -0.16599901995E+04  0.16599901995E+04  0.50400001928E-02 0. -1.
    10030    2    1    2    0    0  0.00000000000E+00  0.00000000000E+00 -0.56153576094E+03  0.27584446381E+04  0.27006840635E+04 0.  0.
        1    1    3    3  502    0 -0.13459489407E+04 -0.45537825361E+02 -0.17980355332E+03  0.13586690408E+04  0.50400001928E-02 0.  1.
       -1    1    3    3    0  502  0.13459489407E+04  0.45537825361E+02 -0.38173220762E+03  0.13997755973E+04  0.50400001928E-02 0. -1.
</event>
<event>
 5   0  0.4992668E-07  0.2700129E+04  0.7818609E-02  0.8334963E-01
       -2   -1    0    0    0  501  0.00000000000E+00  0.00000000000E+00  0.15305377849E+04  0.15305377849E+04  0.25500000920E-02 0. -1.
        2   -1    0    0  501    0  0.00000000000E+00  0.00000000000E+00 -0.11908719660E+04  0.11908719660E+04  0.25500000920E-02 0.  1.
    10030    2    1    2    0    0  0.00000000000E+00  0.00000000000E+00  0.33966581887E+03  0.27214097509E+04  0.27001292865E+04 0.  0.
        1    1    3    3  502    0 -0.58465198564E+03 -0.12152537632E+04  0.10597038607E+03  0.13527340374E+04  0.50400001928E-02 0.  1.
       -1    1    3    3    0  502  0.58465198564E+03  0.12152537632E+04  0.23369543280E+03  0.13686757135E+04  0.50400001928E-02 0. -1.
</event>
<event>
 5   0  0.4735120E-07  0.2698902E+04  0.7818609E-02  0.8335361E-01
       -2   -1    0    0    0  501  0.00000000000E+00  0.00000000000E+00  0.17260651076E+04  0.17260651076E+04  0.25500000920E-02 0.  1.
        2   -1    0    0  501    0  0.00000000000E+00  0.00000000000E+00 -0.10550113282E+04  0.10550113282E+04  0.25500000920E-02 0. -1.
    10030    2    1    2    0    0  0.00000000000E+00  0.00000000000E+00  0.67105377933E+03  0.27810764358E+04  0.26989021781E+04 0.  0.
        2    1    3    3  502    0 -0.57956383757E+03  0.12431104737E+02 -0.92016920507E+03  0.10875477645E+04  0.25500000920E-02 0. -1.
       -2    1    3    3    0  502  0.57956383757E+03 -0.12431104737E+02  0.15912229844E+04  0.16935286712E+04  0.25500000920E-02 0.  1.
</event>
<event>
 5   0  0.1641625E-07  0.2700018E+04  0.7818609E-02  0.8334999E-01
       -3   -1    0    0    0  501  0.00000000000E+00  0.00000000000E+00  0.24233042449E+04  0.24233042470E+04  0.10100000352E+00 0. -1.
        3   -1    0    0  501    0  0.00000000000E+00  0.00000000000E+00 -0.75208216088E+03  0.75208216766E+03  0.10100000352E+00 0.  1.
    10030    2    1    2    0    0  0.00000000000E+00  0.00000000000E+00  0.16712220840E+04  0.31753864147E+04  0.27000177089E+04 0.  0.
        2    1    3    3  502    0  0.51761816256E-01  0.46002460041E+03 -0.65706111490E+03  0.80209222935E+03  0.25500000920E-02 0.  1.
       -2    1    3    3    0  502 -0.51761816256E-01 -0.46002460041E+03  0.23282831989E+04  0.23732941853E+04  0.25500000920E-02 0. -1.
</event>
<event>
 5   0  0.1937896E-07  0.2700680E+04  0.7818609E-02  0.8334784E-01
       -1   -1    0    0    0  501  0.00000000000E+00  0.00000000000E+00  0.81401474432E+03  0.81401474433E+03  0.50400001928E-02 0.  1.
        1   -1    0    0  501    0  0.00000000000E+00  0.00000000000E+00 -0.22400316180E+04  0.22400316180E+04  0.50400001928E-02 0. -1.
    10030    2    1    2    0    0  0.00000000000E+00  0.00000000000E+00 -0.14260168737E+04  0.30540463623E+04  0.27006804808E+04 0.  0.
        3    1    3    3  502    0 -0.55696394897E+03 -0.12057494840E+04 -0.98856804194E+03  0.16556894160E+04  0.10100000352E+00 0. -1.
       -3    1    3    3    0  502  0.55696394897E+03  0.12057494840E+04 -0.43744883172E+03  0.13983569463E+04  0.10100000352E+00 0.  1.
</event>
<event>
 5   0  0.5043890E-07  0.2699666E+04  0.7818609E-02  0.8335113E-01
        2   -1    0    0  501    0  0.00000000000E+00  0.00000000000E+00  0.11761489792E+04  0.11761489792E+04  0.25500000920E-02 0. -1.
       -2   -1    0    0    0  501  0.00000000000E+00  0.00000000000E+00 -0.15491648391E+04  0.15491648391E+04  0.25500000920E-02 0.  1.
    10030    2    1    2    0    0  0.00000000000E+00  0.00000000000E+00 -0.37301585991E+03  0.27253138183E+04  0.26996656416E+04 0.  0.
        3    1    3    3  502    0 -0.30911807059E+03 -0.11350463243E+04  0.48172077875E+03  0.12711959167E+04  0.10100000352E+00 0. -1.
       -3    1    3    3    0  502  0.30911807059E+03  0.11350463243E+04 -0.85473663866E+03  0.14541179015E+04  0.10100000352E+00 0.  1.
</event>
<event>
 5   0  0.4843887E-07  0.2701327E+04  0.7818609E-02  0.8334575E-01
        2   -1    0    0  501    0  0.00000000000E+00  0.00000000000E+00  0.11725283546E+04  0.11725283546E+04  0.25500000920E-02 0.  1.
       -2   -1    0    0    0  501  0.00000000000E+00  0.00000000000E+00 -0.15558612112E+04  0.15558612112E+04  0.25500000920E-02 0. -1.
    10030    2    1    2    0    0  0.00000000000E+00  0.00000000000E+00 -0.38333285665E+03  0.27283895658E+04  0.27013266266E+04 0.  0.
        5    1    3    3  502    0  0.22673370513E+03 -0.13257044438E+04 -0.31687958782E+03  0.13817869621E+04  0.46999998093E+01 0.  1.
       -5    1    3    3    0  502 -0.22673370513E+03  0.13257044438E+04 -0.66453268827E+02  0.13466026037E+04  0.46999998093E+01 0. -1.
</event>
<event>
 5   0  0.1641625E-07  0.2699272E+04  0.7818609E-02  0.8335241E-01
       -3   -1    0    0    0  501  0.00000000000E+00  0.00000000000E+00  0.11828760515E+04  0.11828760558E+04  0.10100000352E+00 0. -1.
        3   -1    0    0  501    0  0.00000000000E+00  0.00000000000E+00 -0.15399055658E+04  0.15399055691E+04  0.10100000352E+00 0.  1.
    10030    2    1    2    0    0  0.00000000000E+00  0.00000000000E+00 -0.35702951430E+03  0.27227816248E+04  0.26992720690E+04 0.  0.
        2    1    3    3  502    0  0.91903403060E+03 -0.89224849874E+03 -0.60740793670E+03  0.14176301826E+04  0.25500000920E-02 0. -1.
       -2    1    3    3    0  502 -0.91903403060E+03  0.89224849874E+03  0.25037842240E+03  0.13051514423E+04  0.25500000920E-02 0.  1.
</event>
<event>
 5   0  0.4992668E-07  0.2699627E+04  0.7818609E-02  0.8335126E-01
       -2   -1    0    0    0  501  0.00000000000E+00  0.00000000000E+00  0.88631545907E+03  0.88631545908E+03  0.25500000920E-02 0.  1.
        2   -1    0    0  501    0  0.00000000000E+00  0.00000000000E+00 -0.20556982227E+04  0.20556982227E+04  0.25500000920E-02 0. -1.
    10030    2    1    2    0    0  0.00000000000E+00  0.00000000000E+00 -0.11693827637E+04  0.29420136818E+04  0.26996274662E+04 0.  0.
        1    1    3    3  502    0  0.11089228717E+04  0.28835148428E+03 -0.13622975826E+04  0.17800874185E+04  0.50400001928E-02 0. -1.
       -1    1    3    3    0  502 -0.11089228717E+04 -0.28835148428E+03  0.19291481896E+03  0.11619262633E+04  0.50400001928E-02 0.  1.
</event>
<event>
 5   0  0.1888149E-07  0.2698704E+04  0.7818609E-02  0.8335425E-01
        1   -1    0    0  501    0  0.00000000000E+00  0.00000000000E+00  0.15796983033E+04  0.15796983033E+04  0.50400001928E-02 0. -1.
       -1   -1    0    0    0  501  0.00000000000E+00  0.00000000000E+00 -0.11525943168E+04  0.11525943168E+04  0.50400001928E-02 0.  1.
    10030    2    1    2    0    0  0.00000000000E+00  0.00000000000E+00  0.42710398649E+03  0.27322926201E+04  0.26987043459E+04 0.  0.
        1    1    3    3  502    0 -0.16793989579E+03 -0.59520101407E+03  0.14277628428E+04  0.15559481967E+04  0.50400001928E-02 0. -1.
       -1    1    3    3    0  502  0.16793989579E+03  0.59520101407E+03 -0.10006588563E+04  0.11763444234E+04  0.50400001928E-02 0.  1.
</event>
<event>
 5   0  0.5043890E-07  0.2699862E+04  0.7818609E-02  0.8335050E-01
        2   -1    0    0  501    0  0.00000000000E+00  0.00000000000E+00  0.14912312023E+04  0.14912312023E+04  0.25500000920E-02 0. -1.
       -2   -1    0    0    0  501  0.00000000000E+00  0.00000000000E+00 -0.12220196938E+04  0.12220196938E+04  0.25500000920E-02 0.  1.
    10030    2    1    2    0    0  0.00000000000E+00  0.00000000000E+00  0.26921150851E+03  0.27132508961E+04  0.26998621425E+04 0.  0.
        3    1    3    3  502    0  0.38758958749E+03 -0.47420650689E+03  0.13435745780E+04  0.14765805621E+04  0.10100000352E+00 0. -1.
       -3    1    3    3    0  502 -0.38758958749E+03  0.47420650689E+03 -0.10743630695E+04  0.12366703339E+04  0.10100000352E+00 0.  1.
</event>
<event>
 5   0  0.4983208E-07  0.2704221E+04  0.7818609E-02  0.8333637E-01
       -2   -1    0    0    0  501  0.00000000000E+00  0.00000000000E+00  0.14213028419E+04  0.14213028419E+04  0.25500000920E-02 0.  1.
        2   -1    0    0  501    0  0.00000000000E+00  0.00000000000E+00 -0.12862862421E+04  0.12862862421E+04  0.25500000920E-02 0. -1.
    10030    2    1    2    0    0  0.00000000000E+00  0.00000000000E+00  0.13501659973E+03  0.27075890840E+04  0.27042206207E+04 0.  0.
        4    1    3    3  502    0 -0.11229563035E+04 -0.73443380933E+03  0.23437963111E+03  0.13621157455E+04  0.12699999809E+01 0.  1.
       -4    1    3    3    0  502  0.11229563035E+04  0.73443380933E+03 -0.99363031381E+02  0.13454733385E+04  0.12699999809E+01 0. -1.
</event>
<event>
 5   0  0.4735120E-07  0.2700308E+04  0.7818609E-02  0.8334905E-01
        2   -1    0    0  501    0  0.00000000000E+00  0.00000000000E+00  0.19656254739E+04  0.19656254739E+04  0.25500000920E-02 0.  1.
       -2   -1    0    0    0  501  0.00000000000E+00  0.00000000000E+00 -0.92739757066E+03  0.92739757067E+03  0.25500000920E-02 0. -1.
    10030    2    1    2    0    0  0.00000000000E+00  0.00000000000E+00  0.10382279032E+04  0.28930230445E+04  0.27003083448E+04 0.  0.
        2    1    3    3  502    0 -0.53723509078E+03 -0.11993650812E+04  0.85075052726E+03  0.15655269401E+04  0.25500000920E-02 0.  1.
       -2    1    3    3    0  502  0.53723509078E+03  0.11993650812E+04  0.18747737595E+03  0.13274961044E+04  0.25500000920E-02 0. -1.
</event>
<event>
 5   0  0.4735120E-07  0.2699967E+04  0.7818609E-02  0.8335016E-01
        2   -1    0    0  501    0  0.00000000000E+00  0.00000000000E+00  0.20200198236E+04  0.20200198236E+04  0.25500000920E-02 0.  1.
       -2   -1    0    0    0  501  0.00000000000E+00  0.00000000000E+00 -0.90219693072E+03  0.90219693072E+03  0.25500000920E-02 0. -1.
    10030    2    1    2    0    0  0.00000000000E+00  0.00000000000E+00  0.11178228929E+04  0.29222167543E+04  0.26999671737E+04 0.  0.
        2    1    3    3  502    0  0.12989020582E+04  0.12357715044E+03  0.18392723272E+03  0.13176672933E+04  0.25500000920E-02 0. -1.
       -2    1    3    3    0  502 -0.12989020582E+04 -0.12357715044E+03  0.93389566014E+03  0.16045494610E+04  0.25500000920E-02 0.  1.
</event>
<event>
 5   0  0.4992668E-07  0.2699324E+04  0.7818609E-02  0.8335224E-01
       -2   -1    0    0    0  501  0.00000000000E+00  0.00000000000E+00  0.14832671955E+04  0.14832671955E+04  0.25500000920E-02 0.  1.
        2   -1    0    0  501    0  0.00000000000E+00  0.00000000000E+00 -0.12280916288E+04  0.12280916288E+04  0.25500000920E-02 0. -1.
    10030    2    1    2    0    0  0.00000000000E+00  0.00000000000E+00  0.25517556666E+03  0.27113588243E+04  0.26993243792E+04 0.  0.
        1    1    3    3  502    0 -0.40854837637E+02 -0.56878018586E+02  0.14814410306E+04  0.14830953286E+04  0.50400001928E-02 0.  1.
       -1    1    3    3    0  502  0.40854837637E+02  0.56878018586E+02 -0.12262654639E+04  0.12282634957E+04  0.50400001928E-02 0. -1.
</event>
<event>
 5   0  0.1641625E-07  0.2699384E+04  0.7818609E-02  0.8335205E-01
       -3   -1    0    0    0  501  0.00000000000E+00  0.00000000000E+00  0.11757357920E+04  0.11757357963E+04  0.10100000352E+00 0. -1.
        3   -1    0    0  501    0  0.00000000000E+00  0.00000000000E+00 -0.15493854020E+04  0.15493854052E+04  0.10100000352E+00 0.  1.
    10030    2    1    2    0    0  0.00000000000E+00  0.00000000000E+00 -0.37364960997E+03  0.27251212016E+04  0.26993835467E+04 0.  0.
        2    1    3    3  502    0 -0.37956119678E+02  0.12172888307E+04 -0.77412336681E+03  0.14430868829E+04  0.25500000920E-02 0.  1.
       -2    1    3    3    0  502  0.37956119678E+02 -0.12172888307E+04  0.40047375684E+03  0.12820343187E+04  0.25500000920E-02 0. -1.
</event>
<event>
 5   0  0.1888149E-07  0.2700372E+04  0.7818609E-02  0.8334884E-01
        1   -1    0    0  501    0  0.00000000000E+00  0.00000000000E+00  0.16925572538E+04  0.16925572538E+04  0.50400001928E-02 0. -1.
       -1   -1    0    0    0  501  0.00000000000E+00  0.00000000000E+00 -0.10770700929E+04  0.10770700929E+04  0.50400001928E-02 0.  1.
    10030    2    1    2    0    0  0.00000000000E+00  0.00000000000E+00  0.61548716093E+03  0.27696273468E+04  0.27003724178E+04 0.  0.
        1    1    3    3  502    0  0.32624903778E+03 -0.10403929547E+04 -0.50901292024E+03  0.12033079772E+04  0.50400001928E-02 0.  1.
       -1    1    3    3    0  502 -0.32624903778E+03  0.10403929547E+04  0.11245000812E+04  0.15663193696E+04  0.50400001928E-02 0. -1.
</event>
<event>
 5   0  0.4992668E-07  0.2700627E+04  0.7818609E-02  0.8334801E-01
       -2   -1    0    0    0  501  0.00000000000E+00  0.00000000000E+00  0.11056612978E+04  0.11056612978E+04  0.25500000920E-02 0. -1.
        2   -1    0    0  501    0  0.00000000000E+00  0.00000000000E+00 -0.16491007014E+04  0.16491007014E+04  0.25500000920E-02 0.  1.
    10030    2    1    2    0    0  0.00000000000E+00  0.00000000000E+00 -0.54343940353E+03  0.27547619992E+04  0.27006272025E+04 0.  0.
        1    1    3    3  502    0  0.13063968383E+04  0.25372755239E+03 -0.38451491387E+02  0.13313635443E+04  0.50400001928E-02 0. -1.
       -1    1    3    3    0  502 -0.13063968383E+04 -0.25372755239E+03 -0.50498791215E+03  0.14233984549E+04  0.50400001928E-02 0.  1.
</event>
<event>
 5   0  0.1964242E-07  0.2700338E+04  0.7818609E-02  0.8334895E-01
       -1   -1    0    0    0  501  0.00000000000E+00  0.00000000000E+00  0.87651176261E+03  0.87651176262E+03  0.50400001928E-02 0.  1.
        1   -1    0    0  501    0  0.00000000000E+00  0.00000000000E+00 -0.20797851780E+04  0.20797851780E+04  0.50400001928E-02 0. -1.
    10030    2    1    2    0    0  0.00000000000E+00  0.00000000000E+00 -0.12032734154E+04  0.29562969406E+04  0.27003378842E+04 0.  0.
        2    1    3    3  502    0  0.96489787720E+02  0.79197870017E+03 -0.17941092137E+04  0.19635092084E+04  0.25500000920E-02 0. -1.
       -2    1    3    3    0  502 -0.96489787720E+02 -0.79197870017E+03  0.59083579834E+03  0.99278773223E+03  0.25500000920E-02 0.  1.
</event>
<event>
 5   0  0.1937896E-07  0.2700451E+04  0.7818609E-02  0.8334859E-01
        1   -1    0    0  501    0  0.00000000000E+00  0.00000000000E+00  0.11730997472E+04  0.11730997472E+04  0.50400001928E-02 0. -1.
       -1   -1    0    0    0  501  0.00000000000E+00  0.00000000000E+00 -0.15540953599E+04  0.15540953599E+04  0.50400001928E-02 0.  1.
    10030    2    1    2    0    0  0.00000000000E+00  0.00000000000E+00 -0.38099561275E+03  0.27271951071E+04  0.27004509800E+04 0.  0.
        3    1    3    3  502    0  0.75530942991E+03 -0.83819399600E+03  0.55849897384E+03  0.12589609302E+04  0.10100000352E+00 0. -1.
       -3    1    3    3    0  502 -0.75530942991E+03  0.83819399600E+03 -0.93949458659E+03  0.14682341769E+04  0.10100000352E+00 0.  1.
</event>
<event>
 5   0  0.1965415E-07  0.2697822E+04  0.7818609E-02  0.8335712E-01
       -1   -1    0    0    0  501  0.00000000000E+00  0.00000000000E+00  0.89011649700E+03  0.89011649702E+03  0.50400001928E-02 0. -1.
        1   -1    0    0  501    0  0.00000000000E+00  0.00000000000E+00 -0.20441828750E+04  0.20441828750E+04  0.50400001928E-02 0.  1.
    10030    2    1    2    0    0  0.00000000000E+00  0.00000000000E+00 -0.11540663780E+04  0.29342993720E+04  0.26978220104E+04 0.  0.
        4    1    3    3  502    0  0.49943777152E+03  0.11083705998E+04  0.58696981107E+02  0.12171156159E+04  0.12699999809E+01 0.  1.
       -4    1    3    3    0  502 -0.49943777152E+03 -0.11083705998E+04 -0.12127633591E+04  0.17171837561E+04  0.12699999809E+01 0. -1.
</event>
<event>
 5   0  0.4992668E-07  0.2699760E+04  0.7818609E-02  0.8335083E-01
       -2   -1    0    0    0  501  0.00000000000E+00  0.00000000000E+00  0.64525266853E+03  0.64525266854E+03  0.25500000920E-02 0.  1.
        2   -1    0    0  501    0  0.00000000000E+00  0.00000000000E+00 -0.28239731900E+04  0.28239731900E+04  0.25500000920E-02 0. -1.
    10030    2    1    2    0    0  0.00000000000E+00  0.00000000000E+00 -0.21787205214E+04  0.34692258585E+04  0.26997601647E+04 0.  0.
        1    1    3    3  502    0 -0.12990875055E+04 -0.88573049993E+02 -0.63195586630E+03  0.14473568147E+04  0.50400001928E-02 0. -1.
       -1    1    3    3    0  502  0.12990875055E+04  0.88573049993E+02 -0.15467646551E+04  0.20218690438E+04  0.50400001928E-02 0.  1.
</event>
<event>
 5   0  0.1964242E-07  0.2700698E+04  0.7818609E-02  0.8334778E-01
       -1   -1    0    0    0  501  0.00000000000E+00  0.00000000000E+00  0.11571795408E+04  0.11571795409E+04  0.50400001928E-02 0. -1.
        1   -1    0    0  501    0  0.00000000000E+00  0.00000000000E+00 -0.15757648721E+04  0.15757648721E+04  0.50400001928E-02 0.  1.
    10030    2    1    2    0    0  0.00000000000E+00  0.00000000000E+00 -0.41858533129E+03  0.27329444130E+04  0.27006983328E+04 0.  0.
        2    1    3    3  502    0 -0.80954014676E+03  0.96261329971E+03 -0.70654891450E+03  0.14426333500E+04  0.25500000920E-02 0.  1.
       -2    1    3    3    0  502  0.80954014676E+03 -0.96261329971E+03  0.28796358321E+03  0.12903110630E+04  0.25500000920E-02 0. -1.
</event>
<event>
 5   0  0.1971600E-07  0.2699471E+04  0.7818609E-02  0.8335177E-01
        1   -1    0    0  501    0  0.00000000000E+00  0.00000000000E+00  0.16748065407E+04  0.16748065407E+04  0.50400001928E-02 0.  1.
       -1   -1    0    0    0  501  0.00000000000E+00  0.00000000000E+00 -0.10877589817E+04  0.10877589817E+04  0.50400001928E-02 0. -1.
    10030    2    1    2    0    0  0.00000000000E+00  0.00000000000E+00  0.58704755906E+03  0.27625655224E+04  0.26994709535E+04 0.  0.
        5    1    3    3  502    0  0.74720605561E+03 -0.51592623261E+03 -0.72844976327E+03  0.11641125009E+04  0.46999998093E+01 0. -1.
       -5    1    3    3    0  502 -0.74720605561E+03  0.51592623261E+03  0.13154973223E+04  0.15984530216E+04  0.46999998093E+01 0.  1.
</event>
<event>
 5   0  0.1971600E-07  0.2700851E+04  0.7818609E-02  0.8334729E-01
        1   -1    0    0  501    0  0.00000000000E+00  0.00000000000E+00  0.11908870093E+04  0.11908870093E+04  0.50400001928E-02 0.  1.
       -1   -1    0    0    0  501  0.00000000000E+00  0.00000000000E+00 -0.15313367506E+04  0.15313367506E+04  0.50400001928E-02 0. -1.
    10030    2    1    2    0    0  0.00000000000E+00  0.00000000000E+00 -0.34044974126E+03  0.27222237599E+04  0.27008510090E+04 0.  0.
        5    1    3    3  502    0 -0.49157079152E+03 -0.37088587500E+03  0.10411296357E+04  0.12096161307E+04  0.46999998093E+01 0.  1.
       -5    1    3    3    0  502  0.49157079152E+03  0.37088587500E+03 -0.13815793769E+04  0.15126076293E+04  0.46999998093E+01 0. -1.
</event>
<event>
 5   0  0.4992668E-07  0.2699577E+04  0.7818609E-02  0.8335142E-01
       -2   -1    0    0    0  501  0.00000000000E+00  0.00000000000E+00  0.23801499508E+04  0.23801499508E+04  0.25500000920E-02 0. -1.
        2   -1    0    0  501    0  0.00000000000E+00  0.00000000000E+00 -0.76546826563E+03  0.76546826563E+03  0.25500000920E-02 0.  1.
    10030    2    1    2    0    0  0.00000000000E+00  0.00000000000E+00  0.16146816852E+04  0.31456182164E+04  0.26995771927E+04 0.  0.
        1    1    3    3  502    0 -0.17728112865E+03 -0.17910631819E+02  0.23663856421E+04  0.23730845743E+04  0.50400001928E-02 0. -1.
       -1    1    3    3    0  502  0.17728112865E+03  0.17910631819E+02 -0.75170395697E+03  0.77253364216E+03  0.50400001928E-02 0.  1.
</event>
<event>
 5   0  0.1971600E-07  0.2700116E+04  0.7818609E-02  0.8334967E-01
        1   -1    0    0  501    0  0.00000000000E+00  0.00000000000E+00  0.20091087104E+04  0.20091087104E+04  0.50400001928E-02 0. -1.
       -1   -1    0    0    0  501  0.00000000000E+00  0.00000000000E+00 -0.90719642666E+03  0.90719642668E+03  0.50400001928E-02 0.  1.
    10030    2    1    2    0    0  0.00000000000E+00  0.00000000000E+00  0.11019122838E+04  0.29163051371E+04  0.27001157330E+04 0.  0.
        5    1    3    3  502    0  0.81580324317E+03 -0.87424580611E+03  0.12278689400E+04  0.17139209097E+04  0.46999998093E+01 0. -1.
       -5    1    3    3    0  502 -0.81580324317E+03  0.87424580611E+03 -0.12595665619E+03  0.12023842274E+04  0.46999998093E+01 0.  1.
</event>
<event>
 5   0  0.4735120E-07  0.2701941E+04  0.7818609E-02  0.8334375E-01
       -2   -1    0    0    0  501  0.00000000000E+00  0.00000000000E+00  0.10161518745E+04  0.10161518745E+04  0.25500000920E-02 0. -1.
        2   -1    0    0  501    0  0.00000000000E+00  0.00000000000E+00 -0.17961106331E+04  0.17961106331E+04  0.25500000920E-02 0.  1.
    10030    2    1    2    0    0  0.00000000000E+00  0.00000000000E+00 -0.77995875859E+03  0.28122625076E+04  0.27019409221E+04 0.  0.
        2    1    3    3  502    0  0.38459735982E+03  0.49058076161E+03 -0.16374730526E+04  0.17521137552E+04  0.25500000920E-02 0.  1.
       -2    1    3    3    0  502 -0.38459735982E+03 -0.49058076161E+03  0.85751429405E+03  0.10601487525E+04  0.25500000920E-02 0. -1.
</event>
<event>
 5   0  0.1964242E-07  0.2700137E+04  0.7818609E-02  0.8334961E-01
        1   -1    0    0  501    0  0.00000000000E+00  0.00000000000E+00  0.12159531446E+04  0.12159531446E+04  0.50400001928E-02 0. -1.
       -1   -1    0    0    0  501  0.00000000000E+00  0.00000000000E+00 -0.14989760275E+04  0.14989760275E+04  0.50400001928E-02 0.  1.
    10030    2    1    2    0    0  0.00000000000E+00  0.00000000000E+00 -0.28302288295E+03  0.27149291721E+04  0.27001367479E+04 0.  0.
        2    1    3    3  502    0 -0.12280911060E+04  0.52222093737E+03  0.63965990490E+02  0.13360442058E+04  0.25500000920E-02 0.  1.
       -2    1    3    3    0  502  0.12280911060E+04 -0.52222093737E+03 -0.34698887344E+03  0.13788849663E+04  0.25500000920E-02 0. -1.
</event>
<event>
 5   0  0.4843887E-07  0.2699931E+04  0.7818609E-02  0.8335027E-01
       -2   -1    0    0    0  501  0.00000000000E+00  0.00000000000E+00  0.10800286322E+04  0.10800286322E+04  0.25500000920E-02 0. -1.
        2   -1    0    0  501    0  0.00000000000E+00  0.00000000000E+00 -0.16873692910E+04  0.16873692910E+04  0.25500000920E-02 0.  1.
    10030    2    1    2    0    0  0.00000000000E+00  0.00000000000E+00 -0.60734065885E+03  0.27673979232E+04  0.26999312194E+04 0.  0.
        5    1    3    3  502    0 -0.11758779088E+04 -0.64586167462E+03 -0.14972098177E+03  0.13499128200E+04  0.46999998093E+01 0.  1.
       -5    1    3    3    0  502  0.11758779088E+04  0.64586167462E+03 -0.45761967709E+03  0.14174851033E+04  0.46999998093E+01 0. -1.
</event>
<event>
 5   0  0.4983208E-07  0.2699692E+04  0.7818609E-02  0.8335105E-01
       -2   -1    0    0    0  501  0.00000000000E+00  0.00000000000E+00  0.14148072432E+04  0.14148072432E+04  0.25500000920E-02 0. -1.
        2   -1    0    0  501    0  0.00000000000E+00  0.00000000000E+00 -0.12878671674E+04  0.12878671674E+04  0.25500000920E-02 0.  1.
    10030    2    1    2    0    0  0.00000000000E+00  0.00000000000E+00  0.12694007587E+03  0.27026744106E+04  0.26996916837E+04 0.  0.
        4    1    3    3  502    0  0.79613901466E+03  0.94009781057E+03  0.61585947716E+03  0.13772820091E+04  0.12699999809E+01 0.  1.
       -4    1    3    3    0  502 -0.79613901466E+03 -0.94009781057E+03 -0.48891940129E+03  0.13253924015E+04  0.12699999809E+01 0. -1.
</event>
<event>
 5   0  0.4983208E-07  0.2700660E+04  0.7818609E-02  0.8334791E-01
       -2   -1    0    0    0  501  0.00000000000E+00  0.00000000000E+00  0.13518336565E+04  0.13518336565E+04  0.25500000920E-02 0.  1.
        2   -1    0    0  501    0  0.00000000000E+00  0.00000000000E+00 -0.13488284757E+04  0.13488284757E+04  0.25500000920E-02 0. -1.
    10030    2    1    2    0    0  0.00000000000E+00  0.00000000000E+00  0.30051807977E+01  0.27006621323E+04  0.27006604602E+04 0.  0.
        4    1    3    3  502    0 -0.27856507259E+03 -0.73391837539E+03 -0.10972043454E+04  0.13491084723E+04  0.12699999809E+01 0. -1.
       -4    1    3    3    0  502  0.27856507259E+03  0.73391837539E+03  0.11002095262E+04  0.13515536600E+04  0.12699999809E+01 0.  1.
</event>
<event>
 5   0  0.1641625E-07  0.2700097E+04  0.7818609E-02  0.8334974E-01
        3   -1    0    0  501    0  0.00000000000E+00  0.00000000000E+00  0.15543794173E+04  0.15543794206E+04  0.10100000352E+00 0. -1.
       -3   -1    0    0    0  501  0.00000000000E+00  0.00000000000E+00 -0.11725777109E+04  0.11725777152E+04  0.10100000352E+00 0.  1.
    10030    2    1    2    0    0  0.00000000000E+00  0.00000000000E+00  0.38180170640E+03  0.27269571358E+04  0.27000967904E+04 0.  0.
        4    1    3    3  502    0  0.12895421335E+04  0.98278139590E+01 -0.21259015970E+03  0.13069857264E+04  0.12699999809E+01 0.  1.
       -4    1    3    3    0  502 -0.12895421335E+04 -0.98278139590E+01  0.59439186610E+03  0.14199714094E+04  0.12699999809E+01 0. -1.
</event>
<event>
 5   0  0.1641625E-07  0.2700458E+04  0.7818609E-02  0.8334856E-01
        3   -1    0    0  501    0  0.00000000000E+00  0.00000000000E+00  0.99135830112E+03  0.99135830627E+03  0.10100000352E+00 0.  1.
       -3   -1    0    0    0  501  0.00000000000E+00  0.00000000000E+00 -0.18390109672E+04  0.18390109699E+04  0.10100000352E+00 0. -1.
    10030    2    1    2    0    0  0.00000000000E+00  0.00000000000E+00 -0.84765266604E+03  0.28303692762E+04  0.27004583310E+04 0.  0.
        3    1    3    3  502    0 -0.76777122592E+03  0.11032289500E+04 -0.28906399076E+03  0.13748253607E+04  0.10100000352E+00 0.  1.
       -3    1    3    3    0  502  0.76777122592E+03 -0.11032289500E+04 -0.55858867529E+03  0.14555439155E+04  0.10100000352E+00 0. -1.
</event>
<event>
 5   0  0.1971600E-07  0.2700315E+04  0.7818609E-02  0.8334903E-01
        1   -1    0    0  501    0  0.00000000000E+00  0.00000000000E+00  0.25136369629E+04  0.25136369629E+04  0.50400001928E-02 0. -1.
       -1   -1    0    0    0  501  0.00000000000E+00  0.00000000000E+00 -0.72521413959E+03  0.72521413961E+03  0.50400001928E-02 0.  1.
    10030    2    1    2    0    0  0.00000000000E+00  0.00000000000E+00  0.17884228233E+04  0.32388511025E+04  0.27003148463E+04 0.  0.
        5    1    3    3  502    0 -0.11688116044E+04 -0.22004906056E+03  0.12773531896E+03  0.11961941972E+04  0.46999998093E+01 0.  1.
       -5    1    3    3    0  502  0.11688116044E+04  0.22004906056E+03  0.16606875044E+04  0.20426569053E+04  0.46999998093E+01 0. -1.
</event>
<event>
 5   0  0.4983208E-07  0.2701429E+04  0.7818609E-02  0.8334541E-01
        2   -1    0    0  501    0  0.00000000000E+00  0.00000000000E+00  0.18707648112E+04  0.18707648112E+04  0.25500000920E-02 0.  1.
       -2   -1    0    0    0  501  0.00000000000E+00  0.00000000000E+00 -0.97523193441E+03  0.97523193442E+03  0.25500000920E-02 0. -1.
    10030    2    1    2    0    0  0.00000000000E+00  0.00000000000E+00  0.89553287674E+03  0.28459967456E+04  0.27014289446E+04 0.  0.
        4    1    3    3  502    0  0.13015822236E+04  0.15083828694E+03  0.79328010928E+03  0.15317191056E+04  0.12699999809E+01 0. -1.
       -4    1    3    3    0  502 -0.13015822236E+04 -0.15083828694E+03  0.10225276747E+03  0.13142776400E+04  0.12699999809E+01 0.  1.
</event>
<event>
 5   0  0.4843887E-07  0.2701791E+04  0.7818609E-02  0.8334424E-01
        2   -1    0    0  501    0  0.00000000000E+00  0.00000000000E+00  0.24906519961E+04  0.24906519961E+04  0.25500000920E-02 0.  1.
       -2   -1    0    0    0  501  0.00000000000E+00  0.00000000000E+00 -0.73270725369E+03  0.73270725370E+03  0.25500000920E-02 0. -1.
    10030    2    1    2    0    0  0.00000000000E+00  0.00000000000E+00  0.17579447424E+04  0.32233592498E+04  0.27017910977E+04 0.  0.
        5    1    3    3  502    0  0.41141056572E+03 -0.93517375188E+03  0.19333761504E+04  0.21867267842E+04  0.46999998093E+01 0.  1.
       -5    1    3    3    0  502 -0.41141056572E+03  0.93517375188E+03 -0.17543140801E+03  0.10366324656E+04  0.46999998093E+01 0. -1.
</event>
<event>
 5   0  0.1971600E-07  0.2700149E+04  0.7818609E-02  0.8334957E-01
       -1   -1    0    0    0  501  0.00000000000E+00  0.00000000000E+00  0.11857654597E+04  0.11857654597E+04  0.50400001928E-02 0. -1.
        1   -1    0    0  501    0  0.00000000000E+00  0.00000000000E+00 -0.15371513843E+04  0.15371513843E+04  0.50400001928E-02 0.  1.
    10030    2    1    2    0    0  0.00000000000E+00  0.00000000000E+00 -0.35138592458E+03  0.27229168440E+04  0.27001488980E+04 0.  0.
        5    1    3    3  502    0 -0.57635971634E+03  0.87773693820E+03 -0.10314153601E+04  0.14718873565E+04  0.46999998093E+01 0.  1.
       -5    1    3    3    0  502  0.57635971634E+03 -0.87773693820E+03  0.68002943553E+03  0.12510294875E+04  0.46999998093E+01 0. -1.
</event>
<event>
 5   0  0.4983208E-07  0.2699669E+04  0.7818609E-02  0.8335113E-01
        2   -1    0    0  501    0  0.00000000000E+00  0.00000000000E+00  0.16561980173E+04  0.16561980173E+04  0.25500000920E-02 0. -1.
       -2   -1    0    0    0  501  0.00000000000E+00  0.00000000000E+00 -0.11001417461E+04  0.11001417461E+04  0.25500000920E-02 0.  1.
    10030    2    1    2    0    0  0.00000000000E+00  0.00000000000E+00  0.55605627127E+03  0.27563397634E+04  0.26996685564E+04 0.  0.
        4    1    3    3  502    0 -0.95596813794E+03 -0.53693767870E+01 -0.69494397434E+03  0.11818852107E+04  0.12699999809E+01 0.  1.
       -4    1    3    3    0  502  0.95596813794E+03  0.53693767870E+01  0.12510002456E+04  0.15744545527E+04  0.12699999809E+01 0. -1.
</event>
<event>
 5   0  0.4992668E-07  0.2699634E+04  0.7818609E-02  0.8335124E-01
        2   -1    0    0  501    0  0.00000000000E+00  0.00000000000E+00  0.32604762597E+04  0.32604762597E+04  0.25500000920E-02 0.  1.
       -2   -1    0    0    0  501  0.00000000000E+00  0.00000000000E+00 -0.55881599914E+03  0.55881599915E+03  0.25500000920E-02 0. -1.
    10030    2    1    2    0    0  0.00000000000E+00  0.00000000000E+00  0.27016602605E+04  0.38192922588E+04  0.26996342706E+04 0.  0.
        1    1    3    3  502    0  0.53429038054E+02 -0.45767148690E+03 -0.44410547868E+03  0.63995900513E+03  0.50400001928E-02 0. -1.
       -1    1    3    3    0  502 -0.53429038054E+02  0.45767148690E+03  0.31457657392E+04  0.31793332537E+04  0.50400001928E-02 0.  1.
</event>
<event>
 5   0  0.1937896E-07  0.2699583E+04  0.7818609E-02  0.8335140E-01
       -1   -1    0    0    0  501  0.00000000000E+00  0.00000000000E+00  0.15159256043E+04  0.15159256043E+04  0.50400001928E-02 0.  1.
        1   -1    0    0  501    0  0.00000000000E+00  0.00000000000E+00 -0.12018640243E+04  0.12018640244E+04  0.50400001928E-02 0. -1.
    10030    2    1    2    0    0  0.00000000000E+00  0.00000000000E+00  0.31406157991E+03  0.27177896286E+04  0.26995825213E+04 0.  0.
        3    1    3    3  502    0  0.96197900232E+03  0.91687935140E+03  0.39498285908E+03  0.13863920135E+04  0.10100000352E+00 0.  1.
       -3    1    3    3    0  502 -0.96197900232E+03 -0.91687935140E+03 -0.80921279165E+02  0.13313976151E+04  0.10100000352E+00 0. -1.
</event>
<event>
 5   0  0.5043890E-07  0.2700721E+04  0.7818609E-02  0.8334771E-01
        2   -1    0    0  501    0  0.00000000000E+00  0.00000000000E+00  0.19103659391E+04  0.19103659391E+04  0.25500000920E-02 0. -1.
       -2   -1    0    0    0  501  0.00000000000E+00  0.00000000000E+00 -0.95451548304E+03  0.95451548304E+03  0.25500000920E-02 0.  1.
    10030    2    1    2    0    0  0.00000000000E+00  0.00000000000E+00  0.95585045608E+03  0.28648814222E+04  0.27007212867E+04 0.  0.
        3    1    3    3  502    0  0.70728049031E+03  0.35802797070E+03  0.16375536641E+04  0.18193437644E+04  0.10100000352E+00 0. -1.
       -3    1    3    3    0  502 -0.70728049031E+03 -0.35802797070E+03 -0.68170320806E+03  0.10455376578E+04  0.10100000352E+00 0.  1.
</event>
<event>
 5   0  0.1937896E-07  0.2705630E+04  0.7818609E-02  0.8333180E-01
        1   -1    0    0  501    0  0.00000000000E+00  0.00000000000E+00  0.15730273160E+04  0.15730273160E+04  0.50400001928E-02 0. -1.
       -1   -1    0    0    0  501  0.00000000000E+00  0.00000000000E+00 -0.11634309445E+04  0.11634309445E+04  0.50400001928E-02 0.  1.
    10030    2    1    2    0    0  0.00000000000E+00  0.00000000000E+00  0.40959637152E+03  0.27364582605E+04  0.27056301713E+04 0.  0.
        3    1    3    3  502    0  0.51378437288E+03 -0.30037169208E+03  0.14335113068E+04  0.15521443916E+04  0.10100000352E+00 0. -1.
       -3    1    3    3    0  502 -0.51378437288E+03  0.30037169208E+03 -0.10239149353E+04  0.11843138690E+04  0.10100000352E+00 0.  1.
</event>
<event>
 5   0  0.1971600E-07  0.2700099E+04  0.7818609E-02  0.8334973E-01
       -1   -1    0    0    0  501  0.00000000000E+00  0.00000000000E+00  0.99838105502E+03  0.99838105503E+03  0.50400001928E-02 0. -1.
        1   -1    0    0  501    0  0.00000000000E+00  0.00000000000E+00 -0.18255890894E+04  0.18255890894E+04  0.50400001928E-02 0.  1.
    10030    2    1    2    0    0  0.00000000000E+00  0.00000000000E+00 -0.82720803438E+03  0.28239701444E+04  0.27000989324E+04 0.  0.
        5    1    3    3  502    0 -0.84326084183E+03 -0.44567080186E+03 -0.14128952230E+04  0.17047012384E+04  0.46999998093E+01 0.  1.
       -5    1    3    3    0  502  0.84326084183E+03  0.44567080186E+03  0.58568718867E+03  0.11192689060E+04  0.46999998093E+01 0. -1.
</event>
<event>
 5   0  0.1888149E-07  0.2697500E+04  0.7818609E-02  0.8335817E-01
       -1   -1    0    0    0  501  0.00000000000E+00  0.00000000000E+00  0.10128909596E+04  0.10128909596E+04  0.50400001928E-02 0. -1.
        1   -1    0    0  501    0  0.00000000000E+00  0.00000000000E+00 -0.17959743596E+04  0.17959743596E+04  0.50400001928E-02 0.  1.
    10030    2    1    2    0    0  0.00000000000E+00  0.00000000000E+00 -0.78308340002E+03  0.28088653193E+04  0.26974997257E+04 0.  0.
        1    1    3    3  502    0  0.76939482879E+01  0.41532049597E+03  0.94462419252E+03  0.10319230477E+04  0.50400001928E-02 0. -1.
       -1    1    3    3    0  502 -0.76939482879E+01 -0.41532049597E+03 -0.17277075925E+04  0.17769422716E+04  0.50400001928E-02 0.  1.
</event>
<event>
 5   0  0.1888149E-07  0.2695163E+04  0.7818609E-02  0.8336576E-01
        1   -1    0    0  501    0  0.00000000000E+00  0.00000000000E+00  0.23134891699E+04  0.23134891699E+04  0.50400001928E-02 0.  1.
       -1   -1    0    0    0  501  0.00000000000E+00  0.00000000000E+00 -0.78495123483E+03  0.78495123485E+03  0.50400001928E-02 0. -1.
    10030    2    1    2    0    0  0.00000000000E+00  0.00000000000E+00  0.15285379351E+04  0.30984404048E+04  0.26951632090E+04 0.  0.
        1    1    3    3  502    0 -0.45471751206E+03  0.57794853970E+03 -0.53393952464E+03  0.90878157239E+03  0.50400001928E-02 0. -1.
       -1    1    3    3    0  502  0.45471751206E+03 -0.57794853970E+03  0.20624774597E+04  0.21896588324E+04  0.50400001928E-02 0.  1.
</event>
<event>
 5   0  0.5043890E-07  0.2699860E+04  0.7818609E-02  0.8335050E-01
       -2   -1    0    0    0  501  0.00000000000E+00  0.00000000000E+00  0.68624657374E+03  0.68624657374E+03  0.25500000920E-02 0. -1.
        2   -1    0    0  501    0  0.00000000000E+00  0.00000000000E+00 -0.26554751903E+04  0.26554751903E+04  0.25500000920E-02 0.  1.
    10030    2    1    2    0    0  0.00000000000E+00  0.00000000000E+00 -0.19692286165E+04  0.33417217640E+04  0.26998598119E+04 0.  0.
        3    1    3    3  502    0  0.54985494499E+03  0.50217167878E+03 -0.23782632816E+04  0.24921181959E+04  0.10100000352E+00 0.  1.
       -3    1    3    3    0  502 -0.54985494499E+03 -0.50217167878E+03  0.40903466508E+03  0.84960356811E+03  0.10100000352E+00 0. -1.
</event>
<event>
 5   0  0.1888149E-07  0.2699126E+04  0.7818609E-02  0.8335289E-01
       -1   -1    0    0    0  501  0.00000000000E+00  0.00000000000E+00  0.62359250153E+03  0.62359250155E+03  0.50400001928E-02 0. -1.
        1   -1    0    0  501    0  0.00000000000E+00  0.00000000000E+00 -0.29206887861E+04  0.29206887861E+04  0.50400001928E-02 0.  1.
    10030    2    1    2    0    0  0.00000000000E+00  0.00000000000E+00 -0.22970962846E+04  0.35442812877E+04  0.26991255075E+04 0.  0.
        1    1    3    3  502    0 -0.11182355134E+04  0.71442013981E+03 -0.82563535961E+03  0.15628565343E+04  0.50400001928E-02 0. -1.
       -1    1    3    3    0  502  0.11182355134E+04 -0.71442013981E+03 -0.14714609250E+04  0.19814247534E+04  0.50400001928E-02 0.  1.
</event>
<event>
 5   0  0.1964242E-07  0.2698733E+04  0.7818609E-02  0.8335416E-01
        1   -1    0    0  501    0  0.00000000000E+00  0.00000000000E+00  0.10829816604E+04  0.10829816604E+04  0.50400001928E-02 0.  1.
       -1   -1    0    0    0  501  0.00000000000E+00  0.00000000000E+00 -0.16812744375E+04  0.16812744375E+04  0.50400001928E-02 0. -1.
    10030    2    1    2    0    0  0.00000000000E+00  0.00000000000E+00 -0.59829277715E+03  0.27642560979E+04  0.26987325780E+04 0.  0.
        2    1    3    3  502    0 -0.94672747762E+01 -0.86972913823E+03  0.75753615869E+03  0.11534207536E+04  0.25500000920E-02 0.  1.
       -2    1    3    3    0  502  0.94672747762E+01  0.86972913823E+03 -0.13558289358E+04  0.16108353443E+04  0.25500000920E-02 0. -1.
</event>
<event>
 5   0  0.1971600E-07  0.2700441E+04  0.7818609E-02  0.8334862E-01
        1   -1    0    0  501    0  0.00000000000E+00  0.00000000000E+00  0.19175845631E+04  0.19175845631E+04  0.50400001928E-02 0.  1.
       -1   -1    0    0    0  501  0.00000000000E+00  0.00000000000E+00 -0.95072467217E+03  0.95072467218E+03  0.50400001928E-02 0. -1.
    10030    2    1    2    0    0  0.00000000000E+00  0.00000000000E+00  0.96685989089E+03  0.28683092352E+04  0.27004406715E+04 0.  0.
        5    1    3    3  502    0  0.89664090457E+03  0.31874801543E+03 -0.53398047017E+03  0.10912022918E+04  0.46999998093E+01 0. -1.
       -5    1    3    3    0  502 -0.89664090457E+03 -0.31874801543E+03  0.15008403611E+04  0.17771069435E+04  0.46999998093E+01 0.  1.
</event>
<event>
 5   0  0.4983208E-07  0.2699019E+04  0.7818609E-02  0.8335323E-01
       -2   -1    0    0    0  501  0.00000000000E+00  0.00000000000E+00  0.95964944858E+03  0.95964944858E+03  0.25500000920E-02 0. -1.
        2   -1    0    0  501    0  0.00000000000E+00  0.00000000000E+00 -0.18977508673E+04  0.18977508673E+04  0.25500000920E-02 0.  1.
    10030    2    1    2    0    0  0.00000000000E+00  0.00000000000E+00 -0.93810141875E+03  0.28574003159E+04  0.26990187649E+04 0.  0.
        4    1    3    3  502    0  0.11976276445E+04  0.45620731254E+03 -0.21469069592E+02  0.12817564592E+04  0.12699999809E+01 0. -1.
       -4    1    3    3    0  502 -0.11976276445E+04 -0.45620731254E+03 -0.91663234916E+03  0.15756438567E+04  0.12699999809E+01 0.  1.
</event>
<event>
 5   0  0.5043890E-07  0.2699663E+04  0.7818609E-02  0.8335114E-01
       -2   -1    0    0    0  501  0.00000000000E+00  0.00000000000E+00  0.12599651537E+04  0.12599651537E+04  0.25500000920E-02 0.  1.
        2   -1    0    0  501    0  0.00000000000E+00  0.00000000000E+00 -0.14461077101E+04  0.14461077101E+04  0.25500000920E-02 0. -1.
    10030    2    1    2    0    0  0.00000000000E+00  0.00000000000E+00 -0.18614255638E+03  0.27060728639E+04  0.26996631814E+04 0.  0.
        3    1    3    3  502    0 -0.92083097969E+03  0.56513579734E+03  0.71800816559E+03  0.12972447335E+04  0.10100000352E+00 0.  1.
       -3    1    3    3    0  502  0.92083097969E+03 -0.56513579734E+03 -0.90415072197E+03  0.14088281303E+04  0.10100000352E+00 0. -1.
</event>
<event>
 5   0  0.1888149E-07  0.2700906E+04  0.7818609E-02  0.8334711E-01
       -1   -1    0    0    0  501  0.00000000000E+00  0.00000000000E+00  0.10918300284E+04  0.10918300284E+04  0.50400001928E-02 0.  1.
        1   -1    0    0  501    0  0.00000000000E+00  0.00000000000E+00 -0.16703358780E+04  0.16703358780E+04  0.50400001928E-02 0. -1.
    10030    2    1    2    0    0  0.00000000000E+00  0.00000000000E+00 -0.57850584964E+03  0.27621659064E+04  0.27009056771E+04 0.  0.
        1    1    3    3  502    0  0.12686616409E+03  0.77985079504E+02 -0.16619131243E+04  0.16685718231E+04  0.50400001928E-02 0. -1.
       -1    1    3    3    0  502 -0.12686616409E+03 -0.77985079504E+02  0.10834072746E+04  0.10935940833E+04  0.50400001928E-02 0.  1.
</event>
<event>
 5   0  0.1964242E-07  0.2699995E+04  0.7818609E-02  0.8335007E-01
       -1   -1    0    0    0  501  0.00000000000E+00  0.00000000000E+00  0.73234413570E+03  0.73234413572E+03  0.50400001928E-02 0.  1.
        1   -1    0    0  501    0  0.00000000000E+00  0.00000000000E+00 -0.24885740113E+04  0.24885740114E+04  0.50400001928E-02 0. -1.
    10030    2    1    2    0    0  0.00000000000E+00  0.00000000000E+00 -0.17562298756E+04  0.32209181471E+04  0.26999945063E+04 0.  0.
        2    1    3    3  502    0  0.40994608867E+03  0.90263872904E+03 -0.19712497910E+04  0.22064990844E+04  0.25500000920E-02 0. -1.
       -2    1    3    3    0  502 -0.40994608867E+03 -0.90263872904E+03  0.21501991536E+03  0.10144190627E+04  0.25500000920E-02 0.  1.
</event>
<event>
 5   0  0.1965415E-07  0.2700005E+04  0.7818609E-02  0.8335003E-01
       -1   -1    0    0    0  501  0.00000000000E+00  0.00000000000E+00  0.65982690876E+03  0.65982690878E+03  0.50400001928E-02 0. -1.
        1   -1    0    0  501    0  0.00000000000E+00  0.00000000000E+00 -0.27620976275E+04  0.27620976276E+04  0.50400001928E-02 0.  1.
    10030    2    1    2    0    0  0.00000000000E+00  0.00000000000E+00 -0.21022707188E+04  0.34219245363E+04  0.27000046958E+04 0.  0.
        4    1    3    3  502    0 -0.14367823386E+02 -0.80897217062E+03 -0.24207605386E+04  0.25523960518E+04  0.12699999809E+01 0.  1.
       -4    1    3    3    0  502  0.14367823386E+02  0.80897217062E+03  0.31848981980E+03  0.86952848453E+03  0.12699999809E+01 0. -1.
</event>
<event>
 5   0  0.1937896E-07  0.2698970E+04  0.7818609E-02  0.8335339E-01
        1   -1    0    0  501    0  0.00000000000E+00  0.00000000000E+00  0.23634363518E+04  0.23634363518E+04  0.50400001928E-02 0.  1.
       -1   -1    0    0    0  501  0.00000000000E+00  0.00000000000E+00 -0.77053449838E+03  0.77053449840E+03  0.50400001928E-02 0. -1.
    10030    2    1    2    0    0  0.00000000000E+00  0.00000000000E+00  0.15929018534E+04  0.31339708502E+04  0.26989696136E+04 0.  0.
        3    1    3    3  502    0  0.32185593798E+03  0.11771434383E+04  0.14653625288E+04  0.19069728027E+04  0.10100000352E+00 0.  1.
       -3    1    3    3    0  502 -0.32185593798E+03 -0.11771434383E+04  0.12753932462E+03  0.12269980475E+04  0.10100000352E+00 0. -1.
</event>
<event>
 5   0  0.1888149E-07  0.2699013E+04  0.7818609E-02  0.8335325E-01
        1   -1    0    0  501    0  0.00000000000E+00  0.00000000000E+00  0.16224508130E+04  0.16224508130E+04  0.50400001928E-02 0. -1.
       -1   -1    0    0    0  501  0.00000000000E+00  0.00000000000E+00 -0.11224793932E+04  0.11224793932E+04  0.50400001928E-02 0.  1.
    10030    2    1    2    0    0  0.00000000000E+00  0.00000000000E+00  0.49997141982E+03  0.27449302062E+04  0.26990128596E+04 0.  0.
        1    1    3    3  502    0 -0.61438554244E+03  0.21001831194E+03  0.14531552187E+04  0.15916147070E+04  0.50400001928E-02 0. -1.
       -1    1    3    3    0  502  0.61438554244E+03 -0.21001831194E+03 -0.95318379885E+03  0.11533154991E+04  0.50400001928E-02 0.  1.
</event>
<event>
 5   0  0.4983208E-07  0.2702212E+04  0.7818609E-02  0.8334288E-01
       -2   -1    0    0    0  501  0.00000000000E+00  0.00000000000E+00  0.90015894062E+03  0.90015894062E+03  0.25500000920E-02 0.  1.
        2   -1    0    0  501    0  0.00000000000E+00  0.00000000000E+00 -0.20279604800E+04  0.20279604800E+04  0.25500000920E-02 0. -1.
    10030    2    1    2    0    0  0.00000000000E+00  0.00000000000E+00 -0.11278015394E+04  0.29281194206E+04  0.27022115071E+04 0.  0.
        4    1    3    3  502    0 -0.36817357312E+03  0.60125048325E+03  0.68503177591E+03  0.98301783832E+03  0.12699999809E+01 0.  1.
       -4    1    3    3    0  502  0.36817357312E+03 -0.60125048325E+03 -0.18128333153E+04  0.19451015823E+04  0.12699999809E+01 0. -1.
</event>
<event>
 5   0  0.4983208E-07  0.2704081E+04  0.7818609E-02  0.8333682E-01
       -2   -1    0    0    0  501  0.00000000000E+00  0.00000000000E+00  0.10020932447E+04  0.10020932447E+04  0.25500000920E-02 0. -1.
        2   -1    0    0  501    0  0.00000000000E+00  0.00000000000E+00 -0.18241948330E+04  0.18241948330E+04  0.25500000920E-02 0.  1.
    10030    2    1    2    0    0  0.00000000000E+00  0.00000000000E+00 -0.82210158830E+03  0.28262880777E+04  0.27040808561E+04 0.  0.
        4    1    3    3  502    0 -0.56545034965E+03 -0.53776564017E+02 -0.16934423350E+04  0.17861619668E+04  0.12699999809E+01 0.  1.
       -4    1    3    3    0  502  0.56545034965E+03  0.53776564017E+02  0.87134074671E+03  0.10401261109E+04  0.12699999809E+01 0. -1.
</event>
<event>
 5   0  0.1888149E-07  0.2696192E+04  0.7818609E-02  0.8336242E-01
        1   -1    0    0  501    0  0.00000000000E+00  0.00000000000E+00  0.97148924890E+03  0.97148924892E+03  0.50400001928E-02 0.  1.
       -1   -1    0    0    0  501  0.00000000000E+00  0.00000000000E+00 -0.18706978971E+04  0.18706978971E+04  0.50400001928E-02 0. -1.
    10030    2    1    2    0    0  0.00000000000E+00  0.00000000000E+00 -0.89920864819E+03  0.28421871460E+04  0.26961920518E+04 0.  0.
        1    1    3    3  502    0 -0.17609274571E+03  0.33623947526E+03 -0.18132087314E+04  0.18525095258E+04  0.50400001928E-02 0. -1.
       -1    1    3    3    0  502  0.17609274571E+03 -0.33623947526E+03  0.91400008317E+03  0.98967762018E+03  0.50400001928E-02 0.  1.
</event>
<event>
 5   0  0.1965415E-07  0.2700057E+04  0.7818609E-02  0.8334987E-01
        1   -1    0    0  501    0  0.00000000000E+00  0.00000000000E+00  0.13972920168E+04  0.13972920168E+04  0.50400001928E-02 0. -1.
       -1   -1    0    0    0  501  0.00000000000E+00  0.00000000000E+00 -0.13043633048E+04  0.13043633048E+04  0.50400001928E-02 0.  1.
    10030    2    1    2    0    0  0.00000000000E+00  0.00000000000E+00  0.92928712055E+02  0.27016553216E+04  0.27000566163E+04 0.  0.
        4    1    3    3  502    0 -0.30619229796E+01  0.11097476538E+04 -0.72277272698E+03  0.13243682487E+04  0.12699999809E+01 0.  1.
       -4    1    3    3    0  502  0.30619229796E+01 -0.11097476538E+04  0.81570143903E+03  0.13772870728E+04  0.12699999809E+01 0. -1.
</event>
<event>
 5   0  0.4983208E-07  0.2700168E+04  0.7818609E-02  0.8334950E-01
       -2   -1    0    0    0  501  0.00000000000E+00  0.00000000000E+00  0.10840044704E+04  0.10840044704E+04  0.25500000920E-02 0.  1.
        2   -1    0    0  501    0  0.00000000000E+00  0.00000000000E+00 -0.16814753502E+04  0.16814753502E+04  0.25500000920E-02 0. -1.
    10030    2    1    2    0    0  0.00000000000E+00  0.00000000000E+00 -0.59747087984E+03  0.27654798206E+04  0.27001679922E+04 0.  0.
        4    1    3    3  502    0  0.82646547950E+03 -0.97067971576E+03  0.15637861507E+03  0.12844143348E+04  0.12699999809E+01 0.  1.
       -4    1    3    3    0  502 -0.82646547950E+03  0.97067971576E+03 -0.75384949491E+03  0.14810654858E+04  0.12699999809E+01 0. -1.
</event>
<event>
 5   0  0.4983208E-07  0.2698405E+04  0.7818609E-02  0.8335523E-01
        2   -1    0    0  501    0  0.00000000000E+00  0.00000000000E+00  0.13612421142E+04  0.13612421142E+04  0.25500000920E-02 0.  1.
       -2   -1    0    0    0  501  0.00000000000E+00  0.00000000000E+00 -0.13372696362E+04  0.13372696362E+04  0.25500000920E-02 0. -1.
    10030    2    1    2    0    0  0.00000000000E+00  0.00000000000E+00  0.23972477989E+02  0.26985117505E+04  0.26984052675E+04 0.  0.
        4    1    3    3  502    0 -0.93206588686E+01 -0.22041685905E+03 -0.13191093609E+04  0.13374309647E+04  0.12699999809E+01 0. -1.
       -4    1    3    3    0  502  0.93206588686E+01  0.22041685905E+03  0.13430818389E+04  0.13610807857E+04  0.12699999809E+01 0.  1.
</event>
<event>
 5   0  0.4843887E-07  0.2700703E+04  0.7818609E-02  0.8334777E-01
       -2   -1    0    0    0  501  0.00000000000E+00  0.00000000000E+00  0.70477097251E+03  0.70477097252E+03  0.25500000920E-02 0. -1.
        2   -1    0    0  501    0  0.00000000000E+00  0.00000000000E+00 -0.25872925984E+04  0.25872925984E+04  0.25500000920E-02 0.  1.
    10030    2    1    2    0    0  0.00000000000E+00  0.00000000000E+00 -0.18825216259E+04  0.32920635709E+04  0.27007026647E+04 0.  0.
        5    1    3    3  502    0 -0.95811410661E+03  0.54344192952E+03  0.10871361372E+02  0.11015679954E+04  0.46999998093E+01 0. -1.
       -5    1    3    3    0  502  0.95811410661E+03 -0.54344192952E+03 -0.18933929873E+04  0.21904955755E+04  0.46999998093E+01 0.  1.
</event>
<event>
 5   0  0.4992668E-07  0.2700991E+04  0.7818609E-02  0.8334683E-01
        2   -1    0    0  501    0  0.00000000000E+00  0.00000000000E+00  0.15816457027E+04  0.15816457027E+04  0.25500000920E-02 0. -1.
       -2   -1    0    0    0  501  0.00000000000E+00  0.00000000000E+00 -0.11531269565E+04  0.11531269565E+04  0.25500000920E-02 0.  1.
    10030    2    1    2    0    0  0.00000000000E+00  0.00000000000E+00  0.42851874622E+03  0.27347726591E+04  0.27009911479E+04 0.  0.
        1    1    3    3  502    0 -0.47877174683E+03  0.14615481125E+03 -0.10557226832E+04  0.11683894891E+04  0.50400001928E-02 0.  1.
       -1    1    3    3    0  502  0.47877174683E+03 -0.14615481125E+03  0.14842414294E+04  0.15663831700E+04  0.50400001928E-02 0. -1.
</event>
<event>
 5   0  0.1641625E-07  0.2702779E+04  0.7818609E-02  0.8334104E-01
        3   -1    0    0  501    0  0.00000000000E+00  0.00000000000E+00  0.13604793256E+04  0.13604793293E+04  0.10100000352E+00 0. -1.
       -3   -1    0    0    0  501  0.00000000000E+00  0.00000000000E+00 -0.13423600155E+04  0.13423600193E+04  0.10100000352E+00 0.  1.
    10030    2    1    2    0    0  0.00000000000E+00  0.00000000000E+00  0.18119310040E+02  0.27028393487E+04  0.27027786138E+04 0.  0.
        2    1    3    3  502    0 -0.13487067212E+04 -0.44791521067E+02  0.81428115413E+02  0.13519048184E+04  0.25500000920E-02 0. -1.
       -2    1    3    3    0  502  0.13487067212E+04  0.44791521067E+02 -0.63308805373E+02  0.13509345302E+04  0.25500000920E-02 0.  1.
</event>
<event>
 5   0  0.4843887E-07  0.2699412E+04  0.7818609E-02  0.8335196E-01
        2   -1    0    0  501    0  0.00000000000E+00  0.00000000000E+00  0.12159445318E+04  0.12159445318E+04  0.25500000920E-02 0. -1.
       -2   -1    0    0    0  501  0.00000000000E+00  0.00000000000E+00 -0.14981819135E+04  0.14981819135E+04  0.25500000920E-02 0.  1.
    10030    2    1    2    0    0  0.00000000000E+00  0.00000000000E+00 -0.28223738171E+03  0.27141264453E+04  0.26994118658E+04 0.  0.
        5    1    3    3  502    0 -0.99091333667E+03  0.91278212694E+03 -0.22282396578E+03  0.13655596149E+04  0.46999998093E+01 0.  1.
       -5    1    3    3    0  502  0.99091333667E+03 -0.91278212694E+03 -0.59413415938E+02  0.13485668304E+04  0.46999998093E+01 0. -1.
</event>
<event>
 5   0  0.1964242E-07  0.2700606E+04  0.7818609E-02  0.8334808E-01
        1   -1    0    0  501    0  0.00000000000E+00  0.00000000000E+00  0.17371413464E+04  0.17371413464E+04  0.50400001928E-02 0. -1.
       -1   -1    0    0    0  501  0.00000000000E+00  0.00000000000E+00 -0.10496085755E+04  0.10496085755E+04  0.50400001928E-02 0.  1.
    10030    2    1    2    0    0  0.00000000000E+00  0.00000000000E+00  0.68753277088E+03  0.27867499219E+04  0.27006061942E+04 0.  0.
        2    1    3    3  502    0 -0.16066116546E+03  0.37865278111E+03 -0.98338774310E+03  0.10659462426E+04  0.25500000920E-02 0.  1.
       -2    1    3    3    0  502  0.16066116546E+03 -0.37865278111E+03  0.16709205140E+04  0.17208036793E+04  0.25500000920E-02 0. -1.
</event>
<event>
 5   0  0.4843887E-07  0.2700013E+04  0.7818609E-02  0.8335001E-01
        2   -1    0    0  501    0  0.00000000000E+00  0.00000000000E+00  0.25846799274E+04  0.25846799274E+04  0.25500000920E-02 0. -1.
       -2   -1    0    0    0  501  0.00000000000E+00  0.00000000000E+00 -0.70512305541E+03  0.70512305541E+03  0.25500000920E-02 0.  1.
    10030    2    1    2    0    0  0.00000000000E+00  0.00000000000E+00  0.18795568720E+04  0.32898029828E+04  0.27000128945E+04 0.  0.
        5    1    3    3  502    0 -0.24977565587E+03 -0.11262103071E+04  0.85342170521E+02  0.11567380473E+04  0.46999998093E+01 0.  1.
       -5    1    3    3    0  502  0.24977565587E+03  0.11262103071E+04  0.17942147015E+04  0.21330649355E+04  0.46999998093E+01 0. -1.
</event>
<event>
 5   0  0.1937896E-07  0.2701557E+04  0.7818609E-02  0.8334500E-01
        1   -1    0    0  501    0  0.00000000000E+00  0.00000000000E+00  0.19613621103E+04  0.19613621103E+04  0.50400001928E-02 0.  1.
       -1   -1    0    0    0  501  0.00000000000E+00  0.00000000000E+00 -0.93027299783E+03  0.93027299784E+03  0.50400001928E-02 0. -1.
    10030    2    1    2    0    0  0.00000000000E+00  0.00000000000E+00  0.10310891125E+04  0.28916351081E+04  0.27015567439E+04 0.  0.
        3    1    3    3  502    0  0.49551982164E+03 -0.87900023407E+03  0.14767368518E+04  0.17885561341E+04  0.10100000352E+00 0.  1.
       -3    1    3    3    0  502 -0.49551982164E+03  0.87900023407E+03 -0.44564773936E+03  0.11030789740E+04  0.10100000352E+00 0. -1.
</event>
<event>
 5   0  0.1965415E-07  0.2699725E+04  0.7818609E-02  0.8335094E-01
        1   -1    0    0  501    0  0.00000000000E+00  0.00000000000E+00  0.19608766601E+04  0.19608766601E+04  0.50400001928E-02 0. -1.
       -1   -1    0    0    0  501  0.00000000000E+00  0.00000000000E+00 -0.92924194466E+03  0.92924194467E+03  0.50400001928E-02 0.  1.
    10030    2    1    2    0    0  0.00000000000E+00  0.00000000000E+00  0.10316347155E+04  0.28901186048E+04  0.26997250534E+04 0.  0.
        4    1    3    3  502    0 -0.17664697379E+03  0.13221433672E+04  0.73744410271E+03  0.15241694966E+04  0.12699999809E+01 0.  1.
       -4    1    3    3    0  502  0.17664697379E+03 -0.13221433672E+04  0.29419061277E+03  0.13659491082E+04  0.12699999809E+01 0. -1.
</event>
<event>
 5   0  0.1937896E-07  0.2700083E+04  0.7818609E-02  0.8334978E-01
        1   -1    0    0  501    0  0.00000000000E+00  0.00000000000E+00  0.11525462832E+04  0.11525462832E+04  0.50400001928E-02 0.  1.
       -1   -1    0    0    0  501  0.00000000000E+00  0.00000000000E+00 -0.15813780605E+04  0.15813780605E+04  0.50400001928E-02 0. -1.
    10030    2    1    2    0    0  0.00000000000E+00  0.00000000000E+00 -0.42883177734E+03  0.27339243437E+04  0.27000825217E+04 0.  0.
        3    1    3    3  502    0 -0.13066889697E+04  0.33356561403E+03 -0.15110772774E+03  0.13570319222E+04  0.10100000352E+00 0.  1.
       -3    1    3    3    0  502  0.13066889697E+04 -0.33356561403E+03 -0.27772404960E+03  0.13768924215E+04  0.10100000352E+00 0. -1.
</event>
<event>
 5   0  0.1937896E-07  0.2700695E+04  0.7818609E-02  0.8334779E-01
        1   -1    0    0  501    0  0.00000000000E+00  0.00000000000E+00  0.15302934935E+04  0.15302934935E+04  0.50400001928E-02 0.  1.
       -1   -1    0    0    0  501  0.00000000000E+00  0.00000000000E+00 -0.11915612551E+04  0.11915612551E+04  0.50400001928E-02 0. -1.
    10030    2    1    2    0    0  0.00000000000E+00  0.00000000000E+00  0.33873223836E+03  0.27218547486E+04  0.27006950482E+04 0.  0.
        3    1    3    3  502    0 -0.12768667649E+04  0.43536916311E+03  0.22901923778E+03  0.13683511483E+04  0.10100000352E+00 0.  1.
       -3    1    3    3    0  502  0.12768667649E+04 -0.43536916311E+03  0.10971300058E+03  0.13535036004E+04  0.10100000352E+00 0. -1.
</event>
<event>
 5   0  0.4735120E-07  0.2697829E+04  0.7818609E-02  0.8335710E-01
       -2   -1    0    0    0  501  0.00000000000E+00  0.00000000000E+00  0.16805728173E+04  0.16805728173E+04  0.25500000920E-02 0.  1.
        2   -1    0    0  501    0  0.00000000000E+00  0.00000000000E+00 -0.10827082604E+04  0.10827082604E+04  0.25500000920E-02 0. -1.
    10030    2    1    2    0    0  0.00000000000E+00  0.00000000000E+00  0.59786455695E+03  0.27632810777E+04  0.26978288096E+04 0.  0.
        2    1    3    3  502    0  0.35062790866E+03 -0.85746178793E+03 -0.70536051182E+03  0.11643513644E+04  0.25500000920E-02 0. -1.
       -2    1    3    3    0  502 -0.35062790866E+03  0.85746178793E+03  0.13032250688E+04  0.15989297133E+04  0.25500000920E-02 0.  1.
</event>
<event>
 5   0  0.1971600E-07  0.2699069E+04  0.7818609E-02  0.8335307E-01
        1   -1    0    0  501    0  0.00000000000E+00  0.00000000000E+00  0.13220937195E+04  0.13220937195E+04  0.50400001928E-02 0.  1.
       -1   -1    0    0    0  501  0.00000000000E+00  0.00000000000E+00 -0.13775447438E+04  0.13775447438E+04  0.50400001928E-02 0. -1.
    10030    2    1    2    0    0  0.00000000000E+00  0.00000000000E+00 -0.55451024323E+02  0.26996384633E+04  0.26990689166E+04 0.  0.
        5    1    3    3  502    0  0.73686089601E+03 -0.37239200609E+03  0.10400115193E+04  0.13278877349E+04  0.46999998093E+01 0.  1.
       -5    1    3    3    0  502 -0.73686089601E+03  0.37239200609E+03 -0.10954625437E+04  0.13717507284E+04  0.46999998093E+01 0. -1.
</event>
<event>
 5   0  0.1964242E-07  0.2697587E+04  0.7818609E-02  0.8335788E-01
       -1   -1    0    0    0  501  0.00000000000E+00  0.00000000000E+00  0.10703692632E+04  0.10703692632E+04  0.50400001928E-02 0.  1.
        1   -1    0    0  501    0  0.00000000000E+00  0.00000000000E+00 -0.16996418778E+04  0.16996418778E+04  0.50400001928E-02 0. -1.
    10030    2    1    2    0    0  0.00000000000E+00  0.00000000000E+00 -0.62927261461E+03  0.27700111410E+04  0.26975873847E+04 0.  0.
        2    1    3    3  502    0  0.74604113603E+03 -0.85651574057E+03 -0.10615208374E+04  0.15546778054E+04  0.25500000920E-02 0. -1.
       -2    1    3    3    0  502 -0.74604113603E+03  0.85651574057E+03  0.43224822277E+03  0.12153333356E+04  0.25500000920E-02 0.  1.
</event>
<event>
 5   0  0.1937896E-07  0.2698946E+04  0.7818609E-02  0.8335347E-01
       -1   -1    0    0    0  501  0.00000000000E+00  0.00000000000E+00  0.11303890225E+04  0.11303890225E+04  0.50400001928E-02 0.  1.
        1   -1    0    0  501    0  0.00000000000E+00  0.00000000000E+00 -0.16110187339E+04  0.16110187339E+04  0.50400001928E-02 0. -1.
    10030    2    1    2    0    0  0.00000000000E+00  0.00000000000E+00 -0.48062971145E+03  0.27414077564E+04  0.26989463810E+04 0.  0.
        3    1    3    3  502    0  0.10126780980E+04 -0.57762257653E+03 -0.93064927150E+03  0.14917348450E+04  0.10100000352E+00 0. -1.
       -3    1    3    3    0  502 -0.10126780980E+04  0.57762257653E+03  0.45001956005E+03  0.12496729115E+04  0.10100000352E+00 0.  1.
</event>
<event>
 5   0  0.4992668E-07  0.2700641E+04  0.7818609E-02  0.8334797E-01
        2   -1    0    0  501    0  0.00000000000E+00  0.00000000000E+00  0.19142386387E+04  0.19142386387E+04  0.25500000920E-02 0. -1.
       -2   -1    0    0    0  501  0.00000000000E+00  0.00000000000E+00 -0.95252784348E+03  0.95252784348E+03  0.25500000920E-02 0.  1.
    10030    2    1    2    0    0  0.00000000000E+00  0.00000000000E+00  0.96171079524E+03  0.28667664822E+04  0.27006411109E+04 0.  0.
        1    1    3    3  502    0  0.11736457101E+04 -0.58488580276E+03  0.13880762999E+03  0.13186368770E+04  0.50400001928E-02 0. -1.
       -1    1    3    3    0  502 -0.11736457101E+04  0.58488580276E+03  0.82290316525E+03  0.15481296052E+04  0.50400001928E-02 0.  1.
</event>
<event>
 5   0  0.4735120E-07  0.2700198E+04  0.7818609E-02  0.8334941E-01
       -2   -1    0    0    0  501  0.00000000000E+00  0.00000000000E+00  0.10478691628E+04  0.10478691628E+04  0.25500000920E-02 0. -1.
        2   -1    0    0  501    0  0.00000000000E+00  0.00000000000E+00 -0.17394988640E+04  0.17394988640E+04  0.25500000920E-02 0.  1.
    10030    2    1    2    0    0  0.00000000000E+00  0.00000000000E+00 -0.69162970124E+03  0.27873680268E+04  0.27001979322E+04 0.  0.
        2    1    3    3  502    0 -0.38684535235E+03  0.54907565476E+02 -0.16798594481E+04  0.17247005342E+04  0.25500000920E-02 0.  1.
       -2    1    3    3    0  502  0.38684535235E+03 -0.54907565476E+02  0.98822974682E+03  0.10626674926E+04  0.25500000920E-02 0. -1.
</event>
<event>
 5   0  0.1937896E-07  0.2699029E+04  0.7818609E-02  0.8335320E-01
        1   -1    0    0  501    0  0.00000000000E+00  0.00000000000E+00  0.11091509091E+04  0.11091509091E+04  0.50400001928E-02 0.  1.
       -1   -1    0    0    0  501  0.00000000000E+00  0.00000000000E+00 -0.16419673813E+04  0.16419673813E+04  0.50400001928E-02 0. -1.
    10030    2    1    2    0    0  0.00000000000E+00  0.00000000000E+00 -0.53281647225E+03  0.27511182904E+04  0.26990291689E+04 0.  0.
        3    1    3    3  502    0 -0.68861240356E+03  0.10431698956E+04 -0.78494922577E+03  0.14759863721E+04  0.10100000352E+00 0. -1.
       -3    1    3    3    0  502  0.68861240356E+03 -0.10431698956E+04  0.25213275351E+03  0.12751319183E+04  0.10100000352E+00 0.  1.
</event>
<event>
 5   0  0.4992668E-07  0.2702144E+04  0.7818609E-02  0.8334310E-01
        2   -1    0    0  501    0  0.00000000000E+00  0.00000000000E+00  0.14163975783E+04  0.14163975783E+04  0.25500000920E-02 0.  1.
       -2   -1    0    0    0  501  0.00000000000E+00  0.00000000000E+00 -0.12887593951E+04  0.12887593951E+04  0.25500000920E-02 0. -1.
    10030    2    1    2    0    0  0.00000000000E+00  0.00000000000E+00  0.12763818319E+03  0.27051569733E+04  0.27021441014E+04 0.  0.
        1    1    3    3  502    0 -0.13009998832E+04 -0.23249553372E+03  0.34473990887E+03  0.13658332527E+04  0.50400001928E-02 0. -1.
       -1    1    3    3    0  502  0.13009998832E+04  0.23249553372E+03 -0.21710172568E+03  0.13393237207E+04  0.50400001928E-02 0.  1.
</event>
<event>
 5   0  0.1888149E-07  0.2681346E+04  0.7818609E-02  0.8341083E-01
        1   -1    0    0  501    0  0.00000000000E+00  0.00000000000E+00  0.12180622939E+04  0.12180622939E+04  0.50400001928E-02 0.  1.
       -1   -1    0    0    0  501  0.00000000000E+00  0.00000000000E+00 -0.14756258436E+04  0.14756258436E+04  0.50400001928E-02 0. -1.
    10030    2    1    2    0    0  0.00000000000E+00  0.00000000000E+00 -0.25756354970E+03  0.26936881376E+04  0.26813460799E+04 0.  0.
        1    1    3    3  502    0 -0.20976137817E+03  0.12472517942E+04  0.31797558200E+03  0.13041262764E+04  0.50400001928E-02 0. -1.
       -1    1    3    3    0  502  0.20976137817E+03 -0.12472517942E+04 -0.57553913170E+03  0.13895618612E+04  0.50400001928E-02 0.  1.
</event>
<event>
 5   0  0.1937896E-07  0.2700485E+04  0.7818609E-02  0.8334847E-01
       -1   -1    0    0    0  501  0.00000000000E+00  0.00000000000E+00  0.14361114658E+04  0.14361114658E+04  0.50400001928E-02 0. -1.
        1   -1    0    0  501    0  0.00000000000E+00  0.00000000000E+00 -0.12695083187E+04  0.12695083187E+04  0.50400001928E-02 0.  1.
    10030    2    1    2    0    0  0.00000000000E+00  0.00000000000E+00  0.16660314710E+03  0.27056197844E+04  0.27004854766E+04 0.  0.
        3    1    3    3  502    0  0.11245361321E+04  0.31756913869E+03  0.76114073175E+03  0.13945489930E+04  0.10100000352E+00 0. -1.
       -3    1    3    3    0  502 -0.11245361321E+04 -0.31756913869E+03 -0.59453758465E+03  0.13110707914E+04  0.10100000352E+00 0.  1.
</event>
<event>
 5   0  0.4983208E-07  0.2700998E+04  0.7818609E-02  0.8334681E-01
        2   -1    0    0  501    0  0.00000000000E+00  0.00000000000E+00  0.20257061040E+04  0.20257061040E+04  0.25500000920E-02 0. -1.
       -2   -1    0    0    0  501  0.00000000000E+00  0.00000000000E+00 -0.90035128734E+03  0.90035128735E+03  0.25500000920E-02 0.  1.
    10030    2    1    2    0    0  0.00000000000E+00  0.00000000000E+00  0.11253548166E+04  0.29260573913E+04  0.27009976664E+04 0.  0.
        4    1    3    3  502    0 -0.11803067066E+04  0.57781655131E+03  0.89981527943E+03  0.15926911309E+04  0.12699999809E+01 0. -1.
       -4    1    3    3    0  502  0.11803067066E+04 -0.57781655131E+03  0.22553953719E+03  0.13333662604E+04  0.12699999809E+01 0.  1.
</event>
<event>
 5   0  0.1641625E-07  0.2701442E+04  0.7818609E-02  0.8334537E-01
       -4   -1    0    0    0  501  0.00000000000E+00  0.00000000000E+00  0.11641124655E+04  0.11641131583E+04  0.12699999809E+01 0. -1.
        4   -1    0    0  501    0  0.00000000000E+00  0.00000000000E+00 -0.15672412481E+04  0.15672417627E+04  0.12699999809E+01 0.  1.
    10030    2    1    2    0    0  0.00000000000E+00  0.00000000000E+00 -0.40312878261E+03  0.27313549210E+04  0.27014416316E+04 0.  0.
        1    1    3    3  502    0 -0.64331120806E+03  0.35434714608E+03 -0.13477108417E+04  0.15348406182E+04  0.50400001928E-02 0.  1.
       -1    1    3    3    0  502  0.64331120806E+03 -0.35434714608E+03  0.94458205912E+03  0.11965143028E+04  0.50400001928E-02 0. -1.
</event>
<event>
 5   0  0.4992668E-07  0.2700043E+04  0.7818609E-02  0.8334991E-01
        2   -1    0    0  501    0  0.00000000000E+00  0.00000000000E+00  0.57204410087E+03  0.57204410088E+03  0.25500000920E-02 0. -1.
       -2   -1    0    0    0  501  0.00000000000E+00  0.00000000000E+00 -0.31860451075E+04  0.31860451075E+04  0.25500000920E-02 0.  1.
    10030    2    1    2    0    0  0.00000000000E+00  0.00000000000E+00 -0.26140010067E+04  0.37580892084E+04  0.27000431914E+04 0.  0.
        1    1    3    3  502    0 -0.73153395840E+03 -0.45075751267E+03  0.14229816409E+03  0.87096098365E+03  0.50400001928E-02 0. -1.
       -1    1    3    3    0  502  0.73153395840E+03  0.45075751267E+03 -0.27562991708E+04  0.28871282248E+04  0.50400001928E-02 0.  1.
</event>
<event>
 5   0  0.4843887E-07  0.2699527E+04  0.7818609E-02  0.8335159E-01
       -2   -1    0    0    0  501  0.00000000000E+00  0.00000000000E+00  0.13771459807E+04  0.13771459807E+04  0.25500000920E-02 0.  1.
        2   -1    0    0  501    0  0.00000000000E+00  0.00000000000E+00 -0.13229252862E+04  0.13229252862E+04  0.25500000920E-02 0. -1.
    10030    2    1    2    0    0  0.00000000000E+00  0.00000000000E+00  0.54220694485E+02  0.27000712670E+04  0.26995268035E+04 0.  0.
        5    1    3    3  502    0  0.78998443237E+03 -0.37714408618E+03 -0.10004848568E+04  0.13294002798E+04  0.46999998093E+01 0. -1.
       -5    1    3    3    0  502 -0.78998443237E+03  0.37714408618E+03  0.10547055513E+04  0.13706709872E+04  0.46999998093E+01 0.  1.
</event>
<event>
 5   0  0.4983208E-07  0.2702468E+04  0.7818609E-02  0.8334205E-01
       -2   -1    0    0    0  501  0.00000000000E+00  0.00000000000E+00  0.24151973174E+04  0.24151973174E+04  0.25500000920E-02 0.  1.
        2   -1    0    0  501    0  0.00000000000E+00  0.00000000000E+00 -0.75597664958E+03  0.75597664958E+03  0.25500000920E-02 0. -1.
    10030    2    1    2    0    0  0.00000000000E+00  0.00000000000E+00  0.16592206678E+04  0.31711739670E+04  0.27024675954E+04 0.  0.
        4    1    3    3  502    0 -0.85054596540E+03 -0.20893060972E+03 -0.37780429285E+03  0.95384387377E+03  0.12699999809E+01 0.  1.
       -4    1    3    3    0  502  0.85054596540E+03  0.20893060972E+03  0.20370249607E+04  0.22173300932E+04  0.12699999809E+01 0. -1.
</event>
<event>
 5   0  0.1937896E-07  0.2700462E+04  0.7818609E-02  0.8334855E-01
       -1   -1    0    0    0  501  0.00000000000E+00  0.00000000000E+00  0.78893794287E+03  0.78893794288E+03  0.50400001928E-02 0.  1.
        1   -1    0    0  501    0  0.00000000000E+00  0.00000000000E+00 -0.23108588409E+04  0.23108588409E+04  0.50400001928E-02 0. -1.
    10030    2    1    2    0    0  0.00000000000E+00  0.00000000000E+00 -0.15219208980E+04  0.30997967838E+04  0.27004623458E+04 0.  0.
        3    1    3    3  502    0  0.11830890957E+04  0.61743360473E+03 -0.99676493919E+03  0.16656723624E+04  0.10100000352E+00 0. -1.
       -3    1    3    3    0  502 -0.11830890957E+04 -0.61743360473E+03 -0.52515595886E+03  0.14341244214E+04  0.10100000352E+00 0.  1.
</event>
<event>
 5   0  0.1937896E-07  0.2700713E+04  0.7818609E-02  0.8334774E-01
        1   -1    0    0  501    0  0.00000000000E+00  0.00000000000E+00  0.13618106040E+04  0.13618106040E+04  0.50400001928E-02 0. -1.
       -1   -1    0    0    0  501  0.00000000000E+00  0.00000000000E+00 -0.13389987544E+04  0.13389987544E+04  0.50400001928E-02 0.  1.
    10030    2    1    2    0    0  0.00000000000E+00  0.00000000000E+00  0.22811849618E+02  0.27008093584E+04  0.27007130188E+04 0.  0.
        3    1    3    3  502    0  0.86836653525E+03  0.97181014584E+03 -0.34214210644E+03  0.13474185060E+04  0.10100000352E+00 0.  1.
       -3    1    3    3    0  502 -0.86836653525E+03 -0.97181014584E+03  0.36495395606E+03  0.13533908524E+04  0.10100000352E+00 0. -1.
</event>
<event>
 5   0  0.5043890E-07  0.2716597E+04  0.7818609E-02  0.8329640E-01
       -2   -1    0    0    0  501  0.00000000000E+00  0.00000000000E+00  0.13458330129E+04  0.13458330129E+04  0.25500000920E-02 0. -1.
        2   -1    0    0  501    0  0.00000000000E+00  0.00000000000E+00 -0.13708790985E+04  0.13708790985E+04  0.25500000920E-02 0.  1.
    10030    2    1    2    0    0  0.00000000000E+00  0.00000000000E+00 -0.25046085553E+02  0.27167121114E+04  0.27165966557E+04 0.  0.
        3    1    3    3  502    0  0.44812500598E+03 -0.78586015617E+03  0.10007239127E+04  0.13490146647E+04  0.10100000352E+00 0. -1.
       -3    1    3    3    0  502 -0.44812500598E+03  0.78586015617E+03 -0.10257699983E+04  0.13676974466E+04  0.10100000352E+00 0.  1.
</event>
<event>
 5   0  0.4983208E-07  0.2700039E+04  0.7818609E-02  0.8334992E-01
        2   -1    0    0  501    0  0.00000000000E+00  0.00000000000E+00  0.16014462787E+04  0.16014462788E+04  0.25500000920E-02 0. -1.
       -2   -1    0    0    0  501  0.00000000000E+00  0.00000000000E+00 -0.11380663227E+04  0.11380663227E+04  0.25500000920E-02 0.  1.
    10030    2    1    2    0    0  0.00000000000E+00  0.00000000000E+00  0.46337995601E+03  0.27395126015E+04  0.27000385757E+04 0.  0.
        4    1    3    3  502    0  0.68522446162E+03  0.98226975233E+03  0.86382664264E+03  0.14766802330E+04  0.12699999809E+01 0.  1.
       -4    1    3    3    0  502 -0.68522446162E+03 -0.98226975233E+03 -0.40044668663E+03  0.12628323685E+04  0.12699999809E+01 0. -1.
</event>
<event>
 5   0  0.1964242E-07  0.2699254E+04  0.7818609E-02  0.8335247E-01
        1   -1    0    0  501    0  0.00000000000E+00  0.00000000000E+00  0.16137088770E+04  0.16137088770E+04  0.50400001928E-02 0. -1.
       -1   -1    0    0    0  501  0.00000000000E+00  0.00000000000E+00 -0.11287620294E+04  0.11287620294E+04  0.50400001928E-02 0.  1.
    10030    2    1    2    0    0  0.00000000000E+00  0.00000000000E+00  0.48494684761E+03  0.27424709064E+04  0.26992541984E+04 0.  0.
        2    1    3    3  502    0 -0.42368305981E+03  0.47279520879E+03 -0.96758227326E+03  0.11572631940E+04  0.25500000920E-02 0.  1.
       -2    1    3    3    0  502  0.42368305981E+03 -0.47279520879E+03  0.14525291209E+04  0.15852077125E+04  0.25500000920E-02 0. -1.
</event>
<event>
 5   0  0.1888149E-07  0.2700326E+04  0.7818609E-02  0.8334899E-01
       -1   -1    0    0    0  501  0.00000000000E+00  0.00000000000E+00  0.14321495927E+04  0.14321495927E+04  0.50400001928E-02 0.  1.
        1   -1    0    0  501    0  0.00000000000E+00  0.00000000000E+00 -0.12728699347E+04  0.12728699347E+04  0.50400001928E-02 0. -1.
    10030    2    1    2    0    0  0.00000000000E+00  0.00000000000E+00  0.15927965804E+03  0.27050195274E+04  0.27003260237E+04 0.  0.
        1    1    3    3  502    0  0.13024870042E+04 -0.47751694477E+02 -0.27337521352E+03  0.13317231798E+04  0.50400001928E-02 0. -1.
       -1    1    3    3    0  502 -0.13024870042E+04  0.47751694477E+02  0.43265487156E+03  0.13732963476E+04  0.50400001928E-02 0.  1.
</event>
<event>
 5   0  0.1964242E-07  0.2700456E+04  0.7818609E-02  0.8334857E-01
        1   -1    0    0  501    0  0.00000000000E+00  0.00000000000E+00  0.18914896171E+04  0.18914896171E+04  0.50400001928E-02 0. -1.
       -1   -1    0    0    0  501  0.00000000000E+00  0.00000000000E+00 -0.96385166509E+03  0.96385166510E+03  0.50400001928E-02 0.  1.
    10030    2    1    2    0    0  0.00000000000E+00  0.00000000000E+00  0.92763795200E+03  0.28553412822E+04  0.27004558259E+04 0.  0.
        2    1    3    3  502    0 -0.23038689394E+03  0.32005727856E+02  0.18701464151E+04  0.18845556774E+04  0.25500000920E-02 0. -1.
       -2    1    3    3    0  502  0.23038689394E+03 -0.32005727856E+02 -0.94250846306E+03  0.97078560478E+03  0.25500000920E-02 0.  1.
</event>
<event>
 5   0  0.4983208E-07  0.2699105E+04  0.7818609E-02  0.8335296E-01
        2   -1    0    0  501    0  0.00000000000E+00  0.00000000000E+00  0.12319873613E+04  0.12319873613E+04  0.25500000920E-02 0. -1.
       -2   -1    0    0    0  501  0.00000000000E+00  0.00000000000E+00 -0.14783360828E+04  0.14783360828E+04  0.25500000920E-02 0.  1.
    10030    2    1    2    0    0  0.00000000000E+00  0.00000000000E+00 -0.24634872142E+03  0.27103234441E+04  0.26991045699E+04 0.  0.
        4    1    3    3  502    0 -0.23756896478E+03 -0.12913121523E+04 -0.43650284443E+03  0.13836410062E+04  0.12699999809E+01 0. -1.
       -4    1    3    3    0  502  0.23756896478E+03  0.12913121523E+04  0.19015412301E+03  0.13266824380E+04  0.12699999809E+01 0.  1.
</event>
<event>
 5   0  0.4983208E-07  0.2700467E+04  0.7818609E-02  0.8334853E-01
        2   -1    0    0  501    0  0.00000000000E+00  0.00000000000E+00  0.24259998689E+04  0.24259998689E+04  0.25500000920E-02 0. -1.
       -2   -1    0    0    0  501  0.00000000000E+00  0.00000000000E+00 -0.75149657025E+03  0.75149657026E+03  0.25500000920E-02 0.  1.
    10030    2    1    2    0    0  0.00000000000E+00  0.00000000000E+00  0.16745032986E+04  0.31774964391E+04  0.27004670566E+04 0.  0.
        4    1    3    3  502    0 -0.43643116890E+03 -0.12645402714E+04  0.10529176098E+04  0.17024016474E+04  0.12699999809E+01 0. -1.
       -4    1    3    3    0  502  0.43643116890E+03  0.12645402714E+04  0.62158568883E+03  0.14750947917E+04  0.12699999809E+01 0.  1.
</event>
<event>
 5   0  0.4843887E-07  0.2698697E+04  0.7818609E-02  0.8335428E-01
        2   -1    0    0  501    0  0.00000000000E+00  0.00000000000E+00  0.11083412425E+04  0.11083412425E+04  0.25500000920E-02 0.  1.
       -2   -1    0    0    0  501  0.00000000000E+00  0.00000000000E+00 -0.16427623641E+04  0.16427623641E+04  0.25500000920E-02 0. -1.
    10030    2    1    2    0    0  0.00000000000E+00  0.00000000000E+00 -0.53442112164E+03  0.27511036066E+04  0.26986969298E+04 0.  0.
        5    1    3    3  502    0 -0.84976564930E+03 -0.22136988429E+03 -0.13116118812E+04  0.15784340662E+04  0.46999998093E+01 0. -1.
       -5    1    3    3    0  502  0.84976564930E+03  0.22136988429E+03  0.77719075952E+03  0.11726695404E+04  0.46999998093E+01 0.  1.
</event>
<event>
 5   0  0.1937896E-07  0.2709365E+04  0.7818609E-02  0.8331973E-01
        1   -1    0    0  501    0  0.00000000000E+00  0.00000000000E+00  0.17763179805E+04  0.17763179805E+04  0.50400001928E-02 0. -1.
       -1   -1    0    0    0  501  0.00000000000E+00  0.00000000000E+00 -0.10331285448E+04  0.10331285449E+04  0.50400001928E-02 0.  1.
    10030    2    1    2    0    0  0.00000000000E+00  0.00000000000E+00  0.74318943569E+03  0.28094465254E+04  0.27093650994E+04 0.  0.
        3    1    3    3  502    0 -0.10368134738E+04  0.43292877499E+03 -0.41316697453E+03  0.11971284236E+04  0.10100000352E+00 0.  1.
       -3    1    3    3    0  502  0.10368134738E+04 -0.43292877499E+03  0.11563564102E+04  0.16123181018E+04  0.10100000352E+00 0. -1.
</event>
<event>
 5   0  0.1964242E-07  0.2700185E+04  0.7818609E-02  0.8334945E-01
       -1   -1    0    0    0  501  0.00000000000E+00  0.00000000000E+00  0.11838988240E+04  0.11838988240E+04  0.50400001928E-02 0. -1.
        1   -1    0    0  501    0  0.00000000000E+00  0.00000000000E+00 -0.15396158862E+04  0.15396158862E+04  0.50400001928E-02 0.  1.
    10030    2    1    2    0    0  0.00000000000E+00  0.00000000000E+00 -0.35571706218E+03  0.27235147102E+04  0.27001847619E+04 0.  0.
        2    1    3    3  502    0 -0.12421373033E+04 -0.12208982202E+03 -0.69702749734E+03  0.14295657861E+04  0.25500000920E-02 0.  1.
       -2    1    3    3    0  502  0.12421373033E+04  0.12208982202E+03  0.34131043516E+03  0.12939489240E+04  0.25500000920E-02 0. -1.
</event>
<event>
 5   0  0.4992668E-07  0.2699016E+04  0.7818609E-02  0.8335324E-01
       -2   -1    0    0    0  501  0.00000000000E+00  0.00000000000E+00  0.15678249852E+04  0.15678249852E+04  0.25500000920E-02 0. -1.
        2   -1    0    0  501    0  0.00000000000E+00  0.00000000000E+00 -0.11615910109E+04  0.11615910109E+04  0.25500000920E-02 0.  1.
    10030    2    1    2    0    0  0.00000000000E+00  0.00000000000E+00  0.40623397423E+03  0.27294159961E+04  0.26990156795E+04 0.  0.
        1    1    3    3  502    0  0.21438982889E+03  0.13323053401E+04  0.21633677602E+03  0.13666755718E+04  0.50400001928E-02 0. -1.
       -1    1    3    3    0  502 -0.21438982889E+03 -0.13323053401E+04  0.18989719821E+03  0.13627404243E+04  0.50400001928E-02 0.  1.
</event>
<event>
 5   0  0.1965415E-07  0.2700932E+04  0.7818609E-02  0.8334703E-01
       -1   -1    0    0    0  501  0.00000000000E+00  0.00000000000E+00  0.76043492692E+03  0.76043492693E+03  0.50400001928E-02 0. -1.
        1   -1    0    0  501    0  0.00000000000E+00  0.00000000000E+00 -0.23983096193E+04  0.23983096193E+04  0.50400001928E-02 0.  1.
    10030    2    1    2    0    0  0.00000000000E+00  0.00000000000E+00 -0.16378746924E+04  0.31587445463E+04  0.27009319874E+04 0.  0.
        4    1    3    3  502    0 -0.87295744329E+03  0.10263695617E+04 -0.71259875354E+03  0.15242335029E+04  0.12699999809E+01 0. -1.
       -4    1    3    3    0  502  0.87295744329E+03 -0.10263695617E+04 -0.92527593887E+03  0.16345110434E+04  0.12699999809E+01 0.  1.
</event>
<event>
 5   0  0.4983208E-07  0.2700033E+04  0.7818609E-02  0.8334994E-01
        2   -1    0    0  501    0  0.00000000000E+00  0.00000000000E+00  0.16798694258E+04  0.16798694258E+04  0.25500000920E-02 0. -1.
       -2   -1    0    0    0  501  0.00000000000E+00  0.00000000000E+00 -0.10849326405E+04  0.10849326405E+04  0.25500000920E-02 0.  1.
    10030    2    1    2    0    0  0.00000000000E+00  0.00000000000E+00  0.59493678536E+03  0.27648020663E+04  0.27000334604E+04 0.  0.
        4    1    3    3  502    0 -0.13791591317E+03 -0.69642821271E+03  0.14732771655E+04  0.16354144043E+04  0.12699999809E+01 0. -1.
       -4    1    3    3    0  502  0.13791591317E+03  0.69642821271E+03 -0.87834038017E+03  0.11293876619E+04  0.12699999809E+01 0.  1.
</event>
<event>
 5   0  0.4735120E-07  0.2699745E+04  0.7818609E-02  0.8335088E-01
       -2   -1    0    0    0  501  0.00000000000E+00  0.00000000000E+00  0.11140240141E+04  0.11140240141E+04  0.25500000920E-02 0.  1.
        2   -1    0    0  501    0  0.00000000000E+00  0.00000000000E+00 -0.16356517345E+04  0.16356517345E+04  0.25500000920E-02 0. -1.
    10030    2    1    2    0    0  0.00000000000E+00  0.00000000000E+00 -0.52162772044E+03  0.27496757485E+04  0.26997446626E+04 0.  0.
        2    1    3    3  502    0  0.43341100874E+02 -0.11528505701E+04 -0.97464166897E+03  0.15102547040E+04  0.25500000920E-02 0.  1.
       -2    1    3    3    0  502 -0.43341100874E+02  0.11528505701E+04  0.45301394853E+03  0.12394210445E+04  0.25500000920E-02 0. -1.
</event>
<event>
 5   0  0.1888149E-07  0.2702129E+04  0.7818609E-02  0.8334315E-01
       -1   -1    0    0    0  501  0.00000000000E+00  0.00000000000E+00  0.97423885656E+03  0.97423885657E+03  0.50400001928E-02 0. -1.
        1   -1    0    0  501    0  0.00000000000E+00  0.00000000000E+00 -0.18736422528E+04  0.18736422528E+04  0.50400001928E-02 0.  1.
    10030    2    1    2    0    0  0.00000000000E+00  0.00000000000E+00 -0.89940339628E+03  0.28478811094E+04  0.27021288541E+04 0.  0.
        1    1    3    3  502    0  0.12895850469E+04  0.94697259170E+02 -0.86246133754E+03  0.15542962147E+04  0.50400001928E-02 0.  1.
       -1    1    3    3    0  502 -0.12895850469E+04 -0.94697259170E+02 -0.36942058745E+02  0.12935848947E+04  0.50400001928E-02 0. -1.
</event>
<event>
 5   0  0.4983208E-07  0.2698683E+04  0.7818609E-02  0.8335433E-01
       -2   -1    0    0    0  501  0.00000000000E+00  0.00000000000E+00  0.11628958071E+04  0.11628958071E+04  0.25500000920E-02 0.  1.
        2   -1    0    0  501    0  0.00000000000E+00  0.00000000000E+00 -0.15656794085E+04  0.15656794085E+04  0.25500000920E-02 0. -1.
    10030    2    1    2    0    0  0.00000000000E+00  0.00000000000E+00 -0.40278360141E+03  0.27285752155E+04  0.26986826559E+04 0.  0.
        4    1    3    3  502    0  0.13691170757E+03  0.12178946480E+04 -0.77218756615E+03  0.14485466646E+04  0.12699999809E+01 0. -1.
       -4    1    3    3    0  502 -0.13691170757E+03 -0.12178946480E+04  0.36940396474E+03  0.12800285510E+04  0.12699999809E+01 0.  1.
</event>
<event>
 5   0  0.1937896E-07  0.2699424E+04  0.7818609E-02  0.8335192E-01
       -1   -1    0    0    0  501  0.00000000000E+00  0.00000000000E+00  0.29728077211E+04  0.29728077211E+04  0.50400001928E-02 0. -1.
        1   -1    0    0  501    0  0.00000000000E+00  0.00000000000E+00 -0.61279537737E+03  0.61279537739E+03  0.50400001928E-02 0.  1.
    10030    2    1    2    0    0  0.00000000000E+00  0.00000000000E+00  0.23600123438E+04  0.35856030985E+04  0.26994242567E+04 0.  0.
        3    1    3    3  502    0  0.48475179421E+03  0.11012736248E+04  0.19922549759E+04  0.23274165501E+04  0.10100000352E+00 0.  1.
       -3    1    3    3    0  502 -0.48475179421E+03 -0.11012736248E+04  0.36775736786E+03  0.12581865484E+04  0.10100000352E+00 0. -1.
</event>
<event>
 5   0  0.4843887E-07  0.2699477E+04  0.7818609E-02  0.8335175E-01
       -2   -1    0    0    0  501  0.00000000000E+00  0.00000000000E+00  0.15316338069E+04  0.15316338069E+04  0.25500000920E-02 0. -1.
        2   -1    0    0  501    0  0.00000000000E+00  0.00000000000E+00 -0.11894447708E+04  0.11894447708E+04  0.25500000920E-02 0.  1.
    10030    2    1    2    0    0  0.00000000000E+00  0.00000000000E+00  0.34218903605E+03  0.27210785777E+04  0.26994768548E+04 0.  0.
        5    1    3    3  502    0  0.75536545147E+03 -0.11057179878E+04  0.67804578846E+00  0.13391085780E+04  0.46999998093E+01 0. -1.
       -5    1    3    3    0  502 -0.75536545147E+03  0.11057179878E+04  0.34151099026E+03  0.13819699998E+04  0.46999998093E+01 0.  1.
</event>
<event>
 5   0  0.4843887E-07  0.2700917E+04  0.7818609E-02  0.8334707E-01
       -2   -1    0    0    0  501  0.00000000000E+00  0.00000000000E+00  0.63087694008E+03  0.63087694008E+03  0.25500000920E-02 0.  1.
        2   -1    0    0  501    0  0.00000000000E+00  0.00000000000E+00 -0.28907994045E+04  0.28907994045E+04  0.25500000920E-02 0. -1.
    10030    2    1    2    0    0  0.00000000000E+00  0.00000000000E+00 -0.22599224644E+04  0.35216763446E+04  0.27009173869E+04 0.  0.
        5    1    3    3  502    0  0.22608448347E+03 -0.11815118171E+04 -0.32976430837E+03  0.12473375472E+04  0.46999998093E+01 0.  1.
       -5    1    3    3    0  502 -0.22608448347E+03  0.11815118171E+04 -0.19301581561E+04  0.22743387973E+04  0.46999998093E+01 0. -1.
</event>
<event>
 5   0  0.4992668E-07  0.2704424E+04  0.7818609E-02  0.8333571E-01
       -2   -1    0    0    0  501  0.00000000000E+00  0.00000000000E+00  0.12925649652E+04  0.12925649652E+04  0.25500000920E-02 0.  1.
        2   -1    0    0  501    0  0.00000000000E+00  0.00000000000E+00 -0.14146118422E+04  0.14146118422E+04  0.25500000920E-02 0. -1.
    10030    2    1    2    0    0  0.00000000000E+00  0.00000000000E+00 -0.12204687697E+03  0.27071768074E+04  0.27044243059E+04 0.  0.
        1    1    3    3  502    0  0.12991069651E+04 -0.25069530619E+03  0.21845718146E+03  0.13409886589E+04  0.50400001928E-02 0. -1.
       -1    1    3    3    0  502 -0.12991069651E+04  0.25069530619E+03 -0.34050405843E+03  0.13661881485E+04  0.50400001928E-02 0.  1.
</event>
<event>
 5   0  0.1965415E-07  0.2699736E+04  0.7818609E-02  0.8335091E-01
        1   -1    0    0  501    0  0.00000000000E+00  0.00000000000E+00  0.19693409931E+04  0.19693409931E+04  0.50400001928E-02 0. -1.
       -1   -1    0    0    0  501  0.00000000000E+00  0.00000000000E+00 -0.92525548566E+03  0.92525548567E+03  0.50400001928E-02 0.  1.
    10030    2    1    2    0    0  0.00000000000E+00  0.00000000000E+00  0.10440855074E+04  0.28945964788E+04  0.26997359552E+04 0.  0.
        4    1    3    3  502    0  0.10891286467E+04 -0.55191818949E+03 -0.95113570767E+02  0.12246889814E+04  0.12699999809E+01 0. -1.
       -4    1    3    3    0  502 -0.10891286467E+04  0.55191818949E+03  0.11391990782E+04  0.16699074973E+04  0.12699999809E+01 0.  1.
</event>
<event>
 5   0  0.1937896E-07  0.2700268E+04  0.7818609E-02  0.8334918E-01
       -1   -1    0    0    0  501  0.00000000000E+00  0.00000000000E+00  0.13233129274E+04  0.13233129274E+04  0.50400001928E-02 0. -1.
        1   -1    0    0  501    0  0.00000000000E+00  0.00000000000E+00 -0.13774991123E+04  0.13774991123E+04  0.50400001928E-02 0.  1.
    10030    2    1    2    0    0  0.00000000000E+00  0.00000000000E+00 -0.54186184953E+02  0.27008120397E+04  0.27002684184E+04 0.  0.
        3    1    3    3  502    0  0.98635466277E+03 -0.91986945728E+03  0.34620491579E+02  0.13491678650E+04  0.10100000352E+00 0. -1.
       -3    1    3    3    0  502 -0.98635466277E+03  0.91986945728E+03 -0.88806676532E+02  0.13516441748E+04  0.10100000352E+00 0.  1.
</event>
<event>
 5   0  0.1937896E-07  0.2699092E+04  0.7818609E-02  0.8335300E-01
       -1   -1    0    0    0  501  0.00000000000E+00  0.00000000000E+00  0.12801936136E+04  0.12801936136E+04  0.50400001928E-02 0. -1.
        1   -1    0    0  501    0  0.00000000000E+00  0.00000000000E+00 -0.14226557804E+04  0.14226557804E+04  0.50400001928E-02 0.  1.
    10030    2    1    2    0    0  0.00000000000E+00  0.00000000000E+00 -0.14246216688E+03  0.27028493940E+04  0.26990923248E+04 0.  0.
        3    1    3    3  502    0  0.13951406116E+03 -0.27492981167E+03 -0.13869184804E+04  0.14207721338E+04  0.10100000352E+00 0.  1.
       -3    1    3    3    0  502 -0.13951406116E+03  0.27492981167E+03  0.12444563136E+04  0.12820772602E+04  0.10100000352E+00 0. -1.
</event>
<event>
 5   0  0.4983208E-07  0.2700102E+04  0.7818609E-02  0.8334972E-01
        2   -1    0    0  501    0  0.00000000000E+00  0.00000000000E+00  0.16904403590E+04  0.16904403590E+04  0.25500000920E-02 0. -1.
       -2   -1    0    0    0  501  0.00000000000E+00  0.00000000000E+00 -0.10782025266E+04  0.10782025266E+04  0.25500000920E-02 0.  1.
    10030    2    1    2    0    0  0.00000000000E+00  0.00000000000E+00  0.61223783246E+03  0.27686428856E+04  0.27001015286E+04 0.  0.
        4    1    3    3  502    0  0.65564677235E+03  0.37638210875E+03 -0.84080004477E+03  0.11307000089E+04  0.12699999809E+01 0.  1.
       -4    1    3    3    0  502 -0.65564677235E+03 -0.37638210875E+03  0.14530378772E+04  0.16379428767E+04  0.12699999809E+01 0. -1.
</event>
<event>
 5   0  0.1971600E-07  0.2699863E+04  0.7818609E-02  0.8335049E-01
        1   -1    0    0  501    0  0.00000000000E+00  0.00000000000E+00  0.15498550807E+04  0.15498550807E+04  0.50400001928E-02 0. -1.
       -1   -1    0    0    0  501  0.00000000000E+00  0.00000000000E+00 -0.11757974992E+04  0.11757974992E+04  0.50400001928E-02 0.  1.
    10030    2    1    2    0    0  0.00000000000E+00  0.00000000000E+00  0.37405758143E+03  0.27256525799E+04  0.26998634988E+04 0.  0.
        5    1    3    3  502    0 -0.11932070834E+04  0.45089716265E+03  0.63311170056E+03  0.14240449117E+04  0.46999998093E+01 0.  1.
       -5    1    3    3    0  502  0.11932070834E+04 -0.45089716265E+03 -0.25905411913E+03  0.13016076682E+04  0.46999998093E+01 0. -1.
</event>
<event>
 5   0  0.1888149E-07  0.2699965E+04  0.7818609E-02  0.8335016E-01
       -1   -1    0    0    0  501  0.00000000000E+00  0.00000000000E+00  0.13850366904E+04  0.13850366904E+04  0.50400001928E-02 0.  1.
        1   -1    0    0  501    0  0.00000000000E+00  0.00000000000E+00 -0.13158152468E+04  0.13158152468E+04  0.50400001928E-02 0. -1.
    10030    2    1    2    0    0  0.00000000000E+00  0.00000000000E+00  0.69221443617E+02  0.27008519372E+04  0.26999647365E+04 0.  0.
        1    1    3    3  502    0  0.89203688931E+03 -0.65283085949E+03 -0.74058550126E+03  0.13305580888E+04  0.50400001928E-02 0. -1.
       -1    1    3    3    0  502 -0.89203688931E+03  0.65283085949E+03  0.80980694488E+03  0.13702938484E+04  0.50400001928E-02 0.  1.
</event>
<event>
 5   0  0.1964242E-07  0.2700245E+04  0.7818609E-02  0.8334926E-01
        1   -1    0    0  501    0  0.00000000000E+00  0.00000000000E+00  0.12926922033E+04  0.12926922033E+04  0.50400001928E-02 0.  1.
       -1   -1    0    0    0  501  0.00000000000E+00  0.00000000000E+00 -0.14101037475E+04  0.14101037475E+04  0.50400001928E-02 0. -1.
    10030    2    1    2    0    0  0.00000000000E+00  0.00000000000E+00 -0.11741154423E+03  0.27027959508E+04  0.27002445224E+04 0.  0.
        2    1    3    3  502    0  0.12558495962E+04  0.43346953405E+03 -0.29929943448E+03  0.13618495500E+04  0.25500000920E-02 0. -1.
       -2    1    3    3    0  502 -0.12558495962E+04 -0.43346953405E+03  0.18188789026E+03  0.13409464008E+04  0.25500000920E-02 0.  1.
</event>
<event>
 5   0  0.5043890E-07  0.2701469E+04  0.7818609E-02  0.8334528E-01
        2   -1    0    0  501    0  0.00000000000E+00  0.00000000000E+00  0.19683083778E+04  0.19683083778E+04  0.25500000920E-02 0.  1.
       -2   -1    0    0    0  501  0.00000000000E+00  0.00000000000E+00 -0.92692981675E+03  0.92692981676E+03  0.25500000920E-02 0. -1.
    10030    2    1    2    0    0  0.00000000000E+00  0.00000000000E+00  0.10413785611E+04  0.28952381946E+04  0.27014690255E+04 0.  0.
        3    1    3    3  502    0  0.11009735410E+04  0.61016755633E+03  0.10457662574E+04  0.16364822822E+04  0.10100000352E+00 0.  1.
       -3    1    3    3    0  502 -0.11009735410E+04 -0.61016755633E+03 -0.43876963386E+01  0.12587559123E+04  0.10100000352E+00 0. -1.
</event>
<event>
 5   0  0.4983208E-07  0.2687758E+04  0.7818609E-02  0.8338988E-01
       -2   -1    0    0    0  501  0.00000000000E+00  0.00000000000E+00  0.11813096175E+04  0.11813096175E+04  0.25500000920E-02 0. -1.
        2   -1    0    0  501    0  0.00000000000E+00  0.00000000000E+00 -0.15288205938E+04  0.15288205938E+04  0.25500000920E-02 0.  1.
    10030    2    1    2    0    0  0.00000000000E+00  0.00000000000E+00 -0.34751097632E+03  0.27101302112E+04  0.26877577799E+04 0.  0.
        4    1    3    3  502    0 -0.46827521876E+03  0.62119608969E+03  0.93119564643E+03  0.12133808995E+04  0.12699999809E+01 0. -1.
       -4    1    3    3    0  502  0.46827521876E+03 -0.62119608969E+03 -0.12787066228E+04  0.14967493118E+04  0.12699999809E+01 0.  1.
</event>
<event>
 5   0  0.4992668E-07  0.2699860E+04  0.7818609E-02  0.8335050E-01
        2   -1    0    0  501    0  0.00000000000E+00  0.00000000000E+00  0.24151966816E+04  0.24151966816E+04  0.25500000920E-02 0. -1.
       -2   -1    0    0    0  501  0.00000000000E+00  0.00000000000E+00 -0.75451890376E+03  0.75451890376E+03  0.25500000920E-02 0.  1.
    10030    2    1    2    0    0  0.00000000000E+00  0.00000000000E+00  0.16606777779E+04  0.31697155854E+04  0.26998604057E+04 0.  0.
        1    1    3    3  502    0  0.38909472458E+03 -0.29132000099E+03  0.23088934480E+04  0.23595022785E+04  0.50400001928E-02 0. -1.
       -1    1    3    3    0  502 -0.38909472458E+03  0.29132000099E+03 -0.64821567015E+03  0.81021330693E+03  0.50400001928E-02 0.  1.
</event>
<event>
 5   0  0.5043890E-07  0.2700238E+04  0.7818609E-02  0.8334928E-01
        2   -1    0    0  501    0  0.00000000000E+00  0.00000000000E+00  0.22276275484E+04  0.22276275485E+04  0.25500000920E-02 0.  1.
       -2   -1    0    0    0  501  0.00000000000E+00  0.00000000000E+00 -0.81827891161E+03  0.81827891162E+03  0.25500000920E-02 0. -1.
    10030    2    1    2    0    0  0.00000000000E+00  0.00000000000E+00  0.14093486368E+04  0.30459064601E+04  0.27002375050E+04 0.  0.
        3    1    3    3  502    0 -0.41974686897E+03  0.11483847527E+04  0.58798065245E+02  0.12241046512E+04  0.10100000352E+00 0. -1.
       -3    1    3    3    0  502  0.41974686897E+03 -0.11483847527E+04  0.13505505716E+04  0.18218018089E+04  0.10100000352E+00 0.  1.
</event>
<event>
 5   0  0.1971600E-07  0.2699983E+04  0.7818609E-02  0.8335011E-01
        1   -1    0    0  501    0  0.00000000000E+00  0.00000000000E+00  0.21026598845E+04  0.21026598845E+04  0.50400001928E-02 0. -1.
       -1   -1    0    0    0  501  0.00000000000E+00  0.00000000000E+00 -0.86674816234E+03  0.86674816236E+03  0.50400001928E-02 0.  1.
    10030    2    1    2    0    0  0.00000000000E+00  0.00000000000E+00  0.12359117221E+04  0.29694080468E+04  0.26999826599E+04 0.  0.
        5    1    3    3  502    0 -0.17915078368E+03  0.12584821079E+04  0.11178239826E+04  0.16927565582E+04  0.46999998093E+01 0. -1.
       -5    1    3    3    0  502  0.17915078368E+03 -0.12584821079E+04  0.11808773956E+03  0.12766514887E+04  0.46999998093E+01 0.  1.
</event>
<event>
 5   0  0.1965415E-07  0.2699210E+04  0.7818609E-02  0.8335261E-01
       -1   -1    0    0    0  501  0.00000000000E+00  0.00000000000E+00  0.22280396167E+04  0.22280396167E+04  0.50400001928E-02 0.  1.
        1   -1    0    0  501    0  0.00000000000E+00  0.00000000000E+00 -0.81750521557E+03  0.81750521558E+03  0.50400001928E-02 0. -1.
    10030    2    1    2    0    0  0.00000000000E+00  0.00000000000E+00  0.14105344012E+04  0.30455448323E+04  0.26992102602E+04 0.  0.
        4    1    3    3  502    0 -0.15489926993E+03 -0.12970402224E+04  0.10881039461E+04  0.17000820370E+04  0.12699999809E+01 0.  1.
       -4    1    3    3    0  502  0.15489926993E+03  0.12970402224E+04  0.32243045506E+03  0.13454627953E+04  0.12699999809E+01 0. -1.
</event>
<event>
 5   0  0.1971600E-07  0.2700096E+04  0.7818609E-02  0.8334974E-01
        1   -1    0    0  501    0  0.00000000000E+00  0.00000000000E+00  0.80412411677E+03  0.80412411678E+03  0.50400001928E-02 0.  1.
       -1   -1    0    0    0  501  0.00000000000E+00  0.00000000000E+00 -0.22666031222E+04  0.22666031222E+04  0.50400001928E-02 0. -1.
    10030    2    1    2    0    0  0.00000000000E+00  0.00000000000E+00 -0.14624790055E+04  0.30707272390E+04  0.27000964677E+04 0.  0.
        5    1    3    3  502    0 -0.90157057756E+03  0.19610998937E+03  0.38959893645E+03  0.10015478299E+04  0.46999998093E+01 0.  1.
       -5    1    3    3    0  502  0.90157057756E+03 -0.19610998937E+03 -0.18520779419E+04  0.20691794091E+04  0.46999998093E+01 0. -1.
</event>
<event>
 5   0  0.1937896E-07  0.2700700E+04  0.7818609E-02  0.8334778E-01
       -1   -1    0    0    0  501  0.00000000000E+00  0.00000000000E+00  0.95369532798E+03  0.95369532799E+03  0.50400001928E-02 0.  1.
        1   -1    0    0  501    0  0.00000000000E+00  0.00000000000E+00 -0.19119792228E+04  0.19119792229E+04  0.50400001928E-02 0. -1.
    10030    2    1    2    0    0  0.00000000000E+00  0.00000000000E+00 -0.95828389487E+03  0.28656745508E+04  0.27007003922E+04 0.  0.
        3    1    3    3  502    0  0.65122407971E+02  0.88534813350E+03  0.60054254328E+03  0.10717899057E+04  0.10100000352E+00 0.  1.
       -3    1    3    3    0  502 -0.65122407971E+02 -0.88534813350E+03 -0.15588264382E+04  0.17938846451E+04  0.10100000352E+00 0. -1.
</event>
<event>
 5   0  0.4983208E-07  0.2700930E+04  0.7818609E-02  0.8334703E-01
        2   -1    0    0  501    0  0.00000000000E+00  0.00000000000E+00  0.23978616298E+04  0.23978616298E+04  0.25500000920E-02 0.  1.
       -2   -1    0    0    0  501  0.00000000000E+00  0.00000000000E+00 -0.76057582925E+03  0.76057582925E+03  0.25500000920E-02 0. -1.
    10030    2    1    2    0    0  0.00000000000E+00  0.00000000000E+00  0.16372858005E+04  0.31584374590E+04  0.27009299121E+04 0.  0.
        4    1    3    3  502    0  0.11443818643E+03 -0.12596159126E+04  0.26515538487E+03  0.12922992443E+04  0.12699999809E+01 0. -1.
       -4    1    3    3    0  502 -0.11443818643E+03  0.12596159126E+04  0.13721304157E+04  0.18661382147E+04  0.12699999809E+01 0.  1.
</event>
<event>
 5   0  0.4992668E-07  0.2700488E+04  0.7818609E-02  0.8334847E-01
        2   -1    0    0  501    0  0.00000000000E+00  0.00000000000E+00  0.20700770249E+04  0.20700770249E+04  0.25500000920E-02 0.  1.
       -2   -1    0    0    0  501  0.00000000000E+00  0.00000000000E+00 -0.88072044160E+03  0.88072044161E+03  0.25500000920E-02 0. -1.
    10030    2    1    2    0    0  0.00000000000E+00  0.00000000000E+00  0.11893565833E+04  0.29507974665E+04  0.27004882163E+04 0.  0.
        1    1    3    3  502    0  0.13826481143E+03  0.68062490788E+03 -0.67057587552E+03  0.96542189128E+03  0.50400001928E-02 0. -1.
       -1    1    3    3    0  502 -0.13826481143E+03 -0.68062490788E+03  0.18599324588E+04  0.19853755752E+04  0.50400001928E-02 0.  1.
</event>
<event>
 5   0  0.4735120E-07  0.2703449E+04  0.7818609E-02  0.8333887E-01
        2   -1    0    0  501    0  0.00000000000E+00  0.00000000000E+00  0.23896501685E+04  0.23896501685E+04  0.25500000920E-02 0. -1.
       -2   -1    0    0    0  501  0.00000000000E+00  0.00000000000E+00 -0.76461371648E+03  0.76461371649E+03  0.25500000920E-02 0.  1.
    10030    2    1    2    0    0  0.00000000000E+00  0.00000000000E+00  0.16250364520E+04  0.31542638850E+04  0.27034491277E+04 0.  0.
        2    1    3    3  502    0  0.54916085359E+03  0.11803481902E+04  0.38803759482E+03  0.13584449448E+04  0.25500000920E-02 0.  1.
       -2    1    3    3    0  502 -0.54916085359E+03 -0.11803481902E+04  0.12369988572E+04  0.17958189402E+04  0.25500000920E-02 0. -1.
</event>
<event>
 5   0  0.1937896E-07  0.2708453E+04  0.7818609E-02  0.8332267E-01
       -1   -1    0    0    0  501  0.00000000000E+00  0.00000000000E+00  0.94966529297E+03  0.94966529298E+03  0.50400001928E-02 0. -1.
        1   -1    0    0  501    0  0.00000000000E+00  0.00000000000E+00 -0.19311328996E+04  0.19311328996E+04  0.50400001928E-02 0.  1.
    10030    2    1    2    0    0  0.00000000000E+00  0.00000000000E+00 -0.98146760659E+03  0.28807981925E+04  0.27084533526E+04 0.  0.
        3    1    3    3  502    0 -0.12035386802E+04 -0.25658138253E+03  0.11056234222E+03  0.12355417445E+04  0.10100000352E+00 0. -1.
       -3    1    3    3    0  502  0.12035386802E+04  0.25658138253E+03 -0.10920299488E+04  0.16452564481E+04  0.10100000352E+00 0.  1.
</event>
<event>
 5   0  0.5043890E-07  0.2699513E+04  0.7818609E-02  0.8335163E-01
       -2   -1    0    0    0  501  0.00000000000E+00  0.00000000000E+00  0.18354962310E+04  0.18354962310E+04  0.25500000920E-02 0.  1.
        2   -1    0    0  501    0  0.00000000000E+00  0.00000000000E+00 -0.99256149125E+03  0.99256149125E+03  0.25500000920E-02 0. -1.
    10030    2    1    2    0    0  0.00000000000E+00  0.00000000000E+00  0.84293473979E+03  0.28280577223E+04  0.26995131978E+04 0.  0.
        3    1    3    3  502    0  0.45889136563E+03 -0.10124373450E+04  0.12235842393E+04  0.16531089087E+04  0.10100000352E+00 0.  1.
       -3    1    3    3    0  502 -0.45889136563E+03  0.10124373450E+04 -0.38064949953E+03  0.11749488136E+04  0.10100000352E+00 0. -1.
</event>
<event>
 5   0  0.4843887E-07  0.2699492E+04  0.7818609E-02  0.8335170E-01
        2   -1    0    0  501    0  0.00000000000E+00  0.00000000000E+00  0.21219201668E+04  0.21219201668E+04  0.25500000920E-02 0.  1.
       -2   -1    0    0    0  501  0.00000000000E+00  0.00000000000E+00 -0.85856885560E+03  0.85856885561E+03  0.25500000920E-02 0. -1.
    10030    2    1    2    0    0  0.00000000000E+00  0.00000000000E+00  0.12633513112E+04  0.29804890224E+04  0.26994922258E+04 0.  0.
        5    1    3    3  502    0 -0.56966821427E+03  0.12198921449E+04  0.52615675993E+03  0.14455178123E+04  0.46999998093E+01 0.  1.
       -5    1    3    3    0  502  0.56966821427E+03 -0.12198921449E+04  0.73719455131E+03  0.15349712102E+04  0.46999998093E+01 0. -1.
</event>
<event>
 5   0  0.4992668E-07  0.2700315E+04  0.7818609E-02  0.8334903E-01
       -2   -1    0    0    0  501  0.00000000000E+00  0.00000000000E+00  0.90677362551E+03  0.90677362551E+03  0.25500000920E-02 0. -1.
        2   -1    0    0  501    0  0.00000000000E+00  0.00000000000E+00 -0.20103427841E+04  0.20103427841E+04  0.25500000920E-02 0.  1.
    10030    2    1    2    0    0  0.00000000000E+00  0.00000000000E+00 -0.11035691586E+04  0.29171164096E+04  0.27003154000E+04 0.  0.
        1    1    3    3  502    0  0.69006244582E+03 -0.25130617223E+03 -0.17757004242E+04  0.19215756472E+04  0.50400001928E-02 0.  1.
       -1    1    3    3    0  502 -0.69006244582E+03  0.25130617223E+03  0.67213126563E+03  0.99554076240E+03  0.50400001928E-02 0. -1.
</event>
<event>
 5   0  0.1937896E-07  0.2699702E+04  0.7818609E-02  0.8335102E-01
        1   -1    0    0  501    0  0.00000000000E+00  0.00000000000E+00  0.15282913566E+04  0.15282913566E+04  0.50400001928E-02 0. -1.
       -1   -1    0    0    0  501  0.00000000000E+00  0.00000000000E+00 -0.11922449810E+04  0.11922449810E+04  0.50400001928E-02 0.  1.
    10030    2    1    2    0    0  0.00000000000E+00  0.00000000000E+00  0.33604637558E+03  0.27205363376E+04  0.26997019832E+04 0.  0.
        3    1    3    3  502    0  0.31442281527E+03 -0.12718951632E+04  0.49536642490E+03  0.14007022946E+04  0.10100000352E+00 0. -1.
       -3    1    3    3    0  502 -0.31442281527E+03  0.12718951632E+04 -0.15932004932E+03  0.13198340431E+04  0.10100000352E+00 0.  1.
</event>
<event>
 5   0  0.1965415E-07  0.2699668E+04  0.7818609E-02  0.8335113E-01
        1   -1    0    0  501    0  0.00000000000E+00  0.00000000000E+00  0.13068241879E+04  0.13068241879E+04  0.50400001928E-02 0. -1.
       -1   -1    0    0    0  501  0.00000000000E+00  0.00000000000E+00 -0.13942594530E+04  0.13942594530E+04  0.50400001928E-02 0.  1.
    10030    2    1    2    0    0  0.00000000000E+00  0.00000000000E+00 -0.87435265153E+02  0.27010836409E+04  0.26996681110E+04 0.  0.
        4    1    3    3  502    0  0.47866668440E+02 -0.12476271997E+04  0.46956745797E+03  0.13339265564E+04  0.12699999809E+01 0. -1.
       -4    1    3    3    0  502 -0.47866668440E+02  0.12476271997E+04 -0.55700272312E+03  0.13671570845E+04  0.12699999809E+01 0.  1.
</event>
<event>
 5   0  0.1937896E-07  0.2700658E+04  0.7818609E-02  0.8334791E-01
        1   -1    0    0  501    0  0.00000000000E+00  0.00000000000E+00  0.11749764201E+04  0.11749764201E+04  0.50400001928E-02 0.  1.
       -1   -1    0    0    0  501  0.00000000000E+00  0.00000000000E+00 -0.15518511558E+04  0.15518511558E+04  0.50400001928E-02 0. -1.
    10030    2    1    2    0    0  0.00000000000E+00  0.00000000000E+00 -0.37687473563E+03  0.27268275759E+04  0.27006580795E+04 0.  0.
        3    1    3    3  502    0 -0.65819224869E+03 -0.97765534832E+03 -0.85388476502E+03  0.14553852474E+04  0.10100000352E+00 0. -1.
       -3    1    3    3    0  502  0.65819224869E+03  0.97765534832E+03  0.47701002938E+03  0.12714423285E+04  0.10100000352E+00 0.  1.
</event>
<event>
 5   0  0.4983208E-07  0.2701058E+04  0.7818609E-02  0.8334662E-01
        2   -1    0    0  501    0  0.00000000000E+00  0.00000000000E+00  0.13770207840E+04  0.13770207840E+04  0.25500000920E-02 0.  1.
       -2   -1    0    0    0  501  0.00000000000E+00  0.00000000000E+00 -0.13245468116E+04  0.13245468116E+04  0.25500000920E-02 0. -1.
    10030    2    1    2    0    0  0.00000000000E+00  0.00000000000E+00  0.52473972336E+02  0.27015675956E+04  0.27010579327E+04 0.  0.
        4    1    3    3  502    0 -0.92699148883E+02 -0.11146864538E+04  0.78322050010E+03  0.13654870879E+04  0.12699999809E+01 0.  1.
       -4    1    3    3    0  502  0.92699148883E+02  0.11146864538E+04 -0.73074652776E+03  0.13360805077E+04  0.12699999809E+01 0. -1.
</event>
<event>
 5   0  0.4843887E-07  0.2700661E+04  0.7818609E-02  0.8334791E-01
        2   -1    0    0  501    0  0.00000000000E+00  0.00000000000E+00  0.11987686738E+04  0.11987686738E+04  0.25500000920E-02 0.  1.
       -2   -1    0    0    0  501  0.00000000000E+00  0.00000000000E+00 -0.15210540092E+04  0.15210540092E+04  0.25500000920E-02 0. -1.
    10030    2    1    2    0    0  0.00000000000E+00  0.00000000000E+00 -0.32228533544E+03  0.27198226830E+04  0.27006605839E+04 0.  0.
        5    1    3    3  502    0  0.84566847031E+03 -0.52570506766E+03 -0.10796714929E+04  0.14687523966E+04  0.46999998093E+01 0. -1.
       -5    1    3    3    0  502 -0.84566847031E+03  0.52570506766E+03  0.75738615751E+03  0.12510702864E+04  0.46999998093E+01 0.  1.
</event>
<event>
 5   0  0.4735120E-07  0.2699592E+04  0.7818609E-02  0.8335137E-01
       -2   -1    0    0    0  501  0.00000000000E+00  0.00000000000E+00  0.12133870265E+04  0.12133870265E+04  0.25500000920E-02 0.  1.
        2   -1    0    0  501    0  0.00000000000E+00  0.00000000000E+00 -0.15015403459E+04  0.15015403459E+04  0.25500000920E-02 0. -1.
    10030    2    1    2    0    0  0.00000000000E+00  0.00000000000E+00 -0.28815331936E+03  0.27149273724E+04  0.26995922474E+04 0.  0.
        2    1    3    3  502    0 -0.57292443924E+03 -0.11717063663E+04  0.20547705303E+03  0.13203632232E+04  0.25500000920E-02 0.  1.
       -2    1    3    3    0  502  0.57292443924E+03  0.11717063663E+04 -0.49363037238E+03  0.13945641492E+04  0.25500000920E-02 0. -1.
</event>
<event>
 5   0  0.5043890E-07  0.2700531E+04  0.7818609E-02  0.8334833E-01
        2   -1    0    0  501    0  0.00000000000E+00  0.00000000000E+00  0.11952673058E+04  0.11952673058E+04  0.25500000920E-02 0.  1.
       -2   -1    0    0    0  501  0.00000000000E+00  0.00000000000E+00 -0.15253637672E+04  0.15253637672E+04  0.25500000920E-02 0. -1.
    10030    2    1    2    0    0  0.00000000000E+00  0.00000000000E+00 -0.33009646145E+03  0.27206310730E+04  0.27005313851E+04 0.  0.
        3    1    3    3  502    0 -0.22220513200E+03  0.11577338388E+04 -0.82835175541E+03  0.14407947123E+04  0.10100000352E+00 0. -1.
       -3    1    3    3    0  502  0.22220513200E+03 -0.11577338388E+04  0.49825529396E+03  0.12798363607E+04  0.10100000352E+00 0.  1.
</event>
<event>
 5   0  0.4735120E-07  0.2697991E+04  0.7818609E-02  0.8335657E-01
        2   -1    0    0  501    0  0.00000000000E+00  0.00000000000E+00  0.17985545688E+04  0.17985545688E+04  0.25500000920E-02 0. -1.
       -2   -1    0    0    0  501  0.00000000000E+00  0.00000000000E+00 -0.10118060313E+04  0.10118060313E+04  0.25500000920E-02 0.  1.
    10030    2    1    2    0    0  0.00000000000E+00  0.00000000000E+00  0.78674853752E+03  0.28103606001E+04  0.26979906303E+04 0.  0.
        2    1    3    3  502    0 -0.18497935785E+03 -0.11736903103E+04  0.10587445965E+04  0.15914479029E+04  0.25500000920E-02 0. -1.
       -2    1    3    3    0  502  0.18497935785E+03  0.11736903103E+04 -0.27199605896E+03  0.12189126972E+04  0.25500000920E-02 0.  1.
</event>
<event>
 5   0  0.5043890E-07  0.2697649E+04  0.7818609E-02  0.8335768E-01
       -2   -1    0    0    0  501  0.00000000000E+00  0.00000000000E+00  0.95102840529E+03  0.95102840529E+03  0.25500000920E-02 0.  1.
        2   -1    0    0  501    0  0.00000000000E+00  0.00000000000E+00 -0.19130113094E+04  0.19130113094E+04  0.25500000920E-02 0. -1.
    10030    2    1    2    0    0  0.00000000000E+00  0.00000000000E+00 -0.96198290412E+03  0.28640397147E+04  0.26976494175E+04 0.  0.
        3    1    3    3  502    0  0.42188831462E+03  0.19247965417E+03  0.86373811570E+03  0.98034774952E+03  0.10100000352E+00 0.  1.
       -3    1    3    3    0  502 -0.42188831462E+03 -0.19247965417E+03 -0.18257210198E+04  0.18836919652E+04  0.10100000352E+00 0. -1.
</event>
<event>
 5   0  0.5043890E-07  0.2700039E+04  0.7818609E-02  0.8334992E-01
       -2   -1    0    0    0  501  0.00000000000E+00  0.00000000000E+00  0.97795328817E+03  0.97795328818E+03  0.25500000920E-02 0.  1.
        2   -1    0    0  501    0  0.00000000000E+00  0.00000000000E+00 -0.18636397849E+04  0.18636397849E+04  0.25500000920E-02 0. -1.
    10030    2    1    2    0    0  0.00000000000E+00  0.00000000000E+00 -0.88568649673E+03  0.28415930731E+04  0.27000390039E+04 0.  0.
        3    1    3    3  502    0 -0.10022792903E+04 -0.24543566502E+03 -0.13589685518E+04  0.17063405218E+04  0.10100000352E+00 0. -1.
       -3    1    3    3    0  502  0.10022792903E+04  0.24543566502E+03  0.47328205508E+03  0.11352525513E+04  0.10100000352E+00 0.  1.
</event>
<event>
 5   0  0.4983208E-07  0.2699701E+04  0.7818609E-02  0.8335102E-01
       -2   -1    0    0    0  501  0.00000000000E+00  0.00000000000E+00  0.12978988086E+04  0.12978988086E+04  0.25500000920E-02 0.  1.
        2   -1    0    0  501    0  0.00000000000E+00  0.00000000000E+00 -0.14038811836E+04  0.14038811836E+04  0.25500000920E-02 0. -1.
    10030    2    1    2    0    0  0.00000000000E+00  0.00000000000E+00 -0.10598237506E+03  0.27017799922E+04  0.26997005135E+04 0.  0.
        4    1    3    3  502    0 -0.21946036448E+03 -0.65485883311E+03 -0.12136651750E+04  0.13964196048E+04  0.12699999809E+01 0. -1.
       -4    1    3    3    0  502  0.21946036448E+03  0.65485883311E+03  0.11076827999E+04  0.13053603874E+04  0.12699999809E+01 0.  1.
</event>
<event>
 5   0  0.1971600E-07  0.2701367E+04  0.7818609E-02  0.8334562E-01
        1   -1    0    0  501    0  0.00000000000E+00  0.00000000000E+00  0.68199347508E+03  0.68199347510E+03  0.50400001928E-02 0. -1.
       -1   -1    0    0    0  501  0.00000000000E+00  0.00000000000E+00 -0.26750188365E+04  0.26750188365E+04  0.50400001928E-02 0.  1.
    10030    2    1    2    0    0  0.00000000000E+00  0.00000000000E+00 -0.19930253614E+04  0.33570123116E+04  0.27013666114E+04 0.  0.
        5    1    3    3  502    0  0.28482897070E+03 -0.56321796648E+03  0.48746141065E+03  0.79748525828E+03  0.46999998093E+01 0. -1.
       -5    1    3    3    0  502 -0.28482897070E+03  0.56321796648E+03 -0.24804867721E+04  0.25595270533E+04  0.46999998093E+01 0.  1.
</event>
<event>
 5   0  0.1964242E-07  0.2700012E+04  0.7818609E-02  0.8335001E-01
        1   -1    0    0  501    0  0.00000000000E+00  0.00000000000E+00  0.17206179551E+04  0.17206179551E+04  0.50400001928E-02 0.  1.
       -1   -1    0    0    0  501  0.00000000000E+00  0.00000000000E+00 -0.10592219227E+04  0.10592219228E+04  0.50400001928E-02 0. -1.
    10030    2    1    2    0    0  0.00000000000E+00  0.00000000000E+00  0.66139603233E+03  0.27798398778E+04  0.27000120435E+04 0.  0.
        2    1    3    3  502    0 -0.35116787392E+03  0.13017445536E+04  0.26042685344E+03  0.13732006061E+04  0.25500000920E-02 0.  1.
       -2    1    3    3    0  502  0.35116787392E+03 -0.13017445536E+04  0.40096917888E+03  0.14066392718E+04  0.25500000920E-02 0. -1.
</event>
<event>
 5   0  0.1964242E-07  0.2701122E+04  0.7818609E-02  0.8334641E-01
       -1   -1    0    0    0  501  0.00000000000E+00  0.00000000000E+00  0.92881292292E+03  0.92881292293E+03  0.50400001928E-02 0. -1.
        1   -1    0    0  501    0  0.00000000000E+00  0.00000000000E+00 -0.19638126990E+04  0.19638126990E+04  0.50400001928E-02 0.  1.
    10030    2    1    2    0    0  0.00000000000E+00  0.00000000000E+00 -0.10349997761E+04  0.28926256220E+04  0.27011217026E+04 0.  0.
        2    1    3    3  502    0  0.73459595784E+02 -0.47036276498E+03  0.83598001929E+03  0.96202912407E+03  0.25500000920E-02 0. -1.
       -2    1    3    3    0  502 -0.73459595784E+02  0.47036276498E+03 -0.18709797954E+04  0.19305964979E+04  0.25500000920E-02 0.  1.
</event>
<event>
 5   0  0.1937896E-07  0.2699651E+04  0.7818609E-02  0.8335118E-01
        1   -1    0    0  501    0  0.00000000000E+00  0.00000000000E+00  0.18785247150E+04  0.18785247151E+04  0.50400001928E-02 0.  1.
       -1   -1    0    0    0  501  0.00000000000E+00  0.00000000000E+00 -0.96992569258E+03  0.96992569259E+03  0.50400001928E-02 0. -1.
    10030    2    1    2    0    0  0.00000000000E+00  0.00000000000E+00  0.90859902247E+03  0.28484504076E+04  0.26996513740E+04 0.  0.
        3    1    3    3  502    0 -0.12147630714E+04  0.38927349086E+03  0.92004317367E+03  0.15727881682E+04  0.10100000352E+00 0. -1.
       -3    1    3    3    0  502  0.12147630714E+04 -0.38927349086E+03 -0.11444151205E+02  0.12756622395E+04  0.10100000352E+00 0.  1.
</event>
<event>
 5   0  0.4992668E-07  0.2699907E+04  0.7818609E-02  0.8335035E-01
        2   -1    0    0  501    0  0.00000000000E+00  0.00000000000E+00  0.17519025759E+04  0.17519025759E+04  0.25500000920E-02 0. -1.
       -2   -1    0    0    0  501  0.00000000000E+00  0.00000000000E+00 -0.10402261755E+04  0.10402261755E+04  0.25500000920E-02 0.  1.
    10030    2    1    2    0    0  0.00000000000E+00  0.00000000000E+00  0.71167640036E+03  0.27921287514E+04  0.26999073439E+04 0.  0.
        1    1    3    3  502    0  0.91493577356E+03 -0.64163754100E+03 -0.42737375329E+03  0.11964340888E+04  0.50400001928E-02 0.  1.
       -1    1    3    3    0  502 -0.91493577356E+03  0.64163754100E+03  0.11390501536E+04  0.15956946626E+04  0.50400001928E-02 0. -1.
</event>
<event>
 5   0  0.1937896E-07  0.2693897E+04  0.7818609E-02  0.8336988E-01
       -1   -1    0    0    0  501  0.00000000000E+00  0.00000000000E+00  0.13408611482E+04  0.13408611482E+04  0.50400001928E-02 0. -1.
        1   -1    0    0  501    0  0.00000000000E+00  0.00000000000E+00 -0.13530639505E+04  0.13530639505E+04  0.50400001928E-02 0.  1.
    10030    2    1    2    0    0  0.00000000000E+00  0.00000000000E+00 -0.12202802318E+02  0.26939250987E+04  0.26938974607E+04 0.  0.
        3    1    3    3  502    0 -0.59727198803E+03  0.21275530410E+03 -0.11945041963E+04  0.13523457147E+04  0.10100000352E+00 0.  1.
       -3    1    3    3    0  502  0.59727198803E+03 -0.21275530410E+03  0.11823013939E+04  0.13415793839E+04  0.10100000352E+00 0. -1.
</event>
<event>
 5   0  0.5043890E-07  0.2699087E+04  0.7818609E-02  0.8335301E-01
       -2   -1    0    0    0  501  0.00000000000E+00  0.00000000000E+00  0.93516337949E+03  0.93516337949E+03  0.25500000920E-02 0.  1.
        2   -1    0    0  501    0  0.00000000000E+00  0.00000000000E+00 -0.19475401710E+04  0.19475401710E+04  0.25500000920E-02 0. -1.
    10030    2    1    2    0    0  0.00000000000E+00  0.00000000000E+00 -0.10123767915E+04  0.28827035505E+04  0.26990874369E+04 0.  0.
        3    1    3    3  502    0 -0.11431724049E+04  0.11508486559E+03 -0.12622899654E+04  0.17068871200E+04  0.10100000352E+00 0. -1.
       -3    1    3    3    0  502  0.11431724049E+04 -0.11508486559E+03  0.24991317386E+03  0.11758164305E+04  0.10100000352E+00 0.  1.
</event>
<event>
 5   0  0.1888149E-07  0.2701586E+04  0.7818609E-02  0.8334491E-01
       -1   -1    0    0    0  501  0.00000000000E+00  0.00000000000E+00  0.15023850561E+04  0.15023850561E+04  0.50400001928E-02 0.  1.
        1   -1    0    0  501    0  0.00000000000E+00  0.00000000000E+00 -0.12144964126E+04  0.12144964126E+04  0.50400001928E-02 0. -1.
    10030    2    1    2    0    0  0.00000000000E+00  0.00000000000E+00  0.28788864349E+03  0.27168814687E+04  0.27015856536E+04 0.  0.
        1    1    3    3  502    0 -0.42916568917E+03 -0.10601992763E+03  0.14275792609E+04  0.14944584170E+04  0.50400001928E-02 0.  1.
       -1    1    3    3    0  502  0.42916568917E+03  0.10601992763E+03 -0.11396906174E+04  0.12224230517E+04  0.50400001928E-02 0. -1.
</event>
<event>
 5   0  0.4983208E-07  0.2699865E+04  0.7818609E-02  0.8335049E-01
       -2   -1    0    0    0  501  0.00000000000E+00  0.00000000000E+00  0.16407611927E+04  0.16407611927E+04  0.25500000920E-02 0.  1.
        2   -1    0    0  501    0  0.00000000000E+00  0.00000000000E+00 -0.11106540253E+04  0.11106540253E+04  0.25500000920E-02 0. -1.
    10030    2    1    2    0    0  0.00000000000E+00  0.00000000000E+00  0.53010716736E+03  0.27514152180E+04  0.26998651990E+04 0.  0.
        4    1    3    3  502    0  0.12727000922E+04  0.71782239200E+01 -0.19353778901E+03  0.12873521431E+04  0.12699999809E+01 0. -1.
       -4    1    3    3    0  502 -0.12727000922E+04 -0.71782239200E+01  0.72364495638E+03  0.14640630749E+04  0.12699999809E+01 0.  1.
</event>
<event>
 5   0  0.4983208E-07  0.2700488E+04  0.7818609E-02  0.8334847E-01
       -2   -1    0    0    0  501  0.00000000000E+00  0.00000000000E+00  0.14900321622E+04  0.14900321622E+04  0.25500000920E-02 0. -1.
        2   -1    0    0  501    0  0.00000000000E+00  0.00000000000E+00 -0.12235700292E+04  0.12235700292E+04  0.25500000920E-02 0.  1.
    10030    2    1    2    0    0  0.00000000000E+00  0.00000000000E+00  0.26646213304E+03  0.27136021915E+04  0.27004878791E+04 0.  0.
        4    1    3    3  502    0  0.67622156248E+03 -0.73158340529E+03  0.10490665812E+04  0.14467315526E+04  0.12699999809E+01 0. -1.
       -4    1    3    3    0  502 -0.67622156248E+03  0.73158340529E+03 -0.78260444818E+03  0.12668706389E+04  0.12699999809E+01 0.  1.
</event>
<event>
 5   0  0.1971600E-07  0.2700997E+04  0.7818609E-02  0.8334681E-01
        1   -1    0    0  501    0  0.00000000000E+00  0.00000000000E+00  0.21552899191E+04  0.21552899191E+04  0.50400001928E-02 0.  1.
       -1   -1    0    0    0  501  0.00000000000E+00  0.00000000000E+00 -0.84621862685E+03  0.84621862686E+03  0.50400001928E-02 0. -1.
    10030    2    1    2    0    0  0.00000000000E+00  0.00000000000E+00  0.13090712923E+04  0.30015085460E+04  0.27009972054E+04 0.  0.
        5    1    3    3  502    0 -0.78199946088E+03  0.88472216481E+03 -0.73799671724E+02  0.11830997199E+04  0.46999998093E+01 0. -1.
       -5    1    3    3    0  502  0.78199946088E+03 -0.88472216481E+03  0.13828709640E+04  0.18184088261E+04  0.46999998093E+01 0.  1.
</event>
<event>
 5   0  0.1937896E-07  0.2701141E+04  0.7818609E-02  0.8334635E-01
        1   -1    0    0  501    0  0.00000000000E+00  0.00000000000E+00  0.18843837896E+04  0.18843837896E+04  0.50400001928E-02 0.  1.
       -1   -1    0    0    0  501  0.00000000000E+00  0.00000000000E+00 -0.96797701102E+03  0.96797701103E+03  0.50400001928E-02 0. -1.
    10030    2    1    2    0    0  0.00000000000E+00  0.00000000000E+00  0.91640677853E+03  0.28523608006E+04  0.27011406393E+04 0.  0.
        3    1    3    3  502    0 -0.41797295329E+03 -0.21697033797E+03  0.17948731352E+04  0.18556257971E+04  0.10100000352E+00 0.  1.
       -3    1    3    3    0  502  0.41797295329E+03  0.21697033797E+03 -0.87846635665E+03  0.99673500350E+03  0.10100000352E+00 0. -1.
</event>
<event>
 5   0  0.1964242E-07  0.2699771E+04  0.7818609E-02  0.8335079E-01
       -1   -1    0    0    0  501  0.00000000000E+00  0.00000000000E+00  0.12553666038E+04  0.12553666038E+04  0.50400001928E-02 0.  1.
        1   -1    0    0  501    0  0.00000000000E+00  0.00000000000E+00 -0.14515204482E+04  0.14515204482E+04  0.50400001928E-02 0. -1.
    10030    2    1    2    0    0  0.00000000000E+00  0.00000000000E+00 -0.19615384444E+03  0.27068870520E+04  0.26997705794E+04 0.  0.
        2    1    3    3  502    0  0.38508415110E+03 -0.12201624586E+04 -0.52944822936E+03  0.13847027321E+04  0.25500000920E-02 0.  1.
       -2    1    3    3    0  502 -0.38508415110E+03  0.12201624586E+04  0.33329438492E+03  0.13221843199E+04  0.25500000920E-02 0. -1.
</event>
<event>
 5   0  0.4983208E-07  0.2699622E+04  0.7818609E-02  0.8335128E-01
       -2   -1    0    0    0  501  0.00000000000E+00  0.00000000000E+00  0.10481233600E+04  0.10481233600E+04  0.25500000920E-02 0.  1.
        2   -1    0    0  501    0  0.00000000000E+00  0.00000000000E+00 -0.17383350237E+04  0.17383350237E+04  0.25500000920E-02 0. -1.
    10030    2    1    2    0    0  0.00000000000E+00  0.00000000000E+00 -0.69021166369E+03  0.27864583837E+04  0.26996218593E+04 0.  0.
        4    1    3    3  502    0 -0.11329186370E+04  0.22679213230E+03  0.37523127171E+03  0.12148001604E+04  0.12699999809E+01 0.  1.
       -4    1    3    3    0  502  0.11329186370E+04 -0.22679213230E+03 -0.10654429354E+04  0.15716582233E+04  0.12699999809E+01 0. -1.
</event>
<event>
 5   0  0.1937896E-07  0.2700162E+04  0.7818609E-02  0.8334952E-01
        1   -1    0    0  501    0  0.00000000000E+00  0.00000000000E+00  0.17458545360E+04  0.17458545360E+04  0.50400001928E-02 0. -1.
       -1   -1    0    0    0  501  0.00000000000E+00  0.00000000000E+00 -0.10440265295E+04  0.10440265295E+04  0.50400001928E-02 0.  1.
    10030    2    1    2    0    0  0.00000000000E+00  0.00000000000E+00  0.70182800648E+03  0.27898810655E+04  0.27001618117E+04 0.  0.
        3    1    3    3  502    0 -0.96980936764E+03  0.46685671366E+03  0.11929994006E+04  0.16067772032E+04  0.10100000352E+00 0. -1.
       -3    1    3    3    0  502  0.96980936764E+03 -0.46685671366E+03 -0.49117139407E+03  0.11831038624E+04  0.10100000352E+00 0.  1.
</event>
<event>
 5   0  0.4735120E-07  0.2698857E+04  0.7818609E-02  0.8335376E-01
        2   -1    0    0  501    0  0.00000000000E+00  0.00000000000E+00  0.19647713439E+04  0.19647713439E+04  0.25500000920E-02 0.  1.
       -2   -1    0    0    0  501  0.00000000000E+00  0.00000000000E+00 -0.92680335085E+03  0.92680335086E+03  0.25500000920E-02 0. -1.
    10030    2    1    2    0    0  0.00000000000E+00  0.00000000000E+00  0.10379679930E+04  0.28915746947E+04  0.26988565469E+04 0.  0.
        2    1    3    3  502    0 -0.15972253395E+03 -0.15413759953E+02  0.19545130181E+04  0.19610889856E+04  0.25500000920E-02 0.  1.
       -2    1    3    3    0  502  0.15972253395E+03  0.15413759953E+02 -0.91654502505E+03  0.93048570908E+03  0.25500000920E-02 0. -1.
</event>
<event>
 5   0  0.4983208E-07  0.2696221E+04  0.7818609E-02  0.8336232E-01
       -2   -1    0    0    0  501  0.00000000000E+00  0.00000000000E+00  0.15242381001E+04  0.15242381001E+04  0.25500000920E-02 0.  1.
        2   -1    0    0  501    0  0.00000000000E+00  0.00000000000E+00 -0.11923347575E+04  0.11923347575E+04  0.25500000920E-02 0. -1.
    10030    2    1    2    0    0  0.00000000000E+00  0.00000000000E+00  0.33190334255E+03  0.27165728576E+04  0.26962211077E+04 0.  0.
        4    1    3    3  502    0 -0.19133760267E+03 -0.11725671274E+04  0.80784508050E+03  0.14367111865E+04  0.12699999809E+01 0.  1.
       -4    1    3    3    0  502  0.19133760267E+03  0.11725671274E+04 -0.47594173795E+03  0.12798616711E+04  0.12699999809E+01 0. -1.
</event>
<event>
 5   0  0.1971600E-07  0.2700266E+04  0.7818609E-02  0.8334919E-01
       -1   -1    0    0    0  501  0.00000000000E+00  0.00000000000E+00  0.88550129099E+03  0.88550129100E+03  0.50400001928E-02 0. -1.
        1   -1    0    0  501    0  0.00000000000E+00  0.00000000000E+00 -0.20585621614E+04  0.20585621614E+04  0.50400001928E-02 0.  1.
    10030    2    1    2    0    0  0.00000000000E+00  0.00000000000E+00 -0.11730608704E+04  0.29440634524E+04  0.27002662473E+04 0.  0.
        5    1    3    3  502    0 -0.69886353574E+03  0.56205856690E+03 -0.16868650628E+04  0.19104596055E+04  0.46999998093E+01 0.  1.
       -5    1    3    3    0  502  0.69886353574E+03 -0.56205856690E+03  0.51380419239E+03  0.10336038469E+04  0.46999998093E+01 0. -1.
</event>
<event>
 5   0  0.1964242E-07  0.2695828E+04  0.7818609E-02  0.8336360E-01
       -1   -1    0    0    0  501  0.00000000000E+00  0.00000000000E+00  0.15162506860E+04  0.15162506860E+04  0.50400001928E-02 0. -1.
        1   -1    0    0  501    0  0.00000000000E+00  0.00000000000E+00 -0.11982662035E+04  0.11982662035E+04  0.50400001928E-02 0.  1.
    10030    2    1    2    0    0  0.00000000000E+00  0.00000000000E+00  0.31798448246E+03  0.27145168895E+04  0.26958278529E+04 0.  0.
        2    1    3    3  502    0 -0.77135701135E+03  0.41998145256E+03  0.11885757028E+04  0.14778661173E+04  0.25500000920E-02 0. -1.
       -2    1    3    3    0  502  0.77135701135E+03 -0.41998145256E+03 -0.87059122032E+03  0.12366507722E+04  0.25500000920E-02 0.  1.
</event>
<event>
 5   0  0.4735120E-07  0.2700041E+04  0.7818609E-02  0.8334992E-01
       -2   -1    0    0    0  501  0.00000000000E+00  0.00000000000E+00  0.16482217191E+04  0.16482217191E+04  0.25500000920E-02 0.  1.
        2   -1    0    0  501    0  0.00000000000E+00  0.00000000000E+00 -0.11057705438E+04  0.11057705438E+04  0.25500000920E-02 0. -1.
    10030    2    1    2    0    0  0.00000000000E+00  0.00000000000E+00  0.54245117525E+03  0.27539922629E+04  0.27000407602E+04 0.  0.
        2    1    3    3  502    0 -0.10547980921E+04 -0.32485737645E+03 -0.52175606067E+03  0.12208033081E+04  0.25500000920E-02 0. -1.
       -2    1    3    3    0  502  0.10547980921E+04  0.32485737645E+03  0.10642072359E+04  0.15331889548E+04  0.25500000920E-02 0.  1.
</event>
<event>
 5   0  0.5043890E-07  0.2698219E+04  0.7818609E-02  0.8335583E-01
        2   -1    0    0  501    0  0.00000000000E+00  0.00000000000E+00  0.15996278549E+04  0.15996278549E+04  0.25500000920E-02 0.  1.
       -2   -1    0    0    0  501  0.00000000000E+00  0.00000000000E+00 -0.11378247265E+04  0.11378247265E+04  0.25500000920E-02 0. -1.
    10030    2    1    2    0    0  0.00000000000E+00  0.00000000000E+00  0.46180312845E+03  0.27374525814E+04  0.26982187654E+04 0.  0.
        3    1    3    3  502    0  0.21235425029E+03 -0.49195810441E+02 -0.11198409217E+04  0.11408585607E+04  0.10100000352E+00 0. -1.
       -3    1    3    3    0  502 -0.21235425029E+03  0.49195810441E+02  0.15816440502E+04  0.15965940207E+04  0.10100000352E+00 0.  1.
</event>
<event>
 5   0  0.4843887E-07  0.2699318E+04  0.7818609E-02  0.8335226E-01
       -2   -1    0    0    0  501  0.00000000000E+00  0.00000000000E+00  0.10932432399E+04  0.10932432399E+04  0.25500000920E-02 0.  1.
        2   -1    0    0  501    0  0.00000000000E+00  0.00000000000E+00 -0.16662158239E+04  0.16662158239E+04  0.25500000920E-02 0. -1.
    10030    2    1    2    0    0  0.00000000000E+00  0.00000000000E+00 -0.57297258400E+03  0.27594590638E+04  0.26993178291E+04 0.  0.
        5    1    3    3  502    0 -0.61856051896E+02  0.85261265433E+03  0.78118860188E+03  0.11580380957E+04  0.46999998093E+01 0.  1.
       -5    1    3    3    0  502  0.61856051896E+02 -0.85261265433E+03 -0.13541611859E+04  0.16014209680E+04  0.46999998093E+01 0. -1.
</event>
<event>
 5   0  0.1964242E-07  0.2700479E+04  0.7818609E-02  0.8334849E-01
        1   -1    0    0  501    0  0.00000000000E+00  0.00000000000E+00  0.17080622870E+04  0.17080622870E+04  0.50400001928E-02 0. -1.
       -1   -1    0    0    0  501  0.00000000000E+00  0.00000000000E+00 -0.10673775155E+04  0.10673775155E+04  0.50400001928E-02 0.  1.
    10030    2    1    2    0    0  0.00000000000E+00  0.00000000000E+00  0.64068477146E+03  0.27754398025E+04  0.27004794243E+04 0.  0.
        2    1    3    3  502    0 -0.26851894319E+03 -0.93360425379E+03  0.12841515976E+04  0.16102064002E+04  0.25500000920E-02 0. -1.
       -2    1    3    3    0  502  0.26851894319E+03  0.93360425379E+03 -0.64346682616E+03  0.11652334023E+04  0.25500000920E-02 0.  1.
</event>
<event>
 5   0  0.4735120E-07  0.2699638E+04  0.7818609E-02  0.8335122E-01
       -2   -1    0    0    0  501  0.00000000000E+00  0.00000000000E+00  0.20460375392E+04  0.20460375392E+04  0.25500000920E-02 0. -1.
        2   -1    0    0  501    0  0.00000000000E+00  0.00000000000E+00 -0.89050743042E+03  0.89050743042E+03  0.25500000920E-02 0.  1.
    10030    2    1    2    0    0  0.00000000000E+00  0.00000000000E+00  0.11555301087E+04  0.29365449696E+04  0.26996382214E+04 0.  0.
        2    1    3    3  502    0 -0.13575053375E+03 -0.11828581437E+04  0.12695208219E+04  0.17404783000E+04  0.25500000920E-02 0.  1.
       -2    1    3    3    0  502  0.13575053375E+03  0.11828581437E+04 -0.11399071313E+03  0.11960666696E+04  0.25500000920E-02 0. -1.
</event>
<event>
 5   0  0.1964242E-07  0.2698995E+04  0.7818609E-02  0.8335331E-01
       -1   -1    0    0    0  501  0.00000000000E+00  0.00000000000E+00  0.10335994805E+04  0.10335994806E+04  0.50400001928E-02 0. -1.
        1   -1    0    0  501    0  0.00000000000E+00  0.00000000000E+00 -0.17619435446E+04  0.17619435446E+04  0.50400001928E-02 0.  1.
    10030    2    1    2    0    0  0.00000000000E+00  0.00000000000E+00 -0.72834406404E+03  0.27955430252E+04  0.26989953186E+04 0.  0.
        2    1    3    3  502    0 -0.10344279919E+04 -0.63733542234E+03 -0.97246747586E+03  0.15562553462E+04  0.25500000920E-02 0.  1.
       -2    1    3    3    0  502  0.10344279919E+04  0.63733542234E+03  0.24412341182E+03  0.12392876789E+04  0.25500000920E-02 0. -1.
</event>
<event>
 5   0  0.4843887E-07  0.2700458E+04  0.7818609E-02  0.8334856E-01
        2   -1    0    0  501    0  0.00000000000E+00  0.00000000000E+00  0.17891292115E+04  0.17891292115E+04  0.25500000920E-02 0. -1.
       -2   -1    0    0    0  501  0.00000000000E+00  0.00000000000E+00 -0.10189978311E+04  0.10189978311E+04  0.25500000920E-02 0.  1.
    10030    2    1    2    0    0  0.00000000000E+00  0.00000000000E+00  0.77013138039E+03  0.28081270426E+04  0.27004583212E+04 0.  0.
        5    1    3    3  502    0  0.49689539796E+03 -0.12257082477E+04  0.66761776759E+03  0.14815536840E+04  0.46999998093E+01 0. -1.
       -5    1    3    3    0  502 -0.49689539796E+03  0.12257082477E+04  0.10251361280E+03  0.13265733586E+04  0.46999998093E+01 0.  1.
</event>
<event>
 5   0  0.1888149E-07  0.2705753E+04  0.7818609E-02  0.8333141E-01
        1   -1    0    0  501    0  0.00000000000E+00  0.00000000000E+00  0.15795215717E+04  0.15795215717E+04  0.50400001928E-02 0. -1.
       -1   -1    0    0    0  501  0.00000000000E+00  0.00000000000E+00 -0.11587529040E+04  0.11587529040E+04  0.50400001928E-02 0.  1.
    10030    2    1    2    0    0  0.00000000000E+00  0.00000000000E+00  0.42076866771E+03  0.27382744757E+04  0.27057532838E+04 0.  0.
        1    1    3    3  502    0  0.88537504403E+03 -0.73784737286E+03 -0.50662792549E+03  0.12589597170E+04  0.50400001928E-02 0.  1.
       -1    1    3    3    0  502 -0.88537504403E+03  0.73784737286E+03  0.92739659320E+03  0.14793147587E+04  0.50400001928E-02 0. -1.
</event>
<event>
 5   0  0.1965415E-07  0.2704441E+04  0.7818609E-02  0.8333565E-01
       -1   -1    0    0    0  501  0.00000000000E+00  0.00000000000E+00  0.70976278076E+03  0.70976278077E+03  0.50400001928E-02 0.  1.
        1   -1    0    0  501    0  0.00000000000E+00  0.00000000000E+00 -0.25762138552E+04  0.25762138552E+04  0.50400001928E-02 0. -1.
    10030    2    1    2    0    0  0.00000000000E+00  0.00000000000E+00 -0.18664510745E+04  0.32859766360E+04  0.27044413173E+04 0.  0.
        4    1    3    3  502    0  0.49263376693E+02 -0.33086257598E+03 -0.25251473655E+04  0.25472078351E+04  0.12699999809E+01 0. -1.
       -4    1    3    3    0  502 -0.49263376693E+02  0.33086257598E+03  0.65869629107E+03  0.73876880093E+03  0.12699999809E+01 0.  1.
</event>
<event>
 5   0  0.1888149E-07  0.2700078E+04  0.7818609E-02  0.8334980E-01
        1   -1    0    0  501    0  0.00000000000E+00  0.00000000000E+00  0.20520932484E+04  0.20520932484E+04  0.50400001928E-02 0. -1.
       -1   -1    0    0    0  501  0.00000000000E+00  0.00000000000E+00 -0.88816873491E+03  0.88816873492E+03  0.50400001928E-02 0.  1.
    10030    2    1    2    0    0  0.00000000000E+00  0.00000000000E+00  0.11639245135E+04  0.29402619834E+04  0.27000778244E+04 0.  0.
        1    1    3    3  502    0 -0.11440390493E+03 -0.86816089645E+03  0.17008933584E+04  0.19130681672E+04  0.50400001928E-02 0. -1.
       -1    1    3    3    0  502  0.11440390493E+03  0.86816089645E+03 -0.53696884488E+03  0.10271938162E+04  0.50400001928E-02 0.  1.
</event>
<event>
 5   0  0.4843887E-07  0.2700603E+04  0.7818609E-02  0.8334809E-01
        2   -1    0    0  501    0  0.00000000000E+00  0.00000000000E+00  0.19490465965E+04  0.19490465965E+04  0.25500000920E-02 0.  1.
       -2   -1    0    0    0  501  0.00000000000E+00  0.00000000000E+00 -0.93549035368E+03  0.93549035368E+03  0.25500000920E-02 0. -1.
    10030    2    1    2    0    0  0.00000000000E+00  0.00000000000E+00  0.10135562428E+04  0.28845369501E+04  0.27006031103E+04 0.  0.
        5    1    3    3  502    0  0.41615664224E+03  0.11830096497E+04  0.10414664357E+04  0.16301449656E+04  0.46999998093E+01 0. -1.
       -5    1    3    3    0  502 -0.41615664224E+03 -0.11830096497E+04 -0.27910192911E+02  0.12543919846E+04  0.46999998093E+01 0.  1.
</event>
<event>
 5   0  0.1971600E-07  0.2702587E+04  0.7818609E-02  0.8334166E-01
       -1   -1    0    0    0  501  0.00000000000E+00  0.00000000000E+00  0.15399184984E+04  0.15399184984E+04  0.50400001928E-02 0.  1.
        1   -1    0    0  501    0  0.00000000000E+00  0.00000000000E+00 -0.11857735586E+04  0.11857735586E+04  0.50400001928E-02 0. -1.
    10030    2    1    2    0    0  0.00000000000E+00  0.00000000000E+00  0.35414493983E+03  0.27256920570E+04  0.27025873809E+04 0.  0.
        5    1    3    3  502    0  0.51707195956E+03  0.26344805646E+03  0.14078347527E+04  0.15227570623E+04  0.46999998093E+01 0.  1.
       -5    1    3    3    0  502 -0.51707195956E+03 -0.26344805646E+03 -0.10536898129E+04  0.12029349947E+04  0.46999998093E+01 0. -1.
</event>
<event>
 5   0  0.1937896E-07  0.2700332E+04  0.7818609E-02  0.8334897E-01
        1   -1    0    0  501    0  0.00000000000E+00  0.00000000000E+00  0.14028511105E+04  0.14028511105E+04  0.50400001928E-02 0. -1.
       -1   -1    0    0    0  501  0.00000000000E+00  0.00000000000E+00 -0.12994591288E+04  0.12994591288E+04  0.50400001928E-02 0.  1.
    10030    2    1    2    0    0  0.00000000000E+00  0.00000000000E+00  0.10339198168E+03  0.27023102393E+04  0.27003315958E+04 0.  0.
        3    1    3    3  502    0 -0.65176889947E+03 -0.23285197641E+02  0.12347647482E+04  0.13964200272E+04  0.10100000352E+00 0. -1.
       -3    1    3    3    0  502  0.65176889947E+03  0.23285197641E+02 -0.11313727666E+04  0.13058902120E+04  0.10100000352E+00 0.  1.
</event>
<event>
 5   0  0.4992668E-07  0.2705877E+04  0.7818609E-02  0.8333101E-01
        2   -1    0    0  501    0  0.00000000000E+00  0.00000000000E+00  0.14790638116E+04  0.14790638116E+04  0.25500000920E-02 0.  1.
       -2   -1    0    0    0  501  0.00000000000E+00  0.00000000000E+00 -0.12375682423E+04  0.12375682423E+04  0.25500000920E-02 0. -1.
    10030    2    1    2    0    0  0.00000000000E+00  0.00000000000E+00  0.24149556928E+03  0.27166320540E+04  0.27058768647E+04 0.  0.
        1    1    3    3  502    0  0.10600371218E+04  0.83571884467E+03  0.29073758491E+02  0.13501666454E+04  0.50400001928E-02 0. -1.
       -1    1    3    3    0  502 -0.10600371218E+04 -0.83571884467E+03  0.21242181079E+03  0.13664654085E+04  0.50400001928E-02 0.  1.
</event>
<event>
 5   0  0.1937896E-07  0.2693423E+04  0.7818609E-02  0.8337142E-01
       -1   -1    0    0    0  501  0.00000000000E+00  0.00000000000E+00  0.14447196949E+04  0.14447196949E+04  0.50400001928E-02 0.  1.
        1   -1    0    0  501    0  0.00000000000E+00  0.00000000000E+00 -0.12553519794E+04  0.12553519794E+04  0.50400001928E-02 0. -1.
    10030    2    1    2    0    0  0.00000000000E+00  0.00000000000E+00  0.18936771549E+03  0.27000716744E+04  0.26934228994E+04 0.  0.
        3    1    3    3  502    0 -0.89331892371E+03  0.61826764983E+03 -0.70311869256E+03  0.12940824905E+04  0.10100000352E+00 0. -1.
       -3    1    3    3    0  502  0.89331892371E+03 -0.61826764983E+03  0.89248640805E+03  0.14059891838E+04  0.10100000352E+00 0.  1.
</event>
<event>
 5   0  0.5043890E-07  0.2699986E+04  0.7818609E-02  0.8335009E-01
        2   -1    0    0  501    0  0.00000000000E+00  0.00000000000E+00  0.18916890150E+04  0.18916890150E+04  0.25500000920E-02 0.  1.
       -2   -1    0    0    0  501  0.00000000000E+00  0.00000000000E+00 -0.96341491479E+03  0.96341491479E+03  0.25500000920E-02 0. -1.
    10030    2    1    2    0    0  0.00000000000E+00  0.00000000000E+00  0.92827410018E+03  0.28551039298E+04  0.26999862305E+04 0.  0.
        3    1    3    3  502    0  0.11385125072E+04 -0.66485655085E+03  0.77104657799E+03  0.15273368319E+04  0.10100000352E+00 0.  1.
       -3    1    3    3    0  502 -0.11385125072E+04  0.66485655085E+03  0.15722752218E+03  0.13277670979E+04  0.10100000352E+00 0. -1.
</event>
<event>
 5   0  0.1888149E-07  0.2703837E+04  0.7818609E-02  0.8333761E-01
       -1   -1    0    0    0  501  0.00000000000E+00  0.00000000000E+00  0.10667369104E+04  0.10667369105E+04  0.50400001928E-02 0. -1.
        1   -1    0    0  501    0  0.00000000000E+00  0.00000000000E+00 -0.17133402317E+04  0.17133402318E+04  0.50400001928E-02 0.  1.
    10030    2    1    2    0    0  0.00000000000E+00  0.00000000000E+00 -0.64660332130E+03  0.27800771422E+04  0.27038367298E+04 0.  0.
        1    1    3    3  502    0 -0.60824993183E+03 -0.53940246037E+03 -0.14339260339E+04  0.16483527731E+04  0.50400001928E-02 0.  1.
       -1    1    3    3    0  502  0.60824993183E+03  0.53940246037E+03  0.78732271262E+03  0.11317243691E+04  0.50400001928E-02 0. -1.
</event>
<event>
 5   0  0.1888149E-07  0.2690689E+04  0.7818609E-02  0.8338032E-01
       -1   -1    0    0    0  501  0.00000000000E+00  0.00000000000E+00  0.10776803766E+04  0.10776803766E+04  0.50400001928E-02 0.  1.
        1   -1    0    0  501    0  0.00000000000E+00  0.00000000000E+00 -0.16794885412E+04  0.16794885412E+04  0.50400001928E-02 0. -1.
    10030    2    1    2    0    0  0.00000000000E+00  0.00000000000E+00 -0.60180816453E+03  0.27571689178E+04  0.26906890148E+04 0.  0.
        1    1    3    3  502    0 -0.39079449959E+03 -0.92522846898E+03 -0.12181080890E+04  0.15787828785E+04  0.50400001928E-02 0. -1.
       -1    1    3    3    0  502  0.39079449959E+03  0.92522846898E+03  0.61629992452E+03  0.11783860393E+04  0.50400001928E-02 0.  1.
</event>
<event>
 5   0  0.4992668E-07  0.2700137E+04  0.7818609E-02  0.8334961E-01
        2   -1    0    0  501    0  0.00000000000E+00  0.00000000000E+00  0.19603620602E+04  0.19603620602E+04  0.25500000920E-02 0.  1.
       -2   -1    0    0    0  501  0.00000000000E+00  0.00000000000E+00 -0.92976924523E+03  0.92976924524E+03  0.25500000920E-02 0. -1.
    10030    2    1    2    0    0  0.00000000000E+00  0.00000000000E+00  0.10305928149E+04  0.28901313054E+04  0.27001365544E+04 0.  0.
        1    1    3    3  502    0 -0.47955902219E+03  0.12551864091E+04  0.65573291075E+03  0.14951439488E+04  0.50400001928E-02 0.  1.
       -1    1    3    3    0  502  0.47955902219E+03 -0.12551864091E+04  0.37485990418E+03  0.13949873566E+04  0.50400001928E-02 0. -1.
</event>
<event>
 5   0  0.1937896E-07  0.2699253E+04  0.7818609E-02  0.8335247E-01
       -1   -1    0    0    0  501  0.00000000000E+00  0.00000000000E+00  0.99994395465E+03  0.99994395466E+03  0.50400001928E-02 0. -1.
        1   -1    0    0  501    0  0.00000000000E+00  0.00000000000E+00 -0.18215941422E+04  0.18215941422E+04  0.50400001928E-02 0.  1.
    10030    2    1    2    0    0  0.00000000000E+00  0.00000000000E+00 -0.82165018754E+03  0.28215380969E+04  0.26992532674E+04 0.  0.
        3    1    3    3  502    0 -0.39624625185E+03 -0.10710292327E+04 -0.11627006756E+04  0.16297200927E+04  0.10100000352E+00 0. -1.
       -3    1    3    3    0  502  0.39624625185E+03  0.10710292327E+04  0.34105048806E+03  0.11918180041E+04  0.10100000352E+00 0.  1.
</event>
<event>
 5   0  0.1888149E-07  0.2699472E+04  0.7818609E-02  0.8335176E-01
       -1   -1    0    0    0  501  0.00000000000E+00  0.00000000000E+00  0.10914326705E+04  0.10914326706E+04  0.50400001928E-02 0. -1.
        1   -1    0    0  501    0  0.00000000000E+00  0.00000000000E+00 -0.16691707267E+04  0.16691707267E+04  0.50400001928E-02 0.  1.
    10030    2    1    2    0    0  0.00000000000E+00  0.00000000000E+00 -0.57773805620E+03  0.27606033973E+04  0.26994721439E+04 0.  0.
        1    1    3    3  502    0  0.36241155985E+03  0.91178888552E+03 -0.12367276786E+04  0.15786692058E+04  0.50400001928E-02 0.  1.
       -1    1    3    3    0  502 -0.36241155985E+03 -0.91178888552E+03  0.65898962239E+03  0.11819341915E+04  0.50400001928E-02 0. -1.
</event>
<event>
 5   0  0.5043890E-07  0.2700121E+04  0.7818609E-02  0.8334966E-01
        2   -1    0    0  501    0  0.00000000000E+00  0.00000000000E+00  0.11095725599E+04  0.11095725599E+04  0.25500000920E-02 0.  1.
       -2   -1    0    0    0  501  0.00000000000E+00  0.00000000000E+00 -0.16426716086E+04  0.16426716086E+04  0.25500000920E-02 0. -1.
    10030    2    1    2    0    0  0.00000000000E+00  0.00000000000E+00 -0.53309904875E+03  0.27522441685E+04  0.27001209912E+04 0.  0.
        3    1    3    3  502    0  0.20814338589E+03  0.10338092429E+04 -0.11257799515E+04  0.15425516942E+04  0.10100000352E+00 0. -1.
       -3    1    3    3    0  502 -0.20814338589E+03 -0.10338092429E+04  0.59268090275E+03  0.12096924743E+04  0.10100000352E+00 0.  1.
</event>
<event>
 5   0  0.4843887E-07  0.2700248E+04  0.7818609E-02  0.8334924E-01
        2   -1    0    0  501    0  0.00000000000E+00  0.00000000000E+00  0.18718388320E+04  0.18718388320E+04  0.25500000920E-02 0.  1.
       -2   -1    0    0    0  501  0.00000000000E+00  0.00000000000E+00 -0.97382042672E+03  0.97382042672E+03  0.25500000920E-02 0. -1.
    10030    2    1    2    0    0  0.00000000000E+00  0.00000000000E+00  0.89801840532E+03  0.28456592588E+04  0.27002480554E+04 0.  0.
        5    1    3    3  502    0 -0.28944392041E+03 -0.81027459048E+03  0.15454651858E+04  0.17688435277E+04  0.46999998093E+01 0.  1.
       -5    1    3    3    0  502  0.28944392041E+03  0.81027459048E+03 -0.64744678049E+03  0.10768157310E+04  0.46999998093E+01 0. -1.
</event>
<event>
 5   0  0.4735120E-07  0.2699568E+04  0.7818609E-02  0.8335145E-01
        2   -1    0    0  501    0  0.00000000000E+00  0.00000000000E+00  0.11606813676E+04  0.11606813676E+04  0.25500000920E-02 0.  1.
       -2   -1    0    0    0  501  0.00000000000E+00  0.00000000000E+00 -0.15696964432E+04  0.15696964432E+04  0.25500000920E-02 0. -1.
    10030    2    1    2    0    0  0.00000000000E+00  0.00000000000E+00 -0.40901507556E+03  0.27303778108E+04  0.26995684206E+04 0.  0.
        2    1    3    3  502    0  0.12744618324E+04  0.39261829287E+03  0.64764700875E+01  0.13335831549E+04  0.25500000920E-02 0.  1.
       -2    1    3    3    0  502 -0.12744618324E+04 -0.39261829287E+03 -0.41549154564E+03  0.13967946559E+04  0.25500000920E-02 0. -1.
</event>
<event>
 5   0  0.4735120E-07  0.2696923E+04  0.7818609E-02  0.8336004E-01
       -2   -1    0    0    0  501  0.00000000000E+00  0.00000000000E+00  0.17655282559E+04  0.17655282559E+04  0.25500000920E-02 0. -1.
        2   -1    0    0  501    0  0.00000000000E+00  0.00000000000E+00 -0.10299171667E+04  0.10299171667E+04  0.25500000920E-02 0.  1.
    10030    2    1    2    0    0  0.00000000000E+00  0.00000000000E+00  0.73561108921E+03  0.27954454227E+04  0.26969225863E+04 0.  0.
        2    1    3    3  502    0  0.39112943623E+03 -0.76065274039E+03  0.14483732000E+04  0.16820700799E+04  0.25500000920E-02 0. -1.
       -2    1    3    3    0  502 -0.39112943623E+03  0.76065274039E+03 -0.71276211074E+03  0.11133753428E+04  0.25500000920E-02 0.  1.
</event>
<event>
 5   0  0.5043890E-07  0.2701197E+04  0.7818609E-02  0.8334617E-01
       -2   -1    0    0    0  501  0.00000000000E+00  0.00000000000E+00  0.16343415307E+04  0.16343415307E+04  0.25500000920E-02 0.  1.
        2   -1    0    0  501    0  0.00000000000E+00  0.00000000000E+00 -0.11161169491E+04  0.11161169491E+04  0.25500000920E-02 0. -1.
    10030    2    1    2    0    0  0.00000000000E+00  0.00000000000E+00  0.51822458159E+03  0.27504584797E+04  0.27011969813E+04 0.  0.
        3    1    3    3  502    0  0.11959756002E+04 -0.21964925112E+03 -0.33941083463E+03  0.12624591695E+04  0.10100000352E+00 0. -1.
       -3    1    3    3    0  502 -0.11959756002E+04  0.21964925112E+03  0.85763541622E+03  0.14879993102E+04  0.10100000352E+00 0.  1.
</event>
<event>
 5   0  0.1964242E-07  0.2699667E+04  0.7818609E-02  0.8335113E-01
        1   -1    0    0  501    0  0.00000000000E+00  0.00000000000E+00  0.22596147841E+04  0.22596147841E+04  0.50400001928E-02 0.  1.
       -1   -1    0    0    0  501  0.00000000000E+00  0.00000000000E+00 -0.80635465485E+03  0.80635465487E+03  0.50400001928E-02 0. -1.
    10030    2    1    2    0    0  0.00000000000E+00  0.00000000000E+00  0.14532601292E+04  0.30659694390E+04  0.26996673124E+04 0.  0.
        2    1    3    3  502    0  0.70416908999E+02  0.39370924954E+03  0.21907755706E+04  0.22269852076E+04  0.25500000920E-02 0.  1.
       -2    1    3    3    0  502 -0.70416908999E+02 -0.39370924954E+03 -0.73751544134E+03  0.83898423136E+03  0.25500000920E-02 0. -1.
</event>
<event>
 5   0  0.4992668E-07  0.2689327E+04  0.7818609E-02  0.8338476E-01
       -2   -1    0    0    0  501  0.00000000000E+00  0.00000000000E+00  0.82687969032E+03  0.82687969032E+03  0.25500000920E-02 0.  1.
        2   -1    0    0  501    0  0.00000000000E+00  0.00000000000E+00 -0.21866781910E+04  0.21866781910E+04  0.25500000920E-02 0. -1.
    10030    2    1    2    0    0  0.00000000000E+00  0.00000000000E+00 -0.13597985007E+04  0.30135578813E+04  0.26893268938E+04 0.  0.
        1    1    3    3  502    0 -0.40926026250E+03 -0.11912124902E+04 -0.12074432251E+04  0.17448209940E+04  0.50400001928E-02 0.  1.
       -1    1    3    3    0  502  0.40926026250E+03  0.11912124902E+04 -0.15235527559E+03  0.12687368873E+04  0.50400001928E-02 0. -1.
</event>
<event>
 5   0  0.1937896E-07  0.2699020E+04  0.7818609E-02  0.8335323E-01
       -1   -1    0    0    0  501  0.00000000000E+00  0.00000000000E+00  0.94352894223E+03  0.94352894224E+03  0.50400001928E-02 0. -1.
        1   -1    0    0  501    0  0.00000000000E+00  0.00000000000E+00 -0.19301762577E+04  0.19301762577E+04  0.50400001928E-02 0.  1.
    10030    2    1    2    0    0  0.00000000000E+00  0.00000000000E+00 -0.98664731543E+03  0.28737051999E+04  0.26990199427E+04 0.  0.
        3    1    3    3  502    0 -0.64387656134E+03  0.90178342099E+03  0.32684856459E+03  0.11552577024E+04  0.10100000352E+00 0. -1.
       -3    1    3    3    0  502  0.64387656134E+03 -0.90178342099E+03 -0.13134958800E+04  0.17184474975E+04  0.10100000352E+00 0.  1.
</event>
<event>
 5   0  0.1937896E-07  0.2699855E+04  0.7818609E-02  0.8335052E-01
       -1   -1    0    0    0  501  0.00000000000E+00  0.00000000000E+00  0.12702150910E+04  0.12702150910E+04  0.50400001928E-02 0. -1.
        1   -1    0    0  501    0  0.00000000000E+00  0.00000000000E+00 -0.14346419578E+04  0.14346419578E+04  0.50400001928E-02 0.  1.
    10030    2    1    2    0    0  0.00000000000E+00  0.00000000000E+00 -0.16442686677E+03  0.27048570488E+04  0.26998547108E+04 0.  0.
        3    1    3    3  502    0 -0.64281763746E+03  0.96659969542E+03 -0.77252882423E+03  0.13943924414E+04  0.10100000352E+00 0.  1.
       -3    1    3    3    0  502  0.64281763746E+03 -0.96659969542E+03  0.60810195746E+03  0.13104646073E+04  0.10100000352E+00 0. -1.
</event>
<event>
 5   0  0.1965415E-07  0.2699982E+04  0.7818609E-02  0.8335011E-01
        1   -1    0    0  501    0  0.00000000000E+00  0.00000000000E+00  0.12728047965E+04  0.12728047965E+04  0.50400001928E-02 0. -1.
       -1   -1    0    0    0  501  0.00000000000E+00  0.00000000000E+00 -0.14318584619E+04  0.14318584619E+04  0.50400001928E-02 0.  1.
    10030    2    1    2    0    0  0.00000000000E+00  0.00000000000E+00 -0.15905366540E+03  0.27046632584E+04  0.26999824579E+04 0.  0.
        4    1    3    3  502    0  0.36004484239E+03 -0.37508034197E+03  0.11684890268E+04  0.12789393145E+04  0.12699999809E+01 0. -1.
       -4    1    3    3    0  502 -0.36004484239E+03  0.37508034197E+03 -0.13275426922E+04  0.14257239439E+04  0.12699999809E+01 0.  1.
</event>
<event>
 5   0  0.4983208E-07  0.2699593E+04  0.7818609E-02  0.8335137E-01
       -2   -1    0    0    0  501  0.00000000000E+00  0.00000000000E+00  0.19156456661E+04  0.19156456661E+04  0.25500000920E-02 0. -1.
        2   -1    0    0  501    0  0.00000000000E+00  0.00000000000E+00 -0.95108976378E+03  0.95108976378E+03  0.25500000920E-02 0.  1.
    10030    2    1    2    0    0  0.00000000000E+00  0.00000000000E+00  0.96455590230E+03  0.28667354299E+04  0.26995932909E+04 0.  0.
        4    1    3    3  502    0 -0.12411569827E+03  0.96774180320E+03 -0.50822097362E+03  0.11000995751E+04  0.12699999809E+01 0.  1.
       -4    1    3    3    0  502  0.12411569827E+03 -0.96774180320E+03  0.14727768759E+04  0.17666358548E+04  0.12699999809E+01 0. -1.
</event>
<event>
 5   0  0.1937896E-07  0.2698497E+04  0.7818609E-02  0.8335493E-01
       -1   -1    0    0    0  501  0.00000000000E+00  0.00000000000E+00  0.15135728978E+04  0.15135728978E+04  0.50400001928E-02 0.  1.
        1   -1    0    0  501    0  0.00000000000E+00  0.00000000000E+00 -0.12027640663E+04  0.12027640663E+04  0.50400001928E-02 0. -1.
    10030    2    1    2    0    0  0.00000000000E+00  0.00000000000E+00  0.31080883145E+03  0.27163369641E+04  0.26984966876E+04 0.  0.
        3    1    3    3  502    0 -0.10872489396E+04 -0.71710727163E+03  0.51003739164E+03  0.13987463125E+04  0.10100000352E+00 0. -1.
       -3    1    3    3    0  502  0.10872489396E+04  0.71710727163E+03 -0.19922856019E+03  0.13175906516E+04  0.10100000352E+00 0.  1.
</event>
<event>
 5   0  0.4843887E-07  0.2699931E+04  0.7818609E-02  0.8335027E-01
       -2   -1    0    0    0  501  0.00000000000E+00  0.00000000000E+00  0.13768278856E+04  0.13768278856E+04  0.25500000920E-02 0. -1.
        2   -1    0    0  501    0  0.00000000000E+00  0.00000000000E+00 -0.13236268561E+04  0.13236268561E+04  0.25500000920E-02 0.  1.
    10030    2    1    2    0    0  0.00000000000E+00  0.00000000000E+00  0.53201029547E+02  0.27004547417E+04  0.26999306403E+04 0.  0.
        5    1    3    3  502    0  0.93541569190E+03  0.23949560096E+03 -0.91699324654E+03  0.13316378501E+04  0.46999998093E+01 0.  1.
       -5    1    3    3    0  502 -0.93541569190E+03 -0.23949560096E+03  0.97019427609E+03  0.13688168917E+04  0.46999998093E+01 0. -1.
</event>
<event>
 5   0  0.1937896E-07  0.2700622E+04  0.7818609E-02  0.8334803E-01
        1   -1    0    0  501    0  0.00000000000E+00  0.00000000000E+00  0.19388806251E+04  0.19388806251E+04  0.50400001928E-02 0. -1.
       -1   -1    0    0    0  501  0.00000000000E+00  0.00000000000E+00 -0.94040844849E+03  0.94040844850E+03  0.50400001928E-02 0.  1.
    10030    2    1    2    0    0  0.00000000000E+00  0.00000000000E+00  0.99847217665E+03  0.28792890736E+04  0.27006219436E+04 0.  0.
        3    1    3    3  502    0  0.76542913725E+03  0.77202910153E+03  0.13531139953E+04  0.17357500374E+04  0.10100000352E+00 0. -1.
       -3    1    3    3    0  502 -0.76542913725E+03 -0.77202910153E+03 -0.35464181863E+03  0.11435390363E+04  0.10100000352E+00 0.  1.
</event>
<event>
 5   0  0.4992668E-07  0.2697436E+04  0.7818609E-02  0.8335837E-01
        2   -1    0    0  501    0  0.00000000000E+00  0.00000000000E+00  0.20455863189E+04  0.20455863189E+04  0.25500000920E-02 0. -1.
       -2   -1    0    0    0  501  0.00000000000E+00  0.00000000000E+00 -0.88925126376E+03  0.88925126377E+03  0.25500000920E-02 0.  1.
    10030    2    1    2    0    0  0.00000000000E+00  0.00000000000E+00  0.11563350551E+04  0.29348375826E+04  0.26974359820E+04 0.  0.
        1    1    3    3  502    0 -0.16256759885E+03  0.13377987276E+04  0.51951016574E+03  0.14443076099E+04  0.50400001928E-02 0.  1.
       -1    1    3    3    0  502  0.16256759885E+03 -0.13377987276E+04  0.63682488937E+03  0.14905299727E+04  0.50400001928E-02 0. -1.
</event>
<event>
 5   0  0.1937896E-07  0.2703160E+04  0.7818609E-02  0.8333980E-01
        1   -1    0    0  501    0  0.00000000000E+00  0.00000000000E+00  0.16980995391E+04  0.16980995392E+04  0.50400001928E-02 0.  1.
       -1   -1    0    0    0  501  0.00000000000E+00  0.00000000000E+00 -0.10757720651E+04  0.10757720651E+04  0.50400001928E-02 0. -1.
    10030    2    1    2    0    0  0.00000000000E+00  0.00000000000E+00  0.62232747409E+03  0.27738716042E+04  0.27031596682E+04 0.  0.
        3    1    3    3  502    0  0.12524231804E+04 -0.40903162903E+03  0.17851539049E+01  0.13175256708E+04  0.10100000352E+00 0.  1.
       -3    1    3    3    0  502 -0.12524231804E+04  0.40903162903E+03  0.62054232019E+03  0.14563459334E+04  0.10100000352E+00 0. -1.
</event>
<event>
 5   0  0.4843887E-07  0.2699775E+04  0.7818609E-02  0.8335078E-01
       -2   -1    0    0    0  501  0.00000000000E+00  0.00000000000E+00  0.11636312495E+04  0.11636312495E+04  0.25500000920E-02 0. -1.
        2   -1    0    0  501    0  0.00000000000E+00  0.00000000000E+00 -0.15659567324E+04  0.15659567324E+04  0.25500000920E-02 0.  1.
    10030    2    1    2    0    0  0.00000000000E+00  0.00000000000E+00 -0.40232548293E+03  0.27295879819E+04  0.26997749455E+04 0.  0.
        5    1    3    3  502    0 -0.22453329764E+03 -0.13137948881E+04  0.14977987363E+02  0.13329360975E+04  0.46999998093E+01 0. -1.
       -5    1    3    3    0  502  0.22453329764E+03  0.13137948881E+04 -0.41730347029E+03  0.13966518844E+04  0.46999998093E+01 0.  1.
</event>
<event>
 5   0  0.5043890E-07  0.2700577E+04  0.7818609E-02  0.8334818E-01
        2   -1    0    0  501    0  0.00000000000E+00  0.00000000000E+00  0.20152882076E+04  0.20152882076E+04  0.25500000920E-02 0. -1.
       -2   -1    0    0    0  501  0.00000000000E+00  0.00000000000E+00 -0.90472368934E+03  0.90472368935E+03  0.25500000920E-02 0.  1.
    10030    2    1    2    0    0  0.00000000000E+00  0.00000000000E+00  0.11105645183E+04  0.29200118970E+04  0.27005769623E+04 0.  0.
        3    1    3    3  502    0  0.17132088969E+03  0.39155248115E+03 -0.82965905903E+03  0.93327292748E+03  0.10100000352E+00 0.  1.
       -3    1    3    3    0  502 -0.17132088969E+03 -0.39155248115E+03  0.19402235773E+04  0.19867389695E+04  0.10100000352E+00 0. -1.
</event>
<event>
 5   0  0.5043890E-07  0.2699820E+04  0.7818609E-02  0.8335063E-01
       -2   -1    0    0    0  501  0.00000000000E+00  0.00000000000E+00  0.21458042456E+04  0.21458042456E+04  0.25500000920E-02 0.  1.
        2   -1    0    0  501    0  0.00000000000E+00  0.00000000000E+00 -0.84921867236E+03  0.84921867236E+03  0.25500000920E-02 0. -1.
    10030    2    1    2    0    0  0.00000000000E+00  0.00000000000E+00  0.12965855732E+04  0.29950229179E+04  0.26998200181E+04 0.  0.
        3    1    3    3  502    0 -0.13184594380E+04  0.27285091251E+03  0.75627061702E+03  0.15442565093E+04  0.10100000352E+00 0. -1.
       -3    1    3    3    0  502  0.13184594380E+04 -0.27285091251E+03  0.54031495617E+03  0.14507664086E+04  0.10100000352E+00 0.  1.
</event>
<event>
 5   0  0.1888149E-07  0.2699192E+04  0.7818609E-02  0.8335267E-01
       -1   -1    0    0    0  501  0.00000000000E+00  0.00000000000E+00  0.82239913367E+03  0.82239913369E+03  0.50400001928E-02 0.  1.
        1   -1    0    0  501    0  0.00000000000E+00  0.00000000000E+00 -0.22147515262E+04  0.22147515262E+04  0.50400001928E-02 0. -1.
    10030    2    1    2    0    0  0.00000000000E+00  0.00000000000E+00 -0.13923523925E+04  0.30371506599E+04  0.26991922766E+04 0.  0.
        1    1    3    3  502    0  0.45774948646E+03  0.12097709973E+04 -0.11295333348E+04  0.17172437255E+04  0.50400001928E-02 0. -1.
       -1    1    3    3    0  502 -0.45774948646E+03 -0.12097709973E+04 -0.26281905769E+03  0.13199069344E+04  0.50400001928E-02 0.  1.
</event>
<event>
 5   0  0.1965415E-07  0.2699247E+04  0.7818609E-02  0.8335249E-01
       -1   -1    0    0    0  501  0.00000000000E+00  0.00000000000E+00  0.17617646688E+04  0.17617646688E+04  0.50400001928E-02 0.  1.
        1   -1    0    0  501    0  0.00000000000E+00  0.00000000000E+00 -0.10338975268E+04  0.10338975268E+04  0.50400001928E-02 0. -1.
    10030    2    1    2    0    0  0.00000000000E+00  0.00000000000E+00  0.72786714196E+03  0.27956621956E+04  0.26992474017E+04 0.  0.
        4    1    3    3  502    0  0.72626145535E+03 -0.14140960318E+03 -0.80511311076E+03  0.10934628990E+04  0.12699999809E+01 0. -1.
       -4    1    3    3    0  502 -0.72626145535E+03  0.14140960318E+03  0.15329802527E+04  0.17021992967E+04  0.12699999809E+01 0.  1.
</event>
<event>
 5   0  0.1888149E-07  0.2700797E+04  0.7818609E-02  0.8334746E-01
       -1   -1    0    0    0  501  0.00000000000E+00  0.00000000000E+00  0.98221085978E+03  0.98221085979E+03  0.50400001928E-02 0. -1.
        1   -1    0    0  501    0  0.00000000000E+00  0.00000000000E+00 -0.18566040948E+04  0.18566040948E+04  0.50400001928E-02 0.  1.
    10030    2    1    2    0    0  0.00000000000E+00  0.00000000000E+00 -0.87439323506E+03  0.28388149546E+04  0.27007974410E+04 0.  0.
        1    1    3    3  502    0 -0.42803425347E+03 -0.11292392494E+04  0.19798776529E+03  0.12237621337E+04  0.50400001928E-02 0. -1.
       -1    1    3    3    0  502  0.42803425347E+03  0.11292392494E+04 -0.10723810004E+04  0.16150528210E+04  0.50400001928E-02 0.  1.
</event>
<event>
 5   0  0.1641625E-07  0.2699009E+04  0.7818609E-02  0.8335326E-01
       -3   -1    0    0    0  501  0.00000000000E+00  0.00000000000E+00  0.12001414530E+04  0.12001414572E+04  0.10100000352E+00 0. -1.
        3   -1    0    0  501    0  0.00000000000E+00  0.00000000000E+00 -0.15174568990E+04  0.15174569023E+04  0.10100000352E+00 0.  1.
    10030    2    1    2    0    0  0.00000000000E+00  0.00000000000E+00 -0.31731544600E+03  0.27175983596E+04  0.26990094019E+04 0.  0.
        3    1    3    3  502    0 -0.13358150126E+03 -0.52479435609E+03  0.10859420908E+04  0.12134757387E+04  0.10100000352E+00 0. -1.
       -3    1    3    3    0  502  0.13358150126E+03  0.52479435609E+03 -0.14032575368E+04  0.15041226208E+04  0.10100000352E+00 0.  1.
</event>
<event>
 5   0  0.1971600E-07  0.2699165E+04  0.7818609E-02  0.8335276E-01
       -1   -1    0    0    0  501  0.00000000000E+00  0.00000000000E+00  0.69745803817E+03  0.69745803819E+03  0.50400001928E-02 0. -1.
        1   -1    0    0  501    0  0.00000000000E+00  0.00000000000E+00 -0.26114447954E+04  0.26114447954E+04  0.50400001928E-02 0.  1.
    10030    2    1    2    0    0  0.00000000000E+00  0.00000000000E+00 -0.19139867572E+04  0.33089028336E+04  0.26991651775E+04 0.  0.
        5    1    3    3  502    0 -0.97458827519E+03  0.77625333398E+03 -0.15927604343E+04  0.20222016309E+04  0.46999998093E+01 0.  1.
       -5    1    3    3    0  502  0.97458827519E+03 -0.77625333398E+03 -0.32122632291E+03  0.12867012028E+04  0.46999998093E+01 0. -1.
</event>
<event>
 5   0  0.1965415E-07  0.2699996E+04  0.7818609E-02  0.8335006E-01
       -1   -1    0    0    0  501  0.00000000000E+00  0.00000000000E+00  0.12084434687E+04  0.12084434687E+04  0.50400001928E-02 0. -1.
        1   -1    0    0  501    0  0.00000000000E+00  0.00000000000E+00 -0.15081335461E+04  0.15081335461E+04  0.50400001928E-02 0.  1.
    10030    2    1    2    0    0  0.00000000000E+00  0.00000000000E+00 -0.29969007739E+03  0.27165770148E+04  0.26999956546E+04 0.  0.
        4    1    3    3  502    0 -0.47342568656E+03 -0.32809363710E+03  0.10786016026E+04  0.12227674944E+04  0.12699999809E+01 0. -1.
       -4    1    3    3    0  502  0.47342568656E+03  0.32809363710E+03 -0.13782916799E+04  0.14938095204E+04  0.12699999809E+01 0.  1.
</event>
<event>
 5   0  0.1964242E-07  0.2699303E+04  0.7818609E-02  0.8335231E-01
        1   -1    0    0  501    0  0.00000000000E+00  0.00000000000E+00  0.17391778859E+04  0.17391778859E+04  0.50400001928E-02 0.  1.
       -1   -1    0    0    0  501  0.00000000000E+00  0.00000000000E+00 -0.10473678603E+04  0.10473678603E+04  0.50400001928E-02 0. -1.
    10030    2    1    2    0    0  0.00000000000E+00  0.00000000000E+00  0.69181002560E+03  0.27865457462E+04  0.26993028886E+04 0.  0.
        2    1    3    3  502    0 -0.89548463274E+03  0.40094467371E+02  0.13875050179E+04  0.16518687807E+04  0.25500000920E-02 0.  1.
       -2    1    3    3    0  502  0.89548463274E+03 -0.40094467371E+02 -0.69569499232E+03  0.11346769655E+04  0.25500000920E-02 0. -1.
</event>
<event>
 5   0  0.4735120E-07  0.2699925E+04  0.7818609E-02  0.8335029E-01
        2   -1    0    0  501    0  0.00000000000E+00  0.00000000000E+00  0.17936003151E+04  0.17936003151E+04  0.25500000920E-02 0. -1.
       -2   -1    0    0    0  501  0.00000000000E+00  0.00000000000E+00 -0.10160561167E+04  0.10160561167E+04  0.25500000920E-02 0.  1.
    10030    2    1    2    0    0  0.00000000000E+00  0.00000000000E+00  0.77754419844E+03  0.28096564318E+04  0.26999248664E+04 0.  0.
        2    1    3    3  502    0  0.40749487695E+03  0.11065166943E+04 -0.29518202879E+03  0.12155507803E+04  0.25500000920E-02 0.  1.
       -2    1    3    3    0  502 -0.40749487695E+03 -0.11065166943E+04  0.10727262272E+04  0.15941056514E+04  0.25500000920E-02 0. -1.
</event>
<event>
 5   0  0.1971600E-07  0.2702367E+04  0.7818609E-02  0.8334237E-01
        1   -1    0    0  501    0  0.00000000000E+00  0.00000000000E+00  0.10094349100E+04  0.10094349100E+04  0.50400001928E-02 0.  1.
       -1   -1    0    0    0  501  0.00000000000E+00  0.00000000000E+00 -0.18086321370E+04  0.18086321370E+04  0.50400001928E-02 0. -1.
    10030    2    1    2    0    0  0.00000000000E+00  0.00000000000E+00 -0.79919722699E+03  0.28180670470E+04  0.27023666801E+04 0.  0.
        5    1    3    3  502    0  0.41701018569E+03 -0.12851575602E+04 -0.41223685545E+03  0.14126176994E+04  0.46999998093E+01 0.  1.
       -5    1    3    3    0  502 -0.41701018569E+03  0.12851575602E+04 -0.38696037154E+03  0.14054493476E+04  0.46999998093E+01 0. -1.
</event>
<event>
 5   0  0.1937896E-07  0.2701065E+04  0.7818609E-02  0.8334660E-01
        1   -1    0    0  501    0  0.00000000000E+00  0.00000000000E+00  0.19135127187E+04  0.19135127187E+04  0.50400001928E-02 0.  1.
       -1   -1    0    0    0  501  0.00000000000E+00  0.00000000000E+00 -0.95318812232E+03  0.95318812234E+03  0.50400001928E-02 0. -1.
    10030    2    1    2    0    0  0.00000000000E+00  0.00000000000E+00  0.96032459639E+03  0.28667008411E+04  0.27010646756E+04 0.  0.
        3    1    3    3  502    0  0.70753455434E+03  0.11488055290E+04  0.41667519197E+03  0.14120826870E+04  0.10100000352E+00 0.  1.
       -3    1    3    3    0  502 -0.70753455434E+03 -0.11488055290E+04  0.54364940442E+03  0.14546181541E+04  0.10100000352E+00 0. -1.
</event>
<event>
 5   0  0.4735120E-07  0.2700833E+04  0.7818609E-02  0.8334735E-01
       -2   -1    0    0    0  501  0.00000000000E+00  0.00000000000E+00  0.10073764864E+04  0.10073764864E+04  0.25500000920E-02 0. -1.
        2   -1    0    0  501    0  0.00000000000E+00  0.00000000000E+00 -0.18102709184E+04  0.18102709184E+04  0.25500000920E-02 0.  1.
    10030    2    1    2    0    0  0.00000000000E+00  0.00000000000E+00 -0.80289443199E+03  0.28176474047E+04  0.27008327287E+04 0.  0.
        2    1    3    3  502    0  0.57667757161E+03  0.21224669738E+03  0.85306792853E+03  0.10513470278E+04  0.25500000920E-02 0. -1.
       -2    1    3    3    0  502 -0.57667757161E+03 -0.21224669738E+03 -0.16559623605E+04  0.17663003770E+04  0.25500000920E-02 0.  1.
</event>
<event>
 5   0  0.1964242E-07  0.2698443E+04  0.7818609E-02  0.8335510E-01
        1   -1    0    0  501    0  0.00000000000E+00  0.00000000000E+00  0.15698144907E+04  0.15698144907E+04  0.50400001928E-02 0. -1.
       -1   -1    0    0    0  501  0.00000000000E+00  0.00000000000E+00 -0.11596264099E+04  0.11596264099E+04  0.50400001928E-02 0.  1.
    10030    2    1    2    0    0  0.00000000000E+00  0.00000000000E+00  0.41018808080E+03  0.27294409006E+04  0.26984427673E+04 0.  0.
        2    1    3    3  502    0 -0.12886804096E+04  0.36246867912E+03  0.34882614208E+02  0.13391405969E+04  0.25500000920E-02 0.  1.
       -2    1    3    3    0  502  0.12886804096E+04 -0.36246867912E+03  0.37530546659E+03  0.13903003038E+04  0.25500000920E-02 0. -1.
</event>
<event>
 5   0  0.1971600E-07  0.2700524E+04  0.7818609E-02  0.8334835E-01
        1   -1    0    0  501    0  0.00000000000E+00  0.00000000000E+00  0.10471007570E+04  0.10471007570E+04  0.50400001928E-02 0. -1.
       -1   -1    0    0    0  501  0.00000000000E+00  0.00000000000E+00 -0.17411952030E+04  0.17411952030E+04  0.50400001928E-02 0.  1.
    10030    2    1    2    0    0  0.00000000000E+00  0.00000000000E+00 -0.69409444597E+03  0.27882959600E+04  0.27005235161E+04 0.  0.
        5    1    3    3  502    0  0.44906540573E+03  0.66517493462E+03 -0.14681881384E+04  0.16732351694E+04  0.46999998093E+01 0.  1.
       -5    1    3    3    0  502 -0.44906540573E+03 -0.66517493462E+03  0.77409369242E+03  0.11150607907E+04  0.46999998093E+01 0. -1.
</event>
<event>
 5   0  0.4992668E-07  0.2700394E+04  0.7818609E-02  0.8334877E-01
       -2   -1    0    0    0  501  0.00000000000E+00  0.00000000000E+00  0.11759684657E+04  0.11759684657E+04  0.25500000920E-02 0. -1.
        2   -1    0    0  501    0  0.00000000000E+00  0.00000000000E+00 -0.15502388930E+04  0.15502388930E+04  0.25500000920E-02 0.  1.
    10030    2    1    2    0    0  0.00000000000E+00  0.00000000000E+00 -0.37427042724E+03  0.27262073587E+04  0.27003940842E+04 0.  0.
        1    1    3    3  502    0 -0.18952848456E+03  0.59278992692E+03  0.10225302127E+04  0.11970334079E+04  0.50400001928E-02 0. -1.
       -1    1    3    3    0  502  0.18952848456E+03 -0.59278992692E+03 -0.13968006399E+04  0.15291739507E+04  0.50400001928E-02 0.  1.
</event>
<event>
 5   0  0.4735120E-07  0.2700056E+04  0.7818609E-02  0.8334987E-01
       -2   -1    0    0    0  501  0.00000000000E+00  0.00000000000E+00  0.85246609316E+03  0.85246609317E+03  0.25500000920E-02 0. -1.
        2   -1    0    0  501    0  0.00000000000E+00  0.00000000000E+00 -0.21380033348E+04  0.21380033348E+04  0.25500000920E-02 0.  1.
    10030    2    1    2    0    0  0.00000000000E+00  0.00000000000E+00 -0.12855372416E+04  0.29904694280E+04  0.27000558142E+04 0.  0.
        2    1    3    3  502    0  0.67492323845E+03  0.14329636995E+03 -0.19279755226E+04  0.20477169831E+04  0.25500000920E-02 0.  1.
       -2    1    3    3    0  502 -0.67492323845E+03 -0.14329636995E+03  0.64243828092E+03  0.94275244483E+03  0.25500000920E-02 0. -1.
</event>
<event>
 5   0  0.4983208E-07  0.2700618E+04  0.7818609E-02  0.8334804E-01
       -2   -1    0    0    0  501  0.00000000000E+00  0.00000000000E+00  0.16802589756E+04  0.16802589756E+04  0.25500000920E-02 0. -1.
        2   -1    0    0  501    0  0.00000000000E+00  0.00000000000E+00 -0.10851510290E+04  0.10851510290E+04  0.25500000920E-02 0.  1.
    10030    2    1    2    0    0  0.00000000000E+00  0.00000000000E+00  0.59510794654E+03  0.27654100046E+04  0.27006182672E+04 0.  0.
        4    1    3    3  502    0  0.23680499111E+03  0.26468663893E+03  0.16315745343E+04  0.16697822297E+04  0.12699999809E+01 0. -1.
       -4    1    3    3    0  502 -0.23680499111E+03 -0.26468663893E+03 -0.10364665878E+04  0.10956277749E+04  0.12699999809E+01 0.  1.
</event>
<event>
 5   0  0.4843887E-07  0.2700488E+04  0.7818609E-02  0.8334847E-01
        2   -1    0    0  501    0  0.00000000000E+00  0.00000000000E+00  0.15946678828E+04  0.15946678828E+04  0.25500000920E-02 0. -1.
       -2   -1    0    0    0  501  0.00000000000E+00  0.00000000000E+00 -0.11432844454E+04  0.11432844454E+04  0.25500000920E-02 0.  1.
    10030    2    1    2    0    0  0.00000000000E+00  0.00000000000E+00  0.45138343740E+03  0.27379523282E+04  0.27004880937E+04 0.  0.
        5    1    3    3  502    0 -0.70103044190E+03  0.80306496383E+03 -0.61452708553E+03  0.12304562753E+04  0.46999998093E+01 0.  1.
       -5    1    3    3    0  502  0.70103044190E+03 -0.80306496383E+03  0.10659105229E+04  0.15074960529E+04  0.46999998093E+01 0. -1.
</event>
<event>
 5   0  0.4983208E-07  0.2700622E+04  0.7818609E-02  0.8334803E-01
        2   -1    0    0  501    0  0.00000000000E+00  0.00000000000E+00  0.11266155015E+04  0.11266155015E+04  0.25500000920E-02 0.  1.
       -2   -1    0    0    0  501  0.00000000000E+00  0.00000000000E+00 -0.16184225767E+04  0.16184225767E+04  0.25500000920E-02 0. -1.
    10030    2    1    2    0    0  0.00000000000E+00  0.00000000000E+00 -0.49180707514E+03  0.27450380782E+04  0.27006221231E+04 0.  0.
        4    1    3    3  502    0  0.12491699456E+04  0.46791873841E+03 -0.32777085105E+02  0.13343348339E+04  0.12699999809E+01 0. -1.
       -4    1    3    3    0  502 -0.12491699456E+04 -0.46791873841E+03 -0.45902999004E+03  0.14107032443E+04  0.12699999809E+01 0.  1.
</event>
<event>
 5   0  0.4992668E-07  0.2702817E+04  0.7818609E-02  0.8334092E-01
       -2   -1    0    0    0  501  0.00000000000E+00  0.00000000000E+00  0.20517705931E+04  0.20517705931E+04  0.25500000920E-02 0. -1.
        2   -1    0    0  501    0  0.00000000000E+00  0.00000000000E+00 -0.89011155520E+03  0.89011155520E+03  0.25500000920E-02 0.  1.
    10030    2    1    2    0    0  0.00000000000E+00  0.00000000000E+00  0.11616590379E+04  0.29418821483E+04  0.27028168370E+04 0.  0.
        1    1    3    3  502    0  0.24456261649E+02 -0.10872166651E+04  0.14540805719E+04  0.18157611339E+04  0.50400001928E-02 0. -1.
       -1    1    3    3    0  502 -0.24456261649E+02  0.10872166651E+04 -0.29242153403E+03  0.11261210144E+04  0.50400001928E-02 0.  1.
</event>
<event>
 5   0  0.1965415E-07  0.2700094E+04  0.7818609E-02  0.8334975E-01
        1   -1    0    0  501    0  0.00000000000E+00  0.00000000000E+00  0.12304980802E+04  0.12304980802E+04  0.50400001928E-02 0.  1.
       -1   -1    0    0    0  501  0.00000000000E+00  0.00000000000E+00 -0.14812104718E+04  0.14812104718E+04  0.50400001928E-02 0. -1.
    10030    2    1    2    0    0  0.00000000000E+00  0.00000000000E+00 -0.25071239153E+03  0.27117085520E+04  0.27000938072E+04 0.  0.
        4    1    3    3  502    0 -0.85375997818E+03  0.30650801939E+03 -0.11295431876E+04  0.14486968944E+04  0.12699999809E+01 0. -1.
       -4    1    3    3    0  502  0.85375997818E+03 -0.30650801939E+03  0.87883079604E+03  0.12630116576E+04  0.12699999809E+01 0.  1.
</event>
<event>
 5   0  0.4735120E-07  0.2699166E+04  0.7818609E-02  0.8335276E-01
        2   -1    0    0  501    0  0.00000000000E+00  0.00000000000E+00  0.16935054332E+04  0.16935054332E+04  0.25500000920E-02 0.  1.
       -2   -1    0    0    0  501  0.00000000000E+00  0.00000000000E+00 -0.10755056262E+04  0.10755056262E+04  0.25500000920E-02 0. -1.
    10030    2    1    2    0    0  0.00000000000E+00  0.00000000000E+00  0.61799980702E+03  0.27690110594E+04  0.26991662575E+04 0.  0.
        2    1    3    3  502    0 -0.86654885963E+03 -0.10331779998E+04  0.25270820346E+03  0.13719421058E+04  0.25500000920E-02 0.  1.
       -2    1    3    3    0  502  0.86654885963E+03  0.10331779998E+04  0.36529160357E+03  0.13970689536E+04  0.25500000920E-02 0. -1.
</event>
<event>
 5   0  0.5043890E-07  0.2701038E+04  0.7818609E-02  0.8334668E-01
        2   -1    0    0  501    0  0.00000000000E+00  0.00000000000E+00  0.16384793927E+04  0.16384793927E+04  0.25500000920E-02 0.  1.
       -2   -1    0    0    0  501  0.00000000000E+00  0.00000000000E+00 -0.11131673514E+04  0.11131673514E+04  0.25500000920E-02 0. -1.
    10030    2    1    2    0    0  0.00000000000E+00  0.00000000000E+00  0.52531204131E+03  0.27516467440E+04  0.27010381455E+04 0.  0.
        3    1    3    3  502    0 -0.13940491778E+03 -0.22898903099E+02 -0.11056191507E+04  0.11146083651E+04  0.10100000352E+00 0. -1.
       -3    1    3    3    0  502  0.13940491778E+03  0.22898903099E+02  0.16309311920E+04  0.16370383790E+04  0.10100000352E+00 0.  1.
</event>
<event>
 5   0  0.1641625E-07  0.2700753E+04  0.7818609E-02  0.8334761E-01
        4   -1    0    0  501    0  0.00000000000E+00  0.00000000000E+00  0.14305761514E+04  0.14305767151E+04  0.12699999809E+01 0. -1.
       -4   -1    0    0    0  501  0.00000000000E+00  0.00000000000E+00 -0.12746714876E+04  0.12746721203E+04  0.12699999809E+01 0.  1.
    10030    2    1    2    0    0  0.00000000000E+00  0.00000000000E+00  0.15590466377E+03  0.27052488354E+04  0.27007526724E+04 0.  0.
        4    1    3    3  502    0 -0.64600802347E+03  0.55893962911E+03 -0.96962562912E+03  0.12922520454E+04  0.12699999809E+01 0.  1.
       -4    1    3    3    0  502  0.64600802347E+03 -0.55893962911E+03  0.11255302929E+04  0.14129967900E+04  0.12699999809E+01 0. -1.
</event>
<event>
 5   0  0.4992668E-07  0.2700167E+04  0.7818609E-02  0.8334951E-01
       -2   -1    0    0    0  501  0.00000000000E+00  0.00000000000E+00  0.84874692511E+03  0.84874692512E+03  0.25500000920E-02 0. -1.
        2   -1    0    0  501    0  0.00000000000E+00  0.00000000000E+00 -0.21475486681E+04  0.21475486681E+04  0.25500000920E-02 0.  1.
    10030    2    1    2    0    0  0.00000000000E+00  0.00000000000E+00 -0.12988017430E+04  0.29962955932E+04  0.27001669049E+04 0.  0.
        1    1    3    3  502    0 -0.41345968548E+03  0.11812522166E+04 -0.12113146350E+04  0.17417200854E+04  0.50400001928E-02 0. -1.
       -1    1    3    3    0  502  0.41345968548E+03 -0.11812522166E+04 -0.87487107970E+02  0.12545755078E+04  0.50400001928E-02 0.  1.
</event>
<event>
 5   0  0.1888149E-07  0.2699676E+04  0.7818609E-02  0.8335110E-01
       -1   -1    0    0    0  501  0.00000000000E+00  0.00000000000E+00  0.16777346468E+04  0.16777346468E+04  0.50400001928E-02 0.  1.
        1   -1    0    0  501    0  0.00000000000E+00  0.00000000000E+00 -0.10860258704E+04  0.10860258704E+04  0.50400001928E-02 0. -1.
    10030    2    1    2    0    0  0.00000000000E+00  0.00000000000E+00  0.59170877641E+03  0.27637605172E+04  0.26996764474E+04 0.  0.
        1    1    3    3  502    0  0.14459260990E+03  0.69506757203E+03 -0.87945589863E+03  0.11302515783E+04  0.50400001928E-02 0. -1.
       -1    1    3    3    0  502 -0.14459260990E+03 -0.69506757203E+03  0.14711646750E+04  0.16335089390E+04  0.50400001928E-02 0.  1.
</event>
<event>
 5   0  0.4735120E-07  0.2700014E+04  0.7818609E-02  0.8335001E-01
       -2   -1    0    0    0  501  0.00000000000E+00  0.00000000000E+00  0.14795600347E+04  0.14795600347E+04  0.25500000920E-02 0.  1.
        2   -1    0    0  501    0  0.00000000000E+00  0.00000000000E+00 -0.12317976573E+04  0.12317976573E+04  0.25500000920E-02 0. -1.
    10030    2    1    2    0    0  0.00000000000E+00  0.00000000000E+00  0.24776237739E+03  0.27113576920E+04  0.27000137664E+04 0.  0.
        2    1    3    3  502    0  0.96082798456E+03 -0.87184821540E+03  0.49855580566E+03  0.13899164068E+04  0.25500000920E-02 0. -1.
       -2    1    3    3    0  502 -0.96082798456E+03  0.87184821540E+03 -0.25079342827E+03  0.13214412852E+04  0.25500000920E-02 0.  1.
</event>
<event>
 5   0  0.1971600E-07  0.2698827E+04  0.7818609E-02  0.8335386E-01
        1   -1    0    0  501    0  0.00000000000E+00  0.00000000000E+00  0.18692253520E+04  0.18692253520E+04  0.50400001928E-02 0. -1.
       -1   -1    0    0    0  501  0.00000000000E+00  0.00000000000E+00 -0.97415581544E+03  0.97415581546E+03  0.50400001928E-02 0.  1.
    10030    2    1    2    0    0  0.00000000000E+00  0.00000000000E+00  0.89506953654E+03  0.28433811675E+04  0.26988269652E+04 0.  0.
        5    1    3    3  502    0 -0.40929870169E+03 -0.11409405221E+04 -0.17720516812E+03  0.12250283522E+04  0.46999998093E+01 0.  1.
       -5    1    3    3    0  502  0.40929870169E+03  0.11409405221E+04  0.10722747047E+04  0.16183528152E+04  0.46999998093E+01 0. -1.
</event>
<event>
 5   0  0.4843887E-07  0.2700302E+04  0.7818609E-02  0.8334907E-01
        2   -1    0    0  501    0  0.00000000000E+00  0.00000000000E+00  0.20704909259E+04  0.20704909259E+04  0.25500000920E-02 0. -1.
       -2   -1    0    0    0  501  0.00000000000E+00  0.00000000000E+00 -0.88042270178E+03  0.88042270179E+03  0.25500000920E-02 0.  1.
    10030    2    1    2    0    0  0.00000000000E+00  0.00000000000E+00  0.11900682242E+04  0.29509136277E+04  0.27003016239E+04 0.  0.
        5    1    3    3  502    0  0.95545585536E+03 -0.73035224010E+03 -0.75575648053E+02  0.12050079065E+04  0.46999998093E+01 0.  1.
       -5    1    3    3    0  502 -0.95545585536E+03  0.73035224010E+03  0.12656438722E+04  0.17459057212E+04  0.46999998093E+01 0. -1.
</event>
<event>
 5   0  0.1965415E-07  0.2699870E+04  0.7818609E-02  0.8335047E-01
       -1   -1    0    0    0  501  0.00000000000E+00  0.00000000000E+00  0.85067744993E+03  0.85067744995E+03  0.50400001928E-02 0.  1.
        1   -1    0    0  501    0  0.00000000000E+00  0.00000000000E+00 -0.21422045780E+04  0.21422045780E+04  0.50400001928E-02 0. -1.
    10030    2    1    2    0    0  0.00000000000E+00  0.00000000000E+00 -0.12915271281E+04  0.29928820280E+04  0.26998704619E+04 0.  0.
        4    1    3    3  502    0 -0.11786923821E+04 -0.10466045843E+03 -0.13659263350E+04  0.18072149592E+04  0.12699999809E+01 0.  1.
       -4    1    3    3    0  502  0.11786923821E+04  0.10466045843E+03  0.74399206906E+02  0.11856670688E+04  0.12699999809E+01 0. -1.
</event>
<event>
 5   0  0.4983208E-07  0.2699818E+04  0.7818609E-02  0.8335064E-01
       -2   -1    0    0    0  501  0.00000000000E+00  0.00000000000E+00  0.67773959788E+03  0.67773959789E+03  0.25500000920E-02 0.  1.
        2   -1    0    0  501    0  0.00000000000E+00  0.00000000000E+00 -0.26887226676E+04  0.26887226676E+04  0.25500000920E-02 0. -1.
    10030    2    1    2    0    0  0.00000000000E+00  0.00000000000E+00 -0.20109830697E+04  0.33664622655E+04  0.26998176380E+04 0.  0.
        4    1    3    3  502    0  0.12806552032E+04  0.96461526818E+02 -0.15239317393E+04  0.19929255216E+04  0.12699999809E+01 0. -1.
       -4    1    3    3    0  502 -0.12806552032E+04 -0.96461526818E+02 -0.48705133038E+03  0.13735367439E+04  0.12699999809E+01 0.  1.
</event>
<event>
 5   0  0.1888149E-07  0.2700026E+04  0.7818609E-02  0.8334997E-01
        1   -1    0    0  501    0  0.00000000000E+00  0.00000000000E+00  0.10405850406E+04  0.10405850406E+04  0.50400001928E-02 0.  1.
       -1   -1    0    0    0  501  0.00000000000E+00  0.00000000000E+00 -0.17514517285E+04  0.17514517285E+04  0.50400001928E-02 0. -1.
    10030    2    1    2    0    0  0.00000000000E+00  0.00000000000E+00 -0.71086668789E+03  0.27920367691E+04  0.27000255318E+04 0.  0.
        1    1    3    3  502    0 -0.45405346901E+03  0.12131270632E+04 -0.74878092928E+03  0.14961666700E+04  0.50400001928E-02 0. -1.
       -1    1    3    3    0  502  0.45405346901E+03 -0.12131270632E+04  0.37914241389E+02  0.12958700992E+04  0.50400001928E-02 0.  1.
</event>
<event>
 5   0  0.4992668E-07  0.2700160E+04  0.7818609E-02  0.8334953E-01
       -2   -1    0    0    0  501  0.00000000000E+00  0.00000000000E+00  0.18275496335E+04  0.18275496335E+04  0.25500000920E-02 0. -1.
        2   -1    0    0  501    0  0.00000000000E+00  0.00000000000E+00 -0.99735497920E+03  0.99735497920E+03  0.25500000920E-02 0.  1.
    10030    2    1    2    0    0  0.00000000000E+00  0.00000000000E+00  0.83019465434E+03  0.28249046127E+04  0.27001597929E+04 0.  0.
        1    1    3    3  502    0 -0.11317347846E+04  0.72340777111E+03  0.27251724274E+03  0.13705502813E+04  0.50400001928E-02 0. -1.
       -1    1    3    3    0  502  0.11317347846E+04 -0.72340777111E+03  0.55767741160E+03  0.14543543314E+04  0.50400001928E-02 0.  1.
</event>
<event>
 5   0  0.1965415E-07  0.2701224E+04  0.7818609E-02  0.8334608E-01
       -1   -1    0    0    0  501  0.00000000000E+00  0.00000000000E+00  0.92739892083E+03  0.92739892085E+03  0.50400001928E-02 0. -1.
        1   -1    0    0  501    0  0.00000000000E+00  0.00000000000E+00 -0.19669558323E+04  0.19669558323E+04  0.50400001928E-02 0.  1.
    10030    2    1    2    0    0  0.00000000000E+00  0.00000000000E+00 -0.10395569115E+04  0.28943547532E+04  0.27012239568E+04 0.  0.
        4    1    3    3  502    0  0.25778760459E+03 -0.29244124582E+03 -0.19053597163E+04  0.19448325359E+04  0.12699999809E+01 0.  1.
       -4    1    3    3    0  502 -0.25778760459E+03  0.29244124582E+03  0.86580280482E+03  0.94952221726E+03  0.12699999809E+01 0. -1.
</event>
<event>
 5   0  0.5043890E-07  0.2700824E+04  0.7818609E-02  0.8334738E-01
       -2   -1    0    0    0  501  0.00000000000E+00  0.00000000000E+00  0.99312589703E+03  0.99312589704E+03  0.25500000920E-02 0. -1.
        2   -1    0    0  501    0  0.00000000000E+00  0.00000000000E+00 -0.18362354737E+04  0.18362354737E+04  0.25500000920E-02 0.  1.
    10030    2    1    2    0    0  0.00000000000E+00  0.00000000000E+00 -0.84310957668E+03  0.28293613708E+04  0.27008243201E+04 0.  0.
        3    1    3    3  502    0  0.57791011818E+03  0.88114855723E+02 -0.16968095115E+04  0.17946885136E+04  0.10100000352E+00 0.  1.
       -3    1    3    3    0  502 -0.57791011818E+03 -0.88114855723E+02  0.85369993477E+03  0.10346728572E+04  0.10100000352E+00 0. -1.
</event>
<event>
 5   0  0.1937896E-07  0.2700669E+04  0.7818609E-02  0.8334788E-01
        1   -1    0    0  501    0  0.00000000000E+00  0.00000000000E+00  0.16836675104E+04  0.16836675104E+04  0.50400001928E-02 0. -1.
       -1   -1    0    0    0  501  0.00000000000E+00  0.00000000000E+00 -0.10829949334E+04  0.10829949334E+04  0.50400001928E-02 0.  1.
    10030    2    1    2    0    0  0.00000000000E+00  0.00000000000E+00  0.60067257698E+03  0.27666624438E+04  0.27006690899E+04 0.  0.
        3    1    3    3  502    0 -0.25285987745E+03 -0.13264343572E+04  0.29409214052E+03  0.13819755493E+04  0.10100000352E+00 0. -1.
       -3    1    3    3    0  502  0.25285987745E+03  0.13264343572E+04  0.30658043645E+03  0.13846868945E+04  0.10100000352E+00 0.  1.
</event>
<event>
 5   0  0.4992668E-07  0.2700147E+04  0.7818609E-02  0.8334957E-01
        2   -1    0    0  501    0  0.00000000000E+00  0.00000000000E+00  0.10396159553E+04  0.10396159553E+04  0.25500000920E-02 0. -1.
       -2   -1    0    0    0  501  0.00000000000E+00  0.00000000000E+00 -0.17532421347E+04  0.17532421347E+04  0.25500000920E-02 0.  1.
    10030    2    1    2    0    0  0.00000000000E+00  0.00000000000E+00 -0.71362617943E+03  0.27928580901E+04  0.27001470307E+04 0.  0.
        1    1    3    3  502    0  0.50963134669E+03 -0.19049918818E+03  0.92120233717E+03  0.10698727944E+04  0.50400001928E-02 0. -1.
       -1    1    3    3    0  502 -0.50963134669E+03  0.19049918818E+03 -0.16348285166E+04  0.17229852956E+04  0.50400001928E-02 0.  1.
</event>
<event>
 5   0  0.1965415E-07  0.2697375E+04  0.7818609E-02  0.8335857E-01
        1   -1    0    0  501    0  0.00000000000E+00  0.00000000000E+00  0.11712973324E+04  0.11712973324E+04  0.50400001928E-02 0.  1.
       -1   -1    0    0    0  501  0.00000000000E+00  0.00000000000E+00 -0.15529435366E+04  0.15529435366E+04  0.50400001928E-02 0. -1.
    10030    2    1    2    0    0  0.00000000000E+00  0.00000000000E+00 -0.38164620420E+03  0.27242408691E+04  0.26973754814E+04 0.  0.
        4    1    3    3  502    0  0.11656200832E+04 -0.62993301240E+03 -0.44526730312E+03  0.13977662046E+04  0.12699999809E+01 0. -1.
       -4    1    3    3    0  502 -0.11656200832E+04  0.62993301240E+03  0.63621098924E+02  0.13264746645E+04  0.12699999809E+01 0.  1.
</event>
<event>
 5   0  0.5043890E-07  0.2697605E+04  0.7818609E-02  0.8335783E-01
        2   -1    0    0  501    0  0.00000000000E+00  0.00000000000E+00  0.21051612110E+04  0.21051612110E+04  0.25500000920E-02 0.  1.
       -2   -1    0    0    0  501  0.00000000000E+00  0.00000000000E+00 -0.86419398208E+03  0.86419398209E+03  0.25500000920E-02 0. -1.
    10030    2    1    2    0    0  0.00000000000E+00  0.00000000000E+00  0.12409672289E+04  0.29693551931E+04  0.26976046040E+04 0.  0.
        3    1    3    3  502    0 -0.10524767279E+04 -0.24186983439E+03 -0.26904553838E+03  0.11129212872E+04  0.10100000352E+00 0. -1.
       -3    1    3    3    0  502  0.10524767279E+04  0.24186983439E+03  0.15100127673E+04  0.18564339059E+04  0.10100000352E+00 0.  1.
</event>
<event>
 5   0  0.1965415E-07  0.2700184E+04  0.7818609E-02  0.8334945E-01
        1   -1    0    0  501    0  0.00000000000E+00  0.00000000000E+00  0.10840272959E+04  0.10840272959E+04  0.50400001928E-02 0. -1.
       -1   -1    0    0    0  501  0.00000000000E+00  0.00000000000E+00 -0.16814601257E+04  0.16814601257E+04  0.50400001928E-02 0.  1.
    10030    2    1    2    0    0  0.00000000000E+00  0.00000000000E+00 -0.59743282981E+03  0.27654874216E+04  0.27001841961E+04 0.  0.
        4    1    3    3  502    0  0.43767775913E+03  0.92035441543E+02 -0.16033825328E+04  0.16645928939E+04  0.12699999809E+01 0.  1.
       -4    1    3    3    0  502 -0.43767775913E+03 -0.92035441543E+02  0.10059497029E+04  0.11008945277E+04  0.12699999809E+01 0. -1.
</event>
<event>
 5   0  0.1641625E-07  0.2700429E+04  0.7818609E-02  0.8334866E-01
       -3   -1    0    0    0  501  0.00000000000E+00  0.00000000000E+00  0.14807052463E+04  0.14807052498E+04  0.10100000352E+00 0.  1.
        3   -1    0    0  501    0  0.00000000000E+00  0.00000000000E+00 -0.12312239011E+04  0.12312239052E+04  0.10100000352E+00 0. -1.
    10030    2    1    2    0    0  0.00000000000E+00  0.00000000000E+00  0.24948134521E+03  0.27119291550E+04  0.27004293733E+04 0.  0.
        5    1    3    3  502    0 -0.33741305201E+03  0.82382858207E+03 -0.89472590828E+03  0.12621797183E+04  0.46999998093E+01 0. -1.
       -5    1    3    3    0  502  0.33741305201E+03 -0.82382858207E+03  0.11442072535E+04  0.14497494367E+04  0.46999998093E+01 0.  1.
</event>
<event>
 5   0  0.1965415E-07  0.2697172E+04  0.7818609E-02  0.8335923E-01
        1   -1    0    0  501    0  0.00000000000E+00  0.00000000000E+00  0.17276338318E+04  0.17276338318E+04  0.50400001928E-02 0. -1.
       -1   -1    0    0    0  501  0.00000000000E+00  0.00000000000E+00 -0.10527022086E+04  0.10527022086E+04  0.50400001928E-02 0.  1.
    10030    2    1    2    0    0  0.00000000000E+00  0.00000000000E+00  0.67493162322E+03  0.27803360405E+04  0.26971718154E+04 0.  0.
        4    1    3    3  502    0  0.81620937246E+02 -0.11547570377E+04 -0.37564218448E+03  0.12170597591E+04  0.12699999809E+01 0.  1.
       -4    1    3    3    0  502 -0.81620937246E+02  0.11547570377E+04  0.10505738077E+04  0.15632762814E+04  0.12699999809E+01 0. -1.
</event>
<event>
 5   0  0.1971600E-07  0.2701387E+04  0.7818609E-02  0.8334555E-01
        1   -1    0    0  501    0  0.00000000000E+00  0.00000000000E+00  0.29294495735E+04  0.29294495735E+04  0.50400001928E-02 0. -1.
       -1   -1    0    0    0  501  0.00000000000E+00  0.00000000000E+00 -0.62276973340E+03  0.62276973342E+03  0.50400001928E-02 0.  1.
    10030    2    1    2    0    0  0.00000000000E+00  0.00000000000E+00  0.23066798401E+04  0.35522193069E+04  0.27013867031E+04 0.  0.
        5    1    3    3  502    0 -0.23939526256E+03 -0.13283371535E+04  0.10867977404E+04  0.17328996230E+04  0.46999998093E+01 0. -1.
       -5    1    3    3    0  502  0.23939526256E+03  0.13283371535E+04  0.12198820996E+04  0.18193196838E+04  0.46999998093E+01 0.  1.
</event>
<event>
 5   0  0.4735120E-07  0.2700162E+04  0.7818609E-02  0.8334952E-01
       -2   -1    0    0    0  501  0.00000000000E+00  0.00000000000E+00  0.21322858767E+04  0.21322858767E+04  0.25500000920E-02 0. -1.
        2   -1    0    0  501    0  0.00000000000E+00  0.00000000000E+00 -0.85481934270E+03  0.85481934270E+03  0.25500000920E-02 0.  1.
    10030    2    1    2    0    0  0.00000000000E+00  0.00000000000E+00  0.12774665340E+04  0.29871052194E+04  0.27001623741E+04 0.  0.
        2    1    3    3  502    0 -0.10775975069E+04  0.81299732485E+03  0.61306939418E+03  0.14825771883E+04  0.25500000920E-02 0.  1.
       -2    1    3    3    0  502  0.10775975069E+04 -0.81299732485E+03  0.66439713983E+03  0.15045280311E+04  0.25500000920E-02 0. -1.
</event>
<event>
 5   0  0.4983208E-07  0.2701333E+04  0.7818609E-02  0.8334573E-01
        2   -1    0    0  501    0  0.00000000000E+00  0.00000000000E+00  0.17204112352E+04  0.17204112352E+04  0.25500000920E-02 0. -1.
       -2   -1    0    0    0  501  0.00000000000E+00  0.00000000000E+00 -0.10603859087E+04  0.10603859087E+04  0.25500000920E-02 0.  1.
    10030    2    1    2    0    0  0.00000000000E+00  0.00000000000E+00  0.66002532644E+03  0.27807971439E+04  0.27013328791E+04 0.  0.
        4    1    3    3  502    0 -0.54322715804E+03  0.24407652023E+03 -0.91793128470E+03  0.10941976738E+04  0.12699999809E+01 0.  1.
       -4    1    3    3    0  502  0.54322715804E+03 -0.24407652023E+03  0.15779566111E+04  0.16865994701E+04  0.12699999809E+01 0. -1.
</event>
<event>
 5   0  0.4843887E-07  0.2698336E+04  0.7818609E-02  0.8335545E-01
        2   -1    0    0  501    0  0.00000000000E+00  0.00000000000E+00  0.10688186237E+04  0.10688186237E+04  0.25500000920E-02 0.  1.
       -2   -1    0    0    0  501  0.00000000000E+00  0.00000000000E+00 -0.17030527499E+04  0.17030527499E+04  0.25500000920E-02 0. -1.
    10030    2    1    2    0    0  0.00000000000E+00  0.00000000000E+00 -0.63423412621E+03  0.27718713736E+04  0.26983361512E+04 0.  0.
        5    1    3    3  502    0 -0.11705231629E+04  0.35084091667E+03  0.27032256103E+03  0.12515231523E+04  0.46999998093E+01 0.  1.
       -5    1    3    3    0  502  0.11705231629E+04 -0.35084091667E+03 -0.90455668724E+03  0.15203482213E+04  0.46999998093E+01 0. -1.
</event>
<event>
 5   0  0.4843887E-07  0.2700439E+04  0.7818609E-02  0.8334862E-01
       -2   -1    0    0    0  501  0.00000000000E+00  0.00000000000E+00  0.98787610619E+03  0.98787610620E+03  0.25500000920E-02 0. -1.
        2   -1    0    0  501    0  0.00000000000E+00  0.00000000000E+00 -0.18454672412E+04  0.18454672412E+04  0.25500000920E-02 0.  1.
    10030    2    1    2    0    0  0.00000000000E+00  0.00000000000E+00 -0.85759113496E+03  0.28333433474E+04  0.27004392178E+04 0.  0.
        5    1    3    3  502    0 -0.23576481674E+03 -0.13294653024E+04 -0.43173771539E+03  0.14175621976E+04  0.46999998093E+01 0.  1.
       -5    1    3    3    0  502  0.23576481674E+03  0.13294653024E+04 -0.42585341957E+03  0.14157811498E+04  0.46999998093E+01 0. -1.
</event>
<event>
 5   0  0.1965415E-07  0.2699818E+04  0.7818609E-02  0.8335064E-01
        1   -1    0    0  501    0  0.00000000000E+00  0.00000000000E+00  0.14769242286E+04  0.14769242286E+04  0.50400001928E-02 0.  1.
       -1   -1    0    0    0  501  0.00000000000E+00  0.00000000000E+00 -0.12338174988E+04  0.12338174988E+04  0.50400001928E-02 0. -1.
    10030    2    1    2    0    0  0.00000000000E+00  0.00000000000E+00  0.24310672974E+03  0.27107417274E+04  0.26998184810E+04 0.  0.
        4    1    3    3  502    0 -0.45746086732E+02 -0.10666046999E+04 -0.70793384289E+03  0.12809801829E+04  0.12699999809E+01 0. -1.
       -4    1    3    3    0  502  0.45746086732E+02  0.10666046999E+04  0.95104057263E+03  0.14297615444E+04  0.12699999809E+01 0.  1.
</event>
<event>
 5   0  0.1888149E-07  0.2702498E+04  0.7818609E-02  0.8334195E-01
       -1   -1    0    0    0  501  0.00000000000E+00  0.00000000000E+00  0.11270578869E+04  0.11270578869E+04  0.50400001928E-02 0.  1.
        1   -1    0    0  501    0  0.00000000000E+00  0.00000000000E+00 -0.16200350814E+04  0.16200350814E+04  0.50400001928E-02 0. -1.
    10030    2    1    2    0    0  0.00000000000E+00  0.00000000000E+00 -0.49297719456E+03  0.27470929683E+04  0.27024975971E+04 0.  0.
        1    1    3    3  502    0 -0.12906274799E+04  0.35398416125E+02  0.15871316236E+03  0.13008313526E+04  0.50400001928E-02 0.  1.
       -1    1    3    3    0  502  0.12906274799E+04 -0.35398416125E+02 -0.65169035693E+03  0.14462616158E+04  0.50400001928E-02 0. -1.
</event>
<event>
 5   0  0.5043890E-07  0.2699690E+04  0.7818609E-02  0.8335106E-01
        2   -1    0    0  501    0  0.00000000000E+00  0.00000000000E+00  0.11245479426E+04  0.11245479426E+04  0.25500000920E-02 0. -1.
       -2   -1    0    0    0  501  0.00000000000E+00  0.00000000000E+00 -0.16202786281E+04  0.16202786281E+04  0.25500000920E-02 0.  1.
    10030    2    1    2    0    0  0.00000000000E+00  0.00000000000E+00 -0.49573068547E+03  0.27448265707E+04  0.26996896100E+04 0.  0.
        3    1    3    3  502    0  0.69315368469E+03  0.46541097453E+03  0.83053389131E+03  0.11776484877E+04  0.10100000352E+00 0. -1.
       -3    1    3    3    0  502 -0.69315368469E+03 -0.46541097453E+03 -0.13262645768E+04  0.15671780829E+04  0.10100000352E+00 0.  1.
</event>
<event>
 5   0  0.4992668E-07  0.2700983E+04  0.7818609E-02  0.8334686E-01
        2   -1    0    0  501    0  0.00000000000E+00  0.00000000000E+00  0.13262063203E+04  0.13262063203E+04  0.25500000920E-02 0. -1.
       -2   -1    0    0    0  501  0.00000000000E+00  0.00000000000E+00 -0.13752211150E+04  0.13752211150E+04  0.25500000920E-02 0.  1.
    10030    2    1    2    0    0  0.00000000000E+00  0.00000000000E+00 -0.49014794725E+02  0.27014274352E+04  0.27009827356E+04 0.  0.
        1    1    3    3  502    0 -0.12472443512E+04  0.34206337955E+03 -0.41341728406E+03  0.13577701123E+04  0.50400001928E-02 0.  1.
       -1    1    3    3    0  502  0.12472443512E+04 -0.34206337955E+03  0.36440248934E+03  0.13436573229E+04  0.50400001928E-02 0. -1.
</event>
<event>
 5   0  0.4843887E-07  0.2699828E+04  0.7818609E-02  0.8335061E-01
        2   -1    0    0  501    0  0.00000000000E+00  0.00000000000E+00  0.20981832250E+04  0.20981832250E+04  0.25500000920E-02 0. -1.
       -2   -1    0    0    0  501  0.00000000000E+00  0.00000000000E+00 -0.86849821953E+03  0.86849821954E+03  0.25500000920E-02 0.  1.
    10030    2    1    2    0    0  0.00000000000E+00  0.00000000000E+00  0.12296850054E+04  0.29666814445E+04  0.26998284354E+04 0.  0.
        5    1    3    3  502    0 -0.79864088820E+03 -0.11125354046E+03  0.18044570805E+04  0.19764341790E+04  0.46999998093E+01 0. -1.
       -5    1    3    3    0  502  0.79864088820E+03  0.11125354046E+03 -0.57477207506E+03  0.99024726550E+03  0.46999998093E+01 0.  1.
</event>
<event>
 5   0  0.1937896E-07  0.2700465E+04  0.7818609E-02  0.8334854E-01
       -1   -1    0    0    0  501  0.00000000000E+00  0.00000000000E+00  0.20565779861E+04  0.20565779861E+04  0.50400001928E-02 0.  1.
        1   -1    0    0  501    0  0.00000000000E+00  0.00000000000E+00 -0.88648612020E+03  0.88648612022E+03  0.50400001928E-02 0. -1.
    10030    2    1    2    0    0  0.00000000000E+00  0.00000000000E+00  0.11700918659E+04  0.29430641063E+04  0.27004650265E+04 0.  0.
        3    1    3    3  502    0  0.59353933707E+02 -0.96418834673E+03 -0.44307200629E+03  0.10627769617E+04  0.10100000352E+00 0. -1.
       -3    1    3    3    0  502 -0.59353933707E+02  0.96418834673E+03  0.16131638722E+04  0.18802871446E+04  0.10100000352E+00 0.  1.
</event>
<event>
 5   0  0.4735120E-07  0.2699287E+04  0.7818609E-02  0.8335236E-01
       -2   -1    0    0    0  501  0.00000000000E+00  0.00000000000E+00  0.76103428927E+03  0.76103428927E+03  0.25500000920E-02 0.  1.
        2   -1    0    0  501    0  0.00000000000E+00  0.00000000000E+00 -0.23935021608E+04  0.23935021608E+04  0.25500000920E-02 0. -1.
    10030    2    1    2    0    0  0.00000000000E+00  0.00000000000E+00 -0.16324678715E+04  0.31545364501E+04  0.26992867323E+04 0.  0.
        2    1    3    3  502    0  0.15401713931E+02 -0.69611447562E+03  0.53492832559E+03  0.87804378563E+03  0.25500000920E-02 0.  1.
       -2    1    3    3    0  502 -0.15401713931E+02  0.69611447562E+03 -0.21673961971E+04  0.22764926644E+04  0.25500000920E-02 0. -1.
</event>
<event>
 5   0  0.1888149E-07  0.2699094E+04  0.7818609E-02  0.8335299E-01
       -1   -1    0    0    0  501  0.00000000000E+00  0.00000000000E+00  0.99829777022E+03  0.99829777024E+03  0.50400001928E-02 0.  1.
        1   -1    0    0  501    0  0.00000000000E+00  0.00000000000E+00 -0.18243826029E+04  0.18243826029E+04  0.50400001928E-02 0. -1.
    10030    2    1    2    0    0  0.00000000000E+00  0.00000000000E+00 -0.82608483264E+03  0.28226803731E+04  0.26990939847E+04 0.  0.
        1    1    3    3  502    0 -0.46197162845E+02 -0.13038998368E+04 -0.52301418863E+02  0.13057658292E+04  0.50400001928E-02 0.  1.
       -1    1    3    3    0  502  0.46197162845E+02  0.13038998368E+04 -0.77378341378E+03  0.15169145439E+04  0.50400001928E-02 0. -1.
</event>
<event>
 5   0  0.5043890E-07  0.2700095E+04  0.7818609E-02  0.8334974E-01
        2   -1    0    0  501    0  0.00000000000E+00  0.00000000000E+00  0.17019299472E+04  0.17019299472E+04  0.25500000920E-02 0.  1.
       -2   -1    0    0    0  501  0.00000000000E+00  0.00000000000E+00 -0.10709186680E+04  0.10709186680E+04  0.25500000920E-02 0. -1.
    10030    2    1    2    0    0  0.00000000000E+00  0.00000000000E+00  0.63101127917E+03  0.27728486151E+04  0.27000952220E+04 0.  0.
        3    1    3    3  502    0 -0.71280750745E+03  0.32316027928E+03 -0.81418093363E+03  0.11293439298E+04  0.10100000352E+00 0. -1.
       -3    1    3    3    0  502  0.71280750745E+03 -0.32316027928E+03  0.14451922128E+04  0.16435046854E+04  0.10100000352E+00 0.  1.
</event>
<event>
 5   0  0.4735120E-07  0.2700181E+04  0.7818609E-02  0.8334946E-01
        2   -1    0    0  501    0  0.00000000000E+00  0.00000000000E+00  0.23780191249E+04  0.23780191249E+04  0.25500000920E-02 0.  1.
       -2   -1    0    0    0  501  0.00000000000E+00  0.00000000000E+00 -0.76649688220E+03  0.76649688220E+03  0.25500000920E-02 0. -1.
    10030    2    1    2    0    0  0.00000000000E+00  0.00000000000E+00  0.16115222427E+04  0.31445160071E+04  0.27001809162E+04 0.  0.
        2    1    3    3  502    0 -0.68727848718E+03  0.15235170701E+03  0.21473705546E+04  0.22598148288E+04  0.25500000920E-02 0.  1.
       -2    1    3    3    0  502  0.68727848718E+03 -0.15235170701E+03 -0.53584831190E+03  0.88470117833E+03  0.25500000920E-02 0. -1.
</event>
<event>
 5   0  0.1888149E-07  0.2699673E+04  0.7818609E-02  0.8335111E-01
       -1   -1    0    0    0  501  0.00000000000E+00  0.00000000000E+00  0.63789057703E+03  0.63789057705E+03  0.50400001928E-02 0.  1.
        1   -1    0    0  501    0  0.00000000000E+00  0.00000000000E+00 -0.28563809770E+04  0.28563809770E+04  0.50400001928E-02 0. -1.
    10030    2    1    2    0    0  0.00000000000E+00  0.00000000000E+00 -0.22184904000E+04  0.34942715540E+04  0.26996729503E+04 0.  0.
        1    1    3    3  502    0 -0.97666944587E+03  0.13257720973E+03 -0.23029799212E+04  0.25050302274E+04  0.50400001928E-02 0. -1.
       -1    1    3    3    0  502  0.97666944587E+03 -0.13257720973E+03  0.84489521211E+02  0.98924132660E+03  0.50400001928E-02 0.  1.
</event>
<event>
 5   0  0.4843887E-07  0.2700249E+04  0.7818609E-02  0.8334924E-01
       -2   -1    0    0    0  501  0.00000000000E+00  0.00000000000E+00  0.19652619530E+04  0.19652619530E+04  0.25500000920E-02 0.  1.
        2   -1    0    0  501    0  0.00000000000E+00  0.00000000000E+00 -0.92752812322E+03  0.92752812322E+03  0.25500000920E-02 0. -1.
    10030    2    1    2    0    0  0.00000000000E+00  0.00000000000E+00  0.10377338297E+04  0.28927900762E+04  0.27002486781E+04 0.  0.
        5    1    3    3  502    0 -0.11189954860E+04  0.67837988050E+03  0.16280746292E+03  0.13186654314E+04  0.46999998093E+01 0. -1.
       -5    1    3    3    0  502  0.11189954860E+04 -0.67837988050E+03  0.87492636683E+03  0.15741246448E+04  0.46999998093E+01 0.  1.
</event>
<event>
 5   0  0.4735120E-07  0.2709773E+04  0.7818609E-02  0.8331841E-01
        2   -1    0    0  501    0  0.00000000000E+00  0.00000000000E+00  0.10221263052E+04  0.10221263052E+04  0.25500000920E-02 0. -1.
       -2   -1    0    0    0  501  0.00000000000E+00  0.00000000000E+00 -0.17959786660E+04  0.17959786660E+04  0.25500000920E-02 0.  1.
    10030    2    1    2    0    0  0.00000000000E+00  0.00000000000E+00 -0.77385236082E+03  0.28181049712E+04  0.27097727123E+04 0.  0.
        2    1    3    3  502    0 -0.76077694998E+03  0.99669591494E+03 -0.92080362885E+03  0.15556553723E+04  0.25500000920E-02 0.  1.
       -2    1    3    3    0  502  0.76077694998E+03 -0.99669591494E+03  0.14695126803E+03  0.12624495989E+04  0.25500000920E-02 0. -1.
</event>
<event>
 5   0  0.4843887E-07  0.2699869E+04  0.7818609E-02  0.8335047E-01
       -2   -1    0    0    0  501  0.00000000000E+00  0.00000000000E+00  0.95697241317E+03  0.95697241317E+03  0.25500000920E-02 0.  1.
        2   -1    0    0  501    0  0.00000000000E+00  0.00000000000E+00 -0.19042588854E+04  0.19042588854E+04  0.25500000920E-02 0. -1.
    10030    2    1    2    0    0  0.00000000000E+00  0.00000000000E+00 -0.94728647224E+03  0.28612312986E+04  0.26998690493E+04 0.  0.
        5    1    3    3  502    0 -0.12229793516E+04 -0.41262210608E+03 -0.54578688265E+02  0.12918732214E+04  0.46999998093E+01 0.  1.
       -5    1    3    3    0  502  0.12229793516E+04  0.41262210608E+03 -0.89270778398E+03  0.15693580772E+04  0.46999998093E+01 0. -1.
</event>
<event>
 5   0  0.1888149E-07  0.2699671E+04  0.7818609E-02  0.8335112E-01
        1   -1    0    0  501    0  0.00000000000E+00  0.00000000000E+00  0.15155602045E+04  0.15155602045E+04  0.50400001928E-02 0.  1.
       -1   -1    0    0    0  501  0.00000000000E+00  0.00000000000E+00 -0.12022325311E+04  0.12022325311E+04  0.50400001928E-02 0. -1.
    10030    2    1    2    0    0  0.00000000000E+00  0.00000000000E+00  0.31332767339E+03  0.27177927357E+04  0.26996709287E+04 0.  0.
        1    1    3    3  502    0  0.12531290422E+04  0.26418238773E+03 -0.27273307555E+03  0.13093922487E+04  0.50400001928E-02 0. -1.
       -1    1    3    3    0  502 -0.12531290422E+04 -0.26418238773E+03  0.58606074894E+03  0.14084004870E+04  0.50400001928E-02 0.  1.
</event>
<event>
 5   0  0.4983208E-07  0.2699937E+04  0.7818609E-02  0.8335025E-01
        2   -1    0    0  501    0  0.00000000000E+00  0.00000000000E+00  0.14703415846E+04  0.14703415846E+04  0.25500000920E-02 0. -1.
       -2   -1    0    0    0  501  0.00000000000E+00  0.00000000000E+00 -0.12394500420E+04  0.12394500420E+04  0.25500000920E-02 0.  1.
    10030    2    1    2    0    0  0.00000000000E+00  0.00000000000E+00  0.23089154255E+03  0.27097916267E+04  0.26999369910E+04 0.  0.
        4    1    3    3  502    0  0.15873022951E+03 -0.64784706130E+03  0.12934042930E+04  0.14552653980E+04  0.12699999809E+01 0. -1.
       -4    1    3    3    0  502 -0.15873022951E+03  0.64784706130E+03 -0.10625127504E+04  0.12545262286E+04  0.12699999809E+01 0.  1.
</event>
<event>
 5   0  0.5043890E-07  0.2696250E+04  0.7818609E-02  0.8336223E-01
        2   -1    0    0  501    0  0.00000000000E+00  0.00000000000E+00  0.21393068922E+04  0.21393068922E+04  0.25500000920E-02 0. -1.
       -2   -1    0    0    0  501  0.00000000000E+00  0.00000000000E+00 -0.84954649243E+03  0.84954649244E+03  0.25500000920E-02 0.  1.
    10030    2    1    2    0    0  0.00000000000E+00  0.00000000000E+00  0.12897603998E+04  0.29888533847E+04  0.26962497411E+04 0.  0.
        3    1    3    3  502    0 -0.70942724052E+03  0.26556740577E+03  0.18810828525E+04  0.20278771572E+04  0.10100000352E+00 0. -1.
       -3    1    3    3    0  502  0.70942724052E+03 -0.26556740577E+03 -0.59132245265E+03  0.96097622750E+03  0.10100000352E+00 0.  1.
</event>
<event>
 5   0  0.4843887E-07  0.2700505E+04  0.7818609E-02  0.8334841E-01
       -2   -1    0    0    0  501  0.00000000000E+00  0.00000000000E+00  0.71546371069E+03  0.71546371069E+03  0.25500000920E-02 0.  1.
        2   -1    0    0  501    0  0.00000000000E+00  0.00000000000E+00 -0.25482519281E+04  0.25482519281E+04  0.25500000920E-02 0. -1.
    10030    2    1    2    0    0  0.00000000000E+00  0.00000000000E+00 -0.18327882174E+04  0.32637156388E+04  0.27005049752E+04 0.  0.
        5    1    3    3  502    0  0.39880134150E+03  0.11796432975E+04 -0.15473478089E+04  0.19861792847E+04  0.46999998093E+01 0. -1.
       -5    1    3    3    0  502 -0.39880134150E+03 -0.11796432975E+04 -0.28544040858E+03  0.12775363541E+04  0.46999998093E+01 0.  1.
</event>
<event>
 5   0  0.5043890E-07  0.2719529E+04  0.7818609E-02  0.8328696E-01
        2   -1    0    0  501    0  0.00000000000E+00  0.00000000000E+00  0.25113903034E+04  0.25113903034E+04  0.25500000920E-02 0.  1.
       -2   -1    0    0    0  501  0.00000000000E+00  0.00000000000E+00 -0.73622965576E+03  0.73622965576E+03  0.25500000920E-02 0. -1.
    10030    2    1    2    0    0  0.00000000000E+00  0.00000000000E+00  0.17751606477E+04  0.32476199592E+04  0.27195293847E+04 0.  0.
        3    1    3    3  502    0 -0.22646319215E+03  0.12348617538E+04  0.15112955833E+04  0.19647349640E+04  0.10100000352E+00 0.  1.
       -3    1    3    3    0  502  0.22646319215E+03 -0.12348617538E+04  0.26386506432E+03  0.12828849952E+04  0.10100000352E+00 0. -1.
</event>
<event>
 5   0  0.1937896E-07  0.2700952E+04  0.7818609E-02  0.8334696E-01
       -1   -1    0    0    0  501  0.00000000000E+00  0.00000000000E+00  0.73768031349E+03  0.73768031351E+03  0.50400001928E-02 0.  1.
        1   -1    0    0  501    0  0.00000000000E+00  0.00000000000E+00 -0.24723244660E+04  0.24723244660E+04  0.50400001928E-02 0. -1.
    10030    2    1    2    0    0  0.00000000000E+00  0.00000000000E+00 -0.17346441525E+04  0.32100047795E+04  0.27009517487E+04 0.  0.
        3    1    3    3  502    0 -0.14134257247E+03  0.99917894589E+03  0.19929324931E+03  0.10286175665E+04  0.10100000352E+00 0.  1.
       -3    1    3    3    0  502  0.14134257247E+03 -0.99917894589E+03 -0.19339374018E+04  0.21813872130E+04  0.10100000352E+00 0. -1.
</event>
<event>
 5   0  0.1937896E-07  0.2697236E+04  0.7818609E-02  0.8335902E-01
       -1   -1    0    0    0  501  0.00000000000E+00  0.00000000000E+00  0.12820992398E+04  0.12820992398E+04  0.50400001928E-02 0. -1.
        1   -1    0    0  501    0  0.00000000000E+00  0.00000000000E+00 -0.14185880028E+04  0.14185880029E+04  0.50400001928E-02 0.  1.
    10030    2    1    2    0    0  0.00000000000E+00  0.00000000000E+00 -0.13648876300E+03  0.27006872427E+04  0.26972360669E+04 0.  0.
        3    1    3    3  502    0 -0.82935254047E+03 -0.78180695513E+03 -0.79008486531E+03  0.13868243782E+04  0.10100000352E+00 0.  1.
       -3    1    3    3    0  502  0.82935254047E+03  0.78180695513E+03  0.65359610231E+03  0.13138628645E+04  0.10100000352E+00 0. -1.
</event>
<event>
 5   0  0.4983208E-07  0.2698460E+04  0.7818609E-02  0.8335505E-01
        2   -1    0    0  501    0  0.00000000000E+00  0.00000000000E+00  0.14123233271E+04  0.14123233271E+04  0.25500000920E-02 0.  1.
       -2   -1    0    0    0  501  0.00000000000E+00  0.00000000000E+00 -0.12889555419E+04  0.12889555419E+04  0.25500000920E-02 0. -1.
    10030    2    1    2    0    0  0.00000000000E+00  0.00000000000E+00  0.12336778521E+03  0.27012788691E+04  0.26984602866E+04 0.  0.
        4    1    3    3  502    0 -0.97883919531E+03  0.58680798970E+03 -0.65875566701E+03  0.13177368587E+04  0.12699999809E+01 0.  1.
       -4    1    3    3    0  502  0.97883919531E+03 -0.58680798970E+03  0.78212345222E+03  0.13835420104E+04  0.12699999809E+01 0. -1.
</event>
<event>
 5   0  0.1971600E-07  0.2697029E+04  0.7818609E-02  0.8335970E-01
       -1   -1    0    0    0  501  0.00000000000E+00  0.00000000000E+00  0.14926294720E+04  0.14926294720E+04  0.50400001928E-02 0.  1.
        1   -1    0    0  501    0  0.00000000000E+00  0.00000000000E+00 -0.12183136107E+04  0.12183136107E+04  0.50400001928E-02 0. -1.
    10030    2    1    2    0    0  0.00000000000E+00  0.00000000000E+00  0.27431586131E+03  0.27109430827E+04  0.26970285882E+04 0.  0.
        5    1    3    3  502    0 -0.11861056740E+04  0.49170597224E+02  0.78014899965E+03  0.14205347476E+04  0.46999998093E+01 0.  1.
       -5    1    3    3    0  502  0.11861056740E+04 -0.49170597224E+02 -0.50583313834E+03  0.12904083351E+04  0.46999998093E+01 0. -1.
</event>
<event>
 5   0  0.1971600E-07  0.2699319E+04  0.7818609E-02  0.8335226E-01
        1   -1    0    0  501    0  0.00000000000E+00  0.00000000000E+00  0.17471214878E+04  0.17471214879E+04  0.50400001928E-02 0. -1.
       -1   -1    0    0    0  501  0.00000000000E+00  0.00000000000E+00 -0.10426179421E+04  0.10426179421E+04  0.50400001928E-02 0.  1.
    10030    2    1    2    0    0  0.00000000000E+00  0.00000000000E+00  0.70450354574E+03  0.27897394300E+04  0.26993185883E+04 0.  0.
        5    1    3    3  502    0  0.25704293036E+03 -0.10693805655E+04 -0.45619991499E+03  0.11907083247E+04  0.46999998093E+01 0.  1.
       -5    1    3    3    0  502 -0.25704293036E+03  0.10693805655E+04  0.11607034607E+04  0.15990311053E+04  0.46999998093E+01 0. -1.
</event>
<event>
 5   0  0.1937896E-07  0.2700188E+04  0.7818609E-02  0.8334944E-01
       -1   -1    0    0    0  501  0.00000000000E+00  0.00000000000E+00  0.21439564585E+04  0.21439564585E+04  0.50400001928E-02 0. -1.
        1   -1    0    0  501    0  0.00000000000E+00  0.00000000000E+00 -0.85018232758E+03  0.85018232760E+03  0.50400001928E-02 0.  1.
    10030    2    1    2    0    0  0.00000000000E+00  0.00000000000E+00  0.12937741309E+04  0.29941387861E+04  0.27001880617E+04 0.  0.
        3    1    3    3  502    0  0.55659268771E+03  0.39258006046E+03  0.19394805816E+04  0.20556019703E+04  0.10100000352E+00 0. -1.
       -3    1    3    3    0  502 -0.55659268771E+03 -0.39258006046E+03 -0.64570645068E+03  0.93853681576E+03  0.10100000352E+00 0.  1.
</event>
<event>
 5   0  0.4992668E-07  0.2700298E+04  0.7818609E-02  0.8334908E-01
       -2   -1    0    0    0  501  0.00000000000E+00  0.00000000000E+00  0.11445345405E+04  0.11445345405E+04  0.25500000920E-02 0. -1.
        2   -1    0    0  501    0  0.00000000000E+00  0.00000000000E+00 -0.15927013888E+04  0.15927013888E+04  0.25500000920E-02 0.  1.
    10030    2    1    2    0    0  0.00000000000E+00  0.00000000000E+00 -0.44816684831E+03  0.27372359292E+04  0.27002975778E+04 0.  0.
        1    1    3    3  502    0 -0.33957118404E+03 -0.30037265643E+03 -0.15132386702E+04  0.15796909808E+04  0.50400001928E-02 0.  1.
       -1    1    3    3    0  502  0.33957118404E+03  0.30037265643E+03  0.10650718219E+04  0.11575449484E+04  0.50400001928E-02 0. -1.
</event>
<event>
 5   0  0.1964242E-07  0.2701222E+04  0.7818609E-02  0.8334609E-01
        1   -1    0    0  501    0  0.00000000000E+00  0.00000000000E+00  0.13039502829E+04  0.13039502829E+04  0.50400001928E-02 0. -1.
       -1   -1    0    0    0  501  0.00000000000E+00  0.00000000000E+00 -0.13989414031E+04  0.13989414031E+04  0.50400001928E-02 0.  1.
    10030    2    1    2    0    0  0.00000000000E+00  0.00000000000E+00 -0.94991120191E+02  0.27028916860E+04  0.27012219741E+04 0.  0.
        2    1    3    3  502    0  0.74758302939E+03 -0.11091760115E+04 -0.23468933246E+03  0.13580246291E+04  0.25500000920E-02 0.  1.
       -2    1    3    3    0  502 -0.74758302939E+03  0.11091760115E+04  0.13969821227E+03  0.13448670569E+04  0.25500000920E-02 0. -1.
</event>
<event>
 5   0  0.1937896E-07  0.2699546E+04  0.7818609E-02  0.8335152E-01
        1   -1    0    0  501    0  0.00000000000E+00  0.00000000000E+00  0.13166196709E+04  0.13166196709E+04  0.50400001928E-02 0.  1.
       -1   -1    0    0    0  501  0.00000000000E+00  0.00000000000E+00 -0.13837613996E+04  0.13837613996E+04  0.50400001928E-02 0. -1.
    10030    2    1    2    0    0  0.00000000000E+00  0.00000000000E+00 -0.67141728623E+02  0.27003810705E+04  0.26995462423E+04 0.  0.
        3    1    3    3  502    0  0.36069712622E+03  0.86197733792E+03  0.94078380783E+03  0.13259643778E+04  0.10100000352E+00 0.  1.
       -3    1    3    3    0  502 -0.36069712622E+03 -0.86197733792E+03 -0.10079255365E+04  0.13744166927E+04  0.10100000352E+00 0. -1.
</event>
<event>
 5   0  0.1964242E-07  0.2711976E+04  0.7818609E-02  0.8331130E-01
        1   -1    0    0  501    0  0.00000000000E+00  0.00000000000E+00  0.96513025712E+03  0.96513025714E+03  0.50400001928E-02 0. -1.
       -1   -1    0    0    0  501  0.00000000000E+00  0.00000000000E+00 -0.19051346365E+04  0.19051346366E+04  0.50400001928E-02 0.  1.
    10030    2    1    2    0    0  0.00000000000E+00  0.00000000000E+00 -0.94000437942E+03  0.28702648937E+04  0.27119757238E+04 0.  0.
        2    1    3    3  502    0  0.78968642631E+02 -0.51071669589E+03 -0.17968224528E+04  0.18696626746E+04  0.25500000920E-02 0.  1.
       -2    1    3    3    0  502 -0.78968642631E+02  0.51071669589E+03  0.85681807336E+03  0.10006022191E+04  0.25500000920E-02 0. -1.
</event>
<event>
 5   0  0.1937896E-07  0.2700157E+04  0.7818609E-02  0.8334954E-01
        1   -1    0    0  501    0  0.00000000000E+00  0.00000000000E+00  0.14608014270E+04  0.14608014270E+04  0.50400001928E-02 0.  1.
       -1   -1    0    0    0  501  0.00000000000E+00  0.00000000000E+00 -0.12477476270E+04  0.12477476270E+04  0.50400001928E-02 0. -1.
    10030    2    1    2    0    0  0.00000000000E+00  0.00000000000E+00  0.21305380005E+03  0.27085490540E+04  0.27001566726E+04 0.  0.
        3    1    3    3  502    0 -0.14287195365E+03 -0.13119631752E+04 -0.17905383090E+03  0.13318108172E+04  0.10100000352E+00 0.  1.
       -3    1    3    3    0  502  0.14287195365E+03  0.13119631752E+04  0.39210763096E+03  0.13767382368E+04  0.10100000352E+00 0. -1.
</event>
<event>
 5   0  0.4843887E-07  0.2696345E+04  0.7818609E-02  0.8336192E-01
       -2   -1    0    0    0  501  0.00000000000E+00  0.00000000000E+00  0.11426776386E+04  0.11426776386E+04  0.25500000920E-02 0.  1.
        2   -1    0    0  501    0  0.00000000000E+00  0.00000000000E+00 -0.15906229382E+04  0.15906229382E+04  0.25500000920E-02 0. -1.
    10030    2    1    2    0    0  0.00000000000E+00  0.00000000000E+00 -0.44794529964E+03  0.27333005768E+04  0.26963451285E+04 0.  0.
        5    1    3    3  502    0  0.63291854228E+03 -0.10431691304E+04 -0.80520668847E+03  0.14619054747E+04  0.46999998093E+01 0.  1.
       -5    1    3    3    0  502 -0.63291854228E+03  0.10431691304E+04  0.35726138882E+03  0.12713951021E+04  0.46999998093E+01 0. -1.
</event>
<event>
 5   0  0.4992668E-07  0.2699570E+04  0.7818609E-02  0.8335145E-01
        2   -1    0    0  501    0  0.00000000000E+00  0.00000000000E+00  0.20873434100E+04  0.20873434100E+04  0.25500000920E-02 0.  1.
       -2   -1    0    0    0  501  0.00000000000E+00  0.00000000000E+00 -0.87284109603E+03  0.87284109604E+03  0.25500000920E-02 0. -1.
    10030    2    1    2    0    0  0.00000000000E+00  0.00000000000E+00  0.12145023139E+04  0.29601845060E+04  0.26995696766E+04 0.  0.
        1    1    3    3  502    0 -0.48026301625E+03  0.26650487733E+03 -0.74476088500E+03  0.92538975047E+03  0.50400001928E-02 0. -1.
       -1    1    3    3    0  502  0.48026301625E+03 -0.26650487733E+03  0.19592631989E+04  0.20347947555E+04  0.50400001928E-02 0.  1.
</event>
<event>
 5   0  0.1888149E-07  0.2698893E+04  0.7818609E-02  0.8335364E-01
       -1   -1    0    0    0  501  0.00000000000E+00  0.00000000000E+00  0.13975835204E+04  0.13975835204E+04  0.50400001928E-02 0. -1.
        1   -1    0    0  501    0  0.00000000000E+00  0.00000000000E+00 -0.13029672639E+04  0.13029672639E+04  0.50400001928E-02 0.  1.
    10030    2    1    2    0    0  0.00000000000E+00  0.00000000000E+00  0.94616256522E+02  0.27005507842E+04  0.26988927919E+04 0.  0.
        1    1    3    3  502    0  0.96822433187E+03 -0.54074535186E+03 -0.72202158669E+03  0.13233212248E+04  0.50400001928E-02 0.  1.
       -1    1    3    3    0  502 -0.96822433187E+03  0.54074535186E+03  0.81663784321E+03  0.13772295594E+04  0.50400001928E-02 0. -1.
</event>
<event>
 5   0  0.4735120E-07  0.2699637E+04  0.7818609E-02  0.8335123E-01
        2   -1    0    0  501    0  0.00000000000E+00  0.00000000000E+00  0.78377806156E+03  0.78377806157E+03  0.25500000920E-02 0. -1.
       -2   -1    0    0    0  501  0.00000000000E+00  0.00000000000E+00 -0.23246503755E+04  0.23246503755E+04  0.25500000920E-02 0.  1.
    10030    2    1    2    0    0  0.00000000000E+00  0.00000000000E+00 -0.15408723139E+04  0.31084284371E+04  0.26996369868E+04 0.  0.
        2    1    3    3  502    0 -0.76826668739E+03 -0.63371156522E+03  0.27867905435E+03  0.10341595942E+04  0.25500000920E-02 0. -1.
       -2    1    3    3    0  502  0.76826668739E+03  0.63371156522E+03 -0.18195513683E+04  0.20742688429E+04  0.25500000920E-02 0.  1.
</event>
<event>
 5   0  0.4843887E-07  0.2699191E+04  0.7818609E-02  0.8335267E-01
        2   -1    0    0  501    0  0.00000000000E+00  0.00000000000E+00  0.19047978877E+04  0.19047978877E+04  0.25500000920E-02 0. -1.
       -2   -1    0    0    0  501  0.00000000000E+00  0.00000000000E+00 -0.95622144765E+03  0.95622144766E+03  0.25500000920E-02 0.  1.
    10030    2    1    2    0    0  0.00000000000E+00  0.00000000000E+00  0.94857644001E+03  0.28610193353E+04  0.26991914298E+04 0.  0.
        5    1    3    3  502    0 -0.60510259140E+03 -0.11788567737E+04  0.20294394739E+03  0.13405449544E+04  0.46999998093E+01 0.  1.
       -5    1    3    3    0  502  0.60510259140E+03  0.11788567737E+04  0.74563249262E+03  0.15204743809E+04  0.46999998093E+01 0. -1.
</event>
<event>
 5   0  0.1964242E-07  0.2699238E+04  0.7818609E-02  0.8335252E-01
       -1   -1    0    0    0  501  0.00000000000E+00  0.00000000000E+00  0.28537728112E+04  0.28537728112E+04  0.50400001928E-02 0.  1.
        1   -1    0    0  501    0  0.00000000000E+00  0.00000000000E+00 -0.63826778475E+03  0.63826778477E+03  0.50400001928E-02 0. -1.
    10030    2    1    2    0    0  0.00000000000E+00  0.00000000000E+00  0.22155050265E+04  0.34920405960E+04  0.26992378557E+04 0.  0.
        2    1    3    3  502    0 -0.55428252951E+02 -0.13336830510E+04  0.85001932014E+03  0.15825029593E+04  0.25500000920E-02 0.  1.
       -2    1    3    3    0  502  0.55428252951E+02  0.13336830510E+04  0.13654857063E+04  0.19095376367E+04  0.25500000920E-02 0. -1.
</event>
<event>
 5   0  0.4735120E-07  0.2699937E+04  0.7818609E-02  0.8335025E-01
       -2   -1    0    0    0  501  0.00000000000E+00  0.00000000000E+00  0.15867860667E+04  0.15867860667E+04  0.25500000920E-02 0. -1.
        2   -1    0    0  501    0  0.00000000000E+00  0.00000000000E+00 -0.11484946099E+04  0.11484946099E+04  0.25500000920E-02 0.  1.
    10030    2    1    2    0    0  0.00000000000E+00  0.00000000000E+00  0.43829145679E+03  0.27352806766E+04  0.26999372175E+04 0.  0.
        2    1    3    3  502    0 -0.49432726034E+03  0.21552255108E+03  0.14729268836E+04  0.15685416841E+04  0.25500000920E-02 0. -1.
       -2    1    3    3    0  502  0.49432726034E+03 -0.21552255108E+03 -0.10346354268E+04  0.11667389925E+04  0.25500000920E-02 0.  1.
</event>
<event>
 5   0  0.5043890E-07  0.2698479E+04  0.7818609E-02  0.8335499E-01
       -2   -1    0    0    0  501  0.00000000000E+00  0.00000000000E+00  0.10937197464E+04  0.10937197464E+04  0.25500000920E-02 0.  1.
        2   -1    0    0  501    0  0.00000000000E+00  0.00000000000E+00 -0.16644547016E+04  0.16644547016E+04  0.25500000920E-02 0. -1.
    10030    2    1    2    0    0  0.00000000000E+00  0.00000000000E+00 -0.57073495524E+03  0.27581744480E+04  0.26984788116E+04 0.  0.
        3    1    3    3  502    0 -0.30132905012E+02 -0.74142807717E+03  0.86642537100E+03  0.11407526109E+04  0.10100000352E+00 0.  1.
       -3    1    3    3    0  502  0.30132905012E+02  0.74142807717E+03 -0.14371603262E+04  0.16174218371E+04  0.10100000352E+00 0. -1.
</event>
<event>
 5   0  0.1641625E-07  0.2700104E+04  0.7818609E-02  0.8334971E-01
       -3   -1    0    0    0  501  0.00000000000E+00  0.00000000000E+00  0.18591578872E+04  0.18591578900E+04  0.10100000352E+00 0. -1.
        3   -1    0    0  501    0  0.00000000000E+00  0.00000000000E+00 -0.98035822478E+03  0.98035822998E+03  0.10100000352E+00 0.  1.
    10030    2    1    2    0    0  0.00000000000E+00  0.00000000000E+00  0.87879966244E+03  0.28395161199E+04  0.27001042477E+04 0.  0.
        3    1    3    3  502    0 -0.97347985054E+03 -0.84628211652E+03  0.85845149360E+03  0.15494500370E+04  0.10100000352E+00 0. -1.
       -3    1    3    3    0  502  0.97347985054E+03  0.84628211652E+03  0.20348168842E+02  0.12900660829E+04  0.10100000352E+00 0.  1.
</event>
<event>
 5   0  0.1971600E-07  0.2700477E+04  0.7818609E-02  0.8334850E-01
        1   -1    0    0  501    0  0.00000000000E+00  0.00000000000E+00  0.99811557036E+03  0.99811557038E+03  0.50400001928E-02 0.  1.
       -1   -1    0    0    0  501  0.00000000000E+00  0.00000000000E+00 -0.18265854970E+04  0.18265854970E+04  0.50400001928E-02 0. -1.
    10030    2    1    2    0    0  0.00000000000E+00  0.00000000000E+00 -0.82846992662E+03  0.28247010674E+04  0.27004765692E+04 0.  0.
        5    1    3    3  502    0  0.30372729968E+03  0.55902408728E+03  0.83150041287E+03  0.10469829174E+04  0.46999998093E+01 0.  1.
       -5    1    3    3    0  502 -0.30372729968E+03 -0.55902408728E+03 -0.16599703395E+04  0.17777181500E+04  0.46999998093E+01 0. -1.
</event>
<event>
 5   0  0.4992668E-07  0.2701358E+04  0.7818609E-02  0.8334565E-01
        2   -1    0    0  501    0  0.00000000000E+00  0.00000000000E+00  0.16727625036E+04  0.16727625036E+04  0.25500000920E-02 0.  1.
       -2   -1    0    0    0  501  0.00000000000E+00  0.00000000000E+00 -0.10906111843E+04  0.10906111843E+04  0.25500000920E-02 0. -1.
    10030    2    1    2    0    0  0.00000000000E+00  0.00000000000E+00  0.58215131933E+03  0.27633736879E+04  0.27013578031E+04 0.  0.
        1    1    3    3  502    0  0.29017249721E+03 -0.41152048154E+03 -0.99100628386E+03  0.11115946381E+04  0.50400001928E-02 0. -1.
       -1    1    3    3    0  502 -0.29017249721E+03  0.41152048154E+03  0.15731576032E+04  0.16517790498E+04  0.50400001928E-02 0.  1.
</event>
<event>
 5   0  0.1965415E-07  0.2693634E+04  0.7818609E-02  0.8337073E-01
        1   -1    0    0  501    0  0.00000000000E+00  0.00000000000E+00  0.15681421743E+04  0.15681421743E+04  0.50400001928E-02 0.  1.
       -1   -1    0    0    0  501  0.00000000000E+00  0.00000000000E+00 -0.11567294885E+04  0.11567294885E+04  0.50400001928E-02 0. -1.
    10030    2    1    2    0    0  0.00000000000E+00  0.00000000000E+00  0.41141268578E+03  0.27248716628E+04  0.26936341958E+04 0.  0.
        4    1    3    3  502    0  0.65873506818E+03 -0.10440141761E+04  0.75048402520E+03  0.14446886775E+04  0.12699999809E+01 0. -1.
       -4    1    3    3    0  502 -0.65873506818E+03  0.10440141761E+04 -0.33907133942E+03  0.12801829854E+04  0.12699999809E+01 0.  1.
</event>
<event>
 5   0  0.1964242E-07  0.2700357E+04  0.7818609E-02  0.8334889E-01
        1   -1    0    0  501    0  0.00000000000E+00  0.00000000000E+00  0.22361825623E+04  0.22361825623E+04  0.50400001928E-02 0.  1.
       -1   -1    0    0    0  501  0.00000000000E+00  0.00000000000E+00 -0.81522029154E+03  0.81522029156E+03  0.50400001928E-02 0. -1.
    10030    2    1    2    0    0  0.00000000000E+00  0.00000000000E+00  0.14209622708E+04  0.30514028539E+04  0.27003565694E+04 0.  0.
        2    1    3    3  502    0 -0.85306119526E+03  0.72351538786E+03  0.15649535239E+04  0.19236079256E+04  0.25500000920E-02 0.  1.
       -2    1    3    3    0  502  0.85306119526E+03 -0.72351538786E+03 -0.14399125312E+03  0.11277949283E+04  0.25500000920E-02 0. -1.
</event>
<event>
 5   0  0.4983208E-07  0.2699365E+04  0.7818609E-02  0.8335211E-01
        2   -1    0    0  501    0  0.00000000000E+00  0.00000000000E+00  0.16133221407E+04  0.16133221407E+04  0.25500000920E-02 0. -1.
       -2   -1    0    0    0  501  0.00000000000E+00  0.00000000000E+00 -0.11291254364E+04  0.11291254364E+04  0.25500000920E-02 0.  1.
    10030    2    1    2    0    0  0.00000000000E+00  0.00000000000E+00  0.48419670435E+03  0.27424475771E+04  0.26993651596E+04 0.  0.
        4    1    3    3  502    0  0.40533793384E+03  0.12807216253E+04  0.37493191866E+03  0.13946764064E+04  0.12699999809E+01 0.  1.
       -4    1    3    3    0  502 -0.40533793384E+03 -0.12807216253E+04  0.10926478569E+03  0.13477711707E+04  0.12699999809E+01 0. -1.
</event>
<event>
 5   0  0.4735120E-07  0.2699991E+04  0.7818609E-02  0.8335008E-01
       -2   -1    0    0    0  501  0.00000000000E+00  0.00000000000E+00  0.91751314844E+03  0.91751314844E+03  0.25500000920E-02 0.  1.
        2   -1    0    0  501    0  0.00000000000E+00  0.00000000000E+00 -0.19863349933E+04  0.19863349933E+04  0.25500000920E-02 0. -1.
    10030    2    1    2    0    0  0.00000000000E+00  0.00000000000E+00 -0.10688218449E+04  0.29038481418E+04  0.26999914619E+04 0.  0.
        2    1    3    3  502    0 -0.11294837344E+04  0.52489399480E+03 -0.10945416374E+04  0.16580918575E+04  0.25500000920E-02 0. -1.
       -2    1    3    3    0  502  0.11294837344E+04 -0.52489399480E+03  0.25719792479E+02  0.12457562843E+04  0.25500000920E-02 0.  1.
</event>
<event>
 5   0  0.4843887E-07  0.2700355E+04  0.7818609E-02  0.8334890E-01
       -2   -1    0    0    0  501  0.00000000000E+00  0.00000000000E+00  0.93794142962E+03  0.93794142963E+03  0.25500000920E-02 0. -1.
        2   -1    0    0  501    0  0.00000000000E+00  0.00000000000E+00 -0.19435967347E+04  0.19435967347E+04  0.25500000920E-02 0.  1.
    10030    2    1    2    0    0  0.00000000000E+00  0.00000000000E+00 -0.10056553051E+04  0.28815381643E+04  0.27003554581E+04 0.  0.
        5    1    3    3  502    0 -0.90138635240E+03 -0.11936879129E+03  0.56224498002E+03  0.10690592931E+04  0.46999998093E+01 0. -1.
       -5    1    3    3    0  502  0.90138635240E+03  0.11936879129E+03 -0.15679002851E+04  0.18124788712E+04  0.46999998093E+01 0.  1.
</event>
<event>
 5   0  0.1964242E-07  0.2699492E+04  0.7818609E-02  0.8335170E-01
        1   -1    0    0  501    0  0.00000000000E+00  0.00000000000E+00  0.14472174417E+04  0.14472174417E+04  0.50400001928E-02 0.  1.
       -1   -1    0    0    0  501  0.00000000000E+00  0.00000000000E+00 -0.12588392218E+04  0.12588392218E+04  0.50400001928E-02 0. -1.
    10030    2    1    2    0    0  0.00000000000E+00  0.00000000000E+00  0.18837821994E+03  0.27060566636E+04  0.26994918619E+04 0.  0.
        2    1    3    3  502    0 -0.71935716175E+03  0.95493272481E+03 -0.53378692503E+03  0.13093126886E+04  0.25500000920E-02 0. -1.
       -2    1    3    3    0  502  0.71935716175E+03 -0.95493272481E+03  0.72216514497E+03  0.13967439750E+04  0.25500000920E-02 0.  1.
</event>
<event>
 5   0  0.4983208E-07  0.2699783E+04  0.7818609E-02  0.8335076E-01
        2   -1    0    0  501    0  0.00000000000E+00  0.00000000000E+00  0.93912125340E+03  0.93912125340E+03  0.25500000920E-02 0. -1.
       -2   -1    0    0    0  501  0.00000000000E+00  0.00000000000E+00 -0.19403313430E+04  0.19403313430E+04  0.25500000920E-02 0.  1.
    10030    2    1    2    0    0  0.00000000000E+00  0.00000000000E+00 -0.10012100896E+04  0.28794525964E+04  0.26997825119E+04 0.  0.
        4    1    3    3  502    0 -0.78417871937E+03  0.32144523811E+03  0.62000414693E+03  0.10500809779E+04  0.12699999809E+01 0. -1.
       -4    1    3    3    0  502  0.78417871937E+03 -0.32144523811E+03 -0.16212142365E+04  0.18293716185E+04  0.12699999809E+01 0.  1.
</event>
<event>
 5   0  0.5043890E-07  0.2698932E+04  0.7818609E-02  0.8335351E-01
       -2   -1    0    0    0  501  0.00000000000E+00  0.00000000000E+00  0.17824984481E+04  0.17824984481E+04  0.25500000920E-02 0.  1.
        2   -1    0    0  501    0  0.00000000000E+00  0.00000000000E+00 -0.10216328908E+04  0.10216328908E+04  0.25500000920E-02 0. -1.
    10030    2    1    2    0    0  0.00000000000E+00  0.00000000000E+00  0.76086555725E+03  0.28041313389E+04  0.26989324129E+04 0.  0.
        3    1    3    3  502    0  0.44704862110E+02  0.10953028634E+04  0.11981105226E+04  0.16239321790E+04  0.10100000352E+00 0.  1.
       -3    1    3    3    0  502 -0.44704862110E+02 -0.10953028634E+04 -0.43724496539E+03  0.11801991600E+04  0.10100000352E+00 0. -1.
</event>
<event>
 5   0  0.1937896E-07  0.2699781E+04  0.7818609E-02  0.8335076E-01
       -1   -1    0    0    0  501  0.00000000000E+00  0.00000000000E+00  0.10989274277E+04  0.10989274277E+04  0.50400001928E-02 0. -1.
        1   -1    0    0  501    0  0.00000000000E+00  0.00000000000E+00 -0.16581667602E+04  0.16581667602E+04  0.50400001928E-02 0.  1.
    10030    2    1    2    0    0  0.00000000000E+00  0.00000000000E+00 -0.55923933249E+03  0.27570941879E+04  0.26997814226E+04 0.  0.
        3    1    3    3  502    0  0.90571075029E+03 -0.39888304786E+03 -0.12171416652E+04  0.15687107739E+04  0.10100000352E+00 0.  1.
       -3    1    3    3    0  502 -0.90571075029E+03  0.39888304786E+03  0.65790233266E+03  0.11883834140E+04  0.10100000352E+00 0. -1.
</event>
<event>
 5   0  0.5043890E-07  0.2700089E+04  0.7818609E-02  0.8334976E-01
       -2   -1    0    0    0  501  0.00000000000E+00  0.00000000000E+00  0.94158056271E+03  0.94158056271E+03  0.25500000920E-02 0. -1.
        2   -1    0    0  501    0  0.00000000000E+00  0.00000000000E+00 -0.19357029142E+04  0.19357029142E+04  0.25500000920E-02 0.  1.
    10030    2    1    2    0    0  0.00000000000E+00  0.00000000000E+00 -0.99412235151E+03  0.28772834769E+04  0.27000890646E+04 0.  0.
        3    1    3    3  502    0  0.17629399449E+03  0.15913406865E+03 -0.19132677061E+04  0.19279513868E+04  0.10100000352E+00 0.  1.
       -3    1    3    3    0  502 -0.17629399449E+03 -0.15913406865E+03  0.91914535461E+03  0.94933209015E+03  0.10100000352E+00 0. -1.
</event>
<event>
 5   0  0.1964242E-07  0.2701003E+04  0.7818609E-02  0.8334679E-01
       -1   -1    0    0    0  501  0.00000000000E+00  0.00000000000E+00  0.10661506497E+04  0.10661506497E+04  0.50400001928E-02 0.  1.
        1   -1    0    0  501    0  0.00000000000E+00  0.00000000000E+00 -0.17106914405E+04  0.17106914405E+04  0.50400001928E-02 0. -1.
    10030    2    1    2    0    0  0.00000000000E+00  0.00000000000E+00 -0.64454079083E+03  0.27768420902E+04  0.27010033623E+04 0.  0.
        2    1    3    3  502    0  0.21695475692E+03 -0.79924193279E+03  0.77445212579E+03  0.11338576316E+04  0.25500000920E-02 0.  1.
       -2    1    3    3    0  502 -0.21695475692E+03  0.79924193279E+03 -0.14189929166E+04  0.16429844586E+04  0.25500000920E-02 0. -1.
</event>
<event>
 5   0  0.1888149E-07  0.2699960E+04  0.7818609E-02  0.8335018E-01
        1   -1    0    0  501    0  0.00000000000E+00  0.00000000000E+00  0.17642620153E+04  0.17642620153E+04  0.50400001928E-02 0.  1.
       -1   -1    0    0    0  501  0.00000000000E+00  0.00000000000E+00 -0.10329794986E+04  0.10329794986E+04  0.50400001928E-02 0. -1.
    10030    2    1    2    0    0  0.00000000000E+00  0.00000000000E+00  0.73128251671E+03  0.27972415138E+04  0.26999603641E+04 0.  0.
        1    1    3    3  502    0  0.13276625636E+04 -0.21121018693E+03  0.49315665888E+03  0.14319570929E+04  0.50400001928E-02 0.  1.
       -1    1    3    3    0  502 -0.13276625636E+04  0.21121018693E+03  0.23812585783E+03  0.13652844209E+04  0.50400001928E-02 0. -1.
</event>
<event>
 5   0  0.4983208E-07  0.2700978E+04  0.7818609E-02  0.8334688E-01
       -2   -1    0    0    0  501  0.00000000000E+00  0.00000000000E+00  0.11229451368E+04  0.11229451368E+04  0.25500000920E-02 0.  1.
        2   -1    0    0  501    0  0.00000000000E+00  0.00000000000E+00 -0.16241403925E+04  0.16241403925E+04  0.25500000920E-02 0. -1.
    10030    2    1    2    0    0  0.00000000000E+00  0.00000000000E+00 -0.50119525569E+03  0.27470855293E+04  0.27009780120E+04 0.  0.
        4    1    3    3  502    0  0.13308219038E+03 -0.65792218341E+03  0.94126274003E+03  0.11560923957E+04  0.12699999809E+01 0.  1.
       -4    1    3    3    0  502 -0.13308219038E+03  0.65792218341E+03 -0.14424579957E+04  0.15909931336E+04  0.12699999809E+01 0. -1.
</event>
<event>
 5   0  0.4983208E-07  0.2699650E+04  0.7818609E-02  0.8335119E-01
        2   -1    0    0  501    0  0.00000000000E+00  0.00000000000E+00  0.18876488894E+04  0.18876488894E+04  0.25500000920E-02 0. -1.
       -2   -1    0    0    0  501  0.00000000000E+00  0.00000000000E+00 -0.96523622426E+03  0.96523622426E+03  0.25500000920E-02 0.  1.
    10030    2    1    2    0    0  0.00000000000E+00  0.00000000000E+00  0.92241266511E+03  0.28528851136E+04  0.26996496711E+04 0.  0.
        4    1    3    3  502    0  0.21148091559E+03 -0.26448008335E+03 -0.91961775146E+03  0.97998587431E+03  0.12699999809E+01 0.  1.
       -4    1    3    3    0  502 -0.21148091559E+03  0.26448008335E+03  0.18420304166E+04  0.18728992393E+04  0.12699999809E+01 0. -1.
</event>
<event>
 5   0  0.4983208E-07  0.2698589E+04  0.7818609E-02  0.8335463E-01
        2   -1    0    0  501    0  0.00000000000E+00  0.00000000000E+00  0.11325761488E+04  0.11325761488E+04  0.25500000920E-02 0.  1.
       -2   -1    0    0    0  501  0.00000000000E+00  0.00000000000E+00 -0.16074816436E+04  0.16074816436E+04  0.25500000920E-02 0. -1.
    10030    2    1    2    0    0  0.00000000000E+00  0.00000000000E+00 -0.47490549480E+03  0.27400577924E+04  0.26985887935E+04 0.  0.
        4    1    3    3  502    0  0.10058071992E+04  0.87758701517E+03 -0.37483031069E+02  0.13353702414E+04  0.12699999809E+01 0.  1.
       -4    1    3    3    0  502 -0.10058071992E+04 -0.87758701517E+03 -0.43742246373E+03  0.14046875510E+04  0.12699999809E+01 0. -1.
</event>
<event>
 5   0  0.1888149E-07  0.2711318E+04  0.7818609E-02  0.8331342E-01
        1   -1    0    0  501    0  0.00000000000E+00  0.00000000000E+00  0.21847832254E+04  0.21847832254E+04  0.50400001928E-02 0.  1.
       -1   -1    0    0    0  501  0.00000000000E+00  0.00000000000E+00 -0.84118673994E+03  0.84118673996E+03  0.50400001928E-02 0. -1.
    10030    2    1    2    0    0  0.00000000000E+00  0.00000000000E+00  0.13435964854E+04  0.30259699653E+04  0.27113175239E+04 0.  0.
        1    1    3    3  502    0  0.39226569711E+03  0.61554936528E+03 -0.60315920766E+03  0.94687614186E+03  0.50400001928E-02 0. -1.
       -1    1    3    3    0  502 -0.39226569711E+03 -0.61554936528E+03  0.19467556931E+04  0.20790938235E+04  0.50400001928E-02 0.  1.
</event>
<event>
 5   0  0.5043890E-07  0.2699050E+04  0.7818609E-02  0.8335313E-01
        2   -1    0    0  501    0  0.00000000000E+00  0.00000000000E+00  0.15429021890E+04  0.15429021890E+04  0.25500000920E-02 0.  1.
       -2   -1    0    0    0  501  0.00000000000E+00  0.00000000000E+00 -0.11803847301E+04  0.11803847301E+04  0.25500000920E-02 0. -1.
    10030    2    1    2    0    0  0.00000000000E+00  0.00000000000E+00  0.36251745887E+03  0.27232869191E+04  0.26990503396E+04 0.  0.
        3    1    3    3  502    0 -0.90161863687E+03  0.46789245709E+03  0.10777067344E+04  0.14809764797E+04  0.10100000352E+00 0.  1.
       -3    1    3    3    0  502  0.90161863687E+03 -0.46789245709E+03 -0.71518927557E+03  0.12423104394E+04  0.10100000352E+00 0. -1.
</event>
<event>
 5   0  0.4992668E-07  0.2700443E+04  0.7818609E-02  0.8334861E-01
       -2   -1    0    0    0  501  0.00000000000E+00  0.00000000000E+00  0.13428953062E+04  0.13428953062E+04  0.25500000920E-02 0. -1.
        2   -1    0    0  501    0  0.00000000000E+00  0.00000000000E+00 -0.13575874473E+04  0.13575874473E+04  0.25500000920E-02 0.  1.
    10030    2    1    2    0    0  0.00000000000E+00  0.00000000000E+00 -0.14692141156E+02  0.27004827535E+04  0.27004427865E+04 0.  0.
        1    1    3    3  502    0  0.75865302207E+02 -0.41506223720E+03 -0.12899661627E+04  0.13572195496E+04  0.50400001928E-02 0.  1.
       -1    1    3    3    0  502 -0.75865302207E+02  0.41506223720E+03  0.12752740216E+04  0.13432632039E+04  0.50400001928E-02 0. -1.
</event>
<event>
 5   0  0.1964242E-07  0.2695063E+04  0.7818609E-02  0.8336609E-01
        1   -1    0    0  501    0  0.00000000000E+00  0.00000000000E+00  0.14286417821E+04  0.14286417821E+04  0.50400001928E-02 0. -1.
       -1   -1    0    0    0  501  0.00000000000E+00  0.00000000000E+00 -0.12710265227E+04  0.12710265227E+04  0.50400001928E-02 0.  1.
    10030    2    1    2    0    0  0.00000000000E+00  0.00000000000E+00  0.15761525936E+03  0.26996683048E+04  0.26950633362E+04 0.  0.
        2    1    3    3  502    0 -0.13306346064E+04  0.81949306613E+02 -0.11783738034E+03  0.13383533886E+04  0.25500000920E-02 0.  1.
       -2    1    3    3    0  502  0.13306346064E+04 -0.81949306613E+02  0.27545263970E+03  0.13613149163E+04  0.25500000920E-02 0. -1.
</event>
<event>
 5   0  0.1888149E-07  0.2719003E+04  0.7818609E-02  0.8328865E-01
       -1   -1    0    0    0  501  0.00000000000E+00  0.00000000000E+00  0.98639644214E+03  0.98639644216E+03  0.50400001928E-02 0.  1.
        1   -1    0    0  501    0  0.00000000000E+00  0.00000000000E+00 -0.18737333441E+04  0.18737333441E+04  0.50400001928E-02 0. -1.
    10030    2    1    2    0    0  0.00000000000E+00  0.00000000000E+00 -0.88733690191E+03  0.28601297862E+04  0.27190026878E+04 0.  0.
        1    1    3    3  502    0  0.64009780660E+03 -0.59297690675E+03  0.65298729131E+03  0.10898344905E+04  0.50400001928E-02 0.  1.
       -1    1    3    3    0  502 -0.64009780660E+03  0.59297690675E+03 -0.15403241932E+04  0.17702952958E+04  0.50400001928E-02 0. -1.
</event>
<event>
 5   0  0.1964242E-07  0.2699666E+04  0.7818609E-02  0.8335113E-01
        1   -1    0    0  501    0  0.00000000000E+00  0.00000000000E+00  0.22501931066E+04  0.22501931067E+04  0.50400001928E-02 0.  1.
       -1   -1    0    0    0  501  0.00000000000E+00  0.00000000000E+00 -0.80972995238E+03  0.80972995239E+03  0.50400001928E-02 0. -1.
    10030    2    1    2    0    0  0.00000000000E+00  0.00000000000E+00  0.14404631543E+04  0.30599230590E+04  0.26996657253E+04 0.  0.
        2    1    3    3  502    0 -0.76213939767E+03 -0.91684029778E+03  0.28439092830E+01  0.11922502594E+04  0.25500000920E-02 0. -1.
       -2    1    3    3    0  502  0.76213939767E+03  0.91684029778E+03  0.14376192450E+04  0.18676727997E+04  0.25500000920E-02 0.  1.
</event>
<event>
 5   0  0.5043890E-07  0.2700009E+04  0.7818609E-02  0.8335002E-01
        2   -1    0    0  501    0  0.00000000000E+00  0.00000000000E+00  0.97436409502E+03  0.97436409502E+03  0.25500000920E-02 0. -1.
       -2   -1    0    0    0  501  0.00000000000E+00  0.00000000000E+00 -0.18704632539E+04  0.18704632539E+04  0.25500000920E-02 0.  1.
    10030    2    1    2    0    0  0.00000000000E+00  0.00000000000E+00 -0.89609915889E+03  0.28448273489E+04  0.27000090634E+04 0.  0.
        3    1    3    3  502    0 -0.99540711942E+03  0.73466299788E+03  0.12125257652E+03  0.12430877891E+04  0.10100000352E+00 0. -1.
       -3    1    3    3    0  502  0.99540711942E+03 -0.73466299788E+03 -0.10173517354E+04  0.16017395599E+04  0.10100000352E+00 0.  1.
</event>
<event>
 5   0  0.1964242E-07  0.2700860E+04  0.7818609E-02  0.8334726E-01
        1   -1    0    0  501    0  0.00000000000E+00  0.00000000000E+00  0.20350461714E+04  0.20350461714E+04  0.50400001928E-02 0.  1.
       -1   -1    0    0    0  501  0.00000000000E+00  0.00000000000E+00 -0.89612768498E+03  0.89612768499E+03  0.50400001928E-02 0. -1.
    10030    2    1    2    0    0  0.00000000000E+00  0.00000000000E+00  0.11389184864E+04  0.29311738564E+04  0.27008600219E+04 0.  0.
        2    1    3    3  502    0  0.39693763579E+03  0.10949507545E+04 -0.17233549546E+03  0.11773598279E+04  0.25500000920E-02 0. -1.
       -2    1    3    3    0  502 -0.39693763579E+03 -0.10949507545E+04  0.13112539819E+04  0.17538140285E+04  0.25500000920E-02 0.  1.
</event>
<event>
 5   0  0.4735120E-07  0.2701560E+04  0.7818609E-02  0.8334499E-01
        2   -1    0    0  501    0  0.00000000000E+00  0.00000000000E+00  0.18137515392E+04  0.18137515392E+04  0.25500000920E-02 0.  1.
       -2   -1    0    0    0  501  0.00000000000E+00  0.00000000000E+00 -0.10059851380E+04  0.10059851380E+04  0.25500000920E-02 0. -1.
    10030    2    1    2    0    0  0.00000000000E+00  0.00000000000E+00  0.80776640128E+03  0.28197366772E+04  0.27015603583E+04 0.  0.
        2    1    3    3  502    0  0.83143751794E+03  0.33101138216E+03 -0.65218236107E+03  0.11073385722E+04  0.25500000920E-02 0. -1.
       -2    1    3    3    0  502 -0.83143751794E+03 -0.33101138216E+03  0.14599487623E+04  0.17123981050E+04  0.25500000920E-02 0.  1.
</event>
<event>
 5   0  0.1937896E-07  0.2696719E+04  0.7818609E-02  0.8336070E-01
        1   -1    0    0  501    0  0.00000000000E+00  0.00000000000E+00  0.99828405959E+03  0.99828405960E+03  0.50400001928E-02 0.  1.
       -1   -1    0    0    0  501  0.00000000000E+00  0.00000000000E+00 -0.18211986789E+04  0.18211986789E+04  0.50400001928E-02 0. -1.
    10030    2    1    2    0    0  0.00000000000E+00  0.00000000000E+00 -0.82291461935E+03  0.28194827385E+04  0.26967191997E+04 0.  0.
        3    1    3    3  502    0  0.55034482217E+03  0.95037189272E+03 -0.12293662745E+04  0.16484621939E+04  0.10100000352E+00 0. -1.
       -3    1    3    3    0  502 -0.55034482217E+03 -0.95037189272E+03  0.40645165513E+03  0.11710205446E+04  0.10100000352E+00 0.  1.
</event>
<event>
 5   0  0.1888149E-07  0.2701421E+04  0.7818609E-02  0.8334544E-01
        1   -1    0    0  501    0  0.00000000000E+00  0.00000000000E+00  0.20638665964E+04  0.20638665964E+04  0.50400001928E-02 0. -1.
       -1   -1    0    0    0  501  0.00000000000E+00  0.00000000000E+00 -0.88398119172E+03  0.88398119173E+03  0.50400001928E-02 0.  1.
    10030    2    1    2    0    0  0.00000000000E+00  0.00000000000E+00  0.11798854046E+04  0.29478477881E+04  0.27014212951E+04 0.  0.
        1    1    3    3  502    0  0.11991745375E+04 -0.59708989280E+03  0.77857989246E+03  0.15494265263E+04  0.50400001928E-02 0.  1.
       -1    1    3    3    0  502 -0.11991745375E+04  0.59708989280E+03  0.40130551218E+03  0.13984212618E+04  0.50400001928E-02 0. -1.
</event>
<event>
 5   0  0.4983208E-07  0.2701813E+04  0.7818609E-02  0.8334417E-01
        2   -1    0    0  501    0  0.00000000000E+00  0.00000000000E+00  0.18618724008E+04  0.18618724008E+04  0.25500000920E-02 0. -1.
       -2   -1    0    0    0  501  0.00000000000E+00  0.00000000000E+00 -0.98016850593E+03  0.98016850593E+03  0.25500000920E-02 0.  1.
    10030    2    1    2    0    0  0.00000000000E+00  0.00000000000E+00  0.88170389487E+03  0.28420409067E+04  0.27018132351E+04 0.  0.
        4    1    3    3  502    0  0.42227188781E+03  0.61576174884E+03 -0.74339974800E+03  0.10536227393E+04  0.12699999809E+01 0.  1.
       -4    1    3    3    0  502 -0.42227188781E+03 -0.61576174884E+03  0.16251036429E+04  0.17884181674E+04  0.12699999809E+01 0. -1.
</event>
<event>
 5   0  0.4843887E-07  0.2699876E+04  0.7818609E-02  0.8335045E-01
       -2   -1    0    0    0  501  0.00000000000E+00  0.00000000000E+00  0.12913668735E+04  0.12913668735E+04  0.25500000920E-02 0.  1.
        2   -1    0    0  501    0  0.00000000000E+00  0.00000000000E+00 -0.14111652577E+04  0.14111652577E+04  0.25500000920E-02 0. -1.
    10030    2    1    2    0    0  0.00000000000E+00  0.00000000000E+00 -0.11979838421E+03  0.27025321311E+04  0.26998756021E+04 0.  0.
        5    1    3    3  502    0 -0.36956095234E+03  0.12811259788E+04  0.15114209140E+03  0.13419109854E+04  0.46999998093E+01 0. -1.
       -5    1    3    3    0  502  0.36956095234E+03 -0.12811259788E+04 -0.27094047561E+03  0.13606211457E+04  0.46999998093E+01 0.  1.
</event>
<event>
 5   0  0.1964242E-07  0.2700608E+04  0.7818609E-02  0.8334808E-01
        1   -1    0    0  501    0  0.00000000000E+00  0.00000000000E+00  0.18509024461E+04  0.18509024461E+04  0.50400001928E-02 0.  1.
       -1   -1    0    0    0  501  0.00000000000E+00  0.00000000000E+00 -0.98509810227E+03  0.98509810228E+03  0.50400001928E-02 0. -1.
    10030    2    1    2    0    0  0.00000000000E+00  0.00000000000E+00  0.86580434381E+03  0.28360005484E+04  0.27006076999E+04 0.  0.
        2    1    3    3  502    0 -0.81941182467E+03  0.37405009958E+03  0.14893034082E+04  0.17405096544E+04  0.25500000920E-02 0.  1.
       -2    1    3    3    0  502  0.81941182467E+03 -0.37405009958E+03 -0.62349906440E+03  0.10954908939E+04  0.25500000920E-02 0. -1.
</event>
<event>
 5   0  0.1965415E-07  0.2699371E+04  0.7818609E-02  0.8335209E-01
        1   -1    0    0  501    0  0.00000000000E+00  0.00000000000E+00  0.17618569245E+04  0.17618569245E+04  0.50400001928E-02 0.  1.
       -1   -1    0    0    0  501  0.00000000000E+00  0.00000000000E+00 -0.10339378713E+04  0.10339378713E+04  0.50400001928E-02 0. -1.
    10030    2    1    2    0    0  0.00000000000E+00  0.00000000000E+00  0.72791905315E+03  0.27957947958E+04  0.26993707400E+04 0.  0.
        4    1    3    3  502    0 -0.41528608731E+03  0.34161920184E+02 -0.96564938680E+03  0.10517176057E+04  0.12699999809E+01 0. -1.
       -4    1    3    3    0  502  0.41528608731E+03 -0.34161920184E+02  0.16935684399E+04  0.17440771900E+04  0.12699999809E+01 0.  1.
</event>
<event>
 5   0  0.1888149E-07  0.2698881E+04  0.7818609E-02  0.8335368E-01
       -1   -1    0    0    0  501  0.00000000000E+00  0.00000000000E+00  0.11741736465E+04  0.11741736465E+04  0.50400001928E-02 0. -1.
        1   -1    0    0  501    0  0.00000000000E+00  0.00000000000E+00 -0.15508687593E+04  0.15508687593E+04  0.50400001928E-02 0.  1.
    10030    2    1    2    0    0  0.00000000000E+00  0.00000000000E+00 -0.37669511279E+03  0.27250424058E+04  0.26988806764E+04 0.  0.
        1    1    3    3  502    0  0.69018093433E+03 -0.10555351769E+04  0.29639473257E+03  0.12955130526E+04  0.50400001928E-02 0. -1.
       -1    1    3    3    0  502 -0.69018093433E+03  0.10555351769E+04 -0.67308984536E+03  0.14295293533E+04  0.50400001928E-02 0.  1.
</event>
<event>
 5   0  0.1971600E-07  0.2698911E+04  0.7818609E-02  0.8335358E-01
       -1   -1    0    0    0  501  0.00000000000E+00  0.00000000000E+00  0.85871938293E+03  0.85871938294E+03  0.50400001928E-02 0.  1.
        1   -1    0    0  501    0  0.00000000000E+00  0.00000000000E+00 -0.21206348412E+04  0.21206348412E+04  0.50400001928E-02 0. -1.
    10030    2    1    2    0    0  0.00000000000E+00  0.00000000000E+00 -0.12619154583E+04  0.29793542242E+04  0.26989110710E+04 0.  0.
        5    1    3    3  502    0 -0.12746741078E+04 -0.39737395047E+03 -0.41489573052E+03  0.13981633291E+04  0.46999998093E+01 0.  1.
       -5    1    3    3    0  502  0.12746741078E+04  0.39737395047E+03 -0.84701972776E+03  0.15811908951E+04  0.46999998093E+01 0. -1.
</event>
<event>
 5   0  0.1937896E-07  0.2701449E+04  0.7818609E-02  0.8334535E-01
        1   -1    0    0  501    0  0.00000000000E+00  0.00000000000E+00  0.14841139375E+04  0.14841139375E+04  0.50400001928E-02 0.  1.
       -1   -1    0    0    0  501  0.00000000000E+00  0.00000000000E+00 -0.12293237725E+04  0.12293237725E+04  0.50400001928E-02 0. -1.
    10030    2    1    2    0    0  0.00000000000E+00  0.00000000000E+00  0.25479016497E+03  0.27134377101E+04  0.27014489035E+04 0.  0.
        3    1    3    3  502    0 -0.13587609134E+03 -0.71780942851E+02 -0.12205148400E+04  0.12301509260E+04  0.10100000352E+00 0. -1.
       -3    1    3    3    0  502  0.13587609134E+03  0.71780942851E+02  0.14753050049E+04  0.14832867841E+04  0.10100000352E+00 0.  1.
</event>
<event>
 5   0  0.4992668E-07  0.2698372E+04  0.7818609E-02  0.8335533E-01
       -2   -1    0    0    0  501  0.00000000000E+00  0.00000000000E+00  0.13232444940E+04  0.13232444940E+04  0.25500000920E-02 0.  1.
        2   -1    0    0  501    0  0.00000000000E+00  0.00000000000E+00 -0.13756364483E+04  0.13756364483E+04  0.25500000920E-02 0. -1.
    10030    2    1    2    0    0  0.00000000000E+00  0.00000000000E+00 -0.52391954283E+02  0.26988809423E+04  0.26983723656E+04 0.  0.
        1    1    3    3  502    0 -0.13446389422E+04  0.10861433315E+03 -0.47469624998E+02  0.13498534453E+04  0.50400001928E-02 0.  1.
       -1    1    3    3    0  502  0.13446389422E+04 -0.10861433315E+03 -0.49223292843E+01  0.13490274970E+04  0.50400001928E-02 0. -1.
</event>
<event>
 5   0  0.1971600E-07  0.2699489E+04  0.7818609E-02  0.8335171E-01
       -1   -1    0    0    0  501  0.00000000000E+00  0.00000000000E+00  0.14435734919E+04  0.14435734919E+04  0.50400001928E-02 0.  1.
        1   -1    0    0  501    0  0.00000000000E+00  0.00000000000E+00 -0.12620139404E+04  0.12620139404E+04  0.50400001928E-02 0. -1.
    10030    2    1    2    0    0  0.00000000000E+00  0.00000000000E+00  0.18155955150E+03  0.27055874323E+04  0.26994887447E+04 0.  0.
        5    1    3    3  502    0  0.92362564428E+03 -0.24583003846E+03  0.10459654182E+04  0.14168918394E+04  0.46999998093E+01 0.  1.
       -5    1    3    3    0  502 -0.92362564428E+03  0.24583003846E+03 -0.86440586672E+03  0.12886955928E+04  0.46999998093E+01 0. -1.
</event>
<event>
 5   0  0.1888149E-07  0.2697658E+04  0.7818609E-02  0.8335765E-01
       -1   -1    0    0    0  501  0.00000000000E+00  0.00000000000E+00  0.12960077554E+04  0.12960077554E+04  0.50400001928E-02 0. -1.
        1   -1    0    0  501    0  0.00000000000E+00  0.00000000000E+00 -0.14038034563E+04  0.14038034563E+04  0.50400001928E-02 0.  1.
    10030    2    1    2    0    0  0.00000000000E+00  0.00000000000E+00 -0.10779570092E+03  0.26998112117E+04  0.26976583671E+04 0.  0.
        1    1    3    3  502    0  0.56417026820E+03  0.81970187245E+03  0.85740057580E+03  0.13135200793E+04  0.50400001928E-02 0. -1.
       -1    1    3    3    0  502 -0.56417026820E+03 -0.81970187245E+03 -0.96519627672E+03  0.13862911324E+04  0.50400001928E-02 0.  1.
</event>
<event>
 5   0  0.1937896E-07  0.2699647E+04  0.7818609E-02  0.8335119E-01
       -1   -1    0    0    0  501  0.00000000000E+00  0.00000000000E+00  0.90058742443E+03  0.90058742444E+03  0.50400001928E-02 0.  1.
        1   -1    0    0  501    0  0.00000000000E+00  0.00000000000E+00 -0.20231506118E+04  0.20231506118E+04  0.50400001928E-02 0. -1.
    10030    2    1    2    0    0  0.00000000000E+00  0.00000000000E+00 -0.11225631874E+04  0.29237380362E+04  0.26996473834E+04 0.  0.
        3    1    3    3  502    0 -0.22829703129E+03  0.10996816896E+04 -0.13721675106E+04  0.17732069931E+04  0.10100000352E+00 0.  1.
       -3    1    3    3    0  502  0.22829703129E+03 -0.10996816896E+04  0.24960432322E+03  0.11505310432E+04  0.10100000352E+00 0. -1.
</event>
<event>
 5   0  0.1965415E-07  0.2699908E+04  0.7818609E-02  0.8335035E-01
        1   -1    0    0  501    0  0.00000000000E+00  0.00000000000E+00  0.13811940478E+04  0.13811940478E+04  0.50400001928E-02 0. -1.
       -1   -1    0    0    0  501  0.00000000000E+00  0.00000000000E+00 -0.13194202177E+04  0.13194202177E+04  0.50400001928E-02 0.  1.
    10030    2    1    2    0    0  0.00000000000E+00  0.00000000000E+00  0.61773830082E+02  0.27006142656E+04  0.26999076661E+04 0.  0.
        4    1    3    3  502    0 -0.12027133328E+04 -0.92238137257E+02  0.63713670440E+03  0.13641744858E+04  0.12699999809E+01 0. -1.
       -4    1    3    3    0  502  0.12027133328E+04  0.92238137257E+02 -0.57536287432E+03  0.13364397797E+04  0.12699999809E+01 0.  1.
</event>
<event>
 5   0  0.1937896E-07  0.2699910E+04  0.7818609E-02  0.8335034E-01
       -1   -1    0    0    0  501  0.00000000000E+00  0.00000000000E+00  0.30370066283E+04  0.30370066283E+04  0.50400001928E-02 0.  1.
        1   -1    0    0  501    0  0.00000000000E+00  0.00000000000E+00 -0.60005728475E+03  0.60005728477E+03  0.50400001928E-02 0. -1.
    10030    2    1    2    0    0  0.00000000000E+00  0.00000000000E+00  0.24369493435E+04  0.36370639131E+04  0.26999095920E+04 0.  0.
        3    1    3    3  502    0  0.52472715908E+03  0.49247159054E+03  0.27570742090E+04  0.28494429391E+04  0.10100000352E+00 0.  1.
       -3    1    3    3    0  502 -0.52472715908E+03 -0.49247159054E+03 -0.32012486546E+03  0.78762097398E+03  0.10100000352E+00 0. -1.
</event>
<event>
 5   0  0.4992668E-07  0.2699195E+04  0.7818609E-02  0.8335266E-01
        2   -1    0    0  501    0  0.00000000000E+00  0.00000000000E+00  0.12820170068E+04  0.12820170068E+04  0.25500000920E-02 0.  1.
       -2   -1    0    0    0  501  0.00000000000E+00  0.00000000000E+00 -0.14207403128E+04  0.14207403128E+04  0.25500000920E-02 0. -1.
    10030    2    1    2    0    0  0.00000000000E+00  0.00000000000E+00 -0.13872330593E+03  0.27027573196E+04  0.26991948750E+04 0.  0.
        1    1    3    3  502    0 -0.12031988595E+03 -0.11856672959E+04  0.56482204746E+03  0.13188281756E+04  0.50400001928E-02 0.  1.
       -1    1    3    3    0  502  0.12031988595E+03  0.11856672959E+04 -0.70354535339E+03  0.13839291440E+04  0.50400001928E-02 0. -1.
</event>
<event>
 5   0  0.5043890E-07  0.2703373E+04  0.7818609E-02  0.8333911E-01
       -2   -1    0    0    0  501  0.00000000000E+00  0.00000000000E+00  0.13404046989E+04  0.13404046989E+04  0.25500000920E-02 0. -1.
        2   -1    0    0  501    0  0.00000000000E+00  0.00000000000E+00 -0.13630634642E+04  0.13630634642E+04  0.25500000920E-02 0.  1.
    10030    2    1    2    0    0  0.00000000000E+00  0.00000000000E+00 -0.22658765369E+02  0.27034681631E+04  0.27033732057E+04 0.  0.
        3    1    3    3  502    0 -0.84634755581E+03  0.27336492407E+03  0.10065590583E+04  0.13432027825E+04  0.10100000352E+00 0. -1.
       -3    1    3    3    0  502  0.84634755581E+03 -0.27336492407E+03 -0.10292178236E+04  0.13602653806E+04  0.10100000352E+00 0.  1.
</event>
<event>
 5   0  0.1937896E-07  0.2700362E+04  0.7818609E-02  0.8334887E-01
       -1   -1    0    0    0  501  0.00000000000E+00  0.00000000000E+00  0.14075320115E+04  0.14075320115E+04  0.50400001928E-02 0. -1.
        1   -1    0    0  501    0  0.00000000000E+00  0.00000000000E+00 -0.12951670934E+04  0.12951670934E+04  0.50400001928E-02 0.  1.
    10030    2    1    2    0    0  0.00000000000E+00  0.00000000000E+00  0.11236491812E+03  0.27026991049E+04  0.27003623047E+04 0.  0.
        3    1    3    3  502    0 -0.72795223083E+03  0.10188671758E+04 -0.44921427807E+03  0.13303376452E+04  0.10100000352E+00 0.  1.
       -3    1    3    3    0  502  0.72795223083E+03 -0.10188671758E+04  0.56157919618E+03  0.13723614597E+04  0.10100000352E+00 0. -1.
</event>
<event>
 5   0  0.1641625E-07  0.2697685E+04  0.7818609E-02  0.8335756E-01
        4   -1    0    0  501    0  0.00000000000E+00  0.00000000000E+00  0.19618608706E+04  0.19618612816E+04  0.12699999809E+01 0. -1.
       -4   -1    0    0    0  501  0.00000000000E+00  0.00000000000E+00 -0.92737194854E+03  0.92737281815E+03  0.12699999809E+01 0.  1.
    10030    2    1    2    0    0  0.00000000000E+00  0.00000000000E+00  0.10344889220E+04  0.28892340998E+04  0.26976853696E+04 0.  0.
        3    1    3    3  502    0 -0.73864918989E+03  0.11249445990E+04  0.41982656651E+03  0.14097366182E+04  0.10100000352E+00 0. -1.
       -3    1    3    3    0  502  0.73864918989E+03 -0.11249445990E+04  0.61466235551E+03  0.14794974816E+04  0.10100000352E+00 0.  1.
</event>
<event>
 5   0  0.1965415E-07  0.2699522E+04  0.7818609E-02  0.8335160E-01
       -1   -1    0    0    0  501  0.00000000000E+00  0.00000000000E+00  0.77820740483E+03  0.77820740484E+03  0.50400001928E-02 0. -1.
        1   -1    0    0  501    0  0.00000000000E+00  0.00000000000E+00 -0.23410910978E+04  0.23410910978E+04  0.50400001928E-02 0.  1.
    10030    2    1    2    0    0  0.00000000000E+00  0.00000000000E+00 -0.15628836930E+04  0.31192985027E+04  0.26995217560E+04 0.  0.
        4    1    3    3  502    0  0.19786672367E+03  0.38830394055E+03 -0.22575553510E+04  0.22992366051E+04  0.12699999809E+01 0.  1.
       -4    1    3    3    0  502 -0.19786672367E+03 -0.38830394055E+03  0.69467165797E+03  0.82006189759E+03  0.12699999809E+01 0. -1.
</event>
<event>
 5   0  0.1964242E-07  0.2700032E+04  0.7818609E-02  0.8334995E-01
        1   -1    0    0  501    0  0.00000000000E+00  0.00000000000E+00  0.93103314264E+03  0.93103314265E+03  0.50400001928E-02 0.  1.
       -1   -1    0    0    0  501  0.00000000000E+00  0.00000000000E+00 -0.19575493075E+04  0.19575493075E+04  0.50400001928E-02 0. -1.
    10030    2    1    2    0    0  0.00000000000E+00  0.00000000000E+00 -0.10265161648E+04  0.28885824501E+04  0.27000320618E+04 0.  0.
        2    1    3    3  502    0  0.64129784799E+03 -0.80481432717E+03  0.42157871128E+03  0.11120780732E+04  0.25500000920E-02 0.  1.
       -2    1    3    3    0  502 -0.64129784799E+03  0.80481432717E+03 -0.14480948761E+04  0.17765043770E+04  0.25500000920E-02 0. -1.
</event>
<event>
 5   0  0.1888149E-07  0.2699477E+04  0.7818609E-02  0.8335175E-01
       -1   -1    0    0    0  501  0.00000000000E+00  0.00000000000E+00  0.16518996089E+04  0.16518996089E+04  0.50400001928E-02 0. -1.
        1   -1    0    0  501    0  0.00000000000E+00  0.00000000000E+00 -0.11028481910E+04  0.11028481910E+04  0.50400001928E-02 0.  1.
    10030    2    1    2    0    0  0.00000000000E+00  0.00000000000E+00  0.54905141791E+03  0.27547478000E+04  0.26994773535E+04 0.  0.
        1    1    3    3  502    0  0.18665758833E+03  0.66995311761E+03  0.14549797427E+04  0.16126513221E+04  0.50400001928E-02 0. -1.
       -1    1    3    3    0  502 -0.18665758833E+03 -0.66995311761E+03 -0.90592832477E+03  0.11420964779E+04  0.50400001928E-02 0.  1.
</event>
<event>
 5   0  0.1971600E-07  0.2698624E+04  0.7818609E-02  0.8335451E-01
       -1   -1    0    0    0  501  0.00000000000E+00  0.00000000000E+00  0.63335253628E+03  0.63335253630E+03  0.50400001928E-02 0.  1.
        1   -1    0    0  501    0  0.00000000000E+00  0.00000000000E+00 -0.28746128308E+04  0.28746128308E+04  0.50400001928E-02 0. -1.
    10030    2    1    2    0    0  0.00000000000E+00  0.00000000000E+00 -0.22412602945E+04  0.35079653671E+04  0.26986243364E+04 0.  0.
        5    1    3    3  502    0 -0.11511196434E+04  0.65346667501E+03 -0.14609136539E+04  0.19713918745E+04  0.46999998093E+01 0.  1.
       -5    1    3    3    0  502  0.11511196434E+04 -0.65346667501E+03 -0.78034664062E+03  0.15365734926E+04  0.46999998093E+01 0. -1.
</event>
<event>
 5   0  0.4843887E-07  0.2699133E+04  0.7818609E-02  0.8335286E-01
       -2   -1    0    0    0  501  0.00000000000E+00  0.00000000000E+00  0.14584436681E+04  0.14584436681E+04  0.25500000920E-02 0.  1.
        2   -1    0    0  501    0  0.00000000000E+00  0.00000000000E+00 -0.12488170400E+04  0.12488170400E+04  0.25500000920E-02 0. -1.
    10030    2    1    2    0    0  0.00000000000E+00  0.00000000000E+00  0.20962662815E+03  0.27072607081E+04  0.26991326789E+04 0.  0.
        5    1    3    3  502    0  0.65488153325E+03  0.10178100350E+03  0.12839716535E+04  0.14449340789E+04  0.46999998093E+01 0.  1.
       -5    1    3    3    0  502 -0.65488153325E+03 -0.10178100350E+03 -0.10743450254E+04  0.12623266292E+04  0.46999998093E+01 0. -1.
</event>
<event>
 5   0  0.4983208E-07  0.2710664E+04  0.7818609E-02  0.8331553E-01
        2   -1    0    0  501    0  0.00000000000E+00  0.00000000000E+00  0.20344686280E+04  0.20344686280E+04  0.25500000920E-02 0.  1.
       -2   -1    0    0    0  501  0.00000000000E+00  0.00000000000E+00 -0.90290156876E+03  0.90290156876E+03  0.25500000920E-02 0. -1.
    10030    2    1    2    0    0  0.00000000000E+00  0.00000000000E+00  0.11315670592E+04  0.29373701967E+04  0.27106640631E+04 0.  0.
        4    1    3    3  502    0  0.48418092914E+03 -0.42081974486E+03 -0.72797075446E+03  0.97029040089E+03  0.12699999809E+01 0. -1.
       -4    1    3    3    0  502 -0.48418092914E+03  0.42081974486E+03  0.18595378137E+04  0.19670797958E+04  0.12699999809E+01 0.  1.
</event>
<event>
 5   0  0.1971600E-07  0.2699339E+04  0.7818609E-02  0.8335219E-01
       -1   -1    0    0    0  501  0.00000000000E+00  0.00000000000E+00  0.13356886582E+04  0.13356886583E+04  0.50400001928E-02 0.  1.
        1   -1    0    0  501    0  0.00000000000E+00  0.00000000000E+00 -0.13637969151E+04  0.13637969151E+04  0.50400001928E-02 0. -1.
    10030    2    1    2    0    0  0.00000000000E+00  0.00000000000E+00 -0.28108256841E+02  0.26994855734E+04  0.26993392315E+04 0.  0.
        5    1    3    3  502    0  0.26204558439E+03 -0.12829527256E+04 -0.34110457398E+03  0.13531481829E+04  0.46999998093E+01 0. -1.
       -5    1    3    3    0  502 -0.26204558439E+03  0.12829527256E+04  0.31299631714E+03  0.13463373905E+04  0.46999998093E+01 0.  1.
</event>
<event>
 5   0  0.1641625E-07  0.2703314E+04  0.7818609E-02  0.8333931E-01
        3   -1    0    0  501    0  0.00000000000E+00  0.00000000000E+00  0.17554292738E+04  0.17554292767E+04  0.10100000352E+00 0. -1.
       -3   -1    0    0    0  501  0.00000000000E+00  0.00000000000E+00 -0.10407575199E+04  0.10407575248E+04  0.10100000352E+00 0.  1.
    10030    2    1    2    0    0  0.00000000000E+00  0.00000000000E+00  0.71467175395E+03  0.27961868015E+04  0.27033136912E+04 0.  0.
        5    1    3    3  502    0 -0.74884607943E+03 -0.11180861373E+04  0.48844658959E+03  0.14316037238E+04  0.46999998093E+01 0. -1.
       -5    1    3    3    0  502  0.74884607943E+03  0.11180861373E+04  0.22622516436E+03  0.13645830777E+04  0.46999998093E+01 0.  1.
</event>
<event>
 5   0  0.4992668E-07  0.2699482E+04  0.7818609E-02  0.8335173E-01
       -2   -1    0    0    0  501  0.00000000000E+00  0.00000000000E+00  0.10241338233E+04  0.10241338233E+04  0.25500000920E-02 0. -1.
        2   -1    0    0  501    0  0.00000000000E+00  0.00000000000E+00 -0.17788702349E+04  0.17788702349E+04  0.25500000920E-02 0.  1.
    10030    2    1    2    0    0  0.00000000000E+00  0.00000000000E+00 -0.75473641160E+03  0.28030040582E+04  0.26994823020E+04 0.  0.
        1    1    3    3  502    0  0.11017806580E+03  0.57417422813E+03 -0.16405679657E+04  0.17416309886E+04  0.50400001928E-02 0.  1.
       -1    1    3    3    0  502 -0.11017806580E+03 -0.57417422813E+03  0.88583155411E+03  0.10613730695E+04  0.50400001928E-02 0. -1.
</event>
<event>
 5   0  0.4983208E-07  0.2688128E+04  0.7818609E-02  0.8338867E-01
       -2   -1    0    0    0  501  0.00000000000E+00  0.00000000000E+00  0.11605183056E+04  0.11605183056E+04  0.25500000920E-02 0. -1.
        2   -1    0    0  501    0  0.00000000000E+00  0.00000000000E+00 -0.15566384565E+04  0.15566384565E+04  0.25500000920E-02 0.  1.
    10030    2    1    2    0    0  0.00000000000E+00  0.00000000000E+00 -0.39612015095E+03  0.27171567621E+04  0.26881275445E+04 0.  0.
        4    1    3    3  502    0 -0.15441031668E+03  0.82864888645E+02  0.11489208426E+04  0.11622090394E+04  0.12699999809E+01 0. -1.
       -4    1    3    3    0  502  0.15441031668E+03 -0.82864888645E+02 -0.15450409936E+04  0.15549477227E+04  0.12699999809E+01 0.  1.
</event>
<event>
 5   0  0.4983208E-07  0.2700004E+04  0.7818609E-02  0.8335004E-01
       -2   -1    0    0    0  501  0.00000000000E+00  0.00000000000E+00  0.12724680307E+04  0.12724680307E+04  0.25500000920E-02 0.  1.
        2   -1    0    0  501    0  0.00000000000E+00  0.00000000000E+00 -0.14322597909E+04  0.14322597909E+04  0.25500000920E-02 0. -1.
    10030    2    1    2    0    0  0.00000000000E+00  0.00000000000E+00 -0.15979176019E+03  0.27047278217E+04  0.27000035524E+04 0.  0.
        4    1    3    3  502    0 -0.24784226294E+00 -0.93578290068E+03  0.89485009360E+03  0.12947772015E+04  0.12699999809E+01 0.  1.
       -4    1    3    3    0  502  0.24784226294E+00  0.93578290068E+03 -0.10546418538E+04  0.14099506202E+04  0.12699999809E+01 0. -1.
</event>
<event>
 5   0  0.1888149E-07  0.2693807E+04  0.7818609E-02  0.8337017E-01
       -1   -1    0    0    0  501  0.00000000000E+00  0.00000000000E+00  0.12131557561E+04  0.12131557561E+04  0.50400001928E-02 0. -1.
        1   -1    0    0  501    0  0.00000000000E+00  0.00000000000E+00 -0.14953966570E+04  0.14953966570E+04  0.50400001928E-02 0.  1.
    10030    2    1    2    0    0  0.00000000000E+00  0.00000000000E+00 -0.28224090093E+03  0.27085524131E+04  0.26938070176E+04 0.  0.
        1    1    3    3  502    0 -0.43092394320E+03 -0.10051947808E+04  0.64933614314E+03  0.12719077871E+04  0.50400001928E-02 0. -1.
       -1    1    3    3    0  502  0.43092394320E+03  0.10051947808E+04 -0.93157704407E+03  0.14366446259E+04  0.50400001928E-02 0.  1.
</event>
<event>
 5   0  0.1937896E-07  0.2699848E+04  0.7818609E-02  0.8335054E-01
       -1   -1    0    0    0  501  0.00000000000E+00  0.00000000000E+00  0.66382952196E+03  0.66382952198E+03  0.50400001928E-02 0. -1.
        1   -1    0    0  501    0  0.00000000000E+00  0.00000000000E+00 -0.27451256274E+04  0.27451256274E+04  0.50400001928E-02 0.  1.
    10030    2    1    2    0    0  0.00000000000E+00  0.00000000000E+00 -0.20812961054E+04  0.34089551494E+04  0.26998484646E+04 0.  0.
        3    1    3    3  502    0  0.11212203578E+04  0.20135139393E+03 -0.12610644122E+03  0.11461153168E+04  0.10100000352E+00 0. -1.
       -3    1    3    3    0  502 -0.11212203578E+04 -0.20135139393E+03 -0.19551896642E+04  0.22628398326E+04  0.10100000352E+00 0.  1.
</event>
<event>
 5   0  0.1937896E-07  0.2700372E+04  0.7818609E-02  0.8334884E-01
        1   -1    0    0  501    0  0.00000000000E+00  0.00000000000E+00  0.23562768997E+04  0.23562768997E+04  0.50400001928E-02 0. -1.
       -1   -1    0    0    0  501  0.00000000000E+00  0.00000000000E+00 -0.77367934029E+03  0.77367934031E+03  0.50400001928E-02 0.  1.
    10030    2    1    2    0    0  0.00000000000E+00  0.00000000000E+00  0.15825975594E+04  0.31299562400E+04  0.27003723872E+04 0.  0.
        3    1    3    3  502    0  0.23777857133E+03  0.11639849271E+04  0.15349237628E+04  0.19409766941E+04  0.10100000352E+00 0. -1.
       -3    1    3    3    0  502 -0.23777857133E+03 -0.11639849271E+04  0.47673796600E+02  0.11889795459E+04  0.10100000352E+00 0.  1.
</event>
<event>
 5   0  0.4983208E-07  0.2698798E+04  0.7818609E-02  0.8335395E-01
        2   -1    0    0  501    0  0.00000000000E+00  0.00000000000E+00  0.17296706829E+04  0.17296706829E+04  0.25500000920E-02 0.  1.
       -2   -1    0    0    0  501  0.00000000000E+00  0.00000000000E+00 -0.10527306003E+04  0.10527306003E+04  0.25500000920E-02 0. -1.
    10030    2    1    2    0    0  0.00000000000E+00  0.00000000000E+00  0.67694008258E+03  0.27824012831E+04  0.26987976999E+04 0.  0.
        4    1    3    3  502    0  0.10407068860E+03 -0.77268831266E+03  0.14739498697E+04  0.16674554771E+04  0.12699999809E+01 0.  1.
       -4    1    3    3    0  502 -0.10407068860E+03  0.77268831266E+03 -0.79700978713E+03  0.11149458060E+04  0.12699999809E+01 0. -1.
</event>
<event>
 5   0  0.1965415E-07  0.2699889E+04  0.7818609E-02  0.8335041E-01
        1   -1    0    0  501    0  0.00000000000E+00  0.00000000000E+00  0.25329415448E+04  0.25329415448E+04  0.50400001928E-02 0. -1.
       -1   -1    0    0    0  501  0.00000000000E+00  0.00000000000E+00 -0.71945997112E+03  0.71945997113E+03  0.50400001928E-02 0.  1.
    10030    2    1    2    0    0  0.00000000000E+00  0.00000000000E+00  0.18134815736E+04  0.32524015159E+04  0.26998889241E+04 0.  0.
        4    1    3    3  502    0  0.29070696592E+03 -0.38207722001E+03 -0.61314164921E+03  0.77874118742E+03  0.12699999809E+01 0.  1.
       -4    1    3    3    0  502 -0.29070696592E+03  0.38207722001E+03  0.24266232229E+04  0.24736603285E+04  0.12699999809E+01 0. -1.
</event>
<event>
 5   0  0.4992668E-07  0.2695305E+04  0.7818609E-02  0.8336530E-01
        2   -1    0    0  501    0  0.00000000000E+00  0.00000000000E+00  0.20614093357E+04  0.20614093357E+04  0.25500000920E-02 0.  1.
       -2   -1    0    0    0  501  0.00000000000E+00  0.00000000000E+00 -0.88103157284E+03  0.88103157285E+03  0.25500000920E-02 0. -1.
    10030    2    1    2    0    0  0.00000000000E+00  0.00000000000E+00  0.11803777629E+04  0.29424409086E+04  0.26953045908E+04 0.  0.
        1    1    3    3  502    0 -0.11196387216E+04 -0.11724443834E+02  0.14089126019E+04  0.17996563697E+04  0.50400001928E-02 0. -1.
       -1    1    3    3    0  502  0.11196387216E+04  0.11724443834E+02 -0.22853483899E+03  0.11427845388E+04  0.50400001928E-02 0.  1.
</event>
<event>
 5   0  0.1971600E-07  0.2700346E+04  0.7818609E-02  0.8334893E-01
        1   -1    0    0  501    0  0.00000000000E+00  0.00000000000E+00  0.93947500172E+03  0.93947500174E+03  0.50400001928E-02 0.  1.
       -1   -1    0    0    0  501  0.00000000000E+00  0.00000000000E+00 -0.19404107184E+04  0.19404107184E+04  0.50400001928E-02 0. -1.
    10030    2    1    2    0    0  0.00000000000E+00  0.00000000000E+00 -0.10009357167E+04  0.28798857202E+04  0.27003461727E+04 0.  0.
        5    1    3    3  502    0 -0.25448455069E+03  0.23969450651E+03 -0.18912958590E+04  0.19233403130E+04  0.46999998093E+01 0. -1.
       -5    1    3    3    0  502  0.25448455069E+03 -0.23969450651E+03  0.89036014234E+03  0.95654540722E+03  0.46999998093E+01 0.  1.
</event>
<event>
 5   0  0.5043890E-07  0.2697591E+04  0.7818609E-02  0.8335787E-01
        2   -1    0    0  501    0  0.00000000000E+00  0.00000000000E+00  0.19559956046E+04  0.19559956046E+04  0.25500000920E-02 0.  1.
       -2   -1    0    0    0  501  0.00000000000E+00  0.00000000000E+00 -0.93008833256E+03  0.93008833256E+03  0.25500000920E-02 0. -1.
    10030    2    1    2    0    0  0.00000000000E+00  0.00000000000E+00  0.10259072720E+04  0.28860839371E+04  0.26975905474E+04 0.  0.
        3    1    3    3  502    0  0.10721913393E+04  0.25454735803E+03  0.13450246223E+04  0.17388156516E+04  0.10100000352E+00 0.  1.
       -3    1    3    3    0  502 -0.10721913393E+04 -0.25454735803E+03 -0.31911735024E+03  0.11472682855E+04  0.10100000352E+00 0. -1.
</event>
<event>
 5   0  0.4992668E-07  0.2698550E+04  0.7818609E-02  0.8335475E-01
        2   -1    0    0  501    0  0.00000000000E+00  0.00000000000E+00  0.10550684126E+04  0.10550684126E+04  0.25500000920E-02 0.  1.
       -2   -1    0    0    0  501  0.00000000000E+00  0.00000000000E+00 -0.17255218561E+04  0.17255218561E+04  0.25500000920E-02 0. -1.
    10030    2    1    2    0    0  0.00000000000E+00  0.00000000000E+00 -0.67045344343E+03  0.27805902687E+04  0.26985504299E+04 0.  0.
        1    1    3    3  502    0 -0.12551505344E+04 -0.31359191659E+03 -0.73002090678E+03  0.14854875558E+04  0.50400001928E-02 0. -1.
       -1    1    3    3    0  502  0.12551505344E+04  0.31359191659E+03  0.59567463350E+02  0.12951027129E+04  0.50400001928E-02 0.  1.
</event>
<event>
 5   0  0.1971600E-07  0.2700453E+04  0.7818609E-02  0.8334858E-01
        1   -1    0    0  501    0  0.00000000000E+00  0.00000000000E+00  0.25728727522E+04  0.25728727522E+04  0.50400001928E-02 0. -1.
       -1   -1    0    0    0  501  0.00000000000E+00  0.00000000000E+00 -0.70858978562E+03  0.70858978564E+03  0.50400001928E-02 0.  1.
    10030    2    1    2    0    0  0.00000000000E+00  0.00000000000E+00  0.18642829666E+04  0.32814625378E+04  0.27004528153E+04 0.  0.
        5    1    3    3  502    0  0.42953766351E+03  0.10239980262E+04  0.18655296126E+04  0.21710129865E+04  0.46999998093E+01 0. -1.
       -5    1    3    3    0  502 -0.42953766351E+03 -0.10239980262E+04 -0.12466460307E+01  0.11104495514E+04  0.46999998093E+01 0.  1.
</event>
<event>
 5   0  0.1964242E-07  0.2698942E+04  0.7818609E-02  0.8335348E-01
        1   -1    0    0  501    0  0.00000000000E+00  0.00000000000E+00  0.23189614443E+04  0.23189614443E+04  0.50400001928E-02 0. -1.
       -1   -1    0    0    0  501  0.00000000000E+00  0.00000000000E+00 -0.78529639310E+03  0.78529639312E+03  0.50400001928E-02 0.  1.
    10030    2    1    2    0    0  0.00000000000E+00  0.00000000000E+00  0.15336650512E+04  0.31042578374E+04  0.26989420579E+04 0.  0.
        2    1    3    3  502    0 -0.81865272598E+03  0.15368108437E+02  0.20006037507E+04  0.21616761626E+04  0.25500000920E-02 0. -1.
       -2    1    3    3    0  502  0.81865272598E+03 -0.15368108437E+02 -0.46693869956E+03  0.94258167480E+03  0.25500000920E-02 0.  1.
</event>
<event>
 5   0  0.4735120E-07  0.2699796E+04  0.7818609E-02  0.8335071E-01
        2   -1    0    0  501    0  0.00000000000E+00  0.00000000000E+00  0.14658112692E+04  0.14658112692E+04  0.25500000920E-02 0.  1.
       -2   -1    0    0    0  501  0.00000000000E+00  0.00000000000E+00 -0.12431504564E+04  0.12431504564E+04  0.25500000920E-02 0. -1.
    10030    2    1    2    0    0  0.00000000000E+00  0.00000000000E+00  0.22266081278E+03  0.27089617257E+04  0.26997955096E+04 0.  0.
        2    1    3    3  502    0 -0.51409617755E+03 -0.19640368805E+02 -0.11409225517E+04  0.12515529924E+04  0.25500000920E-02 0. -1.
       -2    1    3    3    0  502  0.51409617755E+03  0.19640368805E+02  0.13635833645E+04  0.14574087332E+04  0.25500000920E-02 0.  1.
</event>
<event>
 5   0  0.4735120E-07  0.2699772E+04  0.7818609E-02  0.8335079E-01
       -2   -1    0    0    0  501  0.00000000000E+00  0.00000000000E+00  0.11469713625E+04  0.11469713625E+04  0.25500000920E-02 0. -1.
        2   -1    0    0  501    0  0.00000000000E+00  0.00000000000E+00 -0.15886994525E+04  0.15886994525E+04  0.25500000920E-02 0.  1.
    10030    2    1    2    0    0  0.00000000000E+00  0.00000000000E+00 -0.44172809003E+03  0.27356708150E+04  0.26997724168E+04 0.  0.
        2    1    3    3  502    0 -0.30244766041E+03  0.76666832681E+03 -0.13041621709E+04  0.15427552880E+04  0.25500000920E-02 0.  1.
       -2    1    3    3    0  502  0.30244766041E+03 -0.76666832681E+03  0.86243408091E+03  0.11929155270E+04  0.25500000920E-02 0. -1.
</event>
<event>
 5   0  0.1937896E-07  0.2699434E+04  0.7818609E-02  0.8335189E-01
        1   -1    0    0  501    0  0.00000000000E+00  0.00000000000E+00  0.18017660923E+04  0.18017660923E+04  0.50400001928E-02 0. -1.
       -1   -1    0    0    0  501  0.00000000000E+00  0.00000000000E+00 -0.10110832455E+04  0.10110832455E+04  0.50400001928E-02 0.  1.
    10030    2    1    2    0    0  0.00000000000E+00  0.00000000000E+00  0.79068284686E+03  0.28128493378E+04  0.26994336504E+04 0.  0.
        3    1    3    3  502    0 -0.19806344551E+03 -0.96825588443E+03  0.13531942932E+04  0.16756740111E+04  0.10100000352E+00 0. -1.
       -3    1    3    3    0  502  0.19806344551E+03  0.96825588443E+03 -0.56251144632E+03  0.11371753267E+04  0.10100000352E+00 0.  1.
</event>
<event>
 5   0  0.1964242E-07  0.2719806E+04  0.7818609E-02  0.8328607E-01
        1   -1    0    0  501    0  0.00000000000E+00  0.00000000000E+00  0.12759331476E+04  0.12759331476E+04  0.50400001928E-02 0.  1.
       -1   -1    0    0    0  501  0.00000000000E+00  0.00000000000E+00 -0.14493990878E+04  0.14493990878E+04  0.50400001928E-02 0. -1.
    10030    2    1    2    0    0  0.00000000000E+00  0.00000000000E+00 -0.17346594023E+03  0.27253322354E+04  0.27198061256E+04 0.  0.
        2    1    3    3  502    0  0.85484230619E+03  0.58118957944E+03  0.79869106935E+03  0.13063093508E+04  0.25500000920E-02 0.  1.
       -2    1    3    3    0  502 -0.85484230619E+03 -0.58118957944E+03 -0.97215700957E+03  0.14190228846E+04  0.25500000920E-02 0. -1.
</event>
<event>
 5   0  0.4992668E-07  0.2700185E+04  0.7818609E-02  0.8334945E-01
       -2   -1    0    0    0  501  0.00000000000E+00  0.00000000000E+00  0.70696769077E+03  0.70696769077E+03  0.25500000920E-02 0. -1.
        2   -1    0    0  501    0  0.00000000000E+00  0.00000000000E+00 -0.25782639134E+04  0.25782639134E+04  0.25500000920E-02 0.  1.
    10030    2    1    2    0    0  0.00000000000E+00  0.00000000000E+00 -0.18712962226E+04  0.32852316042E+04  0.27001846493E+04 0.  0.
        1    1    3    3  502    0  0.10211897157E+04 -0.78884817232E+03 -0.14187123963E+04  0.19177733802E+04  0.50400001928E-02 0.  1.
       -1    1    3    3    0  502 -0.10211897157E+04  0.78884817232E+03 -0.45258382630E+03  0.13674582239E+04  0.50400001928E-02 0. -1.
</event>
<event>
 5   0  0.1965415E-07  0.2698784E+04  0.7818609E-02  0.8335400E-01
       -1   -1    0    0    0  501  0.00000000000E+00  0.00000000000E+00  0.12020609044E+04  0.12020609044E+04  0.50400001928E-02 0. -1.
        1   -1    0    0  501    0  0.00000000000E+00  0.00000000000E+00 -0.15147803000E+04  0.15147803000E+04  0.50400001928E-02 0.  1.
    10030    2    1    2    0    0  0.00000000000E+00  0.00000000000E+00 -0.31271939553E+03  0.27168412044E+04  0.26987835611E+04 0.  0.
        4    1    3    3  502    0  0.32819218370E+03  0.20964701282E+03  0.11442580704E+04  0.12087142441E+04  0.12699999809E+01 0. -1.
       -4    1    3    3    0  502 -0.32819218370E+03 -0.20964701282E+03 -0.14569774659E+04  0.15081269603E+04  0.12699999809E+01 0.  1.
</event>
<event>
 5   0  0.4992668E-07  0.2708593E+04  0.7818609E-02  0.8332222E-01
       -2   -1    0    0    0  501  0.00000000000E+00  0.00000000000E+00  0.80304289254E+03  0.80304289254E+03  0.25500000920E-02 0. -1.
        2   -1    0    0  501    0  0.00000000000E+00  0.00000000000E+00 -0.22839617780E+04  0.22839617780E+04  0.25500000920E-02 0.  1.
    10030    2    1    2    0    0  0.00000000000E+00  0.00000000000E+00 -0.14809188855E+04  0.30870046705E+04  0.27085931940E+04 0.  0.
        1    1    3    3  502    0 -0.15656765472E+03 -0.10783862782E+04 -0.16569778661E+04  0.19831807896E+04  0.50400001928E-02 0.  1.
       -1    1    3    3    0  502  0.15656765472E+03  0.10783862782E+04  0.17605898066E+03  0.11038238809E+04  0.50400001928E-02 0. -1.
</event>
<event>
 5   0  0.1888149E-07  0.2700063E+04  0.7818609E-02  0.8334984E-01
        1   -1    0    0  501    0  0.00000000000E+00  0.00000000000E+00  0.12391433421E+04  0.12391433421E+04  0.50400001928E-02 0. -1.
       -1   -1    0    0    0  501  0.00000000000E+00  0.00000000000E+00 -0.14708430395E+04  0.14708430395E+04  0.50400001928E-02 0.  1.
    10030    2    1    2    0    0  0.00000000000E+00  0.00000000000E+00 -0.23169969741E+03  0.27099863817E+04  0.27000632287E+04 0.  0.
        1    1    3    3  502    0 -0.50854058029E+03 -0.58671225581E+03  0.99262771749E+03  0.12602200516E+04  0.50400001928E-02 0. -1.
       -1    1    3    3    0  502  0.50854058029E+03  0.58671225581E+03 -0.12243274149E+04  0.14497663301E+04  0.50400001928E-02 0.  1.
</event>
<event>
 5   0  0.4983208E-07  0.2698815E+04  0.7818609E-02  0.8335390E-01
       -2   -1    0    0    0  501  0.00000000000E+00  0.00000000000E+00  0.10186216081E+04  0.10186216081E+04  0.25500000920E-02 0. -1.
        2   -1    0    0  501    0  0.00000000000E+00  0.00000000000E+00 -0.17876124100E+04  0.17876124100E+04  0.25500000920E-02 0.  1.
    10030    2    1    2    0    0  0.00000000000E+00  0.00000000000E+00 -0.76899080196E+03  0.28062340181E+04  0.26988150197E+04 0.  0.
        4    1    3    3  502    0  0.26256683024E+03  0.10956821940E+04 -0.11566409851E+04  0.16147076491E+04  0.12699999809E+01 0.  1.
       -4    1    3    3    0  502 -0.26256683024E+03 -0.10956821940E+04  0.38765018317E+03  0.11915263690E+04  0.12699999809E+01 0. -1.
</event>
<event>
 5   0  0.1641625E-07  0.2700508E+04  0.7818609E-02  0.8334840E-01
       -3   -1    0    0    0  501  0.00000000000E+00  0.00000000000E+00  0.11678230700E+04  0.11678230744E+04  0.10100000352E+00 0.  1.
        3   -1    0    0  501    0  0.00000000000E+00  0.00000000000E+00 -0.15611838146E+04  0.15611838179E+04  0.10100000352E+00 0. -1.
    10030    2    1    2    0    0  0.00000000000E+00  0.00000000000E+00 -0.39336074459E+03  0.27290068922E+04  0.27005084600E+04 0.  0.
        5    1    3    3  502    0 -0.12702196719E+04  0.18847411514E+03  0.22507738715E+03  0.13037110213E+04  0.46999998093E+01 0.  1.
       -5    1    3    3    0  502  0.12702196719E+04 -0.18847411514E+03 -0.61843813174E+03  0.14252958709E+04  0.46999998093E+01 0. -1.
</event>
<event>
 5   0  0.5043890E-07  0.2699951E+04  0.7818609E-02  0.8335021E-01
       -2   -1    0    0    0  501  0.00000000000E+00  0.00000000000E+00  0.16971670678E+04  0.16971670678E+04  0.25500000920E-02 0.  1.
        2   -1    0    0  501    0  0.00000000000E+00  0.00000000000E+00 -0.10738092128E+04  0.10738092128E+04  0.25500000920E-02 0. -1.
    10030    2    1    2    0    0  0.00000000000E+00  0.00000000000E+00  0.62335785496E+03  0.27709762806E+04  0.26999508388E+04 0.  0.
        3    1    3    3  502    0  0.10521654254E+04 -0.77623917563E+03  0.65642353977E+03  0.14630417677E+04  0.10100000352E+00 0. -1.
       -3    1    3    3    0  502 -0.10521654254E+04  0.77623917563E+03 -0.33065684813E+02  0.13079345129E+04  0.10100000352E+00 0.  1.
</event>
<event>
 5   0  0.4735120E-07  0.2699884E+04  0.7818609E-02  0.8335043E-01
       -2   -1    0    0    0  501  0.00000000000E+00  0.00000000000E+00  0.13054076808E+04  0.13054076808E+04  0.25500000920E-02 0. -1.
        2   -1    0    0  501    0  0.00000000000E+00  0.00000000000E+00 -0.13959959113E+04  0.13959959113E+04  0.25500000920E-02 0.  1.
    10030    2    1    2    0    0  0.00000000000E+00  0.00000000000E+00 -0.90588230508E+02  0.27014035921E+04  0.26998842827E+04 0.  0.
        2    1    3    3  502    0  0.21022735402E+03  0.10942512530E+04 -0.80780067274E+03  0.13762715110E+04  0.25500000920E-02 0.  1.
       -2    1    3    3    0  502 -0.21022735402E+03 -0.10942512530E+04  0.71721244223E+03  0.13251320811E+04  0.25500000920E-02 0. -1.
</event>
<event>
 5   0  0.4992668E-07  0.2700881E+04  0.7818609E-02  0.8334719E-01
        2   -1    0    0  501    0  0.00000000000E+00  0.00000000000E+00  0.15379451765E+04  0.15379451765E+04  0.25500000920E-02 0.  1.
       -2   -1    0    0    0  501  0.00000000000E+00  0.00000000000E+00 -0.11857964544E+04  0.11857964544E+04  0.25500000920E-02 0. -1.
    10030    2    1    2    0    0  0.00000000000E+00  0.00000000000E+00  0.35214872207E+03  0.27237416309E+04  0.27008812913E+04 0.  0.
        1    1    3    3  502    0  0.97253162346E+03  0.93462333337E+03  0.24259786055E+03  0.13704715451E+04  0.50400001928E-02 0. -1.
       -1    1    3    3    0  502 -0.97253162346E+03 -0.93462333337E+03  0.10955086152E+03  0.13532700858E+04  0.50400001928E-02 0.  1.
</event>
<event>
 5   0  0.1965415E-07  0.2700030E+04  0.7818609E-02  0.8334995E-01
       -1   -1    0    0    0  501  0.00000000000E+00  0.00000000000E+00  0.11532340756E+04  0.11532340756E+04  0.50400001928E-02 0.  1.
        1   -1    0    0  501    0  0.00000000000E+00  0.00000000000E+00 -0.15803736663E+04  0.15803736663E+04  0.50400001928E-02 0. -1.
    10030    2    1    2    0    0  0.00000000000E+00  0.00000000000E+00 -0.42713959074E+03  0.27336077419E+04  0.27000301955E+04 0.  0.
        4    1    3    3  502    0  0.38874033260E+03  0.12906027802E+04 -0.29043875275E+03  0.13788150218E+04  0.12699999809E+01 0.  1.
       -4    1    3    3    0  502 -0.38874033260E+03 -0.12906027802E+04 -0.13670083799E+03  0.13547927201E+04  0.12699999809E+01 0. -1.
</event>
<event>
 5   0  0.4735120E-07  0.2698264E+04  0.7818609E-02  0.8335568E-01
        2   -1    0    0  501    0  0.00000000000E+00  0.00000000000E+00  0.16377526535E+04  0.16377526535E+04  0.25500000920E-02 0. -1.
       -2   -1    0    0    0  501  0.00000000000E+00  0.00000000000E+00 -0.11113751327E+04  0.11113751327E+04  0.25500000920E-02 0.  1.
    10030    2    1    2    0    0  0.00000000000E+00  0.00000000000E+00  0.52637752085E+03  0.27491277862E+04  0.26982643107E+04 0.  0.
        2    1    3    3  502    0 -0.38321498528E+03 -0.65143989158E+03 -0.87543298161E+03  0.11565511500E+04  0.25500000920E-02 0.  1.
       -2    1    3    3    0  502  0.38321498528E+03  0.65143989158E+03  0.14018105025E+04  0.15925766362E+04  0.25500000920E-02 0. -1.
</event>
<event>
 5   0  0.1971600E-07  0.2700847E+04  0.7818609E-02  0.8334730E-01
       -1   -1    0    0    0  501  0.00000000000E+00  0.00000000000E+00  0.90545919149E+03  0.90545919150E+03  0.50400001928E-02 0.  1.
        1   -1    0    0  501    0  0.00000000000E+00  0.00000000000E+00 -0.20140546336E+04  0.20140546336E+04  0.50400001928E-02 0. -1.
    10030    2    1    2    0    0  0.00000000000E+00  0.00000000000E+00 -0.11085954421E+04  0.29195138251E+04  0.27008474819E+04 0.  0.
        5    1    3    3  502    0 -0.40201447691E+03 -0.52451562028E+03  0.71871127019E+03  0.97637096201E+03  0.46999998093E+01 0.  1.
       -5    1    3    3    0  502  0.40201447691E+03  0.52451562028E+03 -0.18273067123E+04  0.19431428631E+04  0.46999998093E+01 0. -1.
</event>
<event>
 5   0  0.1965415E-07  0.2700641E+04  0.7818609E-02  0.8334797E-01
        1   -1    0    0  501    0  0.00000000000E+00  0.00000000000E+00  0.17843420387E+04  0.17843420388E+04  0.50400001928E-02 0.  1.
       -1   -1    0    0    0  501  0.00000000000E+00  0.00000000000E+00 -0.10218701197E+04  0.10218701197E+04  0.50400001928E-02 0. -1.
    10030    2    1    2    0    0  0.00000000000E+00  0.00000000000E+00  0.76247191904E+03  0.28062121585E+04  0.27006412666E+04 0.  0.
        4    1    3    3  502    0 -0.26065411465E+03  0.97880875041E+03  0.13090907730E+04  0.16552121925E+04  0.12699999809E+01 0.  1.
       -4    1    3    3    0  502  0.26065411465E+03 -0.97880875041E+03 -0.54661885392E+03  0.11509999660E+04  0.12699999809E+01 0. -1.
</event>
<event>
 5   0  0.1964242E-07  0.2698304E+04  0.7818609E-02  0.8335556E-01
        1   -1    0    0  501    0  0.00000000000E+00  0.00000000000E+00  0.10263480039E+04  0.10263480039E+04  0.50400001928E-02 0.  1.
       -1   -1    0    0    0  501  0.00000000000E+00  0.00000000000E+00 -0.17734827969E+04  0.17734827969E+04  0.50400001928E-02 0. -1.
    10030    2    1    2    0    0  0.00000000000E+00  0.00000000000E+00 -0.74713479302E+03  0.27998308008E+04  0.26983035623E+04 0.  0.
        2    1    3    3  502    0 -0.80349741055E+03  0.10668438243E+04 -0.17547397514E+03  0.13470541749E+04  0.25500000920E-02 0.  1.
       -2    1    3    3    0  502  0.80349741055E+03 -0.10668438243E+04 -0.57166081787E+03  0.14527766259E+04  0.25500000920E-02 0. -1.
</event>
<event>
 5   0  0.1971600E-07  0.2699945E+04  0.7818609E-02  0.8335023E-01
        1   -1    0    0  501    0  0.00000000000E+00  0.00000000000E+00  0.15112645578E+04  0.15112645578E+04  0.50400001928E-02 0. -1.
       -1   -1    0    0    0  501  0.00000000000E+00  0.00000000000E+00 -0.12058945372E+04  0.12058945372E+04  0.50400001928E-02 0.  1.
    10030    2    1    2    0    0  0.00000000000E+00  0.00000000000E+00  0.30537002065E+03  0.27171590950E+04  0.26999449435E+04 0.  0.
        5    1    3    3  502    0  0.29893968641E+03 -0.67588559504E+03  0.12895855570E+04  0.14863509923E+04  0.46999998093E+01 0. -1.
       -5    1    3    3    0  502 -0.29893968641E+03  0.67588559504E+03 -0.98421553632E+03  0.12308081027E+04  0.46999998093E+01 0.  1.
</event>
<event>
 5   0  0.5043890E-07  0.2688398E+04  0.7818609E-02  0.8338779E-01
        2   -1    0    0  501    0  0.00000000000E+00  0.00000000000E+00  0.16554110567E+04  0.16554110567E+04  0.25500000920E-02 0.  1.
       -2   -1    0    0    0  501  0.00000000000E+00  0.00000000000E+00 -0.10914936170E+04  0.10914936170E+04  0.25500000920E-02 0. -1.
    10030    2    1    2    0    0  0.00000000000E+00  0.00000000000E+00  0.56391743965E+03  0.27469046737E+04  0.26883977399E+04 0.  0.
        3    1    3    3  502    0  0.32389135395E+03 -0.75114683752E+03  0.13718225287E+04  0.15971926124E+04  0.10100000352E+00 0.  1.
       -3    1    3    3    0  502 -0.32389135395E+03  0.75114683752E+03 -0.80790508908E+03  0.11497120613E+04  0.10100000352E+00 0. -1.
</event>
<event>
 5   0  0.4983208E-07  0.2698719E+04  0.7818609E-02  0.8335421E-01
       -2   -1    0    0    0  501  0.00000000000E+00  0.00000000000E+00  0.10122009775E+04  0.10122009775E+04  0.25500000920E-02 0.  1.
        2   -1    0    0  501    0  0.00000000000E+00  0.00000000000E+00 -0.17988233318E+04  0.17988233318E+04  0.25500000920E-02 0. -1.
    10030    2    1    2    0    0  0.00000000000E+00  0.00000000000E+00 -0.78662235433E+03  0.28110243092E+04  0.26987187587E+04 0.  0.
        4    1    3    3  502    0  0.62035179973E+03 -0.76023463655E+03 -0.13581273159E+04  0.16755012615E+04  0.12699999809E+01 0. -1.
       -4    1    3    3    0  502 -0.62035179973E+03  0.76023463655E+03  0.57150496158E+03  0.11355230478E+04  0.12699999809E+01 0.  1.
</event>
<event>
 5   0  0.4843887E-07  0.2701041E+04  0.7818609E-02  0.8334667E-01
        2   -1    0    0  501    0  0.00000000000E+00  0.00000000000E+00  0.26581648004E+04  0.26581648004E+04  0.25500000920E-02 0.  1.
       -2   -1    0    0    0  501  0.00000000000E+00  0.00000000000E+00 -0.68615203260E+03  0.68615203261E+03  0.25500000920E-02 0. -1.
    10030    2    1    2    0    0  0.00000000000E+00  0.00000000000E+00  0.19720127678E+04  0.33443168330E+04  0.27010406741E+04 0.  0.
        5    1    3    3  502    0  0.61588856944E+01  0.57929518062E+03 -0.52447724987E+03  0.78148532538E+03  0.46999998093E+01 0. -1.
       -5    1    3    3    0  502 -0.61588856944E+01 -0.57929518062E+03  0.24964900177E+04  0.25628315076E+04  0.46999998093E+01 0.  1.
</event>
<event>
 5   0  0.1964242E-07  0.2700189E+04  0.7818609E-02  0.8334943E-01
       -1   -1    0    0    0  501  0.00000000000E+00  0.00000000000E+00  0.12176653118E+04  0.12176653118E+04  0.50400001928E-02 0.  1.
        1   -1    0    0  501    0  0.00000000000E+00  0.00000000000E+00 -0.14969267940E+04  0.14969267941E+04  0.50400001928E-02 0. -1.
    10030    2    1    2    0    0  0.00000000000E+00  0.00000000000E+00 -0.27926148227E+03  0.27145921058E+04  0.27001894981E+04 0.  0.
        2    1    3    3  502    0 -0.58921920728E+02 -0.13154118671E+04 -0.43950966477E+03  0.13881458563E+04  0.25500000920E-02 0.  1.
       -2    1    3    3    0  502  0.58921920728E+02  0.13154118671E+04  0.16024818250E+03  0.13264462495E+04  0.25500000920E-02 0. -1.
</event>
<event>
 5   0  0.1964242E-07  0.2699779E+04  0.7818609E-02  0.8335077E-01
       -1   -1    0    0    0  501  0.00000000000E+00  0.00000000000E+00  0.90890945353E+03  0.90890945354E+03  0.50400001928E-02 0.  1.
        1   -1    0    0  501    0  0.00000000000E+00  0.00000000000E+00 -0.20048217221E+04  0.20048217221E+04  0.50400001928E-02 0. -1.
    10030    2    1    2    0    0  0.00000000000E+00  0.00000000000E+00 -0.10959122686E+04  0.29137311757E+04  0.26997788175E+04 0.  0.
        2    1    3    3  502    0  0.96869148016E+03  0.81707983567E+03 -0.46112989815E+02  0.12681123962E+04  0.25500000920E-02 0. -1.
       -2    1    3    3    0  502 -0.96869148016E+03 -0.81707983567E+03 -0.10497992788E+04  0.16456187795E+04  0.25500000920E-02 0.  1.
</event>
<event>
 5   0  0.1641625E-07  0.2700478E+04  0.7818609E-02  0.8334850E-01
       -3   -1    0    0    0  501  0.00000000000E+00  0.00000000000E+00  0.14237439192E+04  0.14237439228E+04  0.10100000352E+00 0.  1.
        3   -1    0    0  501    0  0.00000000000E+00  0.00000000000E+00 -0.12805290890E+04  0.12805290930E+04  0.10100000352E+00 0. -1.
    10030    2    1    2    0    0  0.00000000000E+00  0.00000000000E+00  0.14321483023E+03  0.27042730158E+04  0.27004781162E+04 0.  0.
        5    1    3    3  502    0  0.44470253078E+03 -0.12746779154E+04  0.95290072522E+02  0.13533907111E+04  0.46999998093E+01 0. -1.
       -5    1    3    3    0  502 -0.44470253078E+03  0.12746779154E+04  0.47924757708E+02  0.13508823047E+04  0.46999998093E+01 0.  1.
</event>
<event>
 5   0  0.1965415E-07  0.2701818E+04  0.7818609E-02  0.8334415E-01
        1   -1    0    0  501    0  0.00000000000E+00  0.00000000000E+00  0.80735001725E+03  0.80735001727E+03  0.50400001928E-02 0. -1.
       -1   -1    0    0    0  501  0.00000000000E+00  0.00000000000E+00 -0.22604256672E+04  0.22604256672E+04  0.50400001928E-02 0.  1.
    10030    2    1    2    0    0  0.00000000000E+00  0.00000000000E+00 -0.14530756499E+04  0.30677756845E+04  0.27018176855E+04 0.  0.
        4    1    3    3  502    0 -0.21639272330E+03 -0.12885665963E+04 -0.33695574866E+03  0.13493592825E+04  0.12699999809E+01 0. -1.
       -4    1    3    3    0  502  0.21639272330E+03  0.12885665963E+04 -0.11161199013E+04  0.17184164020E+04  0.12699999809E+01 0.  1.
</event>
<event>
 5   0  0.1937896E-07  0.2700316E+04  0.7818609E-02  0.8334903E-01
       -1   -1    0    0    0  501  0.00000000000E+00  0.00000000000E+00  0.89719731002E+03  0.89719731003E+03  0.50400001928E-02 0.  1.
        1   -1    0    0  501    0  0.00000000000E+00  0.00000000000E+00 -0.20318007439E+04  0.20318007439E+04  0.50400001928E-02 0. -1.
    10030    2    1    2    0    0  0.00000000000E+00  0.00000000000E+00 -0.11346034339E+04  0.29289980540E+04  0.27003156571E+04 0.  0.
        3    1    3    3  502    0  0.12600342729E+04  0.46578720676E+03 -0.42063987910E+03  0.14076867582E+04  0.10100000352E+00 0.  1.
       -3    1    3    3    0  502 -0.12600342729E+04 -0.46578720676E+03 -0.71396355482E+03  0.15213112958E+04  0.10100000352E+00 0. -1.
</event>
<event>
 5   0  0.4983208E-07  0.2718751E+04  0.7818609E-02  0.8328946E-01
       -2   -1    0    0    0  501  0.00000000000E+00  0.00000000000E+00  0.83807890071E+03  0.83807890071E+03  0.25500000920E-02 0.  1.
        2   -1    0    0  501    0  0.00000000000E+00  0.00000000000E+00 -0.22049261647E+04  0.22049261647E+04  0.25500000920E-02 0. -1.
    10030    2    1    2    0    0  0.00000000000E+00  0.00000000000E+00 -0.13668472640E+04  0.30430050655E+04  0.27187512547E+04 0.  0.
        4    1    3    3  502    0  0.13094727844E+04  0.36046482275E+03 -0.74719842473E+03  0.15501486898E+04  0.12699999809E+01 0.  1.
       -4    1    3    3    0  502 -0.13094727844E+04 -0.36046482275E+03 -0.61964883930E+03  0.14928563757E+04  0.12699999809E+01 0. -1.
</event>
<event>
 5   0  0.4843887E-07  0.2699815E+04  0.7818609E-02  0.8335065E-01
       -2   -1    0    0    0  501  0.00000000000E+00  0.00000000000E+00  0.13866789777E+04  0.13866789777E+04  0.25500000920E-02 0. -1.
        2   -1    0    0  501    0  0.00000000000E+00  0.00000000000E+00 -0.13141112086E+04  0.13141112086E+04  0.25500000920E-02 0.  1.
    10030    2    1    2    0    0  0.00000000000E+00  0.00000000000E+00  0.72567769130E+02  0.27007901863E+04  0.26998150954E+04 0.  0.
        5    1    3    3  502    0 -0.37009716116E+03 -0.70037157206E+03  0.11297184779E+04  0.13797746834E+04  0.46999998093E+01 0. -1.
       -5    1    3    3    0  502  0.37009716116E+03  0.70037157206E+03 -0.10571507088E+04  0.13210155029E+04  0.46999998093E+01 0.  1.
</event>
<event>
 5   0  0.1971600E-07  0.2700422E+04  0.7818609E-02  0.8334868E-01
        1   -1    0    0  501    0  0.00000000000E+00  0.00000000000E+00  0.22845875020E+04  0.22845875020E+04  0.50400001928E-02 0.  1.
       -1   -1    0    0    0  501  0.00000000000E+00  0.00000000000E+00 -0.79798659891E+03  0.79798659893E+03  0.50400001928E-02 0. -1.
    10030    2    1    2    0    0  0.00000000000E+00  0.00000000000E+00  0.14866009031E+04  0.30825741009E+04  0.27004223452E+04 0.  0.
        5    1    3    3  502    0 -0.86748935821E+03  0.20980521750E+03 -0.41323683507E+03  0.98353585992E+03  0.46999998093E+01 0. -1.
       -5    1    3    3    0  502  0.86748935821E+03 -0.20980521750E+03  0.18998377382E+04  0.20990382410E+04  0.46999998093E+01 0.  1.
</event>
<event>
 5   0  0.4992668E-07  0.2700630E+04  0.7818609E-02  0.8334800E-01
       -2   -1    0    0    0  501  0.00000000000E+00  0.00000000000E+00  0.91020815078E+03  0.91020815079E+03  0.25500000920E-02 0. -1.
        2   -1    0    0  501    0  0.00000000000E+00  0.00000000000E+00 -0.20032242906E+04  0.20032242906E+04  0.25500000920E-02 0.  1.
    10030    2    1    2    0    0  0.00000000000E+00  0.00000000000E+00 -0.10930161398E+04  0.29134324414E+04  0.27006303539E+04 0.  0.
        1    1    3    3  502    0  0.44552486566E+02  0.92624212757E+03  0.51238601235E+03  0.10594568555E+04  0.50400001928E-02 0. -1.
       -1    1    3    3    0  502 -0.44552486566E+02 -0.92624212757E+03 -0.16054021521E+04  0.18539755859E+04  0.50400001928E-02 0.  1.
</event>
<event>
 5   0  0.4735120E-07  0.2699634E+04  0.7818609E-02  0.8335124E-01
       -2   -1    0    0    0  501  0.00000000000E+00  0.00000000000E+00  0.15090482768E+04  0.15090482768E+04  0.25500000920E-02 0.  1.
        2   -1    0    0  501    0  0.00000000000E+00  0.00000000000E+00 -0.12073875020E+04  0.12073875021E+04  0.25500000920E-02 0. -1.
    10030    2    1    2    0    0  0.00000000000E+00  0.00000000000E+00  0.30166077475E+03  0.27164357788E+04  0.26996340711E+04 0.  0.
        2    1    3    3  502    0  0.90907238468E+03  0.85104860494E+03  0.67494612772E+03  0.14164210546E+04  0.25500000920E-02 0.  1.
       -2    1    3    3    0  502 -0.90907238468E+03 -0.85104860494E+03 -0.37328535297E+03  0.13000147243E+04  0.25500000920E-02 0. -1.
</event>
<event>
 5   0  0.4735120E-07  0.2700517E+04  0.7818609E-02  0.8334837E-01
        2   -1    0    0  501    0  0.00000000000E+00  0.00000000000E+00  0.18165830611E+04  0.18165830611E+04  0.25500000920E-02 0.  1.
       -2   -1    0    0    0  501  0.00000000000E+00  0.00000000000E+00 -0.10036415479E+04  0.10036415479E+04  0.25500000920E-02 0. -1.
    10030    2    1    2    0    0  0.00000000000E+00  0.00000000000E+00  0.81294151318E+03  0.28202246089E+04  0.27005171618E+04 0.  0.
        2    1    3    3  502    0 -0.12139605986E+03 -0.16055151960E+02 -0.99783088896E+03  0.10053164946E+04  0.25500000920E-02 0. -1.
       -2    1    3    3    0  502  0.12139605986E+03  0.16055151960E+02  0.18107724021E+04  0.18149081144E+04  0.25500000920E-02 0.  1.
</event>
<event>
 5   0  0.1965415E-07  0.2700445E+04  0.7818609E-02  0.8334861E-01
        1   -1    0    0  501    0  0.00000000000E+00  0.00000000000E+00  0.83939734138E+03  0.83939734140E+03  0.50400001928E-02 0. -1.
       -1   -1    0    0    0  501  0.00000000000E+00  0.00000000000E+00 -0.21719163381E+04  0.21719163381E+04  0.50400001928E-02 0.  1.
    10030    2    1    2    0    0  0.00000000000E+00  0.00000000000E+00 -0.13325189967E+04  0.30113136795E+04  0.27004450003E+04 0.  0.
        4    1    3    3  502    0 -0.39730075238E+03  0.12290385463E+04 -0.11048787045E+04  0.16997476874E+04  0.12699999809E+01 0. -1.
       -4    1    3    3    0  502  0.39730075238E+03 -0.12290385463E+04 -0.22764029221E+03  0.13115659921E+04  0.12699999809E+01 0.  1.
</event>
<event>
 5   0  0.1888149E-07  0.2699777E+04  0.7818609E-02  0.8335077E-01
       -1   -1    0    0    0  501  0.00000000000E+00  0.00000000000E+00  0.93865307516E+03  0.93865307517E+03  0.50400001928E-02 0.  1.
        1   -1    0    0  501    0  0.00000000000E+00  0.00000000000E+00 -0.19412906995E+04  0.19412906995E+04  0.50400001928E-02 0. -1.
    10030    2    1    2    0    0  0.00000000000E+00  0.00000000000E+00 -0.10026376244E+04  0.28799437747E+04  0.26997766463E+04 0.  0.
        1    1    3    3  502    0 -0.95091510018E+03  0.94475389476E+03 -0.67132502206E+03  0.14991586756E+04  0.50400001928E-02 0. -1.
       -1    1    3    3    0  502  0.95091510018E+03 -0.94475389476E+03 -0.33131260231E+03  0.13807850991E+04  0.50400001928E-02 0.  1.
</event>
<event>
 5   0  0.4843887E-07  0.2701166E+04  0.7818609E-02  0.8334627E-01
        2   -1    0    0  501    0  0.00000000000E+00  0.00000000000E+00  0.17206111944E+04  0.17206111945E+04  0.25500000920E-02 0.  1.
       -2   -1    0    0    0  501  0.00000000000E+00  0.00000000000E+00 -0.10601318962E+04  0.10601318962E+04  0.25500000920E-02 0. -1.
    10030    2    1    2    0    0  0.00000000000E+00  0.00000000000E+00  0.66047929826E+03  0.27807430906E+04  0.27011662727E+04 0.  0.
        5    1    3    3  502    0  0.35437674999E+03 -0.92725335495E+03 -0.61252952769E+03  0.11664459600E+04  0.46999998093E+01 0. -1.
       -5    1    3    3    0  502 -0.35437674999E+03  0.92725335495E+03  0.12730088260E+04  0.16142971307E+04  0.46999998093E+01 0.  1.
</event>
<event>
 5   0  0.1971600E-07  0.2700924E+04  0.7818609E-02  0.8334705E-01
       -1   -1    0    0    0  501  0.00000000000E+00  0.00000000000E+00  0.10968776354E+04  0.10968776354E+04  0.50400001928E-02 0.  1.
        1   -1    0    0  501    0  0.00000000000E+00  0.00000000000E+00 -0.16626713172E+04  0.16626713172E+04  0.50400001928E-02 0. -1.
    10030    2    1    2    0    0  0.00000000000E+00  0.00000000000E+00 -0.56579368180E+03  0.27595489526E+04  0.27009235330E+04 0.  0.
        5    1    3    3  502    0 -0.70158776357E+03 -0.43602902284E+03  0.80864553172E+03  0.11559742146E+04  0.46999998093E+01 0.  1.
       -5    1    3    3    0  502  0.70158776357E+03  0.43602902284E+03 -0.13744392135E+04  0.16035747380E+04  0.46999998093E+01 0. -1.
</event>
<event>
 5   0  0.4735120E-07  0.2702264E+04  0.7818609E-02  0.8334271E-01
        2   -1    0    0  501    0  0.00000000000E+00  0.00000000000E+00  0.18039277620E+04  0.18039277620E+04  0.25500000920E-02 0.  1.
       -2   -1    0    0    0  501  0.00000000000E+00  0.00000000000E+00 -0.10119902951E+04  0.10119902951E+04  0.25500000920E-02 0. -1.
    10030    2    1    2    0    0  0.00000000000E+00  0.00000000000E+00  0.79193746694E+03  0.28159180572E+04  0.27022637830E+04 0.  0.
        2    1    3    3  502    0  0.12345140388E+04 -0.36367391028E+03  0.82470191519E+03  0.15285342240E+04  0.25500000920E-02 0. -1.
       -2    1    3    3    0  502 -0.12345140388E+04  0.36367391028E+03 -0.32764448249E+02  0.12873838332E+04  0.25500000920E-02 0.  1.
</event>
<event>
 5   0  0.4983208E-07  0.2699937E+04  0.7818609E-02  0.8335025E-01
       -2   -1    0    0    0  501  0.00000000000E+00  0.00000000000E+00  0.70087523150E+03  0.70087523151E+03  0.25500000920E-02 0. -1.
        2   -1    0    0  501    0  0.00000000000E+00  0.00000000000E+00 -0.26001984764E+04  0.26001984764E+04  0.25500000920E-02 0.  1.
    10030    2    1    2    0    0  0.00000000000E+00  0.00000000000E+00 -0.18993232449E+04  0.33010737079E+04  0.26999368208E+04 0.  0.
        4    1    3    3  502    0  0.31949153158E+03  0.84889770406E+03 -0.21721334051E+04  0.23539046908E+04  0.12699999809E+01 0.  1.
       -4    1    3    3    0  502 -0.31949153158E+03 -0.84889770406E+03  0.27281016017E+03  0.94716901718E+03  0.12699999809E+01 0. -1.
</event>
<event>
 5   0  0.1965415E-07  0.2696416E+04  0.7818609E-02  0.8336169E-01
        1   -1    0    0  501    0  0.00000000000E+00  0.00000000000E+00  0.15934733738E+04  0.15934733738E+04  0.50400001928E-02 0. -1.
       -1   -1    0    0    0  501  0.00000000000E+00  0.00000000000E+00 -0.11406938364E+04  0.11406938364E+04  0.50400001928E-02 0.  1.
    10030    2    1    2    0    0  0.00000000000E+00  0.00000000000E+00  0.45277953740E+03  0.27341672103E+04  0.26964163299E+04 0.  0.
        4    1    3    3  502    0 -0.24730378940E+03 -0.64196165079E+03  0.14021011252E+04  0.15617820281E+04  0.12699999809E+01 0. -1.
       -4    1    3    3    0  502  0.24730378940E+03  0.64196165079E+03 -0.94932158778E+03  0.11723851821E+04  0.12699999809E+01 0.  1.
</event>
<event>
 5   0  0.4843887E-07  0.2696978E+04  0.7818609E-02  0.8335986E-01
       -2   -1    0    0    0  501  0.00000000000E+00  0.00000000000E+00  0.12836047413E+04  0.12836047413E+04  0.25500000920E-02 0.  1.
        2   -1    0    0  501    0  0.00000000000E+00  0.00000000000E+00 -0.14166535363E+04  0.14166535363E+04  0.25500000920E-02 0. -1.
    10030    2    1    2    0    0  0.00000000000E+00  0.00000000000E+00 -0.13304879501E+03  0.27002582776E+04  0.26969784545E+04 0.  0.
        5    1    3    3  502    0  0.67038730185E+03 -0.10151079806E+04 -0.64907195649E+03  0.13788327822E+04  0.46999998093E+01 0. -1.
       -5    1    3    3    0  502 -0.67038730185E+03  0.10151079806E+04  0.51602316148E+03  0.13214254954E+04  0.46999998093E+01 0.  1.
</event>
<event>
 5   0  0.5043890E-07  0.2701741E+04  0.7818609E-02  0.8334440E-01
       -2   -1    0    0    0  501  0.00000000000E+00  0.00000000000E+00  0.11618004125E+04  0.11618004125E+04  0.25500000920E-02 0.  1.
        2   -1    0    0  501    0  0.00000000000E+00  0.00000000000E+00 -0.15707093738E+04  0.15707093738E+04  0.25500000920E-02 0. -1.
    10030    2    1    2    0    0  0.00000000000E+00  0.00000000000E+00 -0.40890896132E+03  0.27325097863E+04  0.27017407710E+04 0.  0.
        3    1    3    3  502    0  0.20025996038E+03  0.13141263845E+04 -0.44764787129E+03  0.14026477937E+04  0.10100000352E+00 0.  1.
       -3    1    3    3    0  502 -0.20025996038E+03 -0.13141263845E+04  0.38738909968E+02  0.13298619927E+04  0.10100000352E+00 0. -1.
</event>
<event>
 5   0  0.4983208E-07  0.2700324E+04  0.7818609E-02  0.8334900E-01
       -2   -1    0    0    0  501  0.00000000000E+00  0.00000000000E+00  0.11780351925E+04  0.11780351925E+04  0.25500000920E-02 0. -1.
        2   -1    0    0  501    0  0.00000000000E+00  0.00000000000E+00 -0.15474388228E+04  0.15474388228E+04  0.25500000920E-02 0.  1.
    10030    2    1    2    0    0  0.00000000000E+00  0.00000000000E+00 -0.36940363028E+03  0.27254740152E+04  0.27003239742E+04 0.  0.
        4    1    3    3  502    0  0.13293534842E+04 -0.11416349297E+03 -0.39331938956E+03  0.13910124888E+04  0.12699999809E+01 0. -1.
       -4    1    3    3    0  502 -0.13293534842E+04  0.11416349297E+03  0.23915759285E+02  0.13344615264E+04  0.12699999809E+01 0.  1.
</event>
<event>
 5   0  0.1964242E-07  0.2698877E+04  0.7818609E-02  0.8335369E-01
       -1   -1    0    0    0  501  0.00000000000E+00  0.00000000000E+00  0.75459703721E+03  0.75459703722E+03  0.50400001928E-02 0.  1.
        1   -1    0    0  501    0  0.00000000000E+00  0.00000000000E+00 -0.24131875759E+04  0.24131875759E+04  0.50400001928E-02 0. -1.
    10030    2    1    2    0    0  0.00000000000E+00  0.00000000000E+00 -0.16585905387E+04  0.31677846131E+04  0.26988769479E+04 0.  0.
        2    1    3    3  502    0  0.18042504737E+03 -0.68122278851E+03  0.52145995531E+03  0.87666308825E+03  0.25500000920E-02 0.  1.
       -2    1    3    3    0  502 -0.18042504737E+03  0.68122278851E+03 -0.21800504940E+04  0.22911215249E+04  0.25500000920E-02 0. -1.
</event>
<event>
 5   0  0.4843887E-07  0.2700628E+04  0.7818609E-02  0.8334801E-01
       -2   -1    0    0    0  501  0.00000000000E+00  0.00000000000E+00  0.11079377891E+04  0.11079377891E+04  0.25500000920E-02 0.  1.
        2   -1    0    0  501    0  0.00000000000E+00  0.00000000000E+00 -0.16457137748E+04  0.16457137748E+04  0.25500000920E-02 0. -1.
    10030    2    1    2    0    0  0.00000000000E+00  0.00000000000E+00 -0.53777598564E+03  0.27536515639E+04  0.27006284315E+04 0.  0.
        5    1    3    3  502    0 -0.65859369045E+03  0.63965424878E+02 -0.14690661463E+04  0.16112152733E+04  0.46999998093E+01 0. -1.
       -5    1    3    3    0  502  0.65859369045E+03 -0.63965424878E+02  0.93129016070E+03  0.11424362906E+04  0.46999998093E+01 0.  1.
</event>
<event>
 5   0  0.1971600E-07  0.2701823E+04  0.7818609E-02  0.8334414E-01
       -1   -1    0    0    0  501  0.00000000000E+00  0.00000000000E+00  0.70630793099E+03  0.70630793101E+03  0.50400001928E-02 0. -1.
        1   -1    0    0  501    0  0.00000000000E+00  0.00000000000E+00 -0.25838043947E+04  0.25838043947E+04  0.50400001928E-02 0.  1.
    10030    2    1    2    0    0  0.00000000000E+00  0.00000000000E+00 -0.18774964637E+04  0.32901123258E+04  0.27018227449E+04 0.  0.
        5    1    3    3  502    0 -0.32341102764E+02  0.48547637968E+02 -0.25822600292E+04  0.25829231054E+04  0.46999998093E+01 0.  1.
       -5    1    3    3    0  502  0.32341102764E+02 -0.48547637968E+02  0.70476356549E+03  0.70718922031E+03  0.46999998093E+01 0. -1.
</event>
<event>
 5   0  0.4983208E-07  0.2700199E+04  0.7818609E-02  0.8334940E-01
       -2   -1    0    0    0  501  0.00000000000E+00  0.00000000000E+00  0.18617580889E+04  0.18617580889E+04  0.25500000920E-02 0.  1.
        2   -1    0    0  501    0  0.00000000000E+00  0.00000000000E+00 -0.97905753709E+03  0.97905753709E+03  0.25500000920E-02 0. -1.
    10030    2    1    2    0    0  0.00000000000E+00  0.00000000000E+00  0.88270055182E+03  0.28408156260E+04  0.27001987254E+04 0.  0.
        4    1    3    3  502    0  0.11974092041E+04  0.61610901865E+03  0.33941523901E+03  0.13887344751E+04  0.12699999809E+01 0.  1.
       -4    1    3    3    0  502 -0.11974092041E+04 -0.61610901865E+03  0.54328531281E+03  0.14520811509E+04  0.12699999809E+01 0. -1.
</event>
<event>
 5   0  0.1888149E-07  0.2699541E+04  0.7818609E-02  0.8335154E-01
       -1   -1    0    0    0  501  0.00000000000E+00  0.00000000000E+00  0.90426283136E+03  0.90426283137E+03  0.50400001928E-02 0. -1.
        1   -1    0    0  501    0  0.00000000000E+00  0.00000000000E+00 -0.20147690321E+04  0.20147690321E+04  0.50400001928E-02 0.  1.
    10030    2    1    2    0    0  0.00000000000E+00  0.00000000000E+00 -0.11105062008E+04  0.29190318635E+04  0.26995412570E+04 0.  0.
        1    1    3    3  502    0 -0.24820889772E+03 -0.16651651247E+03  0.86802960226E+03  0.91804727343E+03  0.50400001928E-02 0. -1.
       -1    1    3    3    0  502  0.24820889772E+03  0.16651651247E+03 -0.19785358030E+04  0.20009845901E+04  0.50400001928E-02 0.  1.
</event>
<event>
 5   0  0.4843887E-07  0.2690020E+04  0.7818609E-02  0.8338250E-01
        2   -1    0    0  501    0  0.00000000000E+00  0.00000000000E+00  0.17868701413E+04  0.17868701413E+04  0.25500000920E-02 0. -1.
       -2   -1    0    0    0  501  0.00000000000E+00  0.00000000000E+00 -0.10124138572E+04  0.10124138572E+04  0.25500000920E-02 0.  1.
    10030    2    1    2    0    0  0.00000000000E+00  0.00000000000E+00  0.77445628410E+03  0.27992839984E+04  0.26900201426E+04 0.  0.
        5    1    3    3  502    0  0.37262208804E+03  0.14346459161E+03  0.17237647072E+04  0.17694112482E+04  0.46999998093E+01 0. -1.
       -5    1    3    3    0  502 -0.37262208804E+03 -0.14346459161E+03 -0.94930842307E+03  0.10298727502E+04  0.46999998093E+01 0.  1.
</event>
<event>
 5   0  0.1971600E-07  0.2701242E+04  0.7818609E-02  0.8334602E-01
        1   -1    0    0  501    0  0.00000000000E+00  0.00000000000E+00  0.14048079846E+04  0.14048079846E+04  0.50400001928E-02 0. -1.
       -1   -1    0    0    0  501  0.00000000000E+00  0.00000000000E+00 -0.12985240413E+04  0.12985240413E+04  0.50400001928E-02 0.  1.
    10030    2    1    2    0    0  0.00000000000E+00  0.00000000000E+00  0.10628394330E+03  0.27033320259E+04  0.27012418932E+04 0.  0.
        5    1    3    3  502    0 -0.37850441491E+03  0.11137399748E+04 -0.61105260679E+03  0.13255526024E+04  0.46999998093E+01 0.  1.
       -5    1    3    3    0  502  0.37850441491E+03 -0.11137399748E+04  0.71733655009E+03  0.13777794234E+04  0.46999998093E+01 0. -1.
</event>
<event>
 5   0  0.1971600E-07  0.2699681E+04  0.7818609E-02  0.8335108E-01
        1   -1    0    0  501    0  0.00000000000E+00  0.00000000000E+00  0.18275666886E+04  0.18275666886E+04  0.50400001928E-02 0. -1.
       -1   -1    0    0    0  501  0.00000000000E+00  0.00000000000E+00 -0.99699236564E+03  0.99699236565E+03  0.50400001928E-02 0.  1.
    10030    2    1    2    0    0  0.00000000000E+00  0.00000000000E+00  0.83057432293E+03  0.28245590542E+04  0.26996814895E+04 0.  0.
        5    1    3    3  502    0  0.11751419848E+04  0.16408058891E+03  0.10886137792E+04  0.16102742544E+04  0.46999998093E+01 0.  1.
       -5    1    3    3    0  502 -0.11751419848E+04 -0.16408058891E+03 -0.25803945625E+03  0.12142847998E+04  0.46999998093E+01 0. -1.
</event>
<event>
 5   0  0.4843887E-07  0.2699562E+04  0.7818609E-02  0.8335147E-01
       -2   -1    0    0    0  501  0.00000000000E+00  0.00000000000E+00  0.86937891031E+03  0.86937891031E+03  0.25500000920E-02 0. -1.
        2   -1    0    0  501    0  0.00000000000E+00  0.00000000000E+00 -0.20956434575E+04  0.20956434575E+04  0.25500000920E-02 0.  1.
    10030    2    1    2    0    0  0.00000000000E+00  0.00000000000E+00 -0.12262645472E+04  0.29650223678E+04  0.26995616129E+04 0.  0.
        5    1    3    3  502    0  0.10695089679E+04 -0.68392266072E+03 -0.10946883800E+03  0.12742076576E+04  0.46999998093E+01 0. -1.
       -5    1    3    3    0  502 -0.10695089679E+04  0.68392266072E+03 -0.11167957092E+04  0.16908147102E+04  0.46999998093E+01 0.  1.
</event>
<event>
 5   0  0.1888149E-07  0.2699373E+04  0.7818609E-02  0.8335208E-01
        1   -1    0    0  501    0  0.00000000000E+00  0.00000000000E+00  0.22268272060E+04  0.22268272060E+04  0.50400001928E-02 0. -1.
       -1   -1    0    0    0  501  0.00000000000E+00  0.00000000000E+00 -0.81804883946E+03  0.81804883948E+03  0.50400001928E-02 0.  1.
    10030    2    1    2    0    0  0.00000000000E+00  0.00000000000E+00  0.14087783666E+04  0.30448760455E+04  0.26993728246E+04 0.  0.
        1    1    3    3  502    0 -0.40648613333E+03 -0.12801000652E+04  0.85473963187E+03  0.15920009397E+04  0.50400001928E-02 0.  1.
       -1    1    3    3    0  502  0.40648613333E+03  0.12801000652E+04  0.55403873471E+03  0.14528751058E+04  0.50400001928E-02 0. -1.
</event>
<event>
 5   0  0.1965415E-07  0.2701904E+04  0.7818609E-02  0.8334388E-01
       -1   -1    0    0    0  501  0.00000000000E+00  0.00000000000E+00  0.87690417073E+03  0.87690417074E+03  0.50400001928E-02 0.  1.
        1   -1    0    0  501    0  0.00000000000E+00  0.00000000000E+00 -0.20812657934E+04  0.20812657934E+04  0.50400001928E-02 0. -1.
    10030    2    1    2    0    0  0.00000000000E+00  0.00000000000E+00 -0.12043616226E+04  0.29581699641E+04  0.27019035176E+04 0.  0.
        4    1    3    3  502    0  0.80957495464E+03 -0.57456588447E+03  0.40098282011E+03  0.10706663335E+04  0.12699999809E+01 0.  1.
       -4    1    3    3    0  502 -0.80957495464E+03  0.57456588447E+03 -0.16053444428E+04  0.18875036306E+04  0.12699999809E+01 0. -1.
</event>
<event>
 5   0  0.1971600E-07  0.2696483E+04  0.7818609E-02  0.8336147E-01
       -1   -1    0    0    0  501  0.00000000000E+00  0.00000000000E+00  0.10101335035E+04  0.10101335035E+04  0.50400001928E-02 0. -1.
        1   -1    0    0  501    0  0.00000000000E+00  0.00000000000E+00 -0.17995198494E+04  0.17995198494E+04  0.50400001928E-02 0.  1.
    10030    2    1    2    0    0  0.00000000000E+00  0.00000000000E+00 -0.78938634583E+03  0.28096533529E+04  0.26964831096E+04 0.  0.
        5    1    3    3  502    0 -0.62579203414E+03 -0.21794444825E+03 -0.16181170986E+04  0.17485538274E+04  0.46999998093E+01 0.  1.
       -5    1    3    3    0  502  0.62579203414E+03  0.21794444825E+03  0.82873075276E+03  0.10610995255E+04  0.46999998093E+01 0. -1.
</event>
<event>
 5   0  0.1965415E-07  0.2699016E+04  0.7818609E-02  0.8335324E-01
        1   -1    0    0  501    0  0.00000000000E+00  0.00000000000E+00  0.10682181257E+04  0.10682181257E+04  0.50400001928E-02 0. -1.
       -1   -1    0    0    0  501  0.00000000000E+00  0.00000000000E+00 -0.17048692914E+04  0.17048692914E+04  0.50400001928E-02 0.  1.
    10030    2    1    2    0    0  0.00000000000E+00  0.00000000000E+00 -0.63665116563E+03  0.27730874171E+04  0.26990163238E+04 0.  0.
        4    1    3    3  502    0 -0.25823821096E+03 -0.98374628046E+03 -0.12296438219E+04  0.15957660416E+04  0.12699999809E+01 0.  1.
       -4    1    3    3    0  502  0.25823821096E+03  0.98374628046E+03  0.59299265627E+03  0.11773213755E+04  0.12699999809E+01 0. -1.
</event>
<event>
 5   0  0.1965415E-07  0.2699780E+04  0.7818609E-02  0.8335076E-01
       -1   -1    0    0    0  501  0.00000000000E+00  0.00000000000E+00  0.76962033761E+03  0.76962033762E+03  0.50400001928E-02 0. -1.
        1   -1    0    0  501    0  0.00000000000E+00  0.00000000000E+00 -0.23676643051E+04  0.23676643051E+04  0.50400001928E-02 0.  1.
    10030    2    1    2    0    0  0.00000000000E+00  0.00000000000E+00 -0.15980439675E+04  0.31372846427E+04  0.26997796961E+04 0.  0.
        4    1    3    3  502    0  0.26023797804E+03  0.28144500105E+03  0.70504601240E+03  0.80251267051E+03  0.12699999809E+01 0. -1.
       -4    1    3    3    0  502 -0.26023797804E+03 -0.28144500105E+03 -0.23030899799E+04  0.23347719722E+04  0.12699999809E+01 0.  1.
</event>
<event>
 5   0  0.1965415E-07  0.2701580E+04  0.7818609E-02  0.8334493E-01
        1   -1    0    0  501    0  0.00000000000E+00  0.00000000000E+00  0.14583442473E+04  0.14583442473E+04  0.50400001928E-02 0. -1.
       -1   -1    0    0    0  501  0.00000000000E+00  0.00000000000E+00 -0.12511675930E+04  0.12511675930E+04  0.50400001928E-02 0.  1.
    10030    2    1    2    0    0  0.00000000000E+00  0.00000000000E+00  0.20717665429E+03  0.27095118403E+04  0.27015795836E+04 0.  0.
        4    1    3    3  502    0  0.27597873679E+03 -0.79725191201E+03  0.11616059108E+04  0.14356548260E+04  0.12699999809E+01 0. -1.
       -4    1    3    3    0  502 -0.27597873679E+03  0.79725191201E+03 -0.95442925654E+03  0.12738570143E+04  0.12699999809E+01 0.  1.
</event>
<event>
 5   0  0.1937896E-07  0.2701409E+04  0.7818609E-02  0.8334548E-01
       -1   -1    0    0    0  501  0.00000000000E+00  0.00000000000E+00  0.14572728709E+04  0.14572728709E+04  0.50400001928E-02 0. -1.
        1   -1    0    0  501    0  0.00000000000E+00  0.00000000000E+00 -0.12519288949E+04  0.12519288949E+04  0.50400001928E-02 0.  1.
    10030    2    1    2    0    0  0.00000000000E+00  0.00000000000E+00  0.20534397606E+03  0.27092017658E+04  0.27014085325E+04 0.  0.
        3    1    3    3  502    0 -0.10083065745E+04  0.29732185470E+03 -0.74790185109E+03  0.12901316299E+04  0.10100000352E+00 0.  1.
       -3    1    3    3    0  502  0.10083065745E+04 -0.29732185470E+03  0.95324582715E+03  0.14190701359E+04  0.10100000352E+00 0. -1.
</event>
<event>
 5   0  0.4735120E-07  0.2701063E+04  0.7818609E-02  0.8334660E-01
        2   -1    0    0  501    0  0.00000000000E+00  0.00000000000E+00  0.13301772850E+04  0.13301772850E+04  0.25500000920E-02 0.  1.
       -2   -1    0    0    0  501  0.00000000000E+00  0.00000000000E+00 -0.13711974120E+04  0.13711974120E+04  0.25500000920E-02 0. -1.
    10030    2    1    2    0    0  0.00000000000E+00  0.00000000000E+00 -0.41020126980E+02  0.27013746971E+04  0.27010632357E+04 0.  0.
        2    1    3    3  502    0 -0.71551304642E+03 -0.20586861373E+03  0.11063828585E+04  0.13335755829E+04  0.25500000920E-02 0.  1.
       -2    1    3    3    0  502  0.71551304642E+03  0.20586861373E+03 -0.11474029854E+04  0.13677991142E+04  0.25500000920E-02 0. -1.
</event>
<event>
 5   0  0.1888149E-07  0.2702275E+04  0.7818609E-02  0.8334267E-01
       -1   -1    0    0    0  501  0.00000000000E+00  0.00000000000E+00  0.15154249196E+04  0.15154249196E+04  0.50400001928E-02 0.  1.
        1   -1    0    0  501    0  0.00000000000E+00  0.00000000000E+00 -0.12046603083E+04  0.12046603083E+04  0.50400001928E-02 0. -1.
    10030    2    1    2    0    0  0.00000000000E+00  0.00000000000E+00  0.31076461134E+03  0.27200852280E+04  0.27022747832E+04 0.  0.
        1    1    3    3  502    0 -0.81244032746E+03  0.94850361551E+03 -0.36362621252E+03  0.13007468688E+04  0.50400001928E-02 0. -1.
       -1    1    3    3    0  502  0.81244032746E+03 -0.94850361551E+03  0.67439082386E+03  0.14193383591E+04  0.50400001928E-02 0.  1.
</event>
<event>
 5   0  0.1888149E-07  0.2699839E+04  0.7818609E-02  0.8335057E-01
       -1   -1    0    0    0  501  0.00000000000E+00  0.00000000000E+00  0.99641491237E+03  0.99641491238E+03  0.50400001928E-02 0. -1.
        1   -1    0    0  501    0  0.00000000000E+00  0.00000000000E+00 -0.18288397808E+04  0.18288397808E+04  0.50400001928E-02 0.  1.
    10030    2    1    2    0    0  0.00000000000E+00  0.00000000000E+00 -0.83242486847E+03  0.28252546932E+04  0.26998394248E+04 0.  0.
        1    1    3    3  502    0 -0.66052875451E+01  0.11645703136E+04 -0.11305769774E+04  0.16231056487E+04  0.50400001928E-02 0.  1.
       -1    1    3    3    0  502  0.66052875451E+01 -0.11645703136E+04  0.29815210889E+03  0.12021490445E+04  0.50400001928E-02 0. -1.
</event>
<event>
 5   0  0.4843887E-07  0.2698995E+04  0.7818609E-02  0.8335331E-01
       -2   -1    0    0    0  501  0.00000000000E+00  0.00000000000E+00  0.87633428000E+03  0.87633428000E+03  0.25500000920E-02 0. -1.
        2   -1    0    0  501    0  0.00000000000E+00  0.00000000000E+00 -0.20781371835E+04  0.20781371835E+04  0.25500000920E-02 0.  1.
    10030    2    1    2    0    0  0.00000000000E+00  0.00000000000E+00 -0.12018029035E+04  0.29544714635E+04  0.26989945183E+04 0.  0.
        5    1    3    3  502    0  0.50040471142E+03 -0.66565770751E+03 -0.17633088217E+04  0.19500731138E+04  0.46999998093E+01 0.  1.
       -5    1    3    3    0  502 -0.50040471142E+03  0.66565770751E+03  0.56150591812E+03  0.10043983497E+04  0.46999998093E+01 0. -1.
</event>
<event>
 5   0  0.1641625E-07  0.2700297E+04  0.7818609E-02  0.8334909E-01
       -4   -1    0    0    0  501  0.00000000000E+00  0.00000000000E+00  0.15036424487E+04  0.15036429850E+04  0.12699999809E+01 0.  1.
        4   -1    0    0  501    0  0.00000000000E+00  0.00000000000E+00 -0.12123222565E+04  0.12123229217E+04  0.12699999809E+01 0. -1.
    10030    2    1    2    0    0  0.00000000000E+00  0.00000000000E+00  0.29132019217E+03  0.27159659067E+04  0.27002969007E+04 0.  0.
        5    1    3    3  502    0 -0.62341397475E+03 -0.11012260079E+04 -0.32774618255E+03  0.13072044043E+04  0.46999998093E+01 0.  1.
       -5    1    3    3    0  502  0.62341397475E+03  0.11012260079E+04  0.61906637472E+03  0.14087615024E+04  0.46999998093E+01 0. -1.
</event>
<event>
 5   0  0.1937896E-07  0.2699017E+04  0.7818609E-02  0.8335324E-01
        1   -1    0    0  501    0  0.00000000000E+00  0.00000000000E+00  0.13840300951E+04  0.13840300951E+04  0.50400001928E-02 0.  1.
       -1   -1    0    0    0  501  0.00000000000E+00  0.00000000000E+00 -0.13158483017E+04  0.13158483017E+04  0.50400001928E-02 0. -1.
    10030    2    1    2    0    0  0.00000000000E+00  0.00000000000E+00  0.68181793395E+02  0.26998783969E+04  0.26990173399E+04 0.  0.
        3    1    3    3  502    0  0.12025078209E+04 -0.47116985091E+03  0.42555645571E+03  0.13598251340E+04  0.10100000352E+00 0. -1.
       -3    1    3    3    0  502 -0.12025078209E+04  0.47116985091E+03 -0.35737466231E+03  0.13400532629E+04  0.10100000352E+00 0.  1.
</event>
<event>
 5   0  0.1965415E-07  0.2696943E+04  0.7818609E-02  0.8335997E-01
        1   -1    0    0  501    0  0.00000000000E+00  0.00000000000E+00  0.14007287741E+04  0.14007287741E+04  0.50400001928E-02 0. -1.
       -1   -1    0    0    0  501  0.00000000000E+00  0.00000000000E+00 -0.12981641841E+04  0.12981641841E+04  0.50400001928E-02 0.  1.
    10030    2    1    2    0    0  0.00000000000E+00  0.00000000000E+00  0.10256458997E+03  0.26988929582E+04  0.26969434004E+04 0.  0.
        4    1    3    3  502    0  0.98608547063E+03  0.37918521216E+03 -0.78731412101E+03  0.13175777467E+04  0.12699999809E+01 0. -1.
       -4    1    3    3    0  502 -0.98608547063E+03 -0.37918521216E+03  0.88987871098E+03  0.13813152116E+04  0.12699999809E+01 0.  1.
</event>
<event>
 5   0  0.1965415E-07  0.2704299E+04  0.7818609E-02  0.8333611E-01
       -1   -1    0    0    0  501  0.00000000000E+00  0.00000000000E+00  0.13133001367E+04  0.13133001367E+04  0.50400001928E-02 0.  1.
        1   -1    0    0  501    0  0.00000000000E+00  0.00000000000E+00 -0.13921479853E+04  0.13921479853E+04  0.50400001928E-02 0. -1.
    10030    2    1    2    0    0  0.00000000000E+00  0.00000000000E+00 -0.78847848543E+02  0.27054481220E+04  0.27042989032E+04 0.  0.
        4    1    3    3  502    0  0.10316456074E+04 -0.26827126436E+03  0.79282165450E+03  0.13284690133E+04  0.12699999809E+01 0.  1.
       -4    1    3    3    0  502 -0.10316456074E+04  0.26827126436E+03 -0.87166950305E+03  0.13769791087E+04  0.12699999809E+01 0. -1.
</event>
<event>
 5   0  0.4983208E-07  0.2699365E+04  0.7818609E-02  0.8335211E-01
        2   -1    0    0  501    0  0.00000000000E+00  0.00000000000E+00  0.22582791730E+04  0.22582791730E+04  0.25500000920E-02 0. -1.
       -2   -1    0    0    0  501  0.00000000000E+00  0.00000000000E+00 -0.80665105791E+03  0.80665105792E+03  0.25500000920E-02 0.  1.
    10030    2    1    2    0    0  0.00000000000E+00  0.00000000000E+00  0.14516281151E+04  0.30649302309E+04  0.26993653210E+04 0.  0.
        4    1    3    3  502    0 -0.11871519711E+04  0.28708423764E+03  0.13779625163E+04  0.18413390430E+04  0.12699999809E+01 0. -1.
       -4    1    3    3    0  502  0.11871519711E+04 -0.28708423764E+03  0.73665598767E+02  0.12235911880E+04  0.12699999809E+01 0.  1.
</event>
<event>
 5   0  0.1937896E-07  0.2697597E+04  0.7818609E-02  0.8335785E-01
       -1   -1    0    0    0  501  0.00000000000E+00  0.00000000000E+00  0.19487141707E+04  0.19487141707E+04  0.50400001928E-02 0. -1.
        1   -1    0    0  501    0  0.00000000000E+00  0.00000000000E+00 -0.93356796055E+03  0.93356796057E+03  0.50400001928E-02 0.  1.
    10030    2    1    2    0    0  0.00000000000E+00  0.00000000000E+00  0.10151462102E+04  0.28822821313E+04  0.26975967928E+04 0.  0.
        3    1    3    3  502    0  0.73405389851E+03  0.20417784167E+02  0.17164033052E+04  0.18668937645E+04  0.10100000352E+00 0. -1.
       -3    1    3    3    0  502 -0.73405389851E+03 -0.20417784167E+02 -0.70125709501E+03  0.10153883668E+04  0.10100000352E+00 0.  1.
</event>
<event>
 5   0  0.4735120E-07  0.2699390E+04  0.7818609E-02  0.8335203E-01
       -2   -1    0    0    0  501  0.00000000000E+00  0.00000000000E+00  0.10613098462E+04  0.10613098462E+04  0.25500000920E-02 0. -1.
        2   -1    0    0  501    0  0.00000000000E+00  0.00000000000E+00 -0.17164420375E+04  0.17164420375E+04  0.25500000920E-02 0.  1.
    10030    2    1    2    0    0  0.00000000000E+00  0.00000000000E+00 -0.65513219138E+03  0.27777518837E+04  0.26993901791E+04 0.  0.
        2    1    3    3  502    0 -0.55070497168E+02 -0.77773889071E+03 -0.14612587264E+04  0.16562571079E+04  0.25500000920E-02 0.  1.
       -2    1    3    3    0  502  0.55070497168E+02  0.77773889071E+03  0.80612653503E+03  0.11214947759E+04  0.25500000920E-02 0. -1.
</event>
<event>
 5   0  0.4843887E-07  0.2699882E+04  0.7818609E-02  0.8335043E-01
       -2   -1    0    0    0  501  0.00000000000E+00  0.00000000000E+00  0.86588770846E+03  0.86588770847E+03  0.25500000920E-02 0. -1.
        2   -1    0    0  501    0  0.00000000000E+00  0.00000000000E+00 -0.21045918683E+04  0.21045918683E+04  0.25500000920E-02 0.  1.
    10030    2    1    2    0    0  0.00000000000E+00  0.00000000000E+00 -0.12387041598E+04  0.29704795768E+04  0.26998816493E+04 0.  0.
        5    1    3    3  502    0  0.18843615963E+03  0.80186356077E+03 -0.17960408125E+04  0.19759246055E+04  0.46999998093E+01 0.  1.
       -5    1    3    3    0  502 -0.18843615963E+03 -0.80186356077E+03  0.55733665272E+03  0.99455497124E+03  0.46999998093E+01 0. -1.
</event>
<event>
 5   0  0.5043890E-07  0.2700189E+04  0.7818609E-02  0.8334944E-01
       -2   -1    0    0    0  501  0.00000000000E+00  0.00000000000E+00  0.12946561076E+04  0.12946561076E+04  0.25500000920E-02 0.  1.
        2   -1    0    0  501    0  0.00000000000E+00  0.00000000000E+00 -0.14079072189E+04  0.14079072189E+04  0.25500000920E-02 0. -1.
    10030    2    1    2    0    0  0.00000000000E+00  0.00000000000E+00 -0.11325111128E+03  0.27025633265E+04  0.27001893858E+04 0.  0.
        3    1    3    3  502    0  0.18901450011E+03  0.71350044968E+03 -0.11880822994E+04  0.13986954398E+04  0.10100000352E+00 0. -1.
       -3    1    3    3    0  502 -0.18901450011E+03 -0.71350044968E+03  0.10748311881E+04  0.13038678867E+04  0.10100000352E+00 0.  1.
</event>
<event>
 5   0  0.1964242E-07  0.2701070E+04  0.7818609E-02  0.8334658E-01
       -1   -1    0    0    0  501  0.00000000000E+00  0.00000000000E+00  0.74566976473E+03  0.74566976475E+03  0.50400001928E-02 0.  1.
        1   -1    0    0  501    0  0.00000000000E+00  0.00000000000E+00 -0.24460494550E+04  0.24460494550E+04  0.50400001928E-02 0. -1.
    10030    2    1    2    0    0  0.00000000000E+00  0.00000000000E+00 -0.17003796903E+04  0.31917192197E+04  0.27010702484E+04 0.  0.
        2    1    3    3  502    0 -0.11794805732E+04  0.48680397077E+03 -0.32732802711E+03  0.13173064055E+04  0.25500000920E-02 0.  1.
       -2    1    3    3    0  502  0.11794805732E+04 -0.48680397077E+03 -0.13730516631E+04  0.18744128143E+04  0.25500000920E-02 0. -1.
</event>
<event>
 5   0  0.5043890E-07  0.2701936E+04  0.7818609E-02  0.8334377E-01
       -2   -1    0    0    0  501  0.00000000000E+00  0.00000000000E+00  0.10938827289E+04  0.10938827289E+04  0.25500000920E-02 0. -1.
        2   -1    0    0  501    0  0.00000000000E+00  0.00000000000E+00 -0.16684741905E+04  0.16684741905E+04  0.25500000920E-02 0.  1.
    10030    2    1    2    0    0  0.00000000000E+00  0.00000000000E+00 -0.57459146160E+03  0.27623569195E+04  0.27019364172E+04 0.  0.
        3    1    3    3  502    0 -0.10806607280E+04  0.15501239186E+03  0.52627483782E+03  0.12119495310E+04  0.10100000352E+00 0. -1.
       -3    1    3    3    0  502  0.10806607280E+04 -0.15501239186E+03 -0.11008662994E+04  0.15504073884E+04  0.10100000352E+00 0.  1.
</event>
<event>
 5   0  0.1971600E-07  0.2701418E+04  0.7818609E-02  0.8334545E-01
        1   -1    0    0  501    0  0.00000000000E+00  0.00000000000E+00  0.11025469506E+04  0.11025469506E+04  0.50400001928E-02 0. -1.
       -1   -1    0    0    0  501  0.00000000000E+00  0.00000000000E+00 -0.16547275805E+04  0.16547275805E+04  0.50400001928E-02 0.  1.
    10030    2    1    2    0    0  0.00000000000E+00  0.00000000000E+00 -0.55218062990E+03  0.27572745311E+04  0.27014180336E+04 0.  0.
        5    1    3    3  502    0  0.68767613441E+03  0.31266951591E+03 -0.14189438643E+04  0.16075087782E+04  0.46999998093E+01 0.  1.
       -5    1    3    3    0  502 -0.68767613441E+03 -0.31266951591E+03  0.86676323442E+03  0.11497657529E+04  0.46999998093E+01 0. -1.
</event>
<event>
 5   0  0.1937896E-07  0.2700152E+04  0.7818609E-02  0.8334956E-01
       -1   -1    0    0    0  501  0.00000000000E+00  0.00000000000E+00  0.10202449631E+04  0.10202449631E+04  0.50400001928E-02 0. -1.
        1   -1    0    0  501    0  0.00000000000E+00  0.00000000000E+00 -0.17865361907E+04  0.17865361907E+04  0.50400001928E-02 0.  1.
    10030    2    1    2    0    0  0.00000000000E+00  0.00000000000E+00 -0.76629122766E+03  0.28067811538E+04  0.27001515142E+04 0.  0.
        3    1    3    3  502    0  0.11924301949E+04  0.96707604269E+02 -0.10335230259E+04  0.15809528727E+04  0.10100000352E+00 0.  1.
       -3    1    3    3    0  502 -0.11924301949E+04 -0.96707604269E+02  0.26723179826E+03  0.12258282811E+04  0.10100000352E+00 0. -1.
</event>
<event>
 5   0  0.1888149E-07  0.2703337E+04  0.7818609E-02  0.8333923E-01
       -1   -1    0    0    0  501  0.00000000000E+00  0.00000000000E+00  0.10187984086E+04  0.10187984086E+04  0.50400001928E-02 0. -1.
        1   -1    0    0  501    0  0.00000000000E+00  0.00000000000E+00 -0.17932960465E+04  0.17932960465E+04  0.50400001928E-02 0.  1.
    10030    2    1    2    0    0  0.00000000000E+00  0.00000000000E+00 -0.77449763792E+03  0.28120944551E+04  0.27033365741E+04 0.  0.
        1    1    3    3  502    0 -0.85356807367E+03 -0.90943078364E+03  0.15463499821E+03  0.12568034012E+04  0.50400001928E-02 0. -1.
       -1    1    3    3    0  502  0.85356807367E+03  0.90943078364E+03 -0.92913263613E+03  0.15552910538E+04  0.50400001928E-02 0.  1.
</event>
<event>
 5   0  0.4983208E-07  0.2699566E+04  0.7818609E-02  0.8335146E-01
       -2   -1    0    0    0  501  0.00000000000E+00  0.00000000000E+00  0.14642217403E+04  0.14642217403E+04  0.25500000920E-02 0. -1.
        2   -1    0    0  501    0  0.00000000000E+00  0.00000000000E+00 -0.12442879893E+04  0.12442879893E+04  0.25500000920E-02 0.  1.
    10030    2    1    2    0    0  0.00000000000E+00  0.00000000000E+00  0.21993375095E+03  0.27085097297E+04  0.26995655393E+04 0.  0.
        4    1    3    3  502    0 -0.40043413348E+03 -0.84333107351E+03  0.10880594013E+04  0.14336769749E+04  0.12699999809E+01 0. -1.
       -4    1    3    3    0  502  0.40043413348E+03  0.84333107351E+03 -0.86812565035E+03  0.12748327547E+04  0.12699999809E+01 0.  1.
</event>
<event>
 5   0  0.1965415E-07  0.2700726E+04  0.7818609E-02  0.8334769E-01
       -1   -1    0    0    0  501  0.00000000000E+00  0.00000000000E+00  0.70218263471E+03  0.70218263472E+03  0.50400001928E-02 0. -1.
        1   -1    0    0  501    0  0.00000000000E+00  0.00000000000E+00 -0.25968749407E+04  0.25968749407E+04  0.50400001928E-02 0.  1.
    10030    2    1    2    0    0  0.00000000000E+00  0.00000000000E+00 -0.18946923060E+04  0.32990575754E+04  0.27007261897E+04 0.  0.
        4    1    3    3  502    0  0.11825531615E+04 -0.56397065989E+03 -0.13468939446E+04  0.18789943576E+04  0.12699999809E+01 0. -1.
       -4    1    3    3    0  502 -0.11825531615E+04  0.56397065989E+03 -0.54779836139E+03  0.14200632178E+04  0.12699999809E+01 0.  1.
</event>
<event>
 5   0  0.1641625E-07  0.2700054E+04  0.7818609E-02  0.8334988E-01
       -4   -1    0    0    0  501  0.00000000000E+00  0.00000000000E+00  0.10578680312E+04  0.10578687936E+04  0.12699999809E+01 0.  1.
        4   -1    0    0  501    0  0.00000000000E+00  0.00000000000E+00 -0.17228714055E+04  0.17228718736E+04  0.12699999809E+01 0. -1.
    10030    2    1    2    0    0  0.00000000000E+00  0.00000000000E+00 -0.66500337429E+03  0.27807406672E+04  0.27000535495E+04 0.  0.
        2    1    3    3  502    0  0.30287942434E+03 -0.24045938153E+03  0.99960224515E+03  0.10718028309E+04  0.25500000920E-02 0.  1.
       -2    1    3    3    0  502 -0.30287942434E+03  0.24045938153E+03 -0.16646056194E+04  0.17089378362E+04  0.25500000920E-02 0. -1.
</event>
<event>
 5   0  0.1937896E-07  0.2699841E+04  0.7818609E-02  0.8335056E-01
        1   -1    0    0  501    0  0.00000000000E+00  0.00000000000E+00  0.16219295750E+04  0.16219295750E+04  0.50400001928E-02 0. -1.
       -1   -1    0    0    0  501  0.00000000000E+00  0.00000000000E+00 -0.11235294301E+04  0.11235294301E+04  0.50400001928E-02 0.  1.
    10030    2    1    2    0    0  0.00000000000E+00  0.00000000000E+00  0.49840014486E+03  0.27454590051E+04  0.26998411887E+04 0.  0.
        3    1    3    3  502    0 -0.10390638697E+03 -0.10445641284E+04  0.11122899322E+04  0.15294115402E+04  0.10100000352E+00 0. -1.
       -3    1    3    3    0  502  0.10390638697E+03  0.10445641284E+04 -0.61388978738E+03  0.12160474649E+04  0.10100000352E+00 0.  1.
</event>
<event>
 5   0  0.4735120E-07  0.2700158E+04  0.7818609E-02  0.8334954E-01
        2   -1    0    0  501    0  0.00000000000E+00  0.00000000000E+00  0.22325285450E+04  0.22325285450E+04  0.25500000920E-02 0. -1.
       -2   -1    0    0    0  501  0.00000000000E+00  0.00000000000E+00 -0.81643422971E+03  0.81643422972E+03  0.25500000920E-02 0.  1.
    10030    2    1    2    0    0  0.00000000000E+00  0.00000000000E+00  0.14160943153E+04  0.30489627747E+04  0.27001575680E+04 0.  0.
        2    1    3    3  502    0  0.41446866421E+03 -0.16849243544E+03  0.21463838263E+04  0.21925185300E+04  0.25500000920E-02 0. -1.
       -2    1    3    3    0  502 -0.41446866421E+03  0.16849243544E+03 -0.73028951103E+03  0.85644424474E+03  0.25500000920E-02 0.  1.
</event>
<event>
 5   0  0.4983208E-07  0.2700515E+04  0.7818609E-02  0.8334838E-01
       -2   -1    0    0    0  501  0.00000000000E+00  0.00000000000E+00  0.17633384489E+04  0.17633384489E+04  0.25500000920E-02 0.  1.
        2   -1    0    0  501    0  0.00000000000E+00  0.00000000000E+00 -0.10339448998E+04  0.10339448998E+04  0.25500000920E-02 0. -1.
    10030    2    1    2    0    0  0.00000000000E+00  0.00000000000E+00  0.72939354911E+03  0.27972833488E+04  0.27005146146E+04 0.  0.
        4    1    3    3  502    0  0.45457963443E+03  0.11065541662E+04  0.10133042267E+04  0.15677665118E+04  0.12699999809E+01 0.  1.
       -4    1    3    3    0  502 -0.45457963443E+03 -0.11065541662E+04 -0.28391067759E+03  0.12295168370E+04  0.12699999809E+01 0. -1.
</event>
<event>
 5   0  0.4735120E-07  0.2699697E+04  0.7818609E-02  0.8335103E-01
        2   -1    0    0  501    0  0.00000000000E+00  0.00000000000E+00  0.17223535696E+04  0.17223535696E+04  0.25500000920E-02 0.  1.
       -2   -1    0    0    0  501  0.00000000000E+00  0.00000000000E+00 -0.10579073636E+04  0.10579073636E+04  0.25500000920E-02 0. -1.
    10030    2    1    2    0    0  0.00000000000E+00  0.00000000000E+00  0.66444620601E+03  0.27802609331E+04  0.26996966673E+04 0.  0.
        2    1    3    3  502    0  0.14426627141E+03 -0.91209679505E+03  0.13461636900E+04  0.16324490807E+04  0.25500000920E-02 0.  1.
       -2    1    3    3    0  502 -0.14426627141E+03  0.91209679505E+03 -0.68171748404E+03  0.11478118525E+04  0.25500000920E-02 0. -1.
</event>
<event>
 5   0  0.1965415E-07  0.2704222E+04  0.7818609E-02  0.8333636E-01
        1   -1    0    0  501    0  0.00000000000E+00  0.00000000000E+00  0.28435741852E+04  0.28435741852E+04  0.50400001928E-02 0. -1.
       -1   -1    0    0    0  501  0.00000000000E+00  0.00000000000E+00 -0.64292459318E+03  0.64292459320E+03  0.50400001928E-02 0.  1.
    10030    2    1    2    0    0  0.00000000000E+00  0.00000000000E+00  0.22006495920E+04  0.34864987784E+04  0.27042217189E+04 0.  0.
        4    1    3    3  502    0 -0.70563164066E+03 -0.65579507601E+03  0.23235919114E+04  0.25153656151E+04  0.12699999809E+01 0. -1.
       -4    1    3    3    0  502  0.70563164066E+03  0.65579507601E+03 -0.12294231939E+03  0.97113316328E+03  0.12699999809E+01 0.  1.
</event>
<event>
 5   0  0.4843887E-07  0.2700183E+04  0.7818609E-02  0.8334946E-01
       -2   -1    0    0    0  501  0.00000000000E+00  0.00000000000E+00  0.11424783165E+04  0.11424783165E+04  0.25500000920E-02 0.  1.
        2   -1    0    0  501    0  0.00000000000E+00  0.00000000000E+00 -0.15954328388E+04  0.15954328388E+04  0.25500000920E-02 0. -1.
    10030    2    1    2    0    0  0.00000000000E+00  0.00000000000E+00 -0.45295452229E+03  0.27379111554E+04  0.27001832707E+04 0.  0.
        5    1    3    3  502    0  0.89589963502E+03 -0.56700916084E+03 -0.10739724197E+04  0.15091634745E+04  0.46999998093E+01 0. -1.
       -5    1    3    3    0  502 -0.89589963502E+03  0.56700916084E+03  0.62101789736E+03  0.12287476809E+04  0.46999998093E+01 0.  1.
</event>
<event>
 5   0  0.1964242E-07  0.2700015E+04  0.7818609E-02  0.8335000E-01
       -1   -1    0    0    0  501  0.00000000000E+00  0.00000000000E+00  0.10664489543E+04  0.10664489544E+04  0.50400001928E-02 0.  1.
        1   -1    0    0  501    0  0.00000000000E+00  0.00000000000E+00 -0.17089618314E+04  0.17089618314E+04  0.50400001928E-02 0. -1.
    10030    2    1    2    0    0  0.00000000000E+00  0.00000000000E+00 -0.64251287701E+03  0.27754107857E+04  0.27000152282E+04 0.  0.
        2    1    3    3  502    0  0.11078730828E+04 -0.10892504540E+03  0.46379306130E+03  0.12059649401E+04  0.25500000920E-02 0.  1.
       -2    1    3    3    0  502 -0.11078730828E+04  0.10892504540E+03 -0.11063059383E+04  0.15694458456E+04  0.25500000920E-02 0. -1.
</event>
<event>
 5   0  0.1888149E-07  0.2699267E+04  0.7818609E-02  0.8335243E-01
       -1   -1    0    0    0  501  0.00000000000E+00  0.00000000000E+00  0.11334013514E+04  0.11334013514E+04  0.50400001928E-02 0. -1.
        1   -1    0    0  501    0  0.00000000000E+00  0.00000000000E+00 -0.16071192941E+04  0.16071192941E+04  0.50400001928E-02 0.  1.
    10030    2    1    2    0    0  0.00000000000E+00  0.00000000000E+00 -0.47371794274E+03  0.27405206456E+04  0.26992674413E+04 0.  0.
        1    1    3    3  502    0 -0.19854247381E+03 -0.11764594487E+04 -0.87740142527E+03  0.14809825149E+04  0.50400001928E-02 0.  1.
       -1    1    3    3    0  502  0.19854247381E+03  0.11764594487E+04  0.40368348253E+03  0.12595381306E+04  0.50400001928E-02 0. -1.
</event>
<event>
 5   0  0.1971600E-07  0.2700156E+04  0.7818609E-02  0.8334954E-01
       -1   -1    0    0    0  501  0.00000000000E+00  0.00000000000E+00  0.14193705160E+04  0.14193705160E+04  0.50400001928E-02 0.  1.
        1   -1    0    0  501    0  0.00000000000E+00  0.00000000000E+00 -0.12841684694E+04  0.12841684694E+04  0.50400001928E-02 0. -1.
    10030    2    1    2    0    0  0.00000000000E+00  0.00000000000E+00  0.13520204652E+03  0.27035389854E+04  0.27001561903E+04 0.  0.
        5    1    3    3  502    0 -0.28192821263E+03  0.31398180052E+03  0.13516353202E+04  0.14159831274E+04  0.46999998093E+01 0.  1.
       -5    1    3    3    0  502  0.28192821263E+03 -0.31398180052E+03 -0.12164332737E+04  0.12875558580E+04  0.46999998093E+01 0. -1.
</event>
<event>
 5   0  0.1965415E-07  0.2692832E+04  0.7818609E-02  0.8337335E-01
       -1   -1    0    0    0  501  0.00000000000E+00  0.00000000000E+00  0.11858659932E+04  0.11858659932E+04  0.50400001928E-02 0. -1.
        1   -1    0    0  501    0  0.00000000000E+00  0.00000000000E+00 -0.15287020860E+04  0.15287020860E+04  0.50400001928E-02 0.  1.
    10030    2    1    2    0    0  0.00000000000E+00  0.00000000000E+00 -0.34283609284E+03  0.27145680793E+04  0.26928318311E+04 0.  0.
        4    1    3    3  502    0  0.11445077440E+04 -0.44305466864E+03 -0.72963760790E+03  0.14277843210E+04  0.12699999809E+01 0.  1.
       -4    1    3    3    0  502 -0.11445077440E+04  0.44305466864E+03  0.38680151506E+03  0.12867837582E+04  0.12699999809E+01 0. -1.
</event>
<event>
 5   0  0.4992668E-07  0.2700153E+04  0.7818609E-02  0.8334955E-01
       -2   -1    0    0    0  501  0.00000000000E+00  0.00000000000E+00  0.83969846179E+03  0.83969846179E+03  0.25500000920E-02 0.  1.
        2   -1    0    0  501    0  0.00000000000E+00  0.00000000000E+00 -0.21706682430E+04  0.21706682430E+04  0.25500000920E-02 0. -1.
    10030    2    1    2    0    0  0.00000000000E+00  0.00000000000E+00 -0.13309697812E+04  0.30103667048E+04  0.27001531695E+04 0.  0.
        1    1    3    3  502    0  0.98430058422E+03 -0.91745164677E+03 -0.54263654100E+03  0.14508685605E+04  0.50400001928E-02 0.  1.
       -1    1    3    3    0  502 -0.98430058422E+03  0.91745164677E+03 -0.78833324018E+03  0.15594981442E+04  0.50400001928E-02 0. -1.
</event>
<event>
 5   0  0.1888149E-07  0.2699309E+04  0.7818609E-02  0.8335229E-01
        1   -1    0    0  501    0  0.00000000000E+00  0.00000000000E+00  0.14182112685E+04  0.14182112686E+04  0.50400001928E-02 0.  1.
       -1   -1    0    0    0  501  0.00000000000E+00  0.00000000000E+00 -0.12844122276E+04  0.12844122276E+04  0.50400001928E-02 0. -1.
    10030    2    1    2    0    0  0.00000000000E+00  0.00000000000E+00  0.13379904099E+03  0.27026234961E+04  0.26993094633E+04 0.  0.
        1    1    3    3  502    0  0.98181625997E+03 -0.37357950402E+03  0.91531409719E+03  0.13933142900E+04  0.50400001928E-02 0.  1.
       -1    1    3    3    0  502 -0.98181625997E+03  0.37357950402E+03 -0.78151505619E+03  0.13093092061E+04  0.50400001928E-02 0. -1.
</event>
<event>
 5   0  0.5043890E-07  0.2693066E+04  0.7818609E-02  0.8337258E-01
       -2   -1    0    0    0  501  0.00000000000E+00  0.00000000000E+00  0.78814215588E+03  0.78814215589E+03  0.25500000920E-02 0.  1.
        2   -1    0    0  501    0  0.00000000000E+00  0.00000000000E+00 -0.23005376786E+04  0.23005376786E+04  0.25500000920E-02 0. -1.
    10030    2    1    2    0    0  0.00000000000E+00  0.00000000000E+00 -0.15123955227E+04  0.30886798345E+04  0.26930657071E+04 0.  0.
        3    1    3    3  502    0  0.63194271469E+03 -0.42304366181E+03  0.51827362190E+03  0.92028533174E+03  0.10100000352E+00 0.  1.
       -3    1    3    3    0  502 -0.63194271469E+03  0.42304366181E+03 -0.20306691446E+04  0.21683945027E+04  0.10100000352E+00 0. -1.
</event>
<event>
 5   0  0.4992668E-07  0.2690381E+04  0.7818609E-02  0.8338133E-01
       -2   -1    0    0    0  501  0.00000000000E+00  0.00000000000E+00  0.67387537646E+03  0.67387537647E+03  0.25500000920E-02 0.  1.
        2   -1    0    0  501    0  0.00000000000E+00  0.00000000000E+00 -0.26852697457E+04  0.26852697457E+04  0.25500000920E-02 0. -1.
    10030    2    1    2    0    0  0.00000000000E+00  0.00000000000E+00 -0.20113943692E+04  0.33591451221E+04  0.26903807617E+04 0.  0.
        1    1    3    3  502    0 -0.13387541586E+04  0.12835349501E+03 -0.97038556285E+03  0.16584286109E+04  0.50400001928E-02 0.  1.
       -1    1    3    3    0  502  0.13387541586E+04 -0.12835349501E+03 -0.10410088064E+04  0.17007165113E+04  0.50400001928E-02 0. -1.
</event>
<event>
 5   0  0.4992668E-07  0.2699254E+04  0.7818609E-02  0.8335247E-01
        2   -1    0    0  501    0  0.00000000000E+00  0.00000000000E+00  0.23789457359E+04  0.23789457359E+04  0.25500000920E-02 0.  1.
       -2   -1    0    0    0  501  0.00000000000E+00  0.00000000000E+00 -0.76567223886E+03  0.76567223886E+03  0.25500000920E-02 0. -1.
    10030    2    1    2    0    0  0.00000000000E+00  0.00000000000E+00  0.16132734970E+04  0.31446179747E+04  0.26992537544E+04 0.  0.
        1    1    3    3  502    0 -0.10051868663E+04  0.43541869711E+03  0.17250659078E+04  0.20434878185E+04  0.50400001928E-02 0.  1.
       -1    1    3    3    0  502  0.10051868663E+04 -0.43541869711E+03 -0.11179241078E+03  0.11011301563E+04  0.50400001928E-02 0. -1.
</event>
<event>
 5   0  0.4843887E-07  0.2698163E+04  0.7818609E-02  0.8335601E-01
       -2   -1    0    0    0  501  0.00000000000E+00  0.00000000000E+00  0.10715588693E+04  0.10715588693E+04  0.25500000920E-02 0. -1.
        2   -1    0    0  501    0  0.00000000000E+00  0.00000000000E+00 -0.16984792658E+04  0.16984792658E+04  0.25500000920E-02 0.  1.
    10030    2    1    2    0    0  0.00000000000E+00  0.00000000000E+00 -0.62692039650E+03  0.27700381351E+04  0.26981627243E+04 0.  0.
        5    1    3    3  502    0 -0.84017160486E+03 -0.83375995418E+03  0.35104902175E+03  0.12346260537E+04  0.46999998093E+01 0. -1.
       -5    1    3    3    0  502  0.84017160486E+03  0.83375995418E+03 -0.97796941825E+03  0.15354120814E+04  0.46999998093E+01 0.  1.
</event>
<event>
 5   0  0.1971600E-07  0.2699816E+04  0.7818609E-02  0.8335065E-01
        1   -1    0    0  501    0  0.00000000000E+00  0.00000000000E+00  0.13135391842E+04  0.13135391842E+04  0.50400001928E-02 0.  1.
       -1   -1    0    0    0  501  0.00000000000E+00  0.00000000000E+00 -0.13872834506E+04  0.13872834506E+04  0.50400001928E-02 0. -1.
    10030    2    1    2    0    0  0.00000000000E+00  0.00000000000E+00 -0.73744266413E+02  0.27008226348E+04  0.26998156767E+04 0.  0.
        5    1    3    3  502    0  0.70660011010E+03  0.11496088723E+04 -0.18684490085E+00  0.13494096487E+04  0.46999998093E+01 0. -1.
       -5    1    3    3    0  502 -0.70660011010E+03 -0.11496088723E+04 -0.73557421513E+02  0.13514129862E+04  0.46999998093E+01 0.  1.
</event>
<event>
 5   0  0.5043890E-07  0.2700591E+04  0.7818609E-02  0.8334813E-01
       -2   -1    0    0    0  501  0.00000000000E+00  0.00000000000E+00  0.16750046784E+04  0.16750046784E+04  0.25500000920E-02 0.  1.
        2   -1    0    0  501    0  0.00000000000E+00  0.00000000000E+00 -0.10885330410E+04  0.10885330410E+04  0.25500000920E-02 0. -1.
    10030    2    1    2    0    0  0.00000000000E+00  0.00000000000E+00  0.58647163738E+03  0.27635377195E+04  0.27005909993E+04 0.  0.
        3    1    3    3  502    0  0.73576197251E+03 -0.19158324398E+03 -0.84868114799E+03  0.11394338597E+04  0.10100000352E+00 0. -1.
       -3    1    3    3    0  502 -0.73576197251E+03  0.19158324398E+03  0.14351527854E+04  0.16241038597E+04  0.10100000352E+00 0.  1.
</event>
<event>
 5   0  0.1964242E-07  0.2700337E+04  0.7818609E-02  0.8334896E-01
        1   -1    0    0  501    0  0.00000000000E+00  0.00000000000E+00  0.17680810409E+04  0.17680810409E+04  0.50400001928E-02 0. -1.
       -1   -1    0    0    0  501  0.00000000000E+00  0.00000000000E+00 -0.10310359196E+04  0.10310359196E+04  0.50400001928E-02 0.  1.
    10030    2    1    2    0    0  0.00000000000E+00  0.00000000000E+00  0.73704512133E+03  0.27991169605E+04  0.27003370619E+04 0.  0.
        2    1    3    3  502    0 -0.52220577499E+03  0.89349503488E+03  0.12673776864E+04  0.16362391173E+04  0.25500000920E-02 0. -1.
       -2    1    3    3    0  502  0.52220577499E+03 -0.89349503488E+03 -0.53033256509E+03  0.11628778433E+04  0.25500000920E-02 0.  1.
</event>
<event>
 5   0  0.1888149E-07  0.2699586E+04  0.7818609E-02  0.8335139E-01
       -1   -1    0    0    0  501  0.00000000000E+00  0.00000000000E+00  0.21244108165E+04  0.21244108165E+04  0.50400001928E-02 0.  1.
        1   -1    0    0  501    0  0.00000000000E+00  0.00000000000E+00 -0.85762206549E+03  0.85762206550E+03  0.50400001928E-02 0. -1.
    10030    2    1    2    0    0  0.00000000000E+00  0.00000000000E+00  0.12667887510E+04  0.29820328820E+04  0.26995863331E+04 0.  0.
        1    1    3    3  502    0  0.89444916411E+03 -0.37102833515E+03 -0.40533006273E+03  0.10497589211E+04  0.50400001928E-02 0. -1.
       -1    1    3    3    0  502 -0.89444916411E+03  0.37102833515E+03  0.16721188138E+04  0.19322739609E+04  0.50400001928E-02 0.  1.
</event>
<event>
 5   0  0.1937896E-07  0.2700978E+04  0.7818609E-02  0.8334688E-01
       -1   -1    0    0    0  501  0.00000000000E+00  0.00000000000E+00  0.81811987559E+03  0.81811987560E+03  0.50400001928E-02 0. -1.
        1   -1    0    0  501    0  0.00000000000E+00  0.00000000000E+00 -0.22292825103E+04  0.22292825103E+04  0.50400001928E-02 0.  1.
    10030    2    1    2    0    0  0.00000000000E+00  0.00000000000E+00 -0.14111626347E+04  0.30474023859E+04  0.27009778451E+04 0.  0.
        3    1    3    3  502    0  0.12630493302E+04 -0.18091754353E+03 -0.20634037798E+03  0.12925173616E+04  0.10100000352E+00 0. -1.
       -3    1    3    3    0  502 -0.12630493302E+04  0.18091754353E+03 -0.12048222567E+04  0.17548850243E+04  0.10100000352E+00 0.  1.
</event>
<event>
 5   0  0.1937896E-07  0.2698952E+04  0.7818609E-02  0.8335345E-01
       -1   -1    0    0    0  501  0.00000000000E+00  0.00000000000E+00  0.87409275385E+03  0.87409275386E+03  0.50400001928E-02 0.  1.
        1   -1    0    0  501    0  0.00000000000E+00  0.00000000000E+00 -0.20834012277E+04  0.20834012277E+04  0.50400001928E-02 0. -1.
    10030    2    1    2    0    0  0.00000000000E+00  0.00000000000E+00 -0.12093084738E+04  0.29574939816E+04  0.26989523275E+04 0.  0.
        3    1    3    3  502    0 -0.10732395563E+03 -0.46217999871E+03  0.77967460004E+03  0.91269999168E+03  0.10100000352E+00 0.  1.
       -3    1    3    3    0  502  0.10732395563E+03  0.46217999871E+03 -0.19889830739E+04  0.20447939899E+04  0.10100000352E+00 0. -1.
</event>
<event>
 5   0  0.4735120E-07  0.2700786E+04  0.7818609E-02  0.8334750E-01
       -2   -1    0    0    0  501  0.00000000000E+00  0.00000000000E+00  0.16311271895E+04  0.16311271895E+04  0.25500000920E-02 0. -1.
        2   -1    0    0  501    0  0.00000000000E+00  0.00000000000E+00 -0.11179763481E+04  0.11179763481E+04  0.25500000920E-02 0.  1.
    10030    2    1    2    0    0  0.00000000000E+00  0.00000000000E+00  0.51315084139E+03  0.27491035376E+04  0.27007862696E+04 0.  0.
        2    1    3    3  502    0  0.20435814004E+03 -0.82780244986E+03 -0.80931757589E+03  0.11755909510E+04  0.25500000920E-02 0.  1.
       -2    1    3    3    0  502 -0.20435814004E+03  0.82780244986E+03  0.13224684173E+04  0.15735125866E+04  0.25500000920E-02 0. -1.
</event>
<event>
 5   0  0.1971600E-07  0.2700579E+04  0.7818609E-02  0.8334817E-01
        1   -1    0    0  501    0  0.00000000000E+00  0.00000000000E+00  0.22461168003E+04  0.22461168003E+04  0.50400001928E-02 0.  1.
       -1   -1    0    0    0  501  0.00000000000E+00  0.00000000000E+00 -0.81174812853E+03  0.81174812855E+03  0.50400001928E-02 0. -1.
    10030    2    1    2    0    0  0.00000000000E+00  0.00000000000E+00  0.14343686718E+04  0.30578649289E+04  0.27005785374E+04 0.  0.
        5    1    3    3  502    0  0.42024283085E+03 -0.12370313967E+04  0.33085875126E+03  0.13477167049E+04  0.46999998093E+01 0. -1.
       -5    1    3    3    0  502 -0.42024283085E+03  0.12370313967E+04  0.11035099205E+04  0.17101482240E+04  0.46999998093E+01 0.  1.
</event>
<event>
 5   0  0.4843887E-07  0.2700993E+04  0.7818609E-02  0.8334683E-01
        2   -1    0    0  501    0  0.00000000000E+00  0.00000000000E+00  0.13087661747E+04  0.13087661747E+04  0.25500000920E-02 0. -1.
       -2   -1    0    0    0  501  0.00000000000E+00  0.00000000000E+00 -0.13935577105E+04  0.13935577105E+04  0.25500000920E-02 0.  1.
    10030    2    1    2    0    0  0.00000000000E+00  0.00000000000E+00 -0.84791535847E+02  0.27023238852E+04  0.27009932944E+04 0.  0.
        5    1    3    3  502    0  0.89247606440E+03  0.88966582371E+03  0.44343618097E+03  0.13359178642E+04  0.46999998093E+01 0.  1.
       -5    1    3    3    0  502 -0.89247606440E+03 -0.88966582371E+03 -0.52822771682E+03  0.13664060210E+04  0.46999998093E+01 0. -1.
</event>
<event>
 5   0  0.1964242E-07  0.2701033E+04  0.7818609E-02  0.8334670E-01
        1   -1    0    0  501    0  0.00000000000E+00  0.00000000000E+00  0.17810213018E+04  0.17810213018E+04  0.50400001928E-02 0.  1.
       -1   -1    0    0    0  501  0.00000000000E+00  0.00000000000E+00 -0.10240727737E+04  0.10240727737E+04  0.50400001928E-02 0. -1.
    10030    2    1    2    0    0  0.00000000000E+00  0.00000000000E+00  0.75694852811E+03  0.28050940755E+04  0.27010334501E+04 0.  0.
        2    1    3    3  502    0  0.53901096934E+03  0.11263144490E+04 -0.15591621700E+03  0.12583429301E+04  0.25500000920E-02 0. -1.
       -2    1    3    3    0  502 -0.53901096934E+03 -0.11263144490E+04  0.91286474512E+03  0.15467511454E+04  0.25500000920E-02 0.  1.
</event>
<event>
 5   0  0.1964242E-07  0.2699610E+04  0.7818609E-02  0.8335132E-01
       -1   -1    0    0    0  501  0.00000000000E+00  0.00000000000E+00  0.20578935498E+04  0.20578935498E+04  0.50400001928E-02 0. -1.
        1   -1    0    0  501    0  0.00000000000E+00  0.00000000000E+00 -0.88535832115E+03  0.88535832116E+03  0.50400001928E-02 0.  1.
    10030    2    1    2    0    0  0.00000000000E+00  0.00000000000E+00  0.11725352286E+04  0.29432518709E+04  0.26996097335E+04 0.  0.
        2    1    3    3  502    0 -0.11177947656E+04  0.74325497830E+03  0.74076073185E+03  0.15331730374E+04  0.25500000920E-02 0. -1.
       -2    1    3    3    0  502  0.11177947656E+04 -0.74325497830E+03  0.43177449678E+03  0.14100788335E+04  0.25500000920E-02 0.  1.
</event>
<event>
 5   0  0.1888149E-07  0.2699660E+04  0.7818609E-02  0.8335115E-01
        1   -1    0    0  501    0  0.00000000000E+00  0.00000000000E+00  0.18821613283E+04  0.18821613283E+04  0.50400001928E-02 0. -1.
       -1   -1    0    0    0  501  0.00000000000E+00  0.00000000000E+00 -0.96805805895E+03  0.96805805896E+03  0.50400001928E-02 0.  1.
    10030    2    1    2    0    0  0.00000000000E+00  0.00000000000E+00  0.91410326935E+03  0.28502193873E+04  0.26996603061E+04 0.  0.
        1    1    3    3  502    0 -0.12979541369E+04 -0.50101972390E+02  0.69357996225E+02  0.13007711869E+04  0.50400001928E-02 0.  1.
       -1    1    3    3    0  502  0.12979541369E+04  0.50101972390E+02  0.84474527313E+03  0.15494482003E+04  0.50400001928E-02 0. -1.
</event>
<event>
 5   0  0.1964242E-07  0.2700187E+04  0.7818609E-02  0.8334944E-01
        1   -1    0    0  501    0  0.00000000000E+00  0.00000000000E+00  0.16162780669E+04  0.16162780669E+04  0.50400001928E-02 0. -1.
       -1   -1    0    0    0  501  0.00000000000E+00  0.00000000000E+00 -0.11277466710E+04  0.11277466710E+04  0.50400001928E-02 0.  1.
    10030    2    1    2    0    0  0.00000000000E+00  0.00000000000E+00  0.48853139590E+03  0.27440247379E+04  0.27001868153E+04 0.  0.
        2    1    3    3  502    0  0.29918372146E+03  0.10223773904E+04 -0.59864961093E+03  0.12219442640E+04  0.25500000920E-02 0.  1.
       -2    1    3    3    0  502 -0.29918372146E+03 -0.10223773904E+04  0.10871810068E+04  0.15220804739E+04  0.25500000920E-02 0. -1.
</event>
<event>
 5   0  0.4992668E-07  0.2700653E+04  0.7818609E-02  0.8334793E-01
        2   -1    0    0  501    0  0.00000000000E+00  0.00000000000E+00  0.17069498557E+04  0.17069498557E+04  0.25500000920E-02 0. -1.
       -2   -1    0    0    0  501  0.00000000000E+00  0.00000000000E+00 -0.10682106545E+04  0.10682106545E+04  0.25500000920E-02 0.  1.
    10030    2    1    2    0    0  0.00000000000E+00  0.00000000000E+00  0.63873920125E+03  0.27751605102E+04  0.27006532710E+04 0.  0.
        1    1    3    3  502    0 -0.78191773874E+03  0.23394018915E+03 -0.78606867213E+03  0.11331492927E+04  0.50400001928E-02 0.  1.
       -1    1    3    3    0  502  0.78191773874E+03 -0.23394018915E+03  0.14248078734E+04  0.16420112175E+04  0.50400001928E-02 0. -1.
</event>
<event>
 5   0  0.4992668E-07  0.2700590E+04  0.7818609E-02  0.8334814E-01
        2   -1    0    0  501    0  0.00000000000E+00  0.00000000000E+00  0.12731245684E+04  0.12731245684E+04  0.25500000920E-02 0. -1.
       -2   -1    0    0    0  501  0.00000000000E+00  0.00000000000E+00 -0.14321429737E+04  0.14321429737E+04  0.25500000920E-02 0.  1.
    10030    2    1    2    0    0  0.00000000000E+00  0.00000000000E+00 -0.15901840525E+03  0.27052675421E+04  0.27005898654E+04 0.  0.
        1    1    3    3  502    0  0.69803430133E+03 -0.65620279931E+03 -0.10327047469E+04  0.14086635844E+04  0.50400001928E-02 0.  1.
       -1    1    3    3    0  502 -0.69803430133E+03  0.65620279931E+03  0.87368634162E+03  0.12966039577E+04  0.50400001928E-02 0. -1.
</event>
<event>
 5   0  0.1965415E-07  0.2697656E+04  0.7818609E-02  0.8335766E-01
        1   -1    0    0  501    0  0.00000000000E+00  0.00000000000E+00  0.13059481138E+04  0.13059481139E+04  0.50400001928E-02 0. -1.
       -1   -1    0    0    0  501  0.00000000000E+00  0.00000000000E+00 -0.13931157407E+04  0.13931157407E+04  0.50400001928E-02 0.  1.
    10030    2    1    2    0    0  0.00000000000E+00  0.00000000000E+00 -0.87167626824E+02  0.26990638545E+04  0.26976559261E+04 0.  0.
        4    1    3    3  502    0 -0.54445581331E+03  0.11740578742E+03  0.11855193813E+04  0.13098374204E+04  0.12699999809E+01 0. -1.
       -4    1    3    3    0  502  0.54445581331E+03 -0.11740578742E+03 -0.12726870082E+04  0.13892264341E+04  0.12699999809E+01 0.  1.
</event>
<event>
 5   0  0.4843887E-07  0.2699328E+04  0.7818609E-02  0.8335223E-01
       -2   -1    0    0    0  501  0.00000000000E+00  0.00000000000E+00  0.10292610238E+04  0.10292610238E+04  0.25500000920E-02 0. -1.
        2   -1    0    0  501    0  0.00000000000E+00  0.00000000000E+00 -0.17698068205E+04  0.17698068205E+04  0.25500000920E-02 0.  1.
    10030    2    1    2    0    0  0.00000000000E+00  0.00000000000E+00 -0.74054579670E+03  0.27990678443E+04  0.26993281979E+04 0.  0.
        5    1    3    3  502    0 -0.87302181218E+01 -0.96353192964E+03  0.60968641402E+03  0.11402673413E+04  0.46999998093E+01 0. -1.
       -5    1    3    3    0  502  0.87302181218E+01  0.96353192964E+03 -0.13502322107E+04  0.16588005031E+04  0.46999998093E+01 0.  1.
</event>
<event>
 5   0  0.1971600E-07  0.2702129E+04  0.7818609E-02  0.8334315E-01
       -1   -1    0    0    0  501  0.00000000000E+00  0.00000000000E+00  0.12679948950E+04  0.12679948950E+04  0.50400001928E-02 0. -1.
        1   -1    0    0  501    0  0.00000000000E+00  0.00000000000E+00 -0.14395759046E+04  0.14395759046E+04  0.50400001928E-02 0.  1.
    10030    2    1    2    0    0  0.00000000000E+00  0.00000000000E+00 -0.17158100959E+03  0.27075707996E+04  0.27021287150E+04 0.  0.
        5    1    3    3  502    0  0.24110289698E+03 -0.13026059332E+04  0.18014934157E+03  0.13369325710E+04  0.46999998093E+01 0.  1.
       -5    1    3    3    0  502 -0.24110289698E+03  0.13026059332E+04 -0.35173035115E+03  0.13706382287E+04  0.46999998093E+01 0. -1.
</event>
<event>
 5   0  0.1964242E-07  0.2702428E+04  0.7818609E-02  0.8334218E-01
        1   -1    0    0  501    0  0.00000000000E+00  0.00000000000E+00  0.18936256187E+04  0.18936256187E+04  0.50400001928E-02 0. -1.
       -1   -1    0    0    0  501  0.00000000000E+00  0.00000000000E+00 -0.96417111182E+03  0.96417111183E+03  0.50400001928E-02 0.  1.
    10030    2    1    2    0    0  0.00000000000E+00  0.00000000000E+00  0.92945450688E+03  0.28577967305E+04  0.27024278848E+04 0.  0.
        2    1    3    3  502    0 -0.29097534615E+03  0.10614409268E+04 -0.36421157639E+03  0.11592987387E+04  0.25500000920E-02 0.  1.
       -2    1    3    3    0  502  0.29097534615E+03 -0.10614409268E+04  0.12936660833E+04  0.16984979918E+04  0.25500000920E-02 0. -1.
</event>
<event>
 5   0  0.4843887E-07  0.2697306E+04  0.7818609E-02  0.8335880E-01
        2   -1    0    0  501    0  0.00000000000E+00  0.00000000000E+00  0.15097492526E+04  0.15097492526E+04  0.25500000920E-02 0. -1.
       -2   -1    0    0    0  501  0.00000000000E+00  0.00000000000E+00 -0.12047459925E+04  0.12047459925E+04  0.25500000920E-02 0.  1.
    10030    2    1    2    0    0  0.00000000000E+00  0.00000000000E+00  0.30500326014E+03  0.27144952451E+04  0.26973055902E+04 0.  0.
        5    1    3    3  502    0 -0.84725474693E+03  0.10487156911E+04  0.18732074930E+03  0.13611599318E+04  0.46999998093E+01 0.  1.
       -5    1    3    3    0  502  0.84725474693E+03 -0.10487156911E+04  0.11768251084E+03  0.13533353133E+04  0.46999998093E+01 0. -1.
</event>
<event>
 5   0  0.4992668E-07  0.2700625E+04  0.7818609E-02  0.8334802E-01
        2   -1    0    0  501    0  0.00000000000E+00  0.00000000000E+00  0.99842553242E+03  0.99842553243E+03  0.25500000920E-02 0. -1.
       -2   -1    0    0    0  501  0.00000000000E+00  0.00000000000E+00 -0.18262192783E+04  0.18262192783E+04  0.25500000920E-02 0.  1.
    10030    2    1    2    0    0  0.00000000000E+00  0.00000000000E+00 -0.82779374589E+03  0.28246448107E+04  0.27006250797E+04 0.  0.
        1    1    3    3  502    0 -0.12965171797E+04  0.15328522137E+03 -0.77453668731E+03  0.15180119355E+04  0.50400001928E-02 0.  1.
       -1    1    3    3    0  502  0.12965171797E+04 -0.15328522137E+03 -0.53257058585E+02  0.13066328752E+04  0.50400001928E-02 0. -1.
</event>
<event>
 5   0  0.1965415E-07  0.2699782E+04  0.7818609E-02  0.8335076E-01
       -1   -1    0    0    0  501  0.00000000000E+00  0.00000000000E+00  0.91311863557E+03  0.91311863558E+03  0.50400001928E-02 0.  1.
        1   -1    0    0  501    0  0.00000000000E+00  0.00000000000E+00 -0.19955851356E+04  0.19955851356E+04  0.50400001928E-02 0. -1.
    10030    2    1    2    0    0  0.00000000000E+00  0.00000000000E+00 -0.10824665001E+04  0.29087037712E+04  0.26997821958E+04 0.  0.
        4    1    3    3  502    0 -0.15380780420E+03 -0.62547916255E+03  0.73687521190E+03  0.97870716470E+03  0.12699999809E+01 0.  1.
       -4    1    3    3    0  502  0.15380780420E+03  0.62547916255E+03 -0.18193417120E+04  0.19299966065E+04  0.12699999809E+01 0. -1.
</event>
<event>
 5   0  0.1641625E-07  0.2704051E+04  0.7818609E-02  0.8333692E-01
        3   -1    0    0  501    0  0.00000000000E+00  0.00000000000E+00  0.18494269931E+04  0.18494269958E+04  0.10100000352E+00 0.  1.
       -3   -1    0    0    0  501  0.00000000000E+00  0.00000000000E+00 -0.98839928580E+03  0.98839929096E+03  0.10100000352E+00 0. -1.
    10030    2    1    2    0    0  0.00000000000E+00  0.00000000000E+00  0.86102770725E+03  0.28378262868E+04  0.27040505397E+04 0.  0.
        4    1    3    3  502    0 -0.15609373191E+03 -0.65910017994E+03  0.16585276483E+04  0.17915060350E+04  0.12699999809E+01 0.  1.
       -4    1    3    3    0  502  0.15609373191E+03  0.65910017994E+03 -0.79749994107E+03  0.10463202518E+04  0.12699999809E+01 0. -1.
</event>
<event>
 5   0  0.1937896E-07  0.2693944E+04  0.7818609E-02  0.8336972E-01
        1   -1    0    0  501    0  0.00000000000E+00  0.00000000000E+00  0.12072958088E+04  0.12072958088E+04  0.50400001928E-02 0. -1.
       -1   -1    0    0    0  501  0.00000000000E+00  0.00000000000E+00 -0.15028083121E+04  0.15028083121E+04  0.50400001928E-02 0.  1.
    10030    2    1    2    0    0  0.00000000000E+00  0.00000000000E+00 -0.29551250328E+03  0.27101041210E+04  0.26939444513E+04 0.  0.
        3    1    3    3  502    0 -0.25184813356E+03  0.11011956646E+04  0.59031682119E+03  0.12745718237E+04  0.10100000352E+00 0. -1.
       -3    1    3    3    0  502  0.25184813356E+03 -0.11011956646E+04 -0.88582932447E+03  0.14355322973E+04  0.10100000352E+00 0.  1.
</event>
<event>
 5   0  0.1937896E-07  0.2699666E+04  0.7818609E-02  0.8335114E-01
       -1   -1    0    0    0  501  0.00000000000E+00  0.00000000000E+00  0.95364665538E+03  0.95364665539E+03  0.50400001928E-02 0.  1.
        1   -1    0    0  501    0  0.00000000000E+00  0.00000000000E+00 -0.19106117008E+04  0.19106117008E+04  0.50400001928E-02 0. -1.
    10030    2    1    2    0    0  0.00000000000E+00  0.00000000000E+00 -0.95696504539E+03  0.28642583562E+04  0.26996655039E+04 0.  0.
        3    1    3    3  502    0 -0.10313434180E+04 -0.23461169318E+03 -0.13682649546E+04  0.17294105611E+04  0.10100000352E+00 0.  1.
       -3    1    3    3    0  502  0.10313434180E+04  0.23461169318E+03  0.41129990922E+03  0.11348477951E+04  0.10100000352E+00 0. -1.
</event>
<event>
 5   0  0.1971600E-07  0.2700323E+04  0.7818609E-02  0.8334900E-01
       -1   -1    0    0    0  501  0.00000000000E+00  0.00000000000E+00  0.14577288117E+04  0.14577288117E+04  0.50400001928E-02 0.  1.
        1   -1    0    0  501    0  0.00000000000E+00  0.00000000000E+00 -0.12505316879E+04  0.12505316879E+04  0.50400001928E-02 0. -1.
    10030    2    1    2    0    0  0.00000000000E+00  0.00000000000E+00  0.20719712381E+03  0.27082604996E+04  0.27003229965E+04 0.  0.
        5    1    3    3  502    0  0.75286328718E+03 -0.36364444299E+03  0.11668438086E+04  0.14354744769E+04  0.46999998093E+01 0.  1.
       -5    1    3    3    0  502 -0.75286328718E+03  0.36364444299E+03 -0.95964668476E+03  0.12727860227E+04  0.46999998093E+01 0. -1.
</event>
<event>
 5   0  0.1965415E-07  0.2700750E+04  0.7818609E-02  0.8334762E-01
        1   -1    0    0  501    0  0.00000000000E+00  0.00000000000E+00  0.15235436661E+04  0.15235436661E+04  0.50400001928E-02 0. -1.
       -1   -1    0    0    0  501  0.00000000000E+00  0.00000000000E+00 -0.11968891673E+04  0.11968891673E+04  0.50400001928E-02 0.  1.
    10030    2    1    2    0    0  0.00000000000E+00  0.00000000000E+00  0.32665449878E+03  0.27204328335E+04  0.27007501994E+04 0.  0.
        4    1    3    3  502    0  0.16810799843E+03  0.13260669489E+04 -0.29897353333E+02  0.13370150772E+04  0.12699999809E+01 0. -1.
       -4    1    3    3    0  502 -0.16810799843E+03 -0.13260669489E+04  0.35655185211E+03  0.13834177562E+04  0.12699999809E+01 0.  1.
</event>
<event>
 5   0  0.1971600E-07  0.2698512E+04  0.7818609E-02  0.8335488E-01
       -1   -1    0    0    0  501  0.00000000000E+00  0.00000000000E+00  0.11670118125E+04  0.11670118125E+04  0.50400001928E-02 0. -1.
        1   -1    0    0  501    0  0.00000000000E+00  0.00000000000E+00 -0.15599597576E+04  0.15599597577E+04  0.50400001928E-02 0.  1.
    10030    2    1    2    0    0  0.00000000000E+00  0.00000000000E+00 -0.39294794511E+03  0.27269715702E+04  0.26985117856E+04 0.  0.
        5    1    3    3  502    0  0.12600090787E+04 -0.23559393536E+02 -0.68352325117E+03  0.14336680398E+04  0.46999998093E+01 0.  1.
       -5    1    3    3    0  502 -0.12600090787E+04  0.23559393536E+02  0.29057530606E+03  0.12933035304E+04  0.46999998093E+01 0. -1.
</event>
<event>
 5   0  0.4983208E-07  0.2700328E+04  0.7818609E-02  0.8334899E-01
        2   -1    0    0  501    0  0.00000000000E+00  0.00000000000E+00  0.15313424895E+04  0.15313424895E+04  0.25500000920E-02 0.  1.
       -2   -1    0    0    0  501  0.00000000000E+00  0.00000000000E+00 -0.11904211018E+04  0.11904211018E+04  0.25500000920E-02 0. -1.
    10030    2    1    2    0    0  0.00000000000E+00  0.00000000000E+00  0.34092138774E+03  0.27217635913E+04  0.27003276939E+04 0.  0.
        4    1    3    3  502    0 -0.88323242316E+03 -0.42802103819E+02 -0.85793731632E+03  0.12320671999E+04  0.12699999809E+01 0. -1.
       -4    1    3    3    0  502  0.88323242316E+03  0.42802103819E+02  0.11988587041E+04  0.14896963914E+04  0.12699999809E+01 0.  1.
</event>
<event>
 5   0  0.1971600E-07  0.2701133E+04  0.7818609E-02  0.8334637E-01
       -1   -1    0    0    0  501  0.00000000000E+00  0.00000000000E+00  0.12357113800E+04  0.12357113800E+04  0.50400001928E-02 0.  1.
        1   -1    0    0  501    0  0.00000000000E+00  0.00000000000E+00 -0.14760972820E+04  0.14760972820E+04  0.50400001928E-02 0. -1.
    10030    2    1    2    0    0  0.00000000000E+00  0.00000000000E+00 -0.24038590201E+03  0.27118086619E+04  0.27011332505E+04 0.  0.
        5    1    3    3  502    0 -0.30865449700E+03 -0.48693957412E+03  0.11059571646E+04  0.12472133287E+04  0.46999998093E+01 0.  1.
       -5    1    3    3    0  502  0.30865449700E+03  0.48693957412E+03 -0.13463430666E+04  0.14645953333E+04  0.46999998093E+01 0. -1.
</event>
<event>
 5   0  0.5043890E-07  0.2700318E+04  0.7818609E-02  0.8334902E-01
        2   -1    0    0  501    0  0.00000000000E+00  0.00000000000E+00  0.17470610047E+04  0.17470610047E+04  0.25500000920E-02 0.  1.
       -2   -1    0    0    0  501  0.00000000000E+00  0.00000000000E+00 -0.10434265009E+04  0.10434265009E+04  0.25500000920E-02 0. -1.
    10030    2    1    2    0    0  0.00000000000E+00  0.00000000000E+00  0.70363450379E+03  0.27904875055E+04  0.27003183153E+04 0.  0.
        3    1    3    3  502    0  0.98653407260E+03 -0.86829518278E+03  0.32060065373E+02  0.13146154795E+04  0.10100000352E+00 0.  1.
       -3    1    3    3    0  502 -0.98653407260E+03  0.86829518278E+03  0.67157443841E+03  0.14758720261E+04  0.10100000352E+00 0. -1.
</event>
<event>
 5   0  0.5043890E-07  0.2700217E+04  0.7818609E-02  0.8334935E-01
       -2   -1    0    0    0  501  0.00000000000E+00  0.00000000000E+00  0.15033890106E+04  0.15033890106E+04  0.25500000920E-02 0.  1.
        2   -1    0    0  501    0  0.00000000000E+00  0.00000000000E+00 -0.12124560128E+04  0.12124560128E+04  0.25500000920E-02 0. -1.
    10030    2    1    2    0    0  0.00000000000E+00  0.00000000000E+00  0.29093299780E+03  0.27158450234E+04  0.27002170620E+04 0.  0.
        3    1    3    3  502    0  0.48190506582E+03 -0.73136998501E+02 -0.11208723104E+04  0.12222668528E+04  0.10100000352E+00 0. -1.
       -3    1    3    3    0  502 -0.48190506582E+03  0.73136998501E+02  0.14118053082E+04  0.14935781706E+04  0.10100000352E+00 0.  1.
</event>
<event>
 5   0  0.1964242E-07  0.2700534E+04  0.7818609E-02  0.8334832E-01
       -1   -1    0    0    0  501  0.00000000000E+00  0.00000000000E+00  0.12510008233E+04  0.12510008233E+04  0.50400001928E-02 0. -1.
        1   -1    0    0  501    0  0.00000000000E+00  0.00000000000E+00 -0.14574098433E+04  0.14574098433E+04  0.50400001928E-02 0.  1.
    10030    2    1    2    0    0  0.00000000000E+00  0.00000000000E+00 -0.20640902008E+03  0.27084106666E+04  0.27005339575E+04 0.  0.
        2    1    3    3  502    0 -0.60498130074E+03  0.10197594575E+04 -0.75108342544E+03  0.14035804350E+04  0.25500000920E-02 0.  1.
       -2    1    3    3    0  502  0.60498130074E+03 -0.10197594575E+04  0.54467440536E+03  0.13048302316E+04  0.25500000920E-02 0. -1.
</event>
<event>
 5   0  0.4843887E-07  0.2700116E+04  0.7818609E-02  0.8334967E-01
       -2   -1    0    0    0  501  0.00000000000E+00  0.00000000000E+00  0.75216413529E+03  0.75216413529E+03  0.25500000920E-02 0.  1.
        2   -1    0    0  501    0  0.00000000000E+00  0.00000000000E+00 -0.24232166061E+04  0.24232166061E+04  0.25500000920E-02 0. -1.
    10030    2    1    2    0    0  0.00000000000E+00  0.00000000000E+00 -0.16710524708E+04  0.31753807414E+04  0.27001160146E+04 0.  0.
        5    1    3    3  502    0  0.31850422822E+03 -0.13032590108E+03 -0.23707591306E+04  0.23956107216E+04  0.46999998093E+01 0. -1.
       -5    1    3    3    0  502 -0.31850422822E+03  0.13032590108E+03  0.69970665986E+03  0.77977001977E+03  0.46999998093E+01 0.  1.
</event>
<event>
 5   0  0.1971600E-07  0.2703265E+04  0.7818609E-02  0.8333946E-01
       -1   -1    0    0    0  501  0.00000000000E+00  0.00000000000E+00  0.12221842771E+04  0.12221842771E+04  0.50400001928E-02 0. -1.
        1   -1    0    0  501    0  0.00000000000E+00  0.00000000000E+00 -0.14947915747E+04  0.14947915747E+04  0.50400001928E-02 0.  1.
    10030    2    1    2    0    0  0.00000000000E+00  0.00000000000E+00 -0.27260729752E+03  0.27169758518E+04  0.27032652553E+04 0.  0.
        5    1    3    3  502    0  0.13028699314E+04  0.34788071195E+03 -0.22840696836E+03  0.13677290964E+04  0.46999998093E+01 0. -1.
       -5    1    3    3    0  502 -0.13028699314E+04 -0.34788071195E+03 -0.44200329159E+02  0.13492467554E+04  0.46999998093E+01 0.  1.
</event>
<event>
 5   0  0.1964242E-07  0.2699572E+04  0.7818609E-02  0.8335144E-01
        1   -1    0    0  501    0  0.00000000000E+00  0.00000000000E+00  0.17413577961E+04  0.17413577961E+04  0.50400001928E-02 0.  1.
       -1   -1    0    0    0  501  0.00000000000E+00  0.00000000000E+00 -0.10462649745E+04  0.10462649745E+04  0.50400001928E-02 0. -1.
    10030    2    1    2    0    0  0.00000000000E+00  0.00000000000E+00  0.69509282167E+03  0.27876227706E+04  0.26995715735E+04 0.  0.
        2    1    3    3  502    0 -0.69426600508E+03 -0.96044126459E+03 -0.31964623842E+03  0.12274471175E+04  0.25500000920E-02 0. -1.
       -2    1    3    3    0  502  0.69426600508E+03  0.96044126459E+03  0.10147390601E+04  0.15601756531E+04  0.25500000920E-02 0.  1.
</event>
<event>
 5   0  0.4843887E-07  0.2699983E+04  0.7818609E-02  0.8335010E-01
       -2   -1    0    0    0  501  0.00000000000E+00  0.00000000000E+00  0.15795415046E+04  0.15795415046E+04  0.25500000920E-02 0.  1.
        2   -1    0    0  501    0  0.00000000000E+00  0.00000000000E+00 -0.11538015410E+04  0.11538015410E+04  0.25500000920E-02 0. -1.
    10030    2    1    2    0    0  0.00000000000E+00  0.00000000000E+00  0.42573996358E+03  0.27333430455E+04  0.26999832755E+04 0.  0.
        5    1    3    3  502    0 -0.10879337873E+04  0.55935194962E+03 -0.36513166981E+03  0.12766431590E+04  0.46999998093E+01 0. -1.
       -5    1    3    3    0  502  0.10879337873E+04 -0.55935194962E+03  0.79087163340E+03  0.14566998866E+04  0.46999998093E+01 0.  1.
</event>
<event>
 5   0  0.4992668E-07  0.2699981E+04  0.7818609E-02  0.8335011E-01
        2   -1    0    0  501    0  0.00000000000E+00  0.00000000000E+00  0.18362796378E+04  0.18362796378E+04  0.25500000920E-02 0. -1.
       -2   -1    0    0    0  501  0.00000000000E+00  0.00000000000E+00 -0.99248210407E+03  0.99248210408E+03  0.25500000920E-02 0.  1.
    10030    2    1    2    0    0  0.00000000000E+00  0.00000000000E+00  0.84379753375E+03  0.28287617419E+04  0.26999812434E+04 0.  0.
        1    1    3    3  502    0 -0.23094859541E+03  0.57635409750E+03 -0.83400673078E+03  0.10397540702E+04  0.50400001928E-02 0.  1.
       -1    1    3    3    0  502  0.23094859541E+03 -0.57635409750E+03  0.16778042645E+04  0.17890076717E+04  0.50400001928E-02 0. -1.
</event>
<event>
 5   0  0.1964242E-07  0.2700072E+04  0.7818609E-02  0.8334982E-01
       -1   -1    0    0    0  501  0.00000000000E+00  0.00000000000E+00  0.67399923376E+03  0.67399923378E+03  0.50400001928E-02 0. -1.
        1   -1    0    0  501    0  0.00000000000E+00  0.00000000000E+00 -0.27041523207E+04  0.27041523208E+04  0.50400001928E-02 0.  1.
    10030    2    1    2    0    0  0.00000000000E+00  0.00000000000E+00 -0.20301530870E+04  0.33781515545E+04  0.27000715488E+04 0.  0.
        2    1    3    3  502    0  0.66586911064E+03 -0.50970497991E+03 -0.23388070084E+04  0.24845923331E+04  0.25500000920E-02 0.  1.
       -2    1    3    3    0  502 -0.66586911064E+03  0.50970497991E+03  0.30865392140E+03  0.89355922146E+03  0.25500000920E-02 0. -1.
</event>
<event>
 5   0  0.4992668E-07  0.2700514E+04  0.7818609E-02  0.8334838E-01
        2   -1    0    0  501    0  0.00000000000E+00  0.00000000000E+00  0.20992638429E+04  0.20992638429E+04  0.25500000920E-02 0.  1.
       -2   -1    0    0    0  501  0.00000000000E+00  0.00000000000E+00 -0.86849184529E+03  0.86849184529E+03  0.25500000920E-02 0. -1.
    10030    2    1    2    0    0  0.00000000000E+00  0.00000000000E+00  0.12307719976E+04  0.29677556882E+04  0.27005136761E+04 0.  0.
        1    1    3    3  502    0 -0.20172205476E+03 -0.35891762752E+03 -0.79782655279E+03  0.89779778296E+03  0.50400001928E-02 0. -1.
       -1    1    3    3    0  502  0.20172205476E+03  0.35891762752E+03  0.20285985504E+04  0.20699579052E+04  0.50400001928E-02 0.  1.
</event>
<event>
 5   0  0.1965415E-07  0.2700123E+04  0.7818609E-02  0.8334965E-01
       -1   -1    0    0    0  501  0.00000000000E+00  0.00000000000E+00  0.11054598395E+04  0.11054598395E+04  0.50400001928E-02 0.  1.
        1   -1    0    0  501    0  0.00000000000E+00  0.00000000000E+00 -0.16487857320E+04  0.16487857320E+04  0.50400001928E-02 0. -1.
    10030    2    1    2    0    0  0.00000000000E+00  0.00000000000E+00 -0.54332589249E+03  0.27542455715E+04  0.27001232643E+04 0.  0.
        4    1    3    3  502    0 -0.31385353369E+03 -0.49948215318E+03  0.96704156464E+03  0.11327654049E+04  0.12699999809E+01 0.  1.
       -4    1    3    3    0  502  0.31385353369E+03  0.49948215318E+03 -0.15103674571E+04  0.16214801665E+04  0.12699999809E+01 0. -1.
</event>
<event>
 5   0  0.5043890E-07  0.2696848E+04  0.7818609E-02  0.8336028E-01
        2   -1    0    0  501    0  0.00000000000E+00  0.00000000000E+00  0.16325106254E+04  0.16325106254E+04  0.25500000920E-02 0.  1.
       -2   -1    0    0    0  501  0.00000000000E+00  0.00000000000E+00 -0.11137739550E+04  0.11137739550E+04  0.25500000920E-02 0. -1.
    10030    2    1    2    0    0  0.00000000000E+00  0.00000000000E+00  0.51873667036E+03  0.27462845805E+04  0.26968483946E+04 0.  0.
        3    1    3    3  502    0  0.79169314654E+02  0.69154768306E+02  0.16283317167E+04  0.16317212851E+04  0.10100000352E+00 0.  1.
       -3    1    3    3    0  502 -0.79169314654E+02 -0.69154768306E+02 -0.11095950463E+04  0.11145632954E+04  0.10100000352E+00 0. -1.
</event>
<event>
 5   0  0.1965415E-07  0.2699863E+04  0.7818609E-02  0.8335050E-01
        1   -1    0    0  501    0  0.00000000000E+00  0.00000000000E+00  0.24682759791E+04  0.24682759792E+04  0.50400001928E-02 0.  1.
       -1   -1    0    0    0  501  0.00000000000E+00  0.00000000000E+00 -0.73829452553E+03  0.73829452555E+03  0.50400001928E-02 0. -1.
    10030    2    1    2    0    0  0.00000000000E+00  0.00000000000E+00  0.17299814536E+04  0.32065705047E+04  0.26998626950E+04 0.  0.
        4    1    3    3  502    0  0.71876229167E+03 -0.91217617729E+03  0.16823594067E+04  0.20442650016E+04  0.12699999809E+01 0.  1.
       -4    1    3    3    0  502 -0.71876229167E+03  0.91217617729E+03  0.47622046867E+02  0.11623055031E+04  0.12699999809E+01 0. -1.
</event>
<event>
 5   0  0.5043890E-07  0.2700357E+04  0.7818609E-02  0.8334889E-01
       -2   -1    0    0    0  501  0.00000000000E+00  0.00000000000E+00  0.14835074640E+04  0.14835074640E+04  0.25500000920E-02 0. -1.
        2   -1    0    0  501    0  0.00000000000E+00  0.00000000000E+00 -0.12288324213E+04  0.12288324213E+04  0.25500000920E-02 0.  1.
    10030    2    1    2    0    0  0.00000000000E+00  0.00000000000E+00  0.25467504262E+03  0.27123398853E+04  0.27003570645E+04 0.  0.
        3    1    3    3  502    0 -0.10458316993E+04  0.38380639006E+03 -0.63887829769E+03  0.12842261397E+04  0.10100000352E+00 0.  1.
       -3    1    3    3    0  502  0.10458316993E+04 -0.38380639006E+03  0.89355334031E+03  0.14281137456E+04  0.10100000352E+00 0. -1.
</event>
<event>
 5   0  0.4983208E-07  0.2700808E+04  0.7818609E-02  0.8334743E-01
        2   -1    0    0  501    0  0.00000000000E+00  0.00000000000E+00  0.12388714194E+04  0.12388714194E+04  0.25500000920E-02 0.  1.
       -2   -1    0    0    0  501  0.00000000000E+00  0.00000000000E+00 -0.14719773928E+04  0.14719773928E+04  0.25500000920E-02 0. -1.
    10030    2    1    2    0    0  0.00000000000E+00  0.00000000000E+00 -0.23310597346E+03  0.27108488122E+04  0.27008078214E+04 0.  0.
        4    1    3    3  502    0  0.67090451209E+03 -0.49914276384E+03 -0.11808406897E+04  0.14469425387E+04  0.12699999809E+01 0. -1.
       -4    1    3    3    0  502 -0.67090451209E+03  0.49914276384E+03  0.94773471621E+03  0.12639062735E+04  0.12699999809E+01 0.  1.
</event>
<event>
 5   0  0.4735120E-07  0.2698295E+04  0.7818609E-02  0.8335558E-01
        2   -1    0    0  501    0  0.00000000000E+00  0.00000000000E+00  0.98605109284E+03  0.98605109284E+03  0.25500000920E-02 0.  1.
       -2   -1    0    0    0  501  0.00000000000E+00  0.00000000000E+00 -0.18459484325E+04  0.18459484325E+04  0.25500000920E-02 0. -1.
    10030    2    1    2    0    0  0.00000000000E+00  0.00000000000E+00 -0.85989733963E+03  0.28319995253E+04  0.26982953650E+04 0.  0.
        2    1    3    3  502    0 -0.30880595383E+02  0.25519199560E+03 -0.18200091565E+04  0.18380723314E+04  0.25500000920E-02 0. -1.
       -2    1    3    3    0  502  0.30880595383E+02 -0.25519199560E+03  0.96011181689E+03  0.99392719388E+03  0.25500000920E-02 0.  1.
</event>
<event>
 5   0  0.4735120E-07  0.2700413E+04  0.7818609E-02  0.8334871E-01
        2   -1    0    0  501    0  0.00000000000E+00  0.00000000000E+00  0.13217483838E+04  0.13217483838E+04  0.25500000920E-02 0.  1.
       -2   -1    0    0    0  501  0.00000000000E+00  0.00000000000E+00 -0.13792772473E+04  0.13792772473E+04  0.25500000920E-02 0. -1.
    10030    2    1    2    0    0  0.00000000000E+00  0.00000000000E+00 -0.57528863532E+02  0.27010256312E+04  0.27004129110E+04 0.  0.
        2    1    3    3  502    0  0.23393682933E+03 -0.99551259099E+03  0.85307369612E+03  0.13317306372E+04  0.25500000920E-02 0.  1.
       -2    1    3    3    0  502 -0.23393682933E+03  0.99551259099E+03 -0.91060255965E+03  0.13692949940E+04  0.25500000920E-02 0. -1.
</event>
<event>
 5   0  0.1965415E-07  0.2700973E+04  0.7818609E-02  0.8334689E-01
       -1   -1    0    0    0  501  0.00000000000E+00  0.00000000000E+00  0.14849569893E+04  0.14849569893E+04  0.50400001928E-02 0.  1.
        1   -1    0    0  501    0  0.00000000000E+00  0.00000000000E+00 -0.12281927755E+04  0.12281927755E+04  0.50400001928E-02 0. -1.
    10030    2    1    2    0    0  0.00000000000E+00  0.00000000000E+00  0.25676421381E+03  0.27131497647E+04  0.27009727478E+04 0.  0.
        4    1    3    3  502    0 -0.64312443318E+03  0.10632811797E+04 -0.40280808913E+03  0.13063046633E+04  0.12699999809E+01 0.  1.
       -4    1    3    3    0  502  0.64312443318E+03 -0.10632811797E+04  0.65957230294E+03  0.14068451014E+04  0.12699999809E+01 0. -1.
</event>
<event>
 5   0  0.4735120E-07  0.2699470E+04  0.7818609E-02  0.8335177E-01
       -2   -1    0    0    0  501  0.00000000000E+00  0.00000000000E+00  0.18472206561E+04  0.18472206561E+04  0.25500000920E-02 0. -1.
        2   -1    0    0  501    0  0.00000000000E+00  0.00000000000E+00 -0.98622994794E+03  0.98622994794E+03  0.25500000920E-02 0.  1.
    10030    2    1    2    0    0  0.00000000000E+00  0.00000000000E+00  0.86099070821E+03  0.28334506041E+04  0.26994698232E+04 0.  0.
        2    1    3    3  502    0 -0.52192571927E+03 -0.67519124179E+03 -0.66710819505E+03  0.10832003570E+04  0.25500000920E-02 0.  1.
       -2    1    3    3    0  502  0.52192571927E+03  0.67519124179E+03  0.15280989033E+04  0.17502502471E+04  0.25500000920E-02 0. -1.
</event>
<event>
 5   0  0.4843887E-07  0.2700485E+04  0.7818609E-02  0.8334848E-01
       -2   -1    0    0    0  501  0.00000000000E+00  0.00000000000E+00  0.15455644045E+04  0.15455644045E+04  0.25500000920E-02 0. -1.
        2   -1    0    0  501    0  0.00000000000E+00  0.00000000000E+00 -0.11796042598E+04  0.11796042598E+04  0.25500000920E-02 0.  1.
    10030    2    1    2    0    0  0.00000000000E+00  0.00000000000E+00  0.36596014473E+03  0.27251686643E+04  0.27004846641E+04 0.  0.
        5    1    3    3  502    0  0.70525468751E+03 -0.10829944124E+04  0.57754138491E+03  0.14155695719E+04  0.46999998093E+01 0. -1.
       -5    1    3    3    0  502 -0.70525468751E+03  0.10829944124E+04 -0.21158124017E+03  0.13095990924E+04  0.46999998093E+01 0.  1.
</event>
<event>
 5   0  0.4843887E-07  0.2715746E+04  0.7818609E-02  0.8329914E-01
       -2   -1    0    0    0  501  0.00000000000E+00  0.00000000000E+00  0.80947594348E+03  0.80947594349E+03  0.25500000920E-02 0.  1.
        2   -1    0    0  501    0  0.00000000000E+00  0.00000000000E+00 -0.22777936368E+04  0.22777936368E+04  0.25500000920E-02 0. -1.
    10030    2    1    2    0    0  0.00000000000E+00  0.00000000000E+00 -0.14683176933E+04  0.30872695803E+04  0.27157460509E+04 0.  0.
        5    1    3    3  502    0  0.91474554211E+03 -0.90172286219E+03 -0.12347830649E+04  0.17817336598E+04  0.46999998093E+01 0. -1.
       -5    1    3    3    0  502 -0.91474554211E+03  0.90172286219E+03 -0.23353462837E+03  0.13055359205E+04  0.46999998093E+01 0.  1.
</event>
<event>
 5   0  0.5043890E-07  0.2700881E+04  0.7818609E-02  0.8334719E-01
       -2   -1    0    0    0  501  0.00000000000E+00  0.00000000000E+00  0.10698908932E+04  0.10698908932E+04  0.25500000920E-02 0. -1.
        2   -1    0    0  501    0  0.00000000000E+00  0.00000000000E+00 -0.17045562062E+04  0.17045562062E+04  0.25500000920E-02 0.  1.
    10030    2    1    2    0    0  0.00000000000E+00  0.00000000000E+00 -0.63466531296E+03  0.27744470995E+04  0.27008807171E+04 0.  0.
        3    1    3    3  502    0  0.36758599519E+03 -0.12992092686E+04 -0.34301287353E+03  0.13930979969E+04  0.10100000352E+00 0. -1.
       -3    1    3    3    0  502 -0.36758599519E+03  0.12992092686E+04 -0.29165243943E+03  0.13813491025E+04  0.10100000352E+00 0.  1.
</event>
<event>
 5   0  0.1971600E-07  0.2699926E+04  0.7818609E-02  0.8335029E-01
        1   -1    0    0  501    0  0.00000000000E+00  0.00000000000E+00  0.13244579644E+04  0.13244579644E+04  0.50400001928E-02 0. -1.
       -1   -1    0    0    0  501  0.00000000000E+00  0.00000000000E+00 -0.13759594704E+04  0.13759594704E+04  0.50400001928E-02 0.  1.
    10030    2    1    2    0    0  0.00000000000E+00  0.00000000000E+00 -0.51501506005E+02  0.27004174349E+04  0.26999262800E+04 0.  0.
        5    1    3    3  502    0 -0.72078594041E+03  0.41589050341E+03 -0.10889027773E+04  0.13704848161E+04  0.46999998093E+01 0.  1.
       -5    1    3    3    0  502  0.72078594041E+03 -0.41589050341E+03  0.10374012713E+04  0.13299326188E+04  0.46999998093E+01 0. -1.
</event>
<event>
 5   0  0.1888149E-07  0.2687012E+04  0.7818609E-02  0.8339232E-01
       -1   -1    0    0    0  501  0.00000000000E+00  0.00000000000E+00  0.15405498093E+04  0.15405498093E+04  0.50400001928E-02 0. -1.
        1   -1    0    0  501    0  0.00000000000E+00  0.00000000000E+00 -0.11716646888E+04  0.11716646889E+04  0.50400001928E-02 0.  1.
    10030    2    1    2    0    0  0.00000000000E+00  0.00000000000E+00  0.36888512048E+03  0.27122144982E+04  0.26870115839E+04 0.  0.
        1    1    3    3  502    0  0.40337788157E+03 -0.35867354164E+03 -0.10574008937E+04  0.11872055739E+04  0.50400001928E-02 0.  1.
       -1    1    3    3    0  502 -0.40337788157E+03  0.35867354164E+03  0.14262860142E+04  0.15250089242E+04  0.50400001928E-02 0. -1.
</event>
<event>
 5   0  0.5043890E-07  0.2704033E+04  0.7818609E-02  0.8333697E-01
       -2   -1    0    0    0  501  0.00000000000E+00  0.00000000000E+00  0.20123202792E+04  0.20123202792E+04  0.25500000920E-02 0.  1.
        2   -1    0    0  501    0  0.00000000000E+00  0.00000000000E+00 -0.90837887610E+03  0.90837887610E+03  0.25500000920E-02 0. -1.
    10030    2    1    2    0    0  0.00000000000E+00  0.00000000000E+00  0.11039414031E+04  0.29206991553E+04  0.27040334566E+04 0.  0.
        3    1    3    3  502    0 -0.55815670509E+03  0.57934932470E+03 -0.62172750346E+03  0.10167249610E+04  0.10100000352E+00 0. -1.
       -3    1    3    3    0  502  0.55815670509E+03 -0.57934932470E+03  0.17256689065E+04  0.19039741943E+04  0.10100000352E+00 0.  1.
</event>
<event>
 5   0  0.1964242E-07  0.2694397E+04  0.7818609E-02  0.8336825E-01
       -1   -1    0    0    0  501  0.00000000000E+00  0.00000000000E+00  0.12079228032E+04  0.12079228032E+04  0.50400001928E-02 0. -1.
        1   -1    0    0  501    0  0.00000000000E+00  0.00000000000E+00 -0.15025334001E+04  0.15025334001E+04  0.50400001928E-02 0.  1.
    10030    2    1    2    0    0  0.00000000000E+00  0.00000000000E+00 -0.29461059692E+03  0.27104562034E+04  0.26943974144E+04 0.  0.
        2    1    3    3  502    0  0.13140375423E+04  0.30406022541E+02 -0.44457486902E+03  0.13875395500E+04  0.25500000920E-02 0. -1.
       -2    1    3    3    0  502 -0.13140375423E+04 -0.30406022541E+02  0.14996427210E+03  0.13229166533E+04  0.25500000920E-02 0.  1.
</event>
<event>
 5   0  0.4983208E-07  0.2697689E+04  0.7818609E-02  0.8335755E-01
       -2   -1    0    0    0  501  0.00000000000E+00  0.00000000000E+00  0.10378230031E+04  0.10378230031E+04  0.25500000920E-02 0. -1.
        2   -1    0    0  501    0  0.00000000000E+00  0.00000000000E+00 -0.17530746228E+04  0.17530746228E+04  0.25500000920E-02 0.  1.
    10030    2    1    2    0    0  0.00000000000E+00  0.00000000000E+00 -0.71525161971E+03  0.27908976258E+04  0.26976887660E+04 0.  0.
        4    1    3    3  502    0 -0.12650333917E+03 -0.47732046763E+03  0.94094909160E+03  0.10626498621E+04  0.12699999809E+01 0. -1.
       -4    1    3    3    0  502  0.12650333917E+03  0.47732046763E+03 -0.16562007113E+04  0.17282477637E+04  0.12699999809E+01 0.  1.
</event>
<event>
 5   0  0.1965415E-07  0.2700639E+04  0.7818609E-02  0.8334798E-01
        1   -1    0    0  501    0  0.00000000000E+00  0.00000000000E+00  0.97440926052E+03  0.97440926054E+03  0.50400001928E-02 0.  1.
       -1   -1    0    0    0  501  0.00000000000E+00  0.00000000000E+00 -0.18712487414E+04  0.18712487415E+04  0.50400001928E-02 0. -1.
    10030    2    1    2    0    0  0.00000000000E+00  0.00000000000E+00 -0.89683948092E+03  0.28456580020E+04  0.27006385189E+04 0.  0.
        4    1    3    3  502    0  0.57608334555E+03  0.76293672496E+03 -0.14532612040E+04  0.17395155093E+04  0.12699999809E+01 0. -1.
       -4    1    3    3    0  502 -0.57608334555E+03 -0.76293672496E+03  0.55642172304E+03  0.11061424927E+04  0.12699999809E+01 0.  1.
</event>
<event>
 5   0  0.4983208E-07  0.2683619E+04  0.7818609E-02  0.8340340E-01
        2   -1    0    0  501    0  0.00000000000E+00  0.00000000000E+00  0.21173710371E+04  0.21173710371E+04  0.25500000920E-02 0.  1.
       -2   -1    0    0    0  501  0.00000000000E+00  0.00000000000E+00 -0.85032433196E+03  0.85032433196E+03  0.25500000920E-02 0. -1.
    10030    2    1    2    0    0  0.00000000000E+00  0.00000000000E+00  0.12670467051E+04  0.29676953690E+04  0.26836185367E+04 0.  0.
        4    1    3    3  502    0  0.45334279631E+03  0.12516164091E+04  0.44720329453E+03  0.14042990159E+04  0.12699999809E+01 0. -1.
       -4    1    3    3    0  502 -0.45334279631E+03 -0.12516164091E+04  0.81984341059E+03  0.15633963532E+04  0.12699999809E+01 0.  1.
</event>
<event>
 5   0  0.4992668E-07  0.2699445E+04  0.7818609E-02  0.8335185E-01
       -2   -1    0    0    0  501  0.00000000000E+00  0.00000000000E+00  0.12497014650E+04  0.12497014650E+04  0.25500000920E-02 0.  1.
        2   -1    0    0  501    0  0.00000000000E+00  0.00000000000E+00 -0.14577484879E+04  0.14577484879E+04  0.25500000920E-02 0. -1.
    10030    2    1    2    0    0  0.00000000000E+00  0.00000000000E+00 -0.20804702288E+03  0.27074499529E+04  0.26994446991E+04 0.  0.
        1    1    3    3  502    0  0.31203456649E+03  0.98760015542E+03  0.76400868844E+03  0.12870232763E+04  0.50400001928E-02 0.  1.
       -1    1    3    3    0  502 -0.31203456649E+03 -0.98760015542E+03 -0.97205571133E+03  0.14204266766E+04  0.50400001928E-02 0. -1.
</event>
<event>
 5   0  0.4735120E-07  0.2694745E+04  0.7818609E-02  0.8336712E-01
       -2   -1    0    0    0  501  0.00000000000E+00  0.00000000000E+00  0.92017684741E+03  0.92017684742E+03  0.25500000920E-02 0.  1.
        2   -1    0    0  501    0  0.00000000000E+00  0.00000000000E+00 -0.19728952212E+04  0.19728952212E+04  0.25500000920E-02 0. -1.
    10030    2    1    2    0    0  0.00000000000E+00  0.00000000000E+00 -0.10527183738E+04  0.28930720686E+04  0.26947448895E+04 0.  0.
        2    1    3    3  502    0  0.96772425110E+03 -0.28660637719E+03  0.43196081395E+03  0.10978267561E+04  0.25500000920E-02 0.  1.
       -2    1    3    3    0  502 -0.96772425110E+03  0.28660637719E+03 -0.14846791877E+04  0.17952453125E+04  0.25500000920E-02 0. -1.
</event>
<event>
 5   0  0.1937896E-07  0.2700523E+04  0.7818609E-02  0.8334835E-01
        1   -1    0    0  501    0  0.00000000000E+00  0.00000000000E+00  0.13995389814E+04  0.13995389814E+04  0.50400001928E-02 0.  1.
       -1   -1    0    0    0  501  0.00000000000E+00  0.00000000000E+00 -0.13027187692E+04  0.13027187692E+04  0.50400001928E-02 0. -1.
    10030    2    1    2    0    0  0.00000000000E+00  0.00000000000E+00  0.96820212185E+02  0.27022577506E+04  0.27005226896E+04 0.  0.
        3    1    3    3  502    0  0.80283184283E+03  0.83895071946E+02 -0.10347031579E+04  0.13123216016E+04  0.10100000352E+00 0. -1.
       -3    1    3    3    0  502 -0.80283184283E+03 -0.83895071946E+02  0.11315233701E+04  0.13899361490E+04  0.10100000352E+00 0.  1.
</event>
<event>
 5   0  0.1888149E-07  0.2709448E+04  0.7818609E-02  0.8331946E-01
        1   -1    0    0  501    0  0.00000000000E+00  0.00000000000E+00  0.16546974982E+04  0.16546974982E+04  0.50400001928E-02 0.  1.
       -1   -1    0    0    0  501  0.00000000000E+00  0.00000000000E+00 -0.11091315993E+04  0.11091315993E+04  0.50400001928E-02 0. -1.
    10030    2    1    2    0    0  0.00000000000E+00  0.00000000000E+00  0.54556589885E+03  0.27638290975E+04  0.27094481228E+04 0.  0.
        1    1    3    3  502    0 -0.10727861752E+04  0.79130995492E+03  0.51894712264E+03  0.14305061127E+04  0.50400001928E-02 0. -1.
       -1    1    3    3    0  502  0.10727861752E+04 -0.79130995492E+03  0.26618776211E+02  0.13333229848E+04  0.50400001928E-02 0.  1.
</event>
<event>
 5   0  0.1964242E-07  0.2699739E+04  0.7818609E-02  0.8335090E-01
       -1   -1    0    0    0  501  0.00000000000E+00  0.00000000000E+00  0.15290528485E+04  0.15290528486E+04  0.50400001928E-02 0.  1.
        1   -1    0    0  501    0  0.00000000000E+00  0.00000000000E+00 -0.11916836830E+04  0.11916836830E+04  0.50400001928E-02 0. -1.
    10030    2    1    2    0    0  0.00000000000E+00  0.00000000000E+00  0.33736916558E+03  0.27207365315E+04  0.26997387503E+04 0.  0.
        2    1    3    3  502    0 -0.44940870205E+03 -0.11934050775E+03 -0.11084274558E+04  0.12020073889E+04  0.25500000920E-02 0. -1.
       -2    1    3    3    0  502  0.44940870205E+03  0.11934050775E+03  0.14457966214E+04  0.15187291426E+04  0.25500000920E-02 0.  1.
</event>
<event>
 5   0  0.4735120E-07  0.2700103E+04  0.7818609E-02  0.8334972E-01
       -2   -1    0    0    0  501  0.00000000000E+00  0.00000000000E+00  0.73044592106E+03  0.73044592106E+03  0.25500000920E-02 0. -1.
        2   -1    0    0  501    0  0.00000000000E+00  0.00000000000E+00 -0.24952415222E+04  0.24952415222E+04  0.25500000920E-02 0.  1.
    10030    2    1    2    0    0  0.00000000000E+00  0.00000000000E+00 -0.17647956011E+04  0.32256874432E+04  0.27001029550E+04 0.  0.
        2    1    3    3  502    0 -0.32889282501E+03 -0.13070521987E+04 -0.78922209153E+03  0.15618666557E+04  0.25500000920E-02 0. -1.
       -2    1    3    3    0  502  0.32889282501E+03  0.13070521987E+04 -0.97557350958E+03  0.16638207875E+04  0.25500000920E-02 0.  1.
</event>
<event>
 5   0  0.4843887E-07  0.2698919E+04  0.7818609E-02  0.8335356E-01
        2   -1    0    0  501    0  0.00000000000E+00  0.00000000000E+00  0.20599381498E+04  0.20599381498E+04  0.25500000920E-02 0. -1.
       -2   -1    0    0    0  501  0.00000000000E+00  0.00000000000E+00 -0.88402676512E+03  0.88402676512E+03  0.25500000920E-02 0.  1.
    10030    2    1    2    0    0  0.00000000000E+00  0.00000000000E+00  0.11759113847E+04  0.29439649149E+04  0.26989186419E+04 0.  0.
        5    1    3    3  502    0  0.93220114681E+03  0.43860817798E+03 -0.36275284655E+03  0.10922398224E+04  0.46999998093E+01 0.  1.
       -5    1    3    3    0  502 -0.93220114681E+03 -0.43860817798E+03  0.15386642312E+04  0.18517250925E+04  0.46999998093E+01 0. -1.
</event>
<event>
 5   0  0.1888149E-07  0.2692462E+04  0.7818609E-02  0.8337455E-01
        1   -1    0    0  501    0  0.00000000000E+00  0.00000000000E+00  0.11602014168E+04  0.11602014168E+04  0.50400001928E-02 0. -1.
       -1   -1    0    0    0  501  0.00000000000E+00  0.00000000000E+00 -0.15620892376E+04  0.15620892376E+04  0.50400001928E-02 0.  1.
    10030    2    1    2    0    0  0.00000000000E+00  0.00000000000E+00 -0.40188782086E+03  0.27222906544E+04  0.26924621792E+04 0.  0.
        1    1    3    3  502    0 -0.34006119218E+03 -0.13514056740E+03 -0.15108403386E+04  0.15545234370E+04  0.50400001928E-02 0.  1.
       -1    1    3    3    0  502  0.34006119218E+03  0.13514056740E+03  0.11089525178E+04  0.11677672174E+04  0.50400001928E-02 0. -1.
</event>
<event>
 5   0  0.4992668E-07  0.2699860E+04  0.7818609E-02  0.8335050E-01
        2   -1    0    0  501    0  0.00000000000E+00  0.00000000000E+00  0.16465495209E+04  0.16465495209E+04  0.25500000920E-02 0.  1.
       -2   -1    0    0    0  501  0.00000000000E+00  0.00000000000E+00 -0.11067454066E+04  0.11067454066E+04  0.25500000920E-02 0. -1.
    10030    2    1    2    0    0  0.00000000000E+00  0.00000000000E+00  0.53980411438E+03  0.27532949275E+04  0.26998600845E+04 0.  0.
        1    1    3    3  502    0 -0.58280016707E+03 -0.33439163290E+03  0.14639023577E+04  0.16107401751E+04  0.50400001928E-02 0.  1.
       -1    1    3    3    0  502  0.58280016707E+03  0.33439163290E+03 -0.92409824331E+03  0.11425547524E+04  0.50400001928E-02 0. -1.
</event>
<event>
 5   0  0.1888149E-07  0.2702090E+04  0.7818609E-02  0.8334327E-01
        1   -1    0    0  501    0  0.00000000000E+00  0.00000000000E+00  0.23583859090E+04  0.23583859090E+04  0.50400001928E-02 0.  1.
       -1   -1    0    0    0  501  0.00000000000E+00  0.00000000000E+00 -0.77397084689E+03  0.77397084690E+03  0.50400001928E-02 0. -1.
    10030    2    1    2    0    0  0.00000000000E+00  0.00000000000E+00  0.15844150622E+04  0.31323567559E+04  0.27020895169E+04 0.  0.
        1    1    3    3  502    0  0.10764815770E+04  0.17375393900E+03  0.17169246682E+04  0.20339206802E+04  0.50400001928E-02 0.  1.
       -1    1    3    3    0  502 -0.10764815770E+04 -0.17375393900E+03 -0.13250960606E+03  0.10984360758E+04  0.50400001928E-02 0. -1.
</event>
<event>
 5   0  0.4843887E-07  0.2699415E+04  0.7818609E-02  0.8335195E-01
        2   -1    0    0  501    0  0.00000000000E+00  0.00000000000E+00  0.10761558955E+04  0.10761558955E+04  0.25500000920E-02 0.  1.
       -2   -1    0    0    0  501  0.00000000000E+00  0.00000000000E+00 -0.16927946759E+04  0.16927946759E+04  0.25500000920E-02 0. -1.
    10030    2    1    2    0    0  0.00000000000E+00  0.00000000000E+00 -0.61663878041E+03  0.27689505715E+04  0.26994154704E+04 0.  0.
        5    1    3    3  502    0  0.11198168437E+04  0.50720358402E+03 -0.87984652573E+03  0.15117530347E+04  0.46999998093E+01 0. -1.
       -5    1    3    3    0  502 -0.11198168437E+04 -0.50720358402E+03  0.26320774532E+03  0.12571975367E+04  0.46999998093E+01 0.  1.
</event>
<event>
 5   0  0.4992668E-07  0.2698685E+04  0.7818609E-02  0.8335432E-01
        2   -1    0    0  501    0  0.00000000000E+00  0.00000000000E+00  0.13479615956E+04  0.13479615956E+04  0.25500000920E-02 0.  1.
       -2   -1    0    0    0  501  0.00000000000E+00  0.00000000000E+00 -0.13507252430E+04  0.13507252430E+04  0.25500000920E-02 0. -1.
    10030    2    1    2    0    0  0.00000000000E+00  0.00000000000E+00 -0.27636473859E+01  0.26986868387E+04  0.26986854236E+04 0.  0.
        1    1    3    3  502    0 -0.10342527503E+04 -0.12130349465E+02  0.86516341144E+03  0.13484560153E+04  0.50400001928E-02 0.  1.
       -1    1    3    3    0  502  0.10342527503E+04  0.12130349465E+02 -0.86792705883E+03  0.13502308233E+04  0.50400001928E-02 0. -1.
</event>
<event>
 5   0  0.4843887E-07  0.2689644E+04  0.7818609E-02  0.8338373E-01
        2   -1    0    0  501    0  0.00000000000E+00  0.00000000000E+00  0.18965113575E+04  0.18965113575E+04  0.25500000920E-02 0.  1.
       -2   -1    0    0    0  501  0.00000000000E+00  0.00000000000E+00 -0.95361738292E+03  0.95361738292E+03  0.25500000920E-02 0. -1.
    10030    2    1    2    0    0  0.00000000000E+00  0.00000000000E+00  0.94289397459E+03  0.28501287404E+04  0.26896439894E+04 0.  0.
        5    1    3    3  502    0 -0.37765690538E+03 -0.12821613499E+04  0.31440995341E+03  0.13731125861E+04  0.46999998093E+01 0.  1.
       -5    1    3    3    0  502  0.37765690538E+03  0.12821613499E+04  0.62848402118E+03  0.14770161543E+04  0.46999998093E+01 0. -1.
</event>
<event>
 5   0  0.4843887E-07  0.2700295E+04  0.7818609E-02  0.8334909E-01
       -2   -1    0    0    0  501  0.00000000000E+00  0.00000000000E+00  0.12481809160E+04  0.12481809160E+04  0.25500000920E-02 0.  1.
        2   -1    0    0  501    0  0.00000000000E+00  0.00000000000E+00 -0.14604434467E+04  0.14604434467E+04  0.25500000920E-02 0. -1.
    10030    2    1    2    0    0  0.00000000000E+00  0.00000000000E+00 -0.21226253066E+03  0.27086243627E+04  0.27002945314E+04 0.  0.
        5    1    3    3  502    0  0.20226776147E+03 -0.57453596483E+03  0.11025221054E+04  0.12595955323E+04  0.46999998093E+01 0.  1.
       -5    1    3    3    0  502 -0.20226776147E+03  0.57453596483E+03 -0.13147846360E+04  0.14490288304E+04  0.46999998093E+01 0. -1.
</event>
<event>
 5   0  0.1964242E-07  0.2699191E+04  0.7818609E-02  0.8335267E-01
       -1   -1    0    0    0  501  0.00000000000E+00  0.00000000000E+00  0.12708529528E+04  0.12708529528E+04  0.50400001928E-02 0.  1.
        1   -1    0    0  501    0  0.00000000000E+00  0.00000000000E+00 -0.14332174181E+04  0.14332174181E+04  0.50400001928E-02 0. -1.
    10030    2    1    2    0    0  0.00000000000E+00  0.00000000000E+00 -0.16236446529E+03  0.27040703710E+04  0.26991914255E+04 0.  0.
        2    1    3    3  502    0 -0.29198001867E+03  0.91800472908E+03  0.86573715313E+03  0.12951779153E+04  0.25500000920E-02 0.  1.
       -2    1    3    3    0  502  0.29198001867E+03 -0.91800472908E+03 -0.10281016184E+04  0.14088924557E+04  0.25500000920E-02 0. -1.
</event>
<event>
 5   0  0.4992668E-07  0.2699842E+04  0.7818609E-02  0.8335056E-01
       -2   -1    0    0    0  501  0.00000000000E+00  0.00000000000E+00  0.73741397044E+03  0.73741397044E+03  0.25500000920E-02 0. -1.
        2   -1    0    0  501    0  0.00000000000E+00  0.00000000000E+00 -0.24711846296E+04  0.24711846296E+04  0.25500000920E-02 0.  1.
    10030    2    1    2    0    0  0.00000000000E+00  0.00000000000E+00 -0.17337706591E+04  0.32085986000E+04  0.26998415282E+04 0.  0.
        1    1    3    3  502    0 -0.70967732896E+03  0.62840909099E+03  0.27534435458E+03  0.98709392182E+03  0.50400001928E-02 0. -1.
       -1    1    3    3    0  502  0.70967732896E+03 -0.62840909099E+03 -0.20091150137E+04  0.22215046782E+04  0.50400001928E-02 0.  1.
</event>
<event>
 5   0  0.1964242E-07  0.2701713E+04  0.7818609E-02  0.8334449E-01
       -1   -1    0    0    0  501  0.00000000000E+00  0.00000000000E+00  0.10926206370E+04  0.10926206370E+04  0.50400001928E-02 0.  1.
        1   -1    0    0  501    0  0.00000000000E+00  0.00000000000E+00 -0.16701249886E+04  0.16701249886E+04  0.50400001928E-02 0. -1.
    10030    2    1    2    0    0  0.00000000000E+00  0.00000000000E+00 -0.57750435161E+03  0.27627456256E+04  0.27017128114E+04 0.  0.
        2    1    3    3  502    0  0.12647685416E+04  0.19785447720E+03 -0.72980429006E+03  0.14735671549E+04  0.25500000920E-02 0. -1.
       -2    1    3    3    0  502 -0.12647685416E+04 -0.19785447720E+03  0.15229993844E+03  0.12891784707E+04  0.25500000920E-02 0.  1.
</event>
<event>
 5   0  0.4983208E-07  0.2699104E+04  0.7818609E-02  0.8335296E-01
        2   -1    0    0  501    0  0.00000000000E+00  0.00000000000E+00  0.20834357055E+04  0.20834357055E+04  0.25500000920E-02 0.  1.
       -2   -1    0    0    0  501  0.00000000000E+00  0.00000000000E+00 -0.87417664406E+03  0.87417664406E+03  0.25500000920E-02 0. -1.
    10030    2    1    2    0    0  0.00000000000E+00  0.00000000000E+00  0.12092590615E+04  0.29576123496E+04  0.26991041723E+04 0.  0.
        4    1    3    3  502    0 -0.35579883173E+03  0.30251532835E+02  0.20307304694E+04  0.20618864703E+04  0.12699999809E+01 0.  1.
       -4    1    3    3    0  502  0.35579883173E+03 -0.30251532835E+02 -0.82147140796E+03  0.89572587933E+03  0.12699999809E+01 0. -1.
</event>
<event>
 5   0  0.1937896E-07  0.2697833E+04  0.7818609E-02  0.8335709E-01
        1   -1    0    0  501    0  0.00000000000E+00  0.00000000000E+00  0.17243256615E+04  0.17243256615E+04  0.50400001928E-02 0. -1.
       -1   -1    0    0    0  501  0.00000000000E+00  0.00000000000E+00 -0.10552387930E+04  0.10552387930E+04  0.50400001928E-02 0.  1.
    10030    2    1    2    0    0  0.00000000000E+00  0.00000000000E+00  0.66908686846E+03  0.27795644545E+04  0.26978327078E+04 0.  0.
        3    1    3    3  502    0  0.31627326298E+03  0.45604834750E+01 -0.10164899319E+04  0.10645662810E+04  0.10100000352E+00 0.  1.
       -3    1    3    3    0  502 -0.31627326298E+03 -0.45604834750E+01  0.16855768004E+04  0.17149981735E+04  0.10100000352E+00 0. -1.
</event>
<event>
 5   0  0.5043890E-07  0.2700283E+04  0.7818609E-02  0.8334913E-01
        2   -1    0    0  501    0  0.00000000000E+00  0.00000000000E+00  0.21041810147E+04  0.21041810147E+04  0.25500000920E-02 0.  1.
       -2   -1    0    0    0  501  0.00000000000E+00  0.00000000000E+00 -0.86631405240E+03  0.86631405240E+03  0.25500000920E-02 0. -1.
    10030    2    1    2    0    0  0.00000000000E+00  0.00000000000E+00  0.12378669623E+04  0.29704950671E+04  0.27002826384E+04 0.  0.
        3    1    3    3  502    0 -0.10758347129E+04  0.80710739001E+03  0.74927602719E+03  0.15395639784E+04  0.10100000352E+00 0.  1.
       -3    1    3    3    0  502  0.10758347129E+04 -0.80710739001E+03  0.48859093507E+03  0.14309310887E+04  0.10100000352E+00 0. -1.
</event>
<event>
 5   0  0.1965415E-07  0.2700107E+04  0.7818609E-02  0.8334970E-01
       -1   -1    0    0    0  501  0.00000000000E+00  0.00000000000E+00  0.71056062000E+03  0.71056062002E+03  0.50400001928E-02 0.  1.
        1   -1    0    0  501    0  0.00000000000E+00  0.00000000000E+00 -0.25650792046E+04  0.25650792046E+04  0.50400001928E-02 0. -1.
    10030    2    1    2    0    0  0.00000000000E+00  0.00000000000E+00 -0.18545185846E+04  0.32756398246E+04  0.27001068645E+04 0.  0.
        4    1    3    3  502    0  0.53061615423E+03  0.54216700088E+03 -0.22820540495E+04  0.24048432085E+04  0.12699999809E+01 0. -1.
       -4    1    3    3    0  502 -0.53061615423E+03 -0.54216700088E+03  0.42753546487E+03  0.87079661610E+03  0.12699999809E+01 0.  1.
</event>
<event>
 5   0  0.4992668E-07  0.2694623E+04  0.7818609E-02  0.8336752E-01
       -2   -1    0    0    0  501  0.00000000000E+00  0.00000000000E+00  0.13104035473E+04  0.13104035473E+04  0.25500000920E-02 0.  1.
        2   -1    0    0  501    0  0.00000000000E+00  0.00000000000E+00 -0.13852589987E+04  0.13852589987E+04  0.25500000920E-02 0. -1.
    10030    2    1    2    0    0  0.00000000000E+00  0.00000000000E+00 -0.74855451349E+02  0.26956625460E+04  0.26946230206E+04 0.  0.
        1    1    3    3  502    0  0.99106397729E+03  0.85814456882E+03  0.27354327981E+03  0.13391959655E+04  0.50400001928E-02 0.  1.
       -1    1    3    3    0  502 -0.99106397729E+03 -0.85814456882E+03 -0.34839873116E+03  0.13564665805E+04  0.50400001928E-02 0. -1.
</event>
<event>
 5   0  0.1971600E-07  0.2700160E+04  0.7818609E-02  0.8334953E-01
       -1   -1    0    0    0  501  0.00000000000E+00  0.00000000000E+00  0.65158298306E+03  0.65158298308E+03  0.50400001928E-02 0.  1.
        1   -1    0    0  501    0  0.00000000000E+00  0.00000000000E+00 -0.27973662180E+04  0.27973662180E+04  0.50400001928E-02 0. -1.
    10030    2    1    2    0    0  0.00000000000E+00  0.00000000000E+00 -0.21457832349E+04  0.34489492010E+04  0.27001601619E+04 0.  0.
        5    1    3    3  502    0 -0.11088448171E+04  0.68025701422E+03 -0.61162832753E+03  0.14374970382E+04  0.46999998093E+01 0.  1.
       -5    1    3    3    0  502  0.11088448171E+04 -0.68025701422E+03 -0.15341549074E+04  0.20114521629E+04  0.46999998093E+01 0. -1.
</event>
<event>
 5   0  0.1965415E-07  0.2699847E+04  0.7818609E-02  0.8335055E-01
       -1   -1    0    0    0  501  0.00000000000E+00  0.00000000000E+00  0.26481513504E+04  0.26481513504E+04  0.50400001928E-02 0.  1.
        1   -1    0    0  501    0  0.00000000000E+00  0.00000000000E+00 -0.68813789604E+03  0.68813789606E+03  0.50400001928E-02 0. -1.
    10030    2    1    2    0    0  0.00000000000E+00  0.00000000000E+00  0.19600134544E+04  0.33362892465E+04  0.26998468836E+04 0.  0.
        4    1    3    3  502    0 -0.12852839005E+04  0.33893657675E+03  0.68899499962E+03  0.14971801596E+04  0.12699999809E+01 0.  1.
       -4    1    3    3    0  502  0.12852839005E+04 -0.33893657675E+03  0.12710184547E+04  0.18391090868E+04  0.12699999809E+01 0. -1.
</event>
<event>
 5   0  0.5043890E-07  0.2700352E+04  0.7818609E-02  0.8334891E-01
        2   -1    0    0  501    0  0.00000000000E+00  0.00000000000E+00  0.11385522056E+04  0.11385522056E+04  0.25500000920E-02 0.  1.
       -2   -1    0    0    0  501  0.00000000000E+00  0.00000000000E+00 -0.16011340544E+04  0.16011340544E+04  0.25500000920E-02 0. -1.
    10030    2    1    2    0    0  0.00000000000E+00  0.00000000000E+00 -0.46258184882E+03  0.27396862601E+04  0.27003516135E+04 0.  0.
        3    1    3    3  502    0 -0.13165956640E+04  0.28904027871E+03 -0.15266186527E+03  0.13565670203E+04  0.10100000352E+00 0.  1.
       -3    1    3    3    0  502  0.13165956640E+04 -0.28904027871E+03 -0.30991998354E+03  0.13831192398E+04  0.10100000352E+00 0. -1.
</event>
<event>
 5   0  0.1971600E-07  0.2698820E+04  0.7818609E-02  0.8335388E-01
       -1   -1    0    0    0  501  0.00000000000E+00  0.00000000000E+00  0.11632018167E+04  0.11632018167E+04  0.50400001928E-02 0. -1.
        1   -1    0    0  501    0  0.00000000000E+00  0.00000000000E+00 -0.15654273633E+04  0.15654273633E+04  0.50400001928E-02 0.  1.
    10030    2    1    2    0    0  0.00000000000E+00  0.00000000000E+00 -0.40222554668E+03  0.27286291800E+04  0.26988204482E+04 0.  0.
        5    1    3    3  502    0 -0.91823801595E+03  0.63436092038E+03 -0.96798300210E+03  0.14773584581E+04  0.46999998093E+01 0.  1.
       -5    1    3    3    0  502  0.91823801595E+03 -0.63436092038E+03  0.56575745541E+03  0.12512707219E+04  0.46999998093E+01 0. -1.
</event>
<event>
 5   0  0.1937896E-07  0.2687886E+04  0.7818609E-02  0.8338946E-01
       -1   -1    0    0    0  501  0.00000000000E+00  0.00000000000E+00  0.13085006675E+04  0.13085006675E+04  0.50400001928E-02 0. -1.
        1   -1    0    0  501    0  0.00000000000E+00  0.00000000000E+00 -0.13803456433E+04  0.13803456433E+04  0.50400001928E-02 0.  1.
    10030    2    1    2    0    0  0.00000000000E+00  0.00000000000E+00 -0.71844975805E+02  0.26888463108E+04  0.26878863039E+04 0.  0.
        3    1    3    3  502    0 -0.90043723225E+03  0.75743176908E+03  0.61368844911E+03  0.13270657922E+04  0.10100000352E+00 0. -1.
       -3    1    3    3    0  502  0.90043723225E+03 -0.75743176908E+03 -0.68553342491E+03  0.13617805186E+04  0.10100000352E+00 0.  1.
</event>
<event>
 5   0  0.1964242E-07  0.2698446E+04  0.7818609E-02  0.8335509E-01
        1   -1    0    0  501    0  0.00000000000E+00  0.00000000000E+00  0.19644758127E+04  0.19644758127E+04  0.50400001928E-02 0. -1.
       -1   -1    0    0    0  501  0.00000000000E+00  0.00000000000E+00 -0.92666086047E+03  0.92666086048E+03  0.50400001928E-02 0.  1.
    10030    2    1    2    0    0  0.00000000000E+00  0.00000000000E+00  0.10378149522E+04  0.28911366732E+04  0.26984461062E+04 0.  0.
        2    1    3    3  502    0 -0.96191996187E+03 -0.43640957658E+03 -0.38047523400E+03  0.11227220205E+04  0.25500000920E-02 0.  1.
       -2    1    3    3    0  502  0.96191996187E+03  0.43640957658E+03  0.14182901862E+04  0.17684146527E+04  0.25500000920E-02 0. -1.
</event>
<event>
 5   0  0.4735120E-07  0.2699516E+04  0.7818609E-02  0.8335162E-01
       -2   -1    0    0    0  501  0.00000000000E+00  0.00000000000E+00  0.78964022059E+03  0.78964022060E+03  0.25500000920E-02 0. -1.
        2   -1    0    0  501    0  0.00000000000E+00  0.00000000000E+00 -0.23071858983E+04  0.23071858983E+04  0.25500000920E-02 0.  1.
    10030    2    1    2    0    0  0.00000000000E+00  0.00000000000E+00 -0.15175456777E+04  0.30968261189E+04  0.26995160912E+04 0.  0.
        2    1    3    3  502    0 -0.57381991301E+02  0.13208887468E+04 -0.10704318573E+04  0.17011361308E+04  0.25500000920E-02 0.  1.
       -2    1    3    3    0  502  0.57381991301E+02 -0.13208887468E+04 -0.44711382038E+03  0.13956899881E+04  0.25500000920E-02 0. -1.
</event>
<event>
 5   0  0.1965415E-07  0.2699953E+04  0.7818609E-02  0.8335020E-01
        1   -1    0    0  501    0  0.00000000000E+00  0.00000000000E+00  0.68306326392E+03  0.68306326393E+03  0.50400001928E-02 0. -1.
       -1   -1    0    0    0  501  0.00000000000E+00  0.00000000000E+00 -0.26680349119E+04  0.26680349119E+04  0.50400001928E-02 0.  1.
    10030    2    1    2    0    0  0.00000000000E+00  0.00000000000E+00 -0.19849716480E+04  0.33510981759E+04  0.26999530627E+04 0.  0.
        4    1    3    3  502    0 -0.52318385301E+03  0.11506070321E+04 -0.15809847065E+04  0.20241373821E+04  0.12699999809E+01 0.  1.
       -4    1    3    3    0  502  0.52318385301E+03 -0.11506070321E+04 -0.40398694152E+03  0.13269607938E+04  0.12699999809E+01 0. -1.
</event>
<event>
 5   0  0.1964242E-07  0.2701871E+04  0.7818609E-02  0.8334398E-01
        1   -1    0    0  501    0  0.00000000000E+00  0.00000000000E+00  0.29235367065E+04  0.29235367065E+04  0.50400001928E-02 0. -1.
       -1   -1    0    0    0  501  0.00000000000E+00  0.00000000000E+00 -0.62425322046E+03  0.62425322048E+03  0.50400001928E-02 0.  1.
    10030    2    1    2    0    0  0.00000000000E+00  0.00000000000E+00  0.22992834860E+04  0.35477899270E+04  0.27018713546E+04 0.  0.
        2    1    3    3  502    0 -0.35992122860E+03  0.71387988159E+03  0.25795554681E+04  0.27006062632E+04  0.25500000920E-02 0. -1.
       -2    1    3    3    0  502  0.35992122860E+03 -0.71387988159E+03 -0.28027198206E+03  0.84718366372E+03  0.25500000920E-02 0.  1.
</event>
<event>
 5   0  0.1937896E-07  0.2697591E+04  0.7818609E-02  0.8335787E-01
        1   -1    0    0  501    0  0.00000000000E+00  0.00000000000E+00  0.11447009962E+04  0.11447009962E+04  0.50400001928E-02 0.  1.
       -1   -1    0    0    0  501  0.00000000000E+00  0.00000000000E+00 -0.15892793849E+04  0.15892793849E+04  0.50400001928E-02 0. -1.
    10030    2    1    2    0    0  0.00000000000E+00  0.00000000000E+00 -0.44457838870E+03  0.27339803811E+04  0.26975912923E+04 0.  0.
        3    1    3    3  502    0  0.10977428167E+04 -0.32157628404E+03 -0.94663224653E+03  0.14847771612E+04  0.10100000352E+00 0.  1.
       -3    1    3    3    0  502 -0.10977428167E+04  0.32157628404E+03  0.50205385783E+03  0.12492032199E+04  0.10100000352E+00 0. -1.
</event>
<event>
 5   0  0.4992668E-07  0.2699949E+04  0.7818609E-02  0.8335022E-01
       -2   -1    0    0    0  501  0.00000000000E+00  0.00000000000E+00  0.86794134886E+03  0.86794134887E+03  0.25500000920E-02 0. -1.
        2   -1    0    0  501    0  0.00000000000E+00  0.00000000000E+00 -0.20997162427E+04  0.20997162427E+04  0.25500000920E-02 0.  1.
    10030    2    1    2    0    0  0.00000000000E+00  0.00000000000E+00 -0.12317748938E+04  0.29676575916E+04  0.26999485535E+04 0.  0.
        1    1    3    3  502    0  0.63932967843E+03  0.45261121127E+03  0.59259718594E+03  0.98222745385E+03  0.50400001928E-02 0. -1.
       -1    1    3    3    0  502 -0.63932967843E+03 -0.45261121127E+03 -0.18243720798E+04  0.19854301377E+04  0.50400001928E-02 0.  1.
</event>
<event>
 5   0  0.4983208E-07  0.2694042E+04  0.7818609E-02  0.8336941E-01
        2   -1    0    0  501    0  0.00000000000E+00  0.00000000000E+00  0.14838991746E+04  0.14838991746E+04  0.25500000920E-02 0.  1.
       -2   -1    0    0    0  501  0.00000000000E+00  0.00000000000E+00 -0.12227686939E+04  0.12227686939E+04  0.25500000920E-02 0. -1.
    10030    2    1    2    0    0  0.00000000000E+00  0.00000000000E+00  0.26113048069E+03  0.27066678686E+04  0.26940419118E+04 0.  0.
        4    1    3    3  502    0 -0.63768487746E+03 -0.28029872677E+03 -0.10277711041E+04  0.12415814249E+04  0.12699999809E+01 0. -1.
       -4    1    3    3    0  502  0.63768487746E+03  0.28029872677E+03  0.12889015848E+04  0.14650864437E+04  0.12699999809E+01 0.  1.
</event>
<event>
 5   0  0.1888149E-07  0.2700336E+04  0.7818609E-02  0.8334896E-01
       -1   -1    0    0    0  501  0.00000000000E+00  0.00000000000E+00  0.13981198749E+04  0.13981198749E+04  0.50400001928E-02 0. -1.
        1   -1    0    0  501    0  0.00000000000E+00  0.00000000000E+00 -0.13038611790E+04  0.13038611790E+04  0.50400001928E-02 0.  1.
    10030    2    1    2    0    0  0.00000000000E+00  0.00000000000E+00  0.94258695827E+02  0.27019810539E+04  0.27003364446E+04 0.  0.
        1    1    3    3  502    0  0.13966912987E+03  0.83000372473E+03  0.11034903608E+04  0.13878417148E+04  0.50400001928E-02 0. -1.
       -1    1    3    3    0  502 -0.13966912987E+03 -0.83000372473E+03 -0.10092316650E+04  0.13141393391E+04  0.50400001928E-02 0.  1.
</event>
<event>
 5   0  0.4992668E-07  0.2679483E+04  0.7818609E-02  0.8341693E-01
        2   -1    0    0  501    0  0.00000000000E+00  0.00000000000E+00  0.22499359147E+04  0.22499359147E+04  0.25500000920E-02 0. -1.
       -2   -1    0    0    0  501  0.00000000000E+00  0.00000000000E+00 -0.79775915987E+03  0.79775915988E+03  0.25500000920E-02 0.  1.
    10030    2    1    2    0    0  0.00000000000E+00  0.00000000000E+00  0.14521767548E+04  0.30476950746E+04  0.26794827748E+04 0.  0.
        1    1    3    3  502    0  0.23181439252E+03 -0.50205317190E+02  0.22258645122E+04  0.22384662859E+04  0.50400001928E-02 0. -1.
       -1    1    3    3    0  502 -0.23181439252E+03  0.50205317190E+02 -0.77368775738E+03  0.80922878866E+03  0.50400001928E-02 0.  1.
</event>
<event>
 5   0  0.4983208E-07  0.2700020E+04  0.7818609E-02  0.8334999E-01
       -2   -1    0    0    0  501  0.00000000000E+00  0.00000000000E+00  0.95602937704E+03  0.95602937705E+03  0.25500000920E-02 0. -1.
        2   -1    0    0  501    0  0.00000000000E+00  0.00000000000E+00 -0.19063501812E+04  0.19063501812E+04  0.25500000920E-02 0.  1.
    10030    2    1    2    0    0  0.00000000000E+00  0.00000000000E+00 -0.95032080418E+03  0.28623795583E+04  0.27000198341E+04 0.  0.
        4    1    3    3  502    0  0.64221273825E+03  0.95013720259E+03  0.27993941646E+03  0.11804937927E+04  0.12699999809E+01 0. -1.
       -4    1    3    3    0  502 -0.64221273825E+03 -0.95013720259E+03 -0.12302602206E+04  0.16818857655E+04  0.12699999809E+01 0.  1.
</event>
<event>
 5   0  0.4843887E-07  0.2696963E+04  0.7818609E-02  0.8335991E-01
       -2   -1    0    0    0  501  0.00000000000E+00  0.00000000000E+00  0.11019557628E+04  0.11019557628E+04  0.25500000920E-02 0. -1.
        2   -1    0    0  501    0  0.00000000000E+00  0.00000000000E+00 -0.16501597307E+04  0.16501597307E+04  0.25500000920E-02 0.  1.
    10030    2    1    2    0    0  0.00000000000E+00  0.00000000000E+00 -0.54820396787E+03  0.27521154935E+04  0.26969634961E+04 0.  0.
        5    1    3    3  502    0  0.27358635417E+03  0.37595574403E+03 -0.15657626126E+04  0.16333483595E+04  0.46999998093E+01 0.  1.
       -5    1    3    3    0  502 -0.27358635417E+03 -0.37595574403E+03  0.10175586447E+04  0.11187671340E+04  0.46999998093E+01 0. -1.
</event>
<event>
 5   0  0.4992668E-07  0.2711691E+04  0.7818609E-02  0.8331222E-01
        2   -1    0    0  501    0  0.00000000000E+00  0.00000000000E+00  0.16561431308E+04  0.16561431308E+04  0.25500000920E-02 0. -1.
       -2   -1    0    0    0  501  0.00000000000E+00  0.00000000000E+00 -0.11099990389E+04  0.11099990389E+04  0.25500000920E-02 0.  1.
    10030    2    1    2    0    0  0.00000000000E+00  0.00000000000E+00  0.54614409192E+03  0.27661421697E+04  0.27116911944E+04 0.  0.
        1    1    3    3  502    0  0.41165018313E+03  0.38964851949E+03  0.15294842035E+04  0.16311357304E+04  0.50400001928E-02 0. -1.
       -1    1    3    3    0  502 -0.41165018313E+03 -0.38964851949E+03 -0.98334011163E+03  0.11350064393E+04  0.50400001928E-02 0.  1.
</event>
<event>
 5   0  0.4843887E-07  0.2700692E+04  0.7818609E-02  0.8334781E-01
        2   -1    0    0  501    0  0.00000000000E+00  0.00000000000E+00  0.16187012881E+04  0.16187012881E+04  0.25500000920E-02 0.  1.
       -2   -1    0    0    0  501  0.00000000000E+00  0.00000000000E+00 -0.11264794032E+04  0.11264794032E+04  0.25500000920E-02 0. -1.
    10030    2    1    2    0    0  0.00000000000E+00  0.00000000000E+00  0.49222188491E+03  0.27451806913E+04  0.27006915122E+04 0.  0.
        5    1    3    3  502    0 -0.19939053813E+03  0.13033796302E+04 -0.49989171335E+02  0.13194984102E+04  0.46999998093E+01 0. -1.
       -5    1    3    3    0  502  0.19939053813E+03 -0.13033796302E+04  0.54221105625E+03  0.14256822811E+04  0.46999998093E+01 0.  1.
</event>
<event>
 5   0  0.4992668E-07  0.2699262E+04  0.7818609E-02  0.8335244E-01
       -2   -1    0    0    0  501  0.00000000000E+00  0.00000000000E+00  0.15318122880E+04  0.15318122880E+04  0.25500000920E-02 0.  1.
        2   -1    0    0  501    0  0.00000000000E+00  0.00000000000E+00 -0.11891172548E+04  0.11891172548E+04  0.25500000920E-02 0. -1.
    10030    2    1    2    0    0  0.00000000000E+00  0.00000000000E+00  0.34269503317E+03  0.27209295427E+04  0.26992624346E+04 0.  0.
        1    1    3    3  502    0 -0.97511105288E+03  0.57200813055E+03  0.91446896392E+03  0.14540592673E+04  0.50400001928E-02 0.  1.
       -1    1    3    3    0  502  0.97511105288E+03 -0.57200813055E+03 -0.57177393075E+03  0.12668702754E+04  0.50400001928E-02 0. -1.
</event>
<event>
 5   0  0.1965415E-07  0.2700755E+04  0.7818609E-02  0.8334760E-01
       -1   -1    0    0    0  501  0.00000000000E+00  0.00000000000E+00  0.10192554639E+04  0.10192554639E+04  0.50400001928E-02 0. -1.
        1   -1    0    0  501    0  0.00000000000E+00  0.00000000000E+00 -0.17890705725E+04  0.17890705725E+04  0.50400001928E-02 0.  1.
    10030    2    1    2    0    0  0.00000000000E+00  0.00000000000E+00 -0.76981510854E+03  0.28083260364E+04  0.27007554175E+04 0.  0.
        4    1    3    3  502    0  0.13746070913E+03 -0.43604662891E+03  0.93632554090E+03  0.10419881192E+04  0.12699999809E+01 0. -1.
       -4    1    3    3    0  502 -0.13746070913E+03  0.43604662891E+03 -0.17061406494E+04  0.17663379172E+04  0.12699999809E+01 0.  1.
</event>
<event>
 5   0  0.1937896E-07  0.2698824E+04  0.7818609E-02  0.8335387E-01
        1   -1    0    0  501    0  0.00000000000E+00  0.00000000000E+00  0.28088345593E+04  0.28088345593E+04  0.50400001928E-02 0. -1.
       -1   -1    0    0    0  501  0.00000000000E+00  0.00000000000E+00 -0.64828070060E+03  0.64828070062E+03  0.50400001928E-02 0.  1.
    10030    2    1    2    0    0  0.00000000000E+00  0.00000000000E+00  0.21605538587E+04  0.34571152599E+04  0.26988243633E+04 0.  0.
        3    1    3    3  502    0 -0.10567263534E+04  0.31553261620E+03  0.84177506413E+02  0.11060367448E+04  0.10100000352E+00 0.  1.
       -3    1    3    3    0  502  0.10567263534E+04 -0.31553261620E+03  0.20763763523E+04  0.23510785152E+04  0.10100000352E+00 0. -1.
</event>
<event>
 5   0  0.4992668E-07  0.2700546E+04  0.7818609E-02  0.8334828E-01
        2   -1    0    0  501    0  0.00000000000E+00  0.00000000000E+00  0.15307697372E+04  0.15307697372E+04  0.25500000920E-02 0.  1.
       -2   -1    0    0    0  501  0.00000000000E+00  0.00000000000E+00 -0.11910593601E+04  0.11910593601E+04  0.25500000920E-02 0. -1.
    10030    2    1    2    0    0  0.00000000000E+00  0.00000000000E+00  0.33971037703E+03  0.27218290973E+04  0.27005463326E+04 0.  0.
        1    1    3    3  502    0 -0.78117334242E+03  0.10844689322E+04  0.36354925802E+03  0.13850894263E+04  0.50400001928E-02 0. -1.
       -1    1    3    3    0  502  0.78117334242E+03 -0.10844689322E+04 -0.23838880986E+02  0.13367396710E+04  0.50400001928E-02 0.  1.
</event>
<event>
 5   0  0.1964242E-07  0.2700467E+04  0.7818609E-02  0.8334854E-01
        1   -1    0    0  501    0  0.00000000000E+00  0.00000000000E+00  0.18415764100E+04  0.18415764100E+04  0.50400001928E-02 0. -1.
       -1   -1    0    0    0  501  0.00000000000E+00  0.00000000000E+00 -0.98998327469E+03  0.98998327471E+03  0.50400001928E-02 0.  1.
    10030    2    1    2    0    0  0.00000000000E+00  0.00000000000E+00  0.85159313530E+03  0.28315596847E+04  0.27004665115E+04 0.  0.
        2    1    3    3  502    0 -0.11194719006E+04  0.21887453973E+03 -0.33177707563E+03  0.11879391517E+04  0.25500000920E-02 0.  1.
       -2    1    3    3    0  502  0.11194719006E+04 -0.21887453973E+03  0.11833702109E+04  0.16436205330E+04  0.25500000920E-02 0. -1.
</event>
<event>
 5   0  0.4735120E-07  0.2700566E+04  0.7818609E-02  0.8334821E-01
        2   -1    0    0  501    0  0.00000000000E+00  0.00000000000E+00  0.17341898396E+04  0.17341898396E+04  0.25500000920E-02 0.  1.
       -2   -1    0    0    0  501  0.00000000000E+00  0.00000000000E+00 -0.10513639809E+04  0.10513639809E+04  0.25500000920E-02 0. -1.
    10030    2    1    2    0    0  0.00000000000E+00  0.00000000000E+00  0.68282585869E+03  0.27855538205E+04  0.27005664098E+04 0.  0.
        2    1    3    3  502    0  0.55793073231E+03 -0.24612507228E+03  0.15840672200E+04  0.16973901175E+04  0.25500000920E-02 0.  1.
       -2    1    3    3    0  502 -0.55793073231E+03  0.24612507228E+03 -0.90124136136E+03  0.10881637031E+04  0.25500000920E-02 0. -1.
</event>
<event>
 5   0  0.1965415E-07  0.2701766E+04  0.7818609E-02  0.8334432E-01
       -1   -1    0    0    0  501  0.00000000000E+00  0.00000000000E+00  0.17713334622E+04  0.17713334622E+04  0.50400001928E-02 0.  1.
        1   -1    0    0  501    0  0.00000000000E+00  0.00000000000E+00 -0.10302320575E+04  0.10302320576E+04  0.50400001928E-02 0. -1.
    10030    2    1    2    0    0  0.00000000000E+00  0.00000000000E+00  0.74110140467E+03  0.28015655198E+04  0.27017657318E+04 0.  0.
        4    1    3    3  502    0  0.41061600782E+03 -0.51067852282E+03 -0.85439166783E+03  0.10767473216E+04  0.12699999809E+01 0. -1.
       -4    1    3    3    0  502 -0.41061600782E+03  0.51067852282E+03  0.15954930725E+04  0.17248181982E+04  0.12699999809E+01 0.  1.
</event>
<event>
 5   0  0.4843887E-07  0.2699688E+04  0.7818609E-02  0.8335106E-01
        2   -1    0    0  501    0  0.00000000000E+00  0.00000000000E+00  0.12334603356E+04  0.12334603356E+04  0.25500000920E-02 0.  1.
       -2   -1    0    0    0  501  0.00000000000E+00  0.00000000000E+00 -0.14772091470E+04  0.14772091471E+04  0.25500000920E-02 0. -1.
    10030    2    1    2    0    0  0.00000000000E+00  0.00000000000E+00 -0.24374881146E+03  0.27106694826E+04  0.26996880488E+04 0.  0.
        5    1    3    3  502    0 -0.33134650247E+03  0.11940330700E+04  0.41560792487E+03  0.13070032571E+04  0.46999998093E+01 0.  1.
       -5    1    3    3    0  502  0.33134650247E+03 -0.11940330700E+04 -0.65935673632E+03  0.14036662255E+04  0.46999998093E+01 0. -1.
</event>
<event>
 5   0  0.1888149E-07  0.2699889E+04  0.7818609E-02  0.8335041E-01
       -1   -1    0    0    0  501  0.00000000000E+00  0.00000000000E+00  0.14744098578E+04  0.14744098578E+04  0.50400001928E-02 0. -1.
        1   -1    0    0  501    0  0.00000000000E+00  0.00000000000E+00 -0.12359858676E+04  0.12359858677E+04  0.50400001928E-02 0.  1.
    10030    2    1    2    0    0  0.00000000000E+00  0.00000000000E+00  0.23842399019E+03  0.27103957255E+04  0.26998886995E+04 0.  0.
        1    1    3    3  502    0 -0.80185199498E+03  0.64735738790E+03  0.99456380316E+03  0.14321994861E+04  0.50400001928E-02 0. -1.
       -1    1    3    3    0  502  0.80185199498E+03 -0.64735738790E+03 -0.75613981297E+03  0.12781962394E+04  0.50400001928E-02 0.  1.
</event>
<event>
 5   0  0.4992668E-07  0.2698256E+04  0.7818609E-02  0.8335571E-01
        2   -1    0    0  501    0  0.00000000000E+00  0.00000000000E+00  0.10461785140E+04  0.10461785140E+04  0.25500000920E-02 0.  1.
       -2   -1    0    0    0  501  0.00000000000E+00  0.00000000000E+00 -0.17398043461E+04  0.17398043461E+04  0.25500000920E-02 0. -1.
    10030    2    1    2    0    0  0.00000000000E+00  0.00000000000E+00 -0.69362583211E+03  0.27859828600E+04  0.26982556775E+04 0.  0.
        1    1    3    3  502    0  0.52094207546E+03 -0.22107080615E+03  0.91770642580E+03  0.10781641950E+04  0.50400001928E-02 0.  1.
       -1    1    3    3    0  502 -0.52094207546E+03  0.22107080615E+03 -0.16113322579E+04  0.17078186651E+04  0.50400001928E-02 0. -1.
</event>
<event>
 5   0  0.1964242E-07  0.2700430E+04  0.7818609E-02  0.8334865E-01
       -1   -1    0    0    0  501  0.00000000000E+00  0.00000000000E+00  0.13412203537E+04  0.13412203537E+04  0.50400001928E-02 0. -1.
        1   -1    0    0  501    0  0.00000000000E+00  0.00000000000E+00 -0.13592700350E+04  0.13592700350E+04  0.50400001928E-02 0.  1.
    10030    2    1    2    0    0  0.00000000000E+00  0.00000000000E+00 -0.18049681351E+02  0.27004903887E+04  0.27004300674E+04 0.  0.
        2    1    3    3  502    0 -0.12139882072E+03  0.13158006235E+04  0.26849114690E+03  0.13483903182E+04  0.25500000920E-02 0. -1.
       -2    1    3    3    0  502  0.12139882072E+03 -0.13158006235E+04 -0.28654082826E+03  0.13521000705E+04  0.25500000920E-02 0.  1.
</event>
<event>
 5   0  0.1964242E-07  0.2691302E+04  0.7818609E-02  0.8337833E-01
       -1   -1    0    0    0  501  0.00000000000E+00  0.00000000000E+00  0.22490883222E+04  0.22490883222E+04  0.50400001928E-02 0. -1.
        1   -1    0    0  501    0  0.00000000000E+00  0.00000000000E+00 -0.80511555180E+03  0.80511555181E+03  0.50400001928E-02 0.  1.
    10030    2    1    2    0    0  0.00000000000E+00  0.00000000000E+00  0.14439727704E+04  0.30542038740E+04  0.26913015332E+04 0.  0.
        2    1    3    3  502    0 -0.11491358544E+04 -0.56840621392E+03  0.25797982255E+03  0.13077279628E+04  0.25500000920E-02 0.  1.
       -2    1    3    3    0  502  0.11491358544E+04  0.56840621392E+03  0.11859929479E+04  0.17464759112E+04  0.25500000920E-02 0. -1.
</event>
<event>
 5   0  0.1971600E-07  0.2702218E+04  0.7818609E-02  0.8334286E-01
       -1   -1    0    0    0  501  0.00000000000E+00  0.00000000000E+00  0.15281253888E+04  0.15281253888E+04  0.50400001928E-02 0. -1.
        1   -1    0    0  501    0  0.00000000000E+00  0.00000000000E+00 -0.11945982757E+04  0.11945982757E+04  0.50400001928E-02 0.  1.
    10030    2    1    2    0    0  0.00000000000E+00  0.00000000000E+00  0.33352711313E+03  0.27227236646E+04  0.27022183143E+04 0.  0.
        5    1    3    3  502    0 -0.99156961995E+03  0.30170142499E+03  0.10400815900E+04  0.14683411950E+04  0.46999998093E+01 0. -1.
       -5    1    3    3    0  502  0.99156961995E+03 -0.30170142499E+03 -0.70655447691E+03  0.12543824695E+04  0.46999998093E+01 0.  1.
</event>
<event>
 5   0  0.1971600E-07  0.2698953E+04  0.7818609E-02  0.8335345E-01
        1   -1    0    0  501    0  0.00000000000E+00  0.00000000000E+00  0.23275876384E+04  0.23275876384E+04  0.50400001928E-02 0.  1.
       -1   -1    0    0    0  501  0.00000000000E+00  0.00000000000E+00 -0.78239228176E+03  0.78239228178E+03  0.50400001928E-02 0. -1.
    10030    2    1    2    0    0  0.00000000000E+00  0.00000000000E+00  0.15451953566E+04  0.31099799201E+04  0.26989528365E+04 0.  0.
        5    1    3    3  502    0 -0.11899797481E+04 -0.37483103395E+03  0.13652322141E+04  0.18494407785E+04  0.46999998093E+01 0.  1.
       -5    1    3    3    0  502  0.11899797481E+04  0.37483103395E+03  0.17996314248E+03  0.12605391416E+04  0.46999998093E+01 0. -1.
</event>
<event>
 5   0  0.1965415E-07  0.2698898E+04  0.7818609E-02  0.8335363E-01
        1   -1    0    0  501    0  0.00000000000E+00  0.00000000000E+00  0.17757934295E+04  0.17757934295E+04  0.50400001928E-02 0.  1.
       -1   -1    0    0    0  501  0.00000000000E+00  0.00000000000E+00 -0.10254642508E+04  0.10254642508E+04  0.50400001928E-02 0. -1.
    10030    2    1    2    0    0  0.00000000000E+00  0.00000000000E+00  0.75032917871E+03  0.28012576803E+04  0.26988980557E+04 0.  0.
        4    1    3    3  502    0  0.44024352870E+03 -0.72116236919E+03  0.14672691727E+04  0.16931538516E+04  0.12699999809E+01 0.  1.
       -4    1    3    3    0  502 -0.44024352870E+03  0.72116236919E+03 -0.71693999397E+03  0.11081038287E+04  0.12699999809E+01 0. -1.
</event>
<event>
 5   0  0.4983208E-07  0.2699820E+04  0.7818609E-02  0.8335063E-01
       -2   -1    0    0    0  501  0.00000000000E+00  0.00000000000E+00  0.79679557381E+03  0.79679557381E+03  0.25500000920E-02 0. -1.
        2   -1    0    0  501    0  0.00000000000E+00  0.00000000000E+00 -0.22869813548E+04  0.22869813548E+04  0.25500000920E-02 0.  1.
    10030    2    1    2    0    0  0.00000000000E+00  0.00000000000E+00 -0.14901857810E+04  0.30837769286E+04  0.26998197132E+04 0.  0.
        4    1    3    3  502    0 -0.42653211166E+03  0.36709699457E+03 -0.21466085975E+04  0.22191484694E+04  0.12699999809E+01 0.  1.
       -4    1    3    3    0  502  0.42653211166E+03 -0.36709699457E+03  0.65642281643E+03  0.86462845924E+03  0.12699999809E+01 0. -1.
</event>
<event>
 5   0  0.4992668E-07  0.2700849E+04  0.7818609E-02  0.8334729E-01
        2   -1    0    0  501    0  0.00000000000E+00  0.00000000000E+00  0.18329058598E+04  0.18329058598E+04  0.25500000920E-02 0.  1.
       -2   -1    0    0    0  501  0.00000000000E+00  0.00000000000E+00 -0.99494843844E+03  0.99494843844E+03  0.25500000920E-02 0. -1.
    10030    2    1    2    0    0  0.00000000000E+00  0.00000000000E+00  0.83795742134E+03  0.28278542982E+04  0.27008493649E+04 0.  0.
        1    1    3    3  502    0  0.23309097821E+03 -0.12681005784E+04  0.83940332510E+03  0.15385085061E+04  0.50400001928E-02 0. -1.
       -1    1    3    3    0  502 -0.23309097821E+03  0.12681005784E+04 -0.14459037616E+01  0.12893457921E+04  0.50400001928E-02 0.  1.
</event>
<event>
 5   0  0.4843887E-07  0.2708322E+04  0.7818609E-02  0.8332310E-01
       -2   -1    0    0    0  501  0.00000000000E+00  0.00000000000E+00  0.12647955500E+04  0.12647955500E+04  0.25500000920E-02 0.  1.
        2   -1    0    0  501    0  0.00000000000E+00  0.00000000000E+00 -0.14498409012E+04  0.14498409012E+04  0.25500000920E-02 0. -1.
    10030    2    1    2    0    0  0.00000000000E+00  0.00000000000E+00 -0.18504535125E+03  0.27146364512E+04  0.27083222261E+04 0.  0.
        5    1    3    3  502    0 -0.86474867064E+02 -0.12044798678E+04 -0.70671598327E+03  0.13991852006E+04  0.46999998093E+01 0. -1.
       -5    1    3    3    0  502  0.86474867064E+02  0.12044798678E+04  0.52167063202E+03  0.13154512507E+04  0.46999998093E+01 0.  1.
</event>
<event>
 5   0  0.4735120E-07  0.2700269E+04  0.7818609E-02  0.8334918E-01
        2   -1    0    0  501    0  0.00000000000E+00  0.00000000000E+00  0.17129053045E+04  0.17129053045E+04  0.25500000920E-02 0.  1.
       -2   -1    0    0    0  501  0.00000000000E+00  0.00000000000E+00 -0.10641937191E+04  0.10641937191E+04  0.25500000920E-02 0. -1.
    10030    2    1    2    0    0  0.00000000000E+00  0.00000000000E+00  0.64871158535E+03  0.27770990236E+04  0.27002689247E+04 0.  0.
        2    1    3    3  502    0 -0.81488991511E+03  0.74051143915E+03  0.11279060797E+04  0.15762534346E+04  0.25500000920E-02 0.  1.
       -2    1    3    3    0  502  0.81488991511E+03 -0.74051143915E+03 -0.47919449439E+03  0.12008455890E+04  0.25500000920E-02 0. -1.
</event>
<event>
 5   0  0.1964242E-07  0.2695908E+04  0.7818609E-02  0.8336334E-01
       -1   -1    0    0    0  501  0.00000000000E+00  0.00000000000E+00  0.14039835797E+04  0.14039835797E+04  0.50400001928E-02 0.  1.
        1   -1    0    0  501    0  0.00000000000E+00  0.00000000000E+00 -0.12941605751E+04  0.12941605751E+04  0.50400001928E-02 0. -1.
    10030    2    1    2    0    0  0.00000000000E+00  0.00000000000E+00  0.10982300458E+03  0.26981441548E+04  0.26959081564E+04 0.  0.
        2    1    3    3  502    0 -0.48868544003E+03 -0.35755473630E+03 -0.11503802267E+04  0.13000128902E+04  0.25500000920E-02 0. -1.
       -2    1    3    3    0  502  0.48868544003E+03  0.35755473630E+03  0.12602032313E+04  0.13981312646E+04  0.25500000920E-02 0.  1.
</event>
<event>
 5   0  0.1888149E-07  0.2699022E+04  0.7818609E-02  0.8335322E-01
        1   -1    0    0  501    0  0.00000000000E+00  0.00000000000E+00  0.16280637308E+04  0.16280637308E+04  0.50400001928E-02 0.  1.
       -1   -1    0    0    0  501  0.00000000000E+00  0.00000000000E+00 -0.11186167859E+04  0.11186167859E+04  0.50400001928E-02 0. -1.
    10030    2    1    2    0    0  0.00000000000E+00  0.00000000000E+00  0.50944694495E+03  0.27466805168E+04  0.26990216137E+04 0.  0.
        1    1    3    3  502    0  0.68456596425E+03  0.49224248085E+03  0.13270114381E+04  0.15722253580E+04  0.50400001928E-02 0.  1.
       -1    1    3    3    0  502 -0.68456596425E+03 -0.49224248085E+03 -0.81756449319E+03  0.11744551587E+04  0.50400001928E-02 0. -1.
</event>
<event>
 5   0  0.4843887E-07  0.2699721E+04  0.7818609E-02  0.8335096E-01
       -2   -1    0    0    0  501  0.00000000000E+00  0.00000000000E+00  0.77862407438E+03  0.77862407438E+03  0.25500000920E-02 0.  1.
        2   -1    0    0  501    0  0.00000000000E+00  0.00000000000E+00 -0.23401833139E+04  0.23401833139E+04  0.25500000920E-02 0. -1.
    10030    2    1    2    0    0  0.00000000000E+00  0.00000000000E+00 -0.15615592395E+04  0.31188073882E+04  0.26997207757E+04 0.  0.
        5    1    3    3  502    0  0.39166759238E+03  0.43316403642E+03 -0.21866878366E+04  0.22633294877E+04  0.46999998093E+01 0. -1.
       -5    1    3    3    0  502 -0.39166759238E+03 -0.43316403642E+03  0.62512859709E+03  0.85547790052E+03  0.46999998093E+01 0.  1.
</event>
<event>
 5   0  0.4992668E-07  0.2699422E+04  0.7818609E-02  0.8335193E-01
        2   -1    0    0  501    0  0.00000000000E+00  0.00000000000E+00  0.20666104025E+04  0.20666104025E+04  0.25500000920E-02 0.  1.
       -2   -1    0    0    0  501  0.00000000000E+00  0.00000000000E+00 -0.88150111833E+03  0.88150111833E+03  0.25500000920E-02 0. -1.
    10030    2    1    2    0    0  0.00000000000E+00  0.00000000000E+00  0.11851092841E+04  0.29481115208E+04  0.26994217017E+04 0.  0.
        1    1    3    3  502    0  0.10395898900E+04  0.86045286883E+03  0.61915196183E+03  0.14847475983E+04  0.50400001928E-02 0.  1.
       -1    1    3    3    0  502 -0.10395898900E+04 -0.86045286883E+03  0.56595732232E+03  0.14633639225E+04  0.50400001928E-02 0. -1.
</event>
<event>
 5   0  0.1641625E-07  0.2699048E+04  0.7818609E-02  0.8335314E-01
        3   -1    0    0  501    0  0.00000000000E+00  0.00000000000E+00  0.24991663076E+04  0.24991663096E+04  0.10100000352E+00 0.  1.
       -3   -1    0    0    0  501  0.00000000000E+00  0.00000000000E+00 -0.72872878497E+03  0.72872879197E+03  0.10100000352E+00 0. -1.
    10030    2    1    2    0    0  0.00000000000E+00  0.00000000000E+00  0.17704375226E+04  0.32278951016E+04  0.26990475664E+04 0.  0.
        2    1    3    3  502    0 -0.29561452818E+03 -0.13284883425E+03  0.24519337527E+04  0.24732601742E+04  0.25500000920E-02 0.  1.
       -2    1    3    3    0  502  0.29561452818E+03  0.13284883425E+03 -0.68149623004E+03  0.75463492737E+03  0.25500000920E-02 0. -1.
</event>
<event>
 5   0  0.1937896E-07  0.2703274E+04  0.7818609E-02  0.8333943E-01
       -1   -1    0    0    0  501  0.00000000000E+00  0.00000000000E+00  0.15433309894E+04  0.15433309894E+04  0.50400001928E-02 0. -1.
        1   -1    0    0  501    0  0.00000000000E+00  0.00000000000E+00 -0.11837533648E+04  0.11837533648E+04  0.50400001928E-02 0.  1.
    10030    2    1    2    0    0  0.00000000000E+00  0.00000000000E+00  0.35957762461E+03  0.27270843541E+04  0.27032744971E+04 0.  0.
        3    1    3    3  502    0  0.62504343170E+03  0.76625221968E+03 -0.74979429910E+03  0.12409727059E+04  0.10100000352E+00 0.  1.
       -3    1    3    3    0  502 -0.62504343170E+03 -0.76625221968E+03  0.11093719237E+04  0.14861116482E+04  0.10100000352E+00 0. -1.
</event>
<event>
 5   0  0.4843887E-07  0.2702812E+04  0.7818609E-02  0.8334093E-01
       -2   -1    0    0    0  501  0.00000000000E+00  0.00000000000E+00  0.80670262692E+03  0.80670262693E+03  0.25500000920E-02 0.  1.
        2   -1    0    0  501    0  0.00000000000E+00  0.00000000000E+00 -0.22639048739E+04  0.22639048739E+04  0.25500000920E-02 0. -1.
    10030    2    1    2    0    0  0.00000000000E+00  0.00000000000E+00 -0.14572022470E+04  0.30706075008E+04  0.27028118757E+04 0.  0.
        5    1    3    3  502    0  0.18545002852E+03 -0.94502495124E+03  0.34846639881E+03  0.10241654127E+04  0.46999998093E+01 0.  1.
       -5    1    3    3    0  502 -0.18545002852E+03  0.94502495124E+03 -0.18056686458E+04  0.20464420881E+04  0.46999998093E+01 0. -1.
</event>
<event>
 5   0  0.1937896E-07  0.2702650E+04  0.7818609E-02  0.8334146E-01
       -1   -1    0    0    0  501  0.00000000000E+00  0.00000000000E+00  0.91887953325E+03  0.91887953327E+03  0.50400001928E-02 0. -1.
        1   -1    0    0  501    0  0.00000000000E+00  0.00000000000E+00 -0.19872895772E+04  0.19872895772E+04  0.50400001928E-02 0.  1.
    10030    2    1    2    0    0  0.00000000000E+00  0.00000000000E+00 -0.10684100439E+04  0.29061691105E+04  0.27026503430E+04 0.  0.
        3    1    3    3  502    0 -0.11031052366E+03  0.62642860281E+03 -0.18162528388E+04  0.19244104527E+04  0.10100000352E+00 0.  1.
       -3    1    3    3    0  502  0.11031052366E+03 -0.62642860281E+03  0.74784279483E+03  0.98175865773E+03  0.10100000352E+00 0. -1.
</event>
<event>
 5   0  0.4843887E-07  0.2697731E+04  0.7818609E-02  0.8335741E-01
       -2   -1    0    0    0  501  0.00000000000E+00  0.00000000000E+00  0.10769908126E+04  0.10769908126E+04  0.25500000920E-02 0.  1.
        2   -1    0    0  501    0  0.00000000000E+00  0.00000000000E+00 -0.16893724257E+04  0.16893724257E+04  0.25500000920E-02 0. -1.
    10030    2    1    2    0    0  0.00000000000E+00  0.00000000000E+00 -0.61238161303E+03  0.27663632383E+04  0.26977313295E+04 0.  0.
        5    1    3    3  502    0 -0.31593204775E+03  0.79232561370E+03 -0.13776773935E+04  0.16203734222E+04  0.46999998093E+01 0. -1.
       -5    1    3    3    0  502  0.31593204775E+03 -0.79232561370E+03  0.76529578048E+03  0.11459898161E+04  0.46999998093E+01 0.  1.
</event>
<event>
 5   0  0.1964242E-07  0.2712797E+04  0.7818609E-02  0.8330865E-01
        1   -1    0    0  501    0  0.00000000000E+00  0.00000000000E+00  0.22250297433E+04  0.22250297433E+04  0.50400001928E-02 0.  1.
       -1   -1    0    0    0  501  0.00000000000E+00  0.00000000000E+00 -0.82687288684E+03  0.82687288685E+03  0.50400001928E-02 0. -1.
    10030    2    1    2    0    0  0.00000000000E+00  0.00000000000E+00  0.13981568564E+04  0.30519026301E+04  0.27127969088E+04 0.  0.
        2    1    3    3  502    0  0.17127419495E+03 -0.11666881160E+04 -0.55026245864E+02  0.11804761318E+04  0.25500000920E-02 0. -1.
       -2    1    3    3    0  502 -0.17127419495E+03  0.11666881160E+04  0.14531831023E+04  0.18714264984E+04  0.25500000920E-02 0.  1.
</event>
<event>
 5   0  0.4992668E-07  0.2699691E+04  0.7818609E-02  0.8335105E-01
        2   -1    0    0  501    0  0.00000000000E+00  0.00000000000E+00  0.19570528753E+04  0.19570528753E+04  0.25500000920E-02 0.  1.
       -2   -1    0    0    0  501  0.00000000000E+00  0.00000000000E+00 -0.93103404563E+03  0.93103404563E+03  0.25500000920E-02 0. -1.
    10030    2    1    2    0    0  0.00000000000E+00  0.00000000000E+00  0.10260188297E+04  0.28880869209E+04  0.26996909868E+04 0.  0.
        1    1    3    3  502    0  0.51988021958E+03 -0.93552523472E+03  0.13929678999E+04  0.17566566192E+04  0.50400001928E-02 0.  1.
       -1    1    3    3    0  502 -0.51988021958E+03  0.93552523472E+03 -0.36694907025E+03  0.11314303017E+04  0.50400001928E-02 0. -1.
</event>
<event>
 5   0  0.1964242E-07  0.2698543E+04  0.7818609E-02  0.8335478E-01
       -1   -1    0    0    0  501  0.00000000000E+00  0.00000000000E+00  0.84127934276E+03  0.84127934277E+03  0.50400001928E-02 0.  1.
        1   -1    0    0  501    0  0.00000000000E+00  0.00000000000E+00 -0.21640060435E+04  0.21640060435E+04  0.50400001928E-02 0. -1.
    10030    2    1    2    0    0  0.00000000000E+00  0.00000000000E+00 -0.13227267007E+04  0.30052853863E+04  0.26985430010E+04 0.  0.
        2    1    3    3  502    0  0.25520501751E+03  0.76036075961E+03  0.54698384948E+03  0.97080864094E+03  0.25500000920E-02 0.  1.
       -2    1    3    3    0  502 -0.25520501751E+03 -0.76036075961E+03 -0.18697105502E+04  0.20344767453E+04  0.25500000920E-02 0. -1.
</event>
<event>
 5   0  0.4983208E-07  0.2697311E+04  0.7818609E-02  0.8335878E-01
       -2   -1    0    0    0  501  0.00000000000E+00  0.00000000000E+00  0.82535250276E+03  0.82535250277E+03  0.25500000920E-02 0.  1.
        2   -1    0    0  501    0  0.00000000000E+00  0.00000000000E+00 -0.22037509625E+04  0.22037509625E+04  0.25500000920E-02 0. -1.
    10030    2    1    2    0    0  0.00000000000E+00  0.00000000000E+00 -0.13783984598E+04  0.30291034653E+04  0.26973107885E+04 0.  0.
        4    1    3    3  502    0  0.76760085835E+03  0.66211118812E+03 -0.16881515743E+04  0.19691266221E+04  0.12699999809E+01 0. -1.
       -4    1    3    3    0  502 -0.76760085835E+03 -0.66211118812E+03  0.30975311456E+03  0.10599768432E+04  0.12699999809E+01 0.  1.
</event>
<event>
 5   0  0.1965415E-07  0.2699817E+04  0.7818609E-02  0.8335064E-01
       -1   -1    0    0    0  501  0.00000000000E+00  0.00000000000E+00  0.78857595287E+03  0.78857595289E+03  0.50400001928E-02 0. -1.
        1   -1    0    0  501    0  0.00000000000E+00  0.00000000000E+00 -0.23108145382E+04  0.23108145382E+04  0.50400001928E-02 0.  1.
    10030    2    1    2    0    0  0.00000000000E+00  0.00000000000E+00 -0.15222385854E+04  0.30993904911E+04  0.26998168652E+04 0.  0.
        4    1    3    3  502    0 -0.45411941105E+03  0.12694963452E+04 -0.83731878646E+03  0.15871199618E+04  0.12699999809E+01 0.  1.
       -4    1    3    3    0  502  0.45411941105E+03 -0.12694963452E+04 -0.68491979891E+03  0.15122705293E+04  0.12699999809E+01 0. -1.
</event>
<event>
 5   0  0.1964242E-07  0.2700635E+04  0.7818609E-02  0.8334799E-01
        1   -1    0    0  501    0  0.00000000000E+00  0.00000000000E+00  0.15056779361E+04  0.15056779361E+04  0.50400001928E-02 0.  1.
       -1   -1    0    0    0  501  0.00000000000E+00  0.00000000000E+00 -0.12109875560E+04  0.12109875560E+04  0.50400001928E-02 0. -1.
    10030    2    1    2    0    0  0.00000000000E+00  0.00000000000E+00  0.29469038006E+03  0.27166654921E+04  0.27006349209E+04 0.  0.
        2    1    3    3  502    0  0.25153043922E+03  0.10860551582E+03 -0.11827342669E+04  0.12140523325E+04  0.25500000920E-02 0. -1.
       -2    1    3    3    0  502 -0.25153043922E+03 -0.10860551582E+03  0.14774246470E+04  0.15026131596E+04  0.25500000920E-02 0.  1.
</event>
<event>
 5   0  0.1971600E-07  0.2700456E+04  0.7818609E-02  0.8334857E-01
       -1   -1    0    0    0  501  0.00000000000E+00  0.00000000000E+00  0.14116533575E+04  0.14116533575E+04  0.50400001928E-02 0. -1.
        1   -1    0    0  501    0  0.00000000000E+00  0.00000000000E+00 -0.12914752566E+04  0.12914752566E+04  0.50400001928E-02 0.  1.
    10030    2    1    2    0    0  0.00000000000E+00  0.00000000000E+00  0.12017810089E+03  0.27031286140E+04  0.27004558001E+04 0.  0.
        5    1    3    3  502    0 -0.24986214154E+03  0.82837870430E+03  0.10976722436E+04  0.13976941053E+04  0.46999998093E+01 0. -1.
       -5    1    3    3    0  502  0.24986214154E+03 -0.82837870430E+03 -0.97749414275E+03  0.13054345087E+04  0.46999998093E+01 0.  1.
</event>
<event>
 5   0  0.1964242E-07  0.2707965E+04  0.7818609E-02  0.8332425E-01
        1   -1    0    0  501    0  0.00000000000E+00  0.00000000000E+00  0.14694152706E+04  0.14694152706E+04  0.50400001928E-02 0. -1.
       -1   -1    0    0    0  501  0.00000000000E+00  0.00000000000E+00 -0.12476179752E+04  0.12476179753E+04  0.50400001928E-02 0.  1.
    10030    2    1    2    0    0  0.00000000000E+00  0.00000000000E+00  0.22179729535E+03  0.27170332459E+04  0.27079652174E+04 0.  0.
        2    1    3    3  502    0 -0.31323759478E+02 -0.13289567717E+04 -0.14718171166E+03  0.13374489655E+04  0.25500000920E-02 0. -1.
       -2    1    3    3    0  502  0.31323759478E+02  0.13289567717E+04  0.36897900702E+03  0.13795842804E+04  0.25500000920E-02 0.  1.
</event>
<event>
 5   0  0.1937896E-07  0.2700189E+04  0.7818609E-02  0.8334944E-01
        1   -1    0    0  501    0  0.00000000000E+00  0.00000000000E+00  0.17654104640E+04  0.17654104640E+04  0.50400001928E-02 0.  1.
       -1   -1    0    0    0  501  0.00000000000E+00  0.00000000000E+00 -0.10324820312E+04  0.10324820312E+04  0.50400001928E-02 0. -1.
    10030    2    1    2    0    0  0.00000000000E+00  0.00000000000E+00  0.73292843280E+03  0.27978924952E+04  0.27001885725E+04 0.  0.
        3    1    3    3  502    0 -0.16948226801E+03 -0.35338558494E+02  0.17538607710E+04  0.17623849373E+04  0.10100000352E+00 0.  1.
       -3    1    3    3    0  502  0.16948226801E+03  0.35338558494E+02 -0.10209323382E+04  0.10355075578E+04  0.10100000352E+00 0. -1.
</event>
<event>
 5   0  0.1971600E-07  0.2700146E+04  0.7818609E-02  0.8334957E-01
        1   -1    0    0  501    0  0.00000000000E+00  0.00000000000E+00  0.95756132485E+03  0.95756132486E+03  0.50400001928E-02 0. -1.
       -1   -1    0    0    0  501  0.00000000000E+00  0.00000000000E+00 -0.19034786768E+04  0.19034786768E+04  0.50400001928E-02 0.  1.
    10030    2    1    2    0    0  0.00000000000E+00  0.00000000000E+00 -0.94591735194E+03  0.28610400017E+04  0.27001463394E+04 0.  0.
        5    1    3    3  502    0  0.13259406569E+04 -0.25394561756E+03 -0.48172648238E+03  0.14334188139E+04  0.46999998093E+01 0.  1.
       -5    1    3    3    0  502 -0.13259406569E+04  0.25394561756E+03 -0.46419086956E+03  0.14276211877E+04  0.46999998093E+01 0. -1.
</event>
<event>
 5   0  0.1971600E-07  0.2699593E+04  0.7818609E-02  0.8335137E-01
       -1   -1    0    0    0  501  0.00000000000E+00  0.00000000000E+00  0.11595039467E+04  0.11595039467E+04  0.50400001928E-02 0.  1.
        1   -1    0    0  501    0  0.00000000000E+00  0.00000000000E+00 -0.15713192352E+04  0.15713192352E+04  0.50400001928E-02 0. -1.
    10030    2    1    2    0    0  0.00000000000E+00  0.00000000000E+00 -0.41181528844E+03  0.27308231819E+04  0.26995931951E+04 0.  0.
        5    1    3    3  502    0 -0.98393555029E+03  0.22467737170E+03 -0.11125572112E+04  0.15021367204E+04  0.46999998093E+01 0. -1.
       -5    1    3    3    0  502  0.98393555029E+03 -0.22467737170E+03  0.70074192274E+03  0.12286864615E+04  0.46999998093E+01 0.  1.
</event>
<event>
 5   0  0.1971600E-07  0.2712493E+04  0.7818609E-02  0.8330963E-01
        1   -1    0    0  501    0  0.00000000000E+00  0.00000000000E+00  0.21405486539E+04  0.21405486539E+04  0.50400001928E-02 0. -1.
       -1   -1    0    0    0  501  0.00000000000E+00  0.00000000000E+00 -0.85931451001E+03  0.85931451003E+03  0.50400001928E-02 0.  1.
    10030    2    1    2    0    0  0.00000000000E+00  0.00000000000E+00  0.12812341439E+04  0.29998631639E+04  0.27124929624E+04 0.  0.
        5    1    3    3  502    0 -0.12925786210E+04  0.39856095685E+03  0.74994390684E+03  0.15466248030E+04  0.46999998093E+01 0.  1.
       -5    1    3    3    0  502  0.12925786210E+04 -0.39856095685E+03  0.53129023704E+03  0.14532383610E+04  0.46999998093E+01 0. -1.
</event>
<event>
 5   0  0.4983208E-07  0.2694249E+04  0.7818609E-02  0.8336873E-01
        2   -1    0    0  501    0  0.00000000000E+00  0.00000000000E+00  0.16670580052E+04  0.16670580052E+04  0.25500000920E-02 0. -1.
       -2   -1    0    0    0  501  0.00000000000E+00  0.00000000000E+00 -0.10885909886E+04  0.10885909886E+04  0.25500000920E-02 0.  1.
    10030    2    1    2    0    0  0.00000000000E+00  0.00000000000E+00  0.57846701663E+03  0.27556489937E+04  0.26942489283E+04 0.  0.
        4    1    3    3  502    0  0.12366514148E+04  0.29373148202E+03  0.74567471320E+03  0.14736408300E+04  0.12699999809E+01 0. -1.
       -4    1    3    3    0  502 -0.12366514148E+04 -0.29373148202E+03 -0.16720769657E+03  0.12820081637E+04  0.12699999809E+01 0.  1.
</event>
<event>
 5   0  0.1965415E-07  0.2700319E+04  0.7818609E-02  0.8334902E-01
       -1   -1    0    0    0  501  0.00000000000E+00  0.00000000000E+00  0.15656871942E+04  0.15656871942E+04  0.50400001928E-02 0.  1.
        1   -1    0    0  501    0  0.00000000000E+00  0.00000000000E+00 -0.11643002572E+04  0.11643002572E+04  0.50400001928E-02 0. -1.
    10030    2    1    2    0    0  0.00000000000E+00  0.00000000000E+00  0.40138693706E+03  0.27299874514E+04  0.27003185019E+04 0.  0.
        4    1    3    3  502    0 -0.75945432742E+03  0.10129639649E+04  0.67495479673E+03  0.14347238271E+04  0.12699999809E+01 0.  1.
       -4    1    3    3    0  502  0.75945432742E+03 -0.10129639649E+04 -0.27356785967E+03  0.12952636243E+04  0.12699999809E+01 0. -1.
</event>
<event>
 5   0  0.5043890E-07  0.2701715E+04  0.7818609E-02  0.8334449E-01
       -2   -1    0    0    0  501  0.00000000000E+00  0.00000000000E+00  0.84261726924E+03  0.84261726925E+03  0.25500000920E-02 0. -1.
        2   -1    0    0  501    0  0.00000000000E+00  0.00000000000E+00 -0.21656525959E+04  0.21656525959E+04  0.25500000920E-02 0.  1.
    10030    2    1    2    0    0  0.00000000000E+00  0.00000000000E+00 -0.13230353266E+04  0.30082698651E+04  0.27017152155E+04 0.  0.
        3    1    3    3  502    0  0.11667831025E+04  0.16306721945E+03  0.74417723925E+02  0.11804709798E+04  0.10100000352E+00 0. -1.
       -3    1    3    3    0  502 -0.11667831025E+04 -0.16306721945E+03 -0.13974530506E+04  0.18277988853E+04  0.10100000352E+00 0.  1.
</event>
<event>
 5   0  0.4992668E-07  0.2700736E+04  0.7818609E-02  0.8334766E-01
       -2   -1    0    0    0  501  0.00000000000E+00  0.00000000000E+00  0.82888072826E+03  0.82888072827E+03  0.25500000920E-02 0. -1.
        2   -1    0    0  501    0  0.00000000000E+00  0.00000000000E+00 -0.21999466138E+04  0.21999466138E+04  0.25500000920E-02 0.  1.
    10030    2    1    2    0    0  0.00000000000E+00  0.00000000000E+00 -0.13710658855E+04  0.30288273420E+04  0.27007357156E+04 0.  0.
        1    1    3    3  502    0 -0.44258611867E+02 -0.11430677325E+03  0.82262873866E+03  0.83171083005E+03  0.50400001928E-02 0. -1.
       -1    1    3    3    0  502  0.44258611867E+02  0.11430677325E+03 -0.21936946242E+04  0.21971165120E+04  0.50400001928E-02 0.  1.
</event>
<event>
 5   0  0.1965415E-07  0.2699539E+04  0.7818609E-02  0.8335154E-01
       -1   -1    0    0    0  501  0.00000000000E+00  0.00000000000E+00  0.85147275128E+03  0.85147275129E+03  0.50400001928E-02 0.  1.
        1   -1    0    0  501    0  0.00000000000E+00  0.00000000000E+00 -0.21396788685E+04  0.21396788685E+04  0.50400001928E-02 0. -1.
    10030    2    1    2    0    0  0.00000000000E+00  0.00000000000E+00 -0.12882061172E+04  0.29911516198E+04  0.26995394074E+04 0.  0.
        4    1    3    3  502    0 -0.51800763655E+03 -0.96272749730E+03  0.23305685243E+03  0.11178073425E+04  0.12699999809E+01 0. -1.
       -4    1    3    3    0  502  0.51800763655E+03  0.96272749730E+03 -0.15212629697E+04  0.18733442773E+04  0.12699999809E+01 0.  1.
</event>
<event>
 5   0  0.4992668E-07  0.2701447E+04  0.7818609E-02  0.8334535E-01
       -2   -1    0    0    0  501  0.00000000000E+00  0.00000000000E+00  0.11768408083E+04  0.11768408083E+04  0.25500000920E-02 0. -1.
        2   -1    0    0  501    0  0.00000000000E+00  0.00000000000E+00 -0.15502984550E+04  0.15502984550E+04  0.25500000920E-02 0.  1.
    10030    2    1    2    0    0  0.00000000000E+00  0.00000000000E+00 -0.37345764667E+03  0.27271392633E+04  0.27014473802E+04 0.  0.
        1    1    3    3  502    0 -0.10267042268E+04 -0.38469495099E+03 -0.98311847402E+03  0.14726281637E+04  0.50400001928E-02 0.  1.
       -1    1    3    3    0  502  0.10267042268E+04  0.38469495099E+03  0.60966082734E+03  0.12545110996E+04  0.50400001928E-02 0. -1.
</event>
<event>
 5   0  0.5043890E-07  0.2697332E+04  0.7818609E-02  0.8335871E-01
        2   -1    0    0  501    0  0.00000000000E+00  0.00000000000E+00  0.11803719772E+04  0.11803719772E+04  0.25500000920E-02 0.  1.
       -2   -1    0    0    0  501  0.00000000000E+00  0.00000000000E+00 -0.15409543817E+04  0.15409543817E+04  0.25500000920E-02 0. -1.
    10030    2    1    2    0    0  0.00000000000E+00  0.00000000000E+00 -0.36058240455E+03  0.27213263589E+04  0.26973315482E+04 0.  0.
        3    1    3    3  502    0  0.61040729532E+02 -0.71278512950E+03 -0.13337510715E+04  0.15134994359E+04  0.10100000352E+00 0. -1.
       -3    1    3    3    0  502 -0.61040729532E+02  0.71278512950E+03  0.97316866692E+03  0.12078269230E+04  0.10100000352E+00 0.  1.
</event>
<event>
 5   0  0.1964242E-07  0.2700836E+04  0.7818609E-02  0.8334734E-01
       -1   -1    0    0    0  501  0.00000000000E+00  0.00000000000E+00  0.15101643270E+04  0.15101643270E+04  0.50400001928E-02 0.  1.
        1   -1    0    0  501    0  0.00000000000E+00  0.00000000000E+00 -0.12075694732E+04  0.12075694732E+04  0.50400001928E-02 0. -1.
    10030    2    1    2    0    0  0.00000000000E+00  0.00000000000E+00  0.30259485381E+03  0.27177338002E+04  0.27008356787E+04 0.  0.
        2    1    3    3  502    0 -0.25509830834E+03  0.12833328388E+04  0.48746850293E+03  0.13962964812E+04  0.25500000920E-02 0.  1.
       -2    1    3    3    0  502  0.25509830834E+03 -0.12833328388E+04 -0.18487364912E+03  0.13214373190E+04  0.25500000920E-02 0. -1.
</event>
<event>
 5   0  0.5043890E-07  0.2700455E+04  0.7818609E-02  0.8334857E-01
        2   -1    0    0  501    0  0.00000000000E+00  0.00000000000E+00  0.14287688106E+04  0.14287688106E+04  0.25500000920E-02 0.  1.
       -2   -1    0    0    0  501  0.00000000000E+00  0.00000000000E+00 -0.12760041653E+04  0.12760041653E+04  0.25500000920E-02 0. -1.
    10030    2    1    2    0    0  0.00000000000E+00  0.00000000000E+00  0.15276464530E+03  0.27047729759E+04  0.27004554828E+04 0.  0.
        3    1    3    3  502    0 -0.28213812204E+03 -0.63271866742E+03 -0.10844270943E+04  0.12868243722E+04  0.10100000352E+00 0. -1.
       -3    1    3    3    0  502  0.28213812204E+03  0.63271866742E+03  0.12371917396E+04  0.14179486037E+04  0.10100000352E+00 0.  1.
</event>
<event>
 5   0  0.1888149E-07  0.2700767E+04  0.7818609E-02  0.8334756E-01
        1   -1    0    0  501    0  0.00000000000E+00  0.00000000000E+00  0.15584015290E+04  0.15584015290E+04  0.50400001928E-02 0.  1.
       -1   -1    0    0    0  501  0.00000000000E+00  0.00000000000E+00 -0.11701321847E+04  0.11701321847E+04  0.50400001928E-02 0. -1.
    10030    2    1    2    0    0  0.00000000000E+00  0.00000000000E+00  0.38826934434E+03  0.27285337137E+04  0.27007671397E+04 0.  0.
        1    1    3    3  502    0  0.17665790055E+03  0.42752271203E+02  0.15459872947E+04  0.15566349880E+04  0.50400001928E-02 0.  1.
       -1    1    3    3    0  502 -0.17665790055E+03 -0.42752271203E+02 -0.11577179504E+04  0.11718987256E+04  0.50400001928E-02 0. -1.
</event>
<event>
 5   0  0.1964242E-07  0.2699687E+04  0.7818609E-02  0.8335106E-01
       -1   -1    0    0    0  501  0.00000000000E+00  0.00000000000E+00  0.85217635153E+03  0.85217635154E+03  0.50400001928E-02 0.  1.
        1   -1    0    0  501    0  0.00000000000E+00  0.00000000000E+00 -0.21381467316E+04  0.21381467316E+04  0.50400001928E-02 0. -1.
    10030    2    1    2    0    0  0.00000000000E+00  0.00000000000E+00 -0.12859703800E+04  0.29903230831E+04  0.26996874491E+04 0.  0.
        2    1    3    3  502    0  0.90118479906E+03 -0.92116396689E+03 -0.19798754164E+03  0.13037929907E+04  0.25500000920E-02 0.  1.
       -2    1    3    3    0  502 -0.90118479906E+03  0.92116396689E+03 -0.10879828384E+04  0.16865300924E+04  0.25500000920E-02 0. -1.
</event>
<event>
 5   0  0.1888149E-07  0.2700555E+04  0.7818609E-02  0.8334825E-01
       -1   -1    0    0    0  501  0.00000000000E+00  0.00000000000E+00  0.10140377975E+04  0.10140377975E+04  0.50400001928E-02 0. -1.
        1   -1    0    0  501    0  0.00000000000E+00  0.00000000000E+00 -0.17980094820E+04  0.17980094820E+04  0.50400001928E-02 0.  1.
    10030    2    1    2    0    0  0.00000000000E+00  0.00000000000E+00 -0.78397168446E+03  0.28120472795E+04  0.27005551837E+04 0.  0.
        1    1    3    3  502    0 -0.94851385656E+03 -0.83184934418E+03 -0.89310002005E+03  0.15457294438E+04  0.50400001928E-02 0.  1.
       -1    1    3    3    0  502  0.94851385656E+03  0.83184934418E+03  0.10912833559E+03  0.12663178358E+04  0.50400001928E-02 0. -1.
</event>
<event>
 5   0  0.4992668E-07  0.2705659E+04  0.7818609E-02  0.8333171E-01
       -2   -1    0    0    0  501  0.00000000000E+00  0.00000000000E+00  0.13012600185E+04  0.13012600185E+04  0.25500000920E-02 0. -1.
        2   -1    0    0  501    0  0.00000000000E+00  0.00000000000E+00 -0.14064428016E+04  0.14064428016E+04  0.25500000920E-02 0.  1.
    10030    2    1    2    0    0  0.00000000000E+00  0.00000000000E+00 -0.10518278316E+03  0.27077028201E+04  0.27056590961E+04 0.  0.
        1    1    3    3  502    0 -0.12198985499E+03 -0.69380074964E+03 -0.12084126059E+04  0.13987501675E+04  0.50400001928E-02 0.  1.
       -1    1    3    3    0  502  0.12198985499E+03  0.69380074964E+03  0.11032298228E+04  0.13089526526E+04  0.50400001928E-02 0. -1.
</event>
<event>
 5   0  0.1888149E-07  0.2699723E+04  0.7818609E-02  0.8335095E-01
       -1   -1    0    0    0  501  0.00000000000E+00  0.00000000000E+00  0.76327069758E+03  0.76327069760E+03  0.50400001928E-02 0.  1.
        1   -1    0    0  501    0  0.00000000000E+00  0.00000000000E+00 -0.23872597727E+04  0.23872597727E+04  0.50400001928E-02 0. -1.
    10030    2    1    2    0    0  0.00000000000E+00  0.00000000000E+00 -0.16239890751E+04  0.31505304703E+04  0.26997225280E+04 0.  0.
        1    1    3    3  502    0  0.30099681173E+03  0.10636255909E+04  0.92117602192E+02  0.11092268167E+04  0.50400001928E-02 0.  1.
       -1    1    3    3    0  502 -0.30099681173E+03 -0.10636255909E+04 -0.17161066773E+04  0.20413036536E+04  0.50400001928E-02 0. -1.
</event>
<event>
 5   0  0.1965415E-07  0.2699270E+04  0.7818609E-02  0.8335242E-01
       -1   -1    0    0    0  501  0.00000000000E+00  0.00000000000E+00  0.96878967382E+03  0.96878967383E+03  0.50400001928E-02 0.  1.
        1   -1    0    0  501    0  0.00000000000E+00  0.00000000000E+00 -0.18801956725E+04  0.18801956725E+04  0.50400001928E-02 0. -1.
    10030    2    1    2    0    0  0.00000000000E+00  0.00000000000E+00 -0.91140599868E+03  0.28489853463E+04  0.26992696437E+04 0.  0.
        4    1    3    3  502    0  0.68025501820E+03  0.51882948411E+03  0.64602358352E+03  0.10720443119E+04  0.12699999809E+01 0.  1.
       -4    1    3    3    0  502 -0.68025501820E+03 -0.51882948411E+03 -0.15574295822E+04  0.17769410344E+04  0.12699999809E+01 0. -1.
</event>
<event>
 5   0  0.4735120E-07  0.2700273E+04  0.7818609E-02  0.8334916E-01
        2   -1    0    0  501    0  0.00000000000E+00  0.00000000000E+00  0.18253871027E+04  0.18253871027E+04  0.25500000920E-02 0.  1.
       -2   -1    0    0    0  501  0.00000000000E+00  0.00000000000E+00 -0.99862003561E+03  0.99862003561E+03  0.25500000920E-02 0. -1.
    10030    2    1    2    0    0  0.00000000000E+00  0.00000000000E+00  0.82676706710E+03  0.28240071383E+04  0.27002726777E+04 0.  0.
        2    1    3    3  502    0 -0.68782640462E+02 -0.10851872509E+04 -0.42360531496E+03  0.11669635315E+04  0.25500000920E-02 0. -1.
       -2    1    3    3    0  502  0.68782640462E+02  0.10851872509E+04  0.12503723821E+04  0.16570436068E+04  0.25500000920E-02 0.  1.
</event>
<event>
 5   0  0.4735120E-07  0.2699221E+04  0.7818609E-02  0.8335258E-01
       -2   -1    0    0    0  501  0.00000000000E+00  0.00000000000E+00  0.80499605040E+03  0.80499605040E+03  0.25500000920E-02 0.  1.
        2   -1    0    0  501    0  0.00000000000E+00  0.00000000000E+00 -0.22626800192E+04  0.22626800192E+04  0.25500000920E-02 0. -1.
    10030    2    1    2    0    0  0.00000000000E+00  0.00000000000E+00 -0.14576839688E+04  0.30676760696E+04  0.26992209830E+04 0.  0.
        2    1    3    3  502    0  0.73429125670E+03 -0.10302778031E+04 -0.19481501112E+03  0.12800815950E+04  0.25500000920E-02 0.  1.
       -2    1    3    3    0  502 -0.73429125670E+03  0.10302778031E+04 -0.12628689577E+04  0.17875944746E+04  0.25500000920E-02 0. -1.
</event>
<event>
 5   0  0.1641625E-07  0.2703805E+04  0.7818609E-02  0.8333771E-01
        4   -1    0    0  501    0  0.00000000000E+00  0.00000000000E+00  0.12709798066E+04  0.12709804411E+04  0.12699999809E+01 0.  1.
       -4   -1    0    0    0  501  0.00000000000E+00  0.00000000000E+00 -0.14379761313E+04  0.14379766921E+04  0.12699999809E+01 0. -1.
    10030    2    1    2    0    0  0.00000000000E+00  0.00000000000E+00 -0.16699632472E+03  0.27089571332E+04  0.27038049074E+04 0.  0.
        4    1    3    3  502    0 -0.30179885625E+03 -0.75532751306E+03 -0.11653874991E+04  0.14211726980E+04  0.12699999809E+01 0. -1.
       -4    1    3    3    0  502  0.30179885625E+03  0.75532751306E+03  0.99839117439E+03  0.12877844352E+04  0.12699999809E+01 0.  1.
</event>
<event>
 5   0  0.4992668E-07  0.2699175E+04  0.7818609E-02  0.8335273E-01
       -2   -1    0    0    0  501  0.00000000000E+00  0.00000000000E+00  0.15823714240E+04  0.15823714240E+04  0.25500000920E-02 0. -1.
        2   -1    0    0  501    0  0.00000000000E+00  0.00000000000E+00 -0.11510487881E+04  0.11510487881E+04  0.25500000920E-02 0.  1.
    10030    2    1    2    0    0  0.00000000000E+00  0.00000000000E+00  0.43132263595E+03  0.27334202121E+04  0.26991752147E+04 0.  0.
        1    1    3    3  502    0 -0.12145024949E+04 -0.46511623577E+03 -0.14952060764E+03  0.13090858776E+04  0.50400001928E-02 0. -1.
       -1    1    3    3    0  502  0.12145024949E+04  0.46511623577E+03  0.58084324359E+03  0.14243343345E+04  0.50400001928E-02 0.  1.
</event>
<event>
 5   0  0.1937896E-07  0.2699397E+04  0.7818609E-02  0.8335201E-01
        1   -1    0    0  501    0  0.00000000000E+00  0.00000000000E+00  0.18676423930E+04  0.18676423930E+04  0.50400001928E-02 0. -1.
       -1   -1    0    0    0  501  0.00000000000E+00  0.00000000000E+00 -0.97539334734E+03  0.97539334735E+03  0.50400001928E-02 0.  1.
    10030    2    1    2    0    0  0.00000000000E+00  0.00000000000E+00  0.89224904569E+03  0.28430357404E+04  0.26993969441E+04 0.  0.
        3    1    3    3  502    0 -0.12874862480E+04  0.39946548492E+03  0.37553230253E+03  0.13993634385E+04  0.10100000352E+00 0. -1.
       -3    1    3    3    0  502  0.12874862480E+04 -0.39946548492E+03  0.51671674316E+03  0.14436723019E+04  0.10100000352E+00 0.  1.
</event>
<event>
 5   0  0.4983208E-07  0.2700599E+04  0.7818609E-02  0.8334811E-01
        2   -1    0    0  501    0  0.00000000000E+00  0.00000000000E+00  0.10471486819E+04  0.10471486819E+04  0.25500000920E-02 0. -1.
       -2   -1    0    0    0  501  0.00000000000E+00  0.00000000000E+00 -0.17412131906E+04  0.17412131906E+04  0.25500000920E-02 0.  1.
    10030    2    1    2    0    0  0.00000000000E+00  0.00000000000E+00 -0.69406450872E+03  0.27883618725E+04  0.27005992649E+04 0.  0.
        4    1    3    3  502    0 -0.27204235378E+03  0.11731987398E+04 -0.97753674844E+03  0.15511228297E+04  0.12699999809E+01 0.  1.
       -4    1    3    3    0  502  0.27204235378E+03 -0.11731987398E+04  0.28347223972E+03  0.12372390428E+04  0.12699999809E+01 0. -1.
</event>
<event>
 5   0  0.4843887E-07  0.2700286E+04  0.7818609E-02  0.8334912E-01
       -2   -1    0    0    0  501  0.00000000000E+00  0.00000000000E+00  0.15732414872E+04  0.15732414872E+04  0.25500000920E-02 0. -1.
        2   -1    0    0  501    0  0.00000000000E+00  0.00000000000E+00 -0.11586818419E+04  0.11586818419E+04  0.25500000920E-02 0.  1.
    10030    2    1    2    0    0  0.00000000000E+00  0.00000000000E+00  0.41455964530E+03  0.27319233292E+04  0.27002861658E+04 0.  0.
        5    1    3    3  502    0 -0.97704135370E+03 -0.61083438441E+03 -0.50462327159E+03  0.12579329029E+04  0.46999998093E+01 0.  1.
       -5    1    3    3    0  502  0.97704135370E+03  0.61083438441E+03  0.91918291688E+03  0.14739904263E+04  0.46999998093E+01 0. -1.
</event>
<event>
 5   0  0.5043890E-07  0.2700214E+04  0.7818609E-02  0.8334935E-01
        2   -1    0    0  501    0  0.00000000000E+00  0.00000000000E+00  0.11760725392E+04  0.11760725393E+04  0.25500000920E-02 0. -1.
       -2   -1    0    0    0  501  0.00000000000E+00  0.00000000000E+00 -0.15498955073E+04  0.15498955073E+04  0.25500000920E-02 0.  1.
    10030    2    1    2    0    0  0.00000000000E+00  0.00000000000E+00 -0.37382296801E+03  0.27259680465E+04  0.27002144691E+04 0.  0.
        3    1    3    3  502    0  0.27325098827E+03  0.10968256976E+02 -0.15216420421E+04  0.15460209959E+04  0.10100000352E+00 0.  1.
       -3    1    3    3    0  502 -0.27325098827E+03 -0.10968256976E+02  0.11478190741E+04  0.11799470506E+04  0.10100000352E+00 0. -1.
</event>
<event>
 5   0  0.1888149E-07  0.2699694E+04  0.7818609E-02  0.8335104E-01
       -1   -1    0    0    0  501  0.00000000000E+00  0.00000000000E+00  0.20963270625E+04  0.20963270625E+04  0.50400001928E-02 0. -1.
        1   -1    0    0  501    0  0.00000000000E+00  0.00000000000E+00 -0.86918069141E+03  0.86918069143E+03  0.50400001928E-02 0.  1.
    10030    2    1    2    0    0  0.00000000000E+00  0.00000000000E+00  0.12271463711E+04  0.29655077539E+04  0.26996940609E+04 0.  0.
        1    1    3    3  502    0 -0.86022075776E+02 -0.11928232088E+04  0.13011955292E+04  0.17672964692E+04  0.50400001928E-02 0. -1.
       -1    1    3    3    0  502  0.86022075776E+02  0.11928232088E+04 -0.74049158123E+02  0.11982112847E+04  0.50400001928E-02 0.  1.
</event>
<event>
 5   0  0.1964242E-07  0.2700053E+04  0.7818609E-02  0.8334988E-01
        1   -1    0    0  501    0  0.00000000000E+00  0.00000000000E+00  0.14253815553E+04  0.14253815553E+04  0.50400001928E-02 0. -1.
       -1   -1    0    0    0  501  0.00000000000E+00  0.00000000000E+00 -0.12786547414E+04  0.12786547414E+04  0.50400001928E-02 0.  1.
    10030    2    1    2    0    0  0.00000000000E+00  0.00000000000E+00  0.14672681390E+03  0.27040362967E+04  0.27000525061E+04 0.  0.
        2    1    3    3  502    0  0.59019343349E+03 -0.89969396174E+03 -0.74318821740E+03  0.13077103044E+04  0.25500000920E-02 0.  1.
       -2    1    3    3    0  502 -0.59019343349E+03  0.89969396174E+03  0.88991503130E+03  0.13963259923E+04  0.25500000920E-02 0. -1.
</event>
<event>
 5   0  0.1964242E-07  0.2701490E+04  0.7818609E-02  0.8334522E-01
        1   -1    0    0  501    0  0.00000000000E+00  0.00000000000E+00  0.16735323076E+04  0.16735323076E+04  0.50400001928E-02 0.  1.
       -1   -1    0    0    0  501  0.00000000000E+00  0.00000000000E+00 -0.10902160515E+04  0.10902160516E+04  0.50400001928E-02 0. -1.
    10030    2    1    2    0    0  0.00000000000E+00  0.00000000000E+00  0.58331625605E+03  0.27637483592E+04  0.27014897997E+04 0.  0.
        2    1    3    3  502    0 -0.12656165208E+04 -0.46531820477E+03  0.37224906179E+03  0.13988836883E+04  0.25500000920E-02 0.  1.
       -2    1    3    3    0  502  0.12656165208E+04  0.46531820477E+03  0.21106719426E+03  0.13648646709E+04  0.25500000920E-02 0. -1.
</event>
<event>
 5   0  0.4735120E-07  0.2700992E+04  0.7818609E-02  0.8334683E-01
       -2   -1    0    0    0  501  0.00000000000E+00  0.00000000000E+00  0.13949532093E+04  0.13949532093E+04  0.25500000920E-02 0. -1.
        2   -1    0    0  501    0  0.00000000000E+00  0.00000000000E+00 -0.13074557925E+04  0.13074557925E+04  0.25500000920E-02 0.  1.
    10030    2    1    2    0    0  0.00000000000E+00  0.00000000000E+00  0.87497416805E+02  0.27024090018E+04  0.27009921538E+04 0.  0.
        2    1    3    3  502    0  0.86262909090E+03 -0.65538012549E+03  0.85051379665E+03  0.13773255881E+04  0.25500000920E-02 0. -1.
       -2    1    3    3    0  502 -0.86262909090E+03  0.65538012549E+03 -0.76301637984E+03  0.13250834137E+04  0.25500000920E-02 0.  1.
</event>
<event>
 5   0  0.4983208E-07  0.2700181E+04  0.7818609E-02  0.8334946E-01
       -2   -1    0    0    0  501  0.00000000000E+00  0.00000000000E+00  0.12728381155E+04  0.12728381155E+04  0.25500000920E-02 0.  1.
        2   -1    0    0  501    0  0.00000000000E+00  0.00000000000E+00 -0.14320312292E+04  0.14320312292E+04  0.25500000920E-02 0. -1.
    10030    2    1    2    0    0  0.00000000000E+00  0.00000000000E+00 -0.15919311366E+03  0.27048693447E+04  0.27001806837E+04 0.  0.
        4    1    3    3  502    0  0.11846042782E+04 -0.64481127614E+03 -0.14031071410E+03  0.13560079598E+04  0.12699999809E+01 0. -1.
       -4    1    3    3    0  502 -0.11846042782E+04  0.64481127614E+03 -0.18882399552E+02  0.13488613849E+04  0.12699999809E+01 0.  1.
</event>
<event>
 5   0  0.4843887E-07  0.2690870E+04  0.7818609E-02  0.8337973E-01
       -2   -1    0    0    0  501  0.00000000000E+00  0.00000000000E+00  0.16444561229E+04  0.16444561229E+04  0.25500000920E-02 0. -1.
        2   -1    0    0  501    0  0.00000000000E+00  0.00000000000E+00 -0.11007867389E+04  0.11007867389E+04  0.25500000920E-02 0.  1.
    10030    2    1    2    0    0  0.00000000000E+00  0.00000000000E+00  0.54366938401E+03  0.27452428619E+04  0.26908701142E+04 0.  0.
        5    1    3    3  502    0  0.41800949421E+02 -0.40367198332E+03 -0.10368459599E+04  0.11134496055E+04  0.46999998093E+01 0.  1.
       -5    1    3    3    0  502 -0.41800949421E+02  0.40367198332E+03  0.15805153439E+04  0.16317932564E+04  0.46999998093E+01 0. -1.
</event>
<event>
 5   0  0.1888149E-07  0.2702374E+04  0.7818609E-02  0.8334235E-01
       -1   -1    0    0    0  501  0.00000000000E+00  0.00000000000E+00  0.14461624855E+04  0.14461624855E+04  0.50400001928E-02 0. -1.
        1   -1    0    0  501    0  0.00000000000E+00  0.00000000000E+00 -0.12624490816E+04  0.12624490816E+04  0.50400001928E-02 0.  1.
    10030    2    1    2    0    0  0.00000000000E+00  0.00000000000E+00  0.18371340392E+03  0.27086115671E+04  0.27023741426E+04 0.  0.
        1    1    3    3  502    0 -0.90167223719E+03 -0.75085886656E+03 -0.57969321481E+03  0.13087574581E+04  0.50400001928E-02 0.  1.
       -1    1    3    3    0  502  0.90167223719E+03  0.75085886656E+03  0.76340661873E+03  0.13998541090E+04  0.50400001928E-02 0. -1.
</event>
<event>
 5   0  0.1965415E-07  0.2699138E+04  0.7818609E-02  0.8335285E-01
       -1   -1    0    0    0  501  0.00000000000E+00  0.00000000000E+00  0.14129067486E+04  0.14129067486E+04  0.50400001928E-02 0.  1.
        1   -1    0    0  501    0  0.00000000000E+00  0.00000000000E+00 -0.12890703538E+04  0.12890703538E+04  0.50400001928E-02 0. -1.
    10030    2    1    2    0    0  0.00000000000E+00  0.00000000000E+00  0.12383639473E+03  0.27019771024E+04  0.26991377900E+04 0.  0.
        4    1    3    3  502    0 -0.79455645363E+03  0.10902990351E+04  0.26347096182E+02  0.13493582646E+04  0.12699999809E+01 0. -1.
       -4    1    3    3    0  502  0.79455645363E+03 -0.10902990351E+04  0.97489298543E+02  0.13526188377E+04  0.12699999809E+01 0.  1.
</event>
<event>
 5   0  0.4735120E-07  0.2699819E+04  0.7818609E-02  0.8335064E-01
       -2   -1    0    0    0  501  0.00000000000E+00  0.00000000000E+00  0.17493804713E+04  0.17493804713E+04  0.25500000920E-02 0. -1.
        2   -1    0    0  501    0  0.00000000000E+00  0.00000000000E+00 -0.10416575887E+04  0.10416575887E+04  0.25500000920E-02 0.  1.
    10030    2    1    2    0    0  0.00000000000E+00  0.00000000000E+00  0.70772288260E+03  0.27910380601E+04  0.26998188410E+04 0.  0.
        2    1    3    3  502    0  0.90592779122E+03 -0.65119734230E+03  0.11394664338E+04  0.15947247083E+04  0.25500000920E-02 0. -1.
       -2    1    3    3    0  502 -0.90592779122E+03  0.65119734230E+03 -0.43174355122E+03  0.11963133517E+04  0.25500000920E-02 0.  1.
</event>
<event>
 5   0  0.4992668E-07  0.2700373E+04  0.7818609E-02  0.8334884E-01
       -2   -1    0    0    0  501  0.00000000000E+00  0.00000000000E+00  0.10476118615E+04  0.10476118615E+04  0.25500000920E-02 0.  1.
        2   -1    0    0  501    0  0.00000000000E+00  0.00000000000E+00 -0.17401517597E+04  0.17401517597E+04  0.25500000920E-02 0. -1.
    10030    2    1    2    0    0  0.00000000000E+00  0.00000000000E+00 -0.69253989815E+03  0.27877636212E+04  0.27003730293E+04 0.  0.
        1    1    3    3  502    0 -0.44129683547E+03 -0.49595824308E+03  0.86748541662E+03  0.10923591094E+04  0.50400001928E-02 0.  1.
       -1    1    3    3    0  502  0.44129683547E+03  0.49595824308E+03 -0.15600253148E+04  0.16954045118E+04  0.50400001928E-02 0. -1.
</event>
<event>
 5   0  0.4992668E-07  0.2700507E+04  0.7818609E-02  0.8334840E-01
        2   -1    0    0  501    0  0.00000000000E+00  0.00000000000E+00  0.16765991697E+04  0.16765991697E+04  0.25500000920E-02 0. -1.
       -2   -1    0    0    0  501  0.00000000000E+00  0.00000000000E+00 -0.10874302206E+04  0.10874302206E+04  0.25500000920E-02 0.  1.
    10030    2    1    2    0    0  0.00000000000E+00  0.00000000000E+00  0.58916894908E+03  0.27640293902E+04  0.27005070671E+04 0.  0.
        1    1    3    3  502    0 -0.63734017257E+03  0.47594564431E+03  0.14113303332E+04  0.16200555735E+04  0.50400001928E-02 0. -1.
       -1    1    3    3    0  502  0.63734017257E+03 -0.47594564431E+03 -0.82216138408E+03  0.11439738167E+04  0.50400001928E-02 0.  1.
</event>
<event>
 5   0  0.1964242E-07  0.2699525E+04  0.7818609E-02  0.8335159E-01
       -1   -1    0    0    0  501  0.00000000000E+00  0.00000000000E+00  0.18949143167E+04  0.18949143167E+04  0.50400001928E-02 0.  1.
        1   -1    0    0  501    0  0.00000000000E+00  0.00000000000E+00 -0.96144620281E+03  0.96144620282E+03  0.50400001928E-02 0. -1.
    10030    2    1    2    0    0  0.00000000000E+00  0.00000000000E+00  0.93346811391E+03  0.28563605195E+04  0.26995245318E+04 0.  0.
        2    1    3    3  502    0 -0.85233350723E+03  0.10066582255E+04  0.76977326371E+03  0.15272144800E+04  0.25500000920E-02 0.  1.
       -2    1    3    3    0  502  0.85233350723E+03 -0.10066582255E+04  0.16369485021E+03  0.13291460395E+04  0.25500000920E-02 0. -1.
</event>
<event>
 5   0  0.4843887E-07  0.2699684E+04  0.7818609E-02  0.8335107E-01
       -2   -1    0    0    0  501  0.00000000000E+00  0.00000000000E+00  0.10389863543E+04  0.10389863543E+04  0.25500000920E-02 0.  1.
        2   -1    0    0  501    0  0.00000000000E+00  0.00000000000E+00 -0.17537030768E+04  0.17537030768E+04  0.25500000920E-02 0. -1.
    10030    2    1    2    0    0  0.00000000000E+00  0.00000000000E+00 -0.71471672248E+03  0.27926894311E+04  0.26996841047E+04 0.  0.
        5    1    3    3  502    0  0.84006894008E+03  0.14448025802E+03 -0.14400584529E+04  0.16734338370E+04  0.46999998093E+01 0. -1.
       -5    1    3    3    0  502 -0.84006894008E+03 -0.14448025802E+03  0.72534173039E+03  0.11192555941E+04  0.46999998093E+01 0.  1.
</event>
<event>
 5   0  0.1965415E-07  0.2700552E+04  0.7818609E-02  0.8334826E-01
        1   -1    0    0  501    0  0.00000000000E+00  0.00000000000E+00  0.19235723761E+04  0.19235723761E+04  0.50400001928E-02 0. -1.
       -1   -1    0    0    0  501  0.00000000000E+00  0.00000000000E+00 -0.94784339302E+03  0.94784339303E+03  0.50400001928E-02 0.  1.
    10030    2    1    2    0    0  0.00000000000E+00  0.00000000000E+00  0.97572898306E+03  0.28714157691E+04  0.27005520678E+04 0.  0.
        4    1    3    3  502    0 -0.40320953990E+03 -0.12151711246E+04  0.94398740700E+03  0.15907019308E+04  0.12699999809E+01 0. -1.
       -4    1    3    3    0  502  0.40320953990E+03  0.12151711246E+04  0.31741576060E+02  0.12807138383E+04  0.12699999809E+01 0.  1.
</event>
<event>
 5   0  0.1888149E-07  0.2700220E+04  0.7818609E-02  0.8334933E-01
        1   -1    0    0  501    0  0.00000000000E+00  0.00000000000E+00  0.21266834014E+04  0.21266834014E+04  0.50400001928E-02 0. -1.
       -1   -1    0    0    0  501  0.00000000000E+00  0.00000000000E+00 -0.85710811087E+03  0.85710811089E+03  0.50400001928E-02 0.  1.
    10030    2    1    2    0    0  0.00000000000E+00  0.00000000000E+00  0.12695752905E+04  0.29837915123E+04  0.27002204300E+04 0.  0.
        1    1    3    3  502    0 -0.64891571711E+03  0.10978891175E+04  0.11244308126E+04  0.17002343293E+04  0.50400001928E-02 0. -1.
       -1    1    3    3    0  502  0.64891571711E+03 -0.10978891175E+04  0.14514447789E+03  0.12835571829E+04  0.50400001928E-02 0.  1.
</event>
<event>
 5   0  0.1888149E-07  0.2700192E+04  0.7818609E-02  0.8334943E-01
        1   -1    0    0  501    0  0.00000000000E+00  0.00000000000E+00  0.17427660382E+04  0.17427660382E+04  0.50400001928E-02 0. -1.
       -1   -1    0    0    0  501  0.00000000000E+00  0.00000000000E+00 -0.10459000360E+04  0.10459000360E+04  0.50400001928E-02 0.  1.
    10030    2    1    2    0    0  0.00000000000E+00  0.00000000000E+00  0.69686600216E+03  0.27886660742E+04  0.27001918910E+04 0.  0.
        1    1    3    3  502    0  0.13412405883E+04  0.36266512178E+02  0.19345793129E+03  0.13556059703E+04  0.50400001928E-02 0.  1.
       -1    1    3    3    0  502 -0.13412405883E+04 -0.36266512178E+02  0.50340807086E+03  0.14330601039E+04  0.50400001928E-02 0. -1.
</event>
<event>
 5   0  0.1964242E-07  0.2700121E+04  0.7818609E-02  0.8334966E-01
        1   -1    0    0  501    0  0.00000000000E+00  0.00000000000E+00  0.20223409751E+04  0.20223409751E+04  0.50400001928E-02 0. -1.
       -1   -1    0    0    0  501  0.00000000000E+00  0.00000000000E+00 -0.90126436147E+03  0.90126436149E+03  0.50400001928E-02 0.  1.
    10030    2    1    2    0    0  0.00000000000E+00  0.00000000000E+00  0.11210766136E+04  0.29236053366E+04  0.27001213659E+04 0.  0.
        2    1    3    3  502    0 -0.74738497351E+03 -0.92368050406E+03  0.12546035465E+04  0.17279467675E+04  0.25500000920E-02 0. -1.
       -2    1    3    3    0  502  0.74738497351E+03  0.92368050406E+03 -0.13352693287E+03  0.11956585692E+04  0.25500000920E-02 0.  1.
</event>
<event>
 5   0  0.1937896E-07  0.2701491E+04  0.7818609E-02  0.8334521E-01
       -1   -1    0    0    0  501  0.00000000000E+00  0.00000000000E+00  0.10690606433E+04  0.10690606433E+04  0.50400001928E-02 0.  1.
        1   -1    0    0  501    0  0.00000000000E+00  0.00000000000E+00 -0.17066515142E+04  0.17066515142E+04  0.50400001928E-02 0. -1.
    10030    2    1    2    0    0  0.00000000000E+00  0.00000000000E+00 -0.63759087082E+03  0.27757121575E+04  0.27014914145E+04 0.  0.
        3    1    3    3  502    0  0.88137910492E+03 -0.84865148055E+03  0.26918142992E+03  0.12527957194E+04  0.10100000352E+00 0.  1.
       -3    1    3    3    0  502 -0.88137910492E+03  0.84865148055E+03 -0.90677230074E+03  0.15229164382E+04  0.10100000352E+00 0. -1.
</event>
<event>
 5   0  0.5043890E-07  0.2704070E+04  0.7818609E-02  0.8333685E-01
       -2   -1    0    0    0  501  0.00000000000E+00  0.00000000000E+00  0.16786160715E+04  0.16786160715E+04  0.25500000920E-02 0. -1.
        2   -1    0    0  501    0  0.00000000000E+00  0.00000000000E+00 -0.10889917940E+04  0.10889917940E+04  0.25500000920E-02 0.  1.
    10030    2    1    2    0    0  0.00000000000E+00  0.00000000000E+00  0.58962427749E+03  0.27676078656E+04  0.27040703595E+04 0.  0.
        3    1    3    3  502    0 -0.34667900880E+03  0.12739142470E+04  0.59313170513E+03  0.14473593450E+04  0.10100000352E+00 0. -1.
       -3    1    3    3    0  502  0.34667900880E+03 -0.12739142470E+04 -0.35074276396E+01  0.13202485206E+04  0.10100000352E+00 0.  1.
</event>
<event>
 5   0  0.1937896E-07  0.2699684E+04  0.7818609E-02  0.8335107E-01
        1   -1    0    0  501    0  0.00000000000E+00  0.00000000000E+00  0.11537955817E+04  0.11537955817E+04  0.50400001928E-02 0. -1.
       -1   -1    0    0    0  501  0.00000000000E+00  0.00000000000E+00 -0.15791997148E+04  0.15791997148E+04  0.50400001928E-02 0.  1.
    10030    2    1    2    0    0  0.00000000000E+00  0.00000000000E+00 -0.42540413313E+03  0.27329952965E+04  0.26996841693E+04 0.  0.
        3    1    3    3  502    0 -0.86338059876E+03  0.55689507462E+03  0.67360943261E+03  0.12285389128E+04  0.10100000352E+00 0. -1.
       -3    1    3    3    0  502  0.86338059876E+03 -0.55689507462E+03 -0.10990135657E+04  0.15044563837E+04  0.10100000352E+00 0.  1.
</event>
<event>
 5   0  0.4983208E-07  0.2700235E+04  0.7818609E-02  0.8334929E-01
       -2   -1    0    0    0  501  0.00000000000E+00  0.00000000000E+00  0.12860782033E+04  0.12860782033E+04  0.25500000920E-02 0. -1.
        2   -1    0    0  501    0  0.00000000000E+00  0.00000000000E+00 -0.14173456539E+04  0.14173456539E+04  0.25500000920E-02 0.  1.
    10030    2    1    2    0    0  0.00000000000E+00  0.00000000000E+00 -0.13126745059E+03  0.27034238572E+04  0.27002350654E+04 0.  0.
        4    1    3    3  502    0 -0.96754371956E+03  0.62712300039E+03  0.63761419933E+03  0.13175650219E+04  0.12699999809E+01 0. -1.
       -4    1    3    3    0  502  0.96754371956E+03 -0.62712300039E+03 -0.76888164992E+03  0.13858588353E+04  0.12699999809E+01 0.  1.
</event>
<event>
 5   0  0.5043890E-07  0.2699103E+04  0.7818609E-02  0.8335296E-01
        2   -1    0    0  501    0  0.00000000000E+00  0.00000000000E+00  0.26867157259E+04  0.26867157259E+04  0.25500000920E-02 0. -1.
       -2   -1    0    0    0  501  0.00000000000E+00  0.00000000000E+00 -0.67788669572E+03  0.67788669573E+03  0.25500000920E-02 0.  1.
    10030    2    1    2    0    0  0.00000000000E+00  0.00000000000E+00  0.20088290302E+04  0.33646024217E+04  0.26991026996E+04 0.  0.
        3    1    3    3  502    0 -0.48869938932E+03  0.58360548001E+03 -0.38474391778E+03  0.85290699487E+03  0.10100000352E+00 0.  1.
       -3    1    3    3    0  502  0.48869938932E+03 -0.58360548001E+03  0.23935729480E+04  0.25116954268E+04  0.10100000352E+00 0. -1.
</event>
<event>
 5   0  0.4735120E-07  0.2696843E+04  0.7818609E-02  0.8336030E-01
       -2   -1    0    0    0  501  0.00000000000E+00  0.00000000000E+00  0.98027361856E+03  0.98027361856E+03  0.25500000920E-02 0.  1.
        2   -1    0    0  501    0  0.00000000000E+00  0.00000000000E+00 -0.18548294740E+04  0.18548294740E+04  0.25500000920E-02 0. -1.
    10030    2    1    2    0    0  0.00000000000E+00  0.00000000000E+00 -0.87455585544E+03  0.28351030926E+04  0.26968428952E+04 0.  0.
        2    1    3    3  502    0  0.52890734956E+02  0.19710654766E+03 -0.18385002812E+04  0.18497923411E+04  0.25500000920E-02 0. -1.
       -2    1    3    3    0  502 -0.52890734956E+02 -0.19710654766E+03  0.96394442580E+03  0.98531075149E+03  0.25500000920E-02 0.  1.
</event>
<event>
 5   0  0.1971600E-07  0.2699435E+04  0.7818609E-02  0.8335188E-01
        1   -1    0    0  501    0  0.00000000000E+00  0.00000000000E+00  0.14124003227E+04  0.14124003227E+04  0.50400001928E-02 0. -1.
       -1   -1    0    0    0  501  0.00000000000E+00  0.00000000000E+00 -0.12898167657E+04  0.12898167657E+04  0.50400001928E-02 0.  1.
    10030    2    1    2    0    0  0.00000000000E+00  0.00000000000E+00  0.12258355699E+03  0.27022170885E+04  0.26994352122E+04 0.  0.
        5    1    3    3  502    0  0.72415333282E+03 -0.40870543079E+03 -0.10029488617E+04  0.13028302606E+04  0.46999998093E+01 0.  1.
       -5    1    3    3    0  502 -0.72415333282E+03  0.40870543079E+03  0.11255324187E+04  0.13993868279E+04  0.46999998093E+01 0. -1.
</event>
<event>
 5   0  0.1888149E-07  0.2701930E+04  0.7818609E-02  0.8334379E-01
        1   -1    0    0  501    0  0.00000000000E+00  0.00000000000E+00  0.15537747224E+04  0.15537747224E+04  0.50400001928E-02 0.  1.
       -1   -1    0    0    0  501  0.00000000000E+00  0.00000000000E+00 -0.11746275571E+04  0.11746275571E+04  0.50400001928E-02 0. -1.
    10030    2    1    2    0    0  0.00000000000E+00  0.00000000000E+00  0.37914716526E+03  0.27284022795E+04  0.27019301298E+04 0.  0.
        1    1    3    3  502    0  0.89838974444E+03  0.58067996136E+03  0.10227717213E+04  0.14799849136E+04  0.50400001928E-02 0.  1.
       -1    1    3    3    0  502 -0.89838974444E+03 -0.58067996136E+03 -0.64362455607E+03  0.12484173660E+04  0.50400001928E-02 0. -1.
</event>
<event>
 5   0  0.4983208E-07  0.2701034E+04  0.7818609E-02  0.8334669E-01
       -2   -1    0    0    0  501  0.00000000000E+00  0.00000000000E+00  0.18711572593E+04  0.18711572593E+04  0.25500000920E-02 0.  1.
        2   -1    0    0  501    0  0.00000000000E+00  0.00000000000E+00 -0.97474261959E+03  0.97474261960E+03  0.25500000920E-02 0. -1.
    10030    2    1    2    0    0  0.00000000000E+00  0.00000000000E+00  0.89641463967E+03  0.28458998789E+04  0.27010344156E+04 0.  0.
        4    1    3    3  502    0 -0.53730615303E+03 -0.61429067159E+03  0.15819501632E+04  0.17800614773E+04  0.12699999809E+01 0.  1.
       -4    1    3    3    0  502  0.53730615303E+03  0.61429067159E+03 -0.68553552353E+03  0.10658384015E+04  0.12699999809E+01 0. -1.
</event>
<event>
 5   0  0.4983208E-07  0.2699494E+04  0.7818609E-02  0.8335169E-01
        2   -1    0    0  501    0  0.00000000000E+00  0.00000000000E+00  0.32748081098E+04  0.32748081098E+04  0.25500000920E-02 0.  1.
       -2   -1    0    0    0  501  0.00000000000E+00  0.00000000000E+00 -0.55631254789E+03  0.55631254789E+03  0.25500000920E-02 0. -1.
    10030    2    1    2    0    0  0.00000000000E+00  0.00000000000E+00  0.27184955619E+04  0.38311206577E+04  0.26994939106E+04 0.  0.
        4    1    3    3  502    0  0.65381610911E+02 -0.33003756011E+03  0.32143407187E+04  0.32319015169E+04  0.12699999809E+01 0.  1.
       -4    1    3    3    0  502 -0.65381610911E+02  0.33003756011E+03 -0.49584515686E+03  0.59921914072E+03  0.12699999809E+01 0. -1.
</event>
<event>
 5   0  0.4843887E-07  0.2699691E+04  0.7818609E-02  0.8335105E-01
        2   -1    0    0  501    0  0.00000000000E+00  0.00000000000E+00  0.17360251210E+04  0.17360251210E+04  0.25500000920E-02 0.  1.
       -2   -1    0    0    0  501  0.00000000000E+00  0.00000000000E+00 -0.10495717543E+04  0.10495717543E+04  0.25500000920E-02 0. -1.
    10030    2    1    2    0    0  0.00000000000E+00  0.00000000000E+00  0.68645336666E+03  0.27855968753E+04  0.26996910429E+04 0.  0.
        5    1    3    3  502    0  0.12007411598E+04 -0.19259026311E+02 -0.29275543635E+03  0.12360736542E+04  0.46999998093E+01 0. -1.
       -5    1    3    3    0  502 -0.12007411598E+04  0.19259026311E+02  0.97920880301E+03  0.15495232212E+04  0.46999998093E+01 0.  1.
</event>
<event>
 5   0  0.5043890E-07  0.2700209E+04  0.7818609E-02  0.8334937E-01
        2   -1    0    0  501    0  0.00000000000E+00  0.00000000000E+00  0.17729626310E+04  0.17729626310E+04  0.25500000920E-02 0.  1.
       -2   -1    0    0    0  501  0.00000000000E+00  0.00000000000E+00 -0.10280997653E+04  0.10280997653E+04  0.25500000920E-02 0. -1.
    10030    2    1    2    0    0  0.00000000000E+00  0.00000000000E+00  0.74486286563E+03  0.28010623963E+04  0.27002092251E+04 0.  0.
        3    1    3    3  502    0  0.70810782441E+02 -0.14475218056E+03 -0.10180879922E+04  0.10307621116E+04  0.10100000352E+00 0. -1.
       -3    1    3    3    0  502 -0.70810782441E+02  0.14475218056E+03  0.17629508578E+04  0.17703002847E+04  0.10100000352E+00 0.  1.
</event>
<event>
 5   0  0.4983208E-07  0.2701154E+04  0.7818609E-02  0.8334631E-01
        2   -1    0    0  501    0  0.00000000000E+00  0.00000000000E+00  0.14141385570E+04  0.14141385570E+04  0.25500000920E-02 0.  1.
       -2   -1    0    0    0  501  0.00000000000E+00  0.00000000000E+00 -0.12898722370E+04  0.12898722370E+04  0.25500000920E-02 0. -1.
    10030    2    1    2    0    0  0.00000000000E+00  0.00000000000E+00  0.12426632000E+03  0.27040107939E+04  0.27011538748E+04 0.  0.
        4    1    3    3  502    0 -0.80241343966E+03  0.10794424406E+04  0.18470914686E+03  0.13576385353E+04  0.12699999809E+01 0. -1.
       -4    1    3    3    0  502  0.80241343966E+03 -0.10794424406E+04 -0.60442826858E+02  0.13463722586E+04  0.12699999809E+01 0.  1.
</event>
<event>
 5   0  0.1971600E-07  0.2697607E+04  0.7818609E-02  0.8335782E-01
        1   -1    0    0  501    0  0.00000000000E+00  0.00000000000E+00  0.19400141103E+04  0.19400141103E+04  0.50400001928E-02 0. -1.
       -1   -1    0    0    0  501  0.00000000000E+00  0.00000000000E+00 -0.93776174862E+03  0.93776174864E+03  0.50400001928E-02 0.  1.
    10030    2    1    2    0    0  0.00000000000E+00  0.00000000000E+00  0.10022523617E+04  0.28777758590E+04  0.26976071059E+04 0.  0.
        5    1    3    3  502    0  0.13069645513E+03  0.36615364012E+03  0.18789356459E+04  0.19187421148E+04  0.46999998093E+01 0. -1.
       -5    1    3    3    0  502 -0.13069645513E+03 -0.36615364012E+03 -0.87668328424E+03  0.95903374415E+03  0.46999998093E+01 0.  1.
</event>
<event>
 5   0  0.1964242E-07  0.2698328E+04  0.7818609E-02  0.8335548E-01
       -1   -1    0    0    0  501  0.00000000000E+00  0.00000000000E+00  0.14751961780E+04  0.14751961780E+04  0.50400001928E-02 0.  1.
        1   -1    0    0  501    0  0.00000000000E+00  0.00000000000E+00 -0.12338989558E+04  0.12338989558E+04  0.50400001928E-02 0. -1.
    10030    2    1    2    0    0  0.00000000000E+00  0.00000000000E+00  0.24129722223E+03  0.27090951338E+04  0.26983276477E+04 0.  0.
        2    1    3    3  502    0  0.10788623215E+03 -0.71230493086E+03 -0.10246159371E+04  0.12525396489E+04  0.25500000920E-02 0. -1.
       -2    1    3    3    0  502 -0.10788623215E+03  0.71230493086E+03  0.12659131593E+04  0.14565554849E+04  0.25500000920E-02 0.  1.
</event>
<event>
 5   0  0.4983208E-07  0.2700698E+04  0.7818609E-02  0.8334778E-01
       -2   -1    0    0    0  501  0.00000000000E+00  0.00000000000E+00  0.11553074857E+04  0.11553074857E+04  0.25500000920E-02 0. -1.
        2   -1    0    0  501    0  0.00000000000E+00  0.00000000000E+00 -0.15783180297E+04  0.15783180297E+04  0.25500000920E-02 0.  1.
    10030    2    1    2    0    0  0.00000000000E+00  0.00000000000E+00 -0.42301054401E+03  0.27336255154E+04  0.27006981575E+04 0.  0.
        4    1    3    3  502    0 -0.60223314801E+03  0.43602149979E+03  0.92946542456E+03  0.11902550572E+04  0.12699999809E+01 0. -1.
       -4    1    3    3    0  502  0.60223314801E+03 -0.43602149979E+03 -0.13524759686E+04  0.15433704582E+04  0.12699999809E+01 0.  1.
</event>
<event>
 5   0  0.5043890E-07  0.2701398E+04  0.7818609E-02  0.8334551E-01
        2   -1    0    0  501    0  0.00000000000E+00  0.00000000000E+00  0.11317887536E+04  0.11317887536E+04  0.25500000920E-02 0. -1.
       -2   -1    0    0    0  501  0.00000000000E+00  0.00000000000E+00 -0.16119510525E+04  0.16119510525E+04  0.25500000920E-02 0.  1.
    10030    2    1    2    0    0  0.00000000000E+00  0.00000000000E+00 -0.48016229889E+03  0.27437398061E+04  0.27013982103E+04 0.  0.
        3    1    3    3  502    0 -0.12350076404E+04  0.49700825228E+03 -0.81892217690E+01  0.13312881537E+04  0.10100000352E+00 0. -1.
       -3    1    3    3    0  502  0.12350076404E+04 -0.49700825228E+03 -0.47197307712E+03  0.14124516524E+04  0.10100000352E+00 0.  1.
</event>
<event>
 5   0  0.4735120E-07  0.2700518E+04  0.7818609E-02  0.8334837E-01
       -2   -1    0    0    0  501  0.00000000000E+00  0.00000000000E+00  0.17101551112E+04  0.17101551112E+04  0.25500000920E-02 0. -1.
        2   -1    0    0  501    0  0.00000000000E+00  0.00000000000E+00 -0.10661017964E+04  0.10661017964E+04  0.25500000920E-02 0.  1.
    10030    2    1    2    0    0  0.00000000000E+00  0.00000000000E+00  0.64405331482E+03  0.27762569076E+04  0.27005180512E+04 0.  0.
        2    1    3    3  502    0  0.35456166087E+03 -0.40318522603E+03 -0.95164196515E+03  0.10926548987E+04  0.25500000920E-02 0.  1.
       -2    1    3    3    0  502 -0.35456166087E+03  0.40318522603E+03  0.15956952800E+04  0.16836020089E+04  0.25500000920E-02 0. -1.
</event>
<event>
 5   0  0.4983208E-07  0.2698934E+04  0.7818609E-02  0.8335351E-01
        2   -1    0    0  501    0  0.00000000000E+00  0.00000000000E+00  0.79618115175E+03  0.79618115175E+03  0.25500000920E-02 0. -1.
       -2   -1    0    0    0  501  0.00000000000E+00  0.00000000000E+00 -0.22872454051E+04  0.22872454051E+04  0.25500000920E-02 0.  1.
    10030    2    1    2    0    0  0.00000000000E+00  0.00000000000E+00 -0.14910642534E+04  0.30834265569E+04  0.26989343682E+04 0.  0.
        4    1    3    3  502    0  0.91922581117E+03  0.12517844881E+03  0.37408775299E+03  0.10002944546E+04  0.12699999809E+01 0. -1.
       -4    1    3    3    0  502 -0.91922581117E+03 -0.12517844881E+03 -0.18651520064E+04  0.20831321023E+04  0.12699999809E+01 0.  1.
</event>
<event>
 5   0  0.1888149E-07  0.2702429E+04  0.7818609E-02  0.8334217E-01
       -1   -1    0    0    0  501  0.00000000000E+00  0.00000000000E+00  0.25101426402E+04  0.25101426402E+04  0.50400001928E-02 0.  1.
        1   -1    0    0  501    0  0.00000000000E+00  0.00000000000E+00 -0.72736104219E+03  0.72736104220E+03  0.50400001928E-02 0. -1.
    10030    2    1    2    0    0  0.00000000000E+00  0.00000000000E+00  0.17827815980E+04  0.32375036824E+04  0.27024285129E+04 0.  0.
        1    1    3    3  502    0 -0.10222994600E+04 -0.30826971813E+03  0.18833833816E+04  0.21650079370E+04  0.50400001928E-02 0.  1.
       -1    1    3    3    0  502  0.10222994600E+04  0.30826971813E+03 -0.10060178357E+03  0.10724957454E+04  0.50400001928E-02 0. -1.
</event>
<event>
 5   0  0.4735120E-07  0.2699031E+04  0.7818609E-02  0.8335319E-01
        2   -1    0    0  501    0  0.00000000000E+00  0.00000000000E+00  0.24479262924E+04  0.24479262924E+04  0.25500000920E-02 0. -1.
       -2   -1    0    0    0  501  0.00000000000E+00  0.00000000000E+00 -0.74397331960E+03  0.74397331961E+03  0.25500000920E-02 0.  1.
    10030    2    1    2    0    0  0.00000000000E+00  0.00000000000E+00  0.17039529728E+04  0.31918996120E+04  0.26990308260E+04 0.  0.
        2    1    3    3  502    0 -0.97362964492E+03  0.35413929399E+03 -0.17070560371E+03  0.10500046324E+04  0.25500000920E-02 0.  1.
       -2    1    3    3    0  502  0.97362964492E+03 -0.35413929399E+03  0.18746585765E+04  0.21418949796E+04  0.25500000920E-02 0. -1.
</event>
<event>
 5   0  0.1971600E-07  0.2700421E+04  0.7818609E-02  0.8334868E-01
       -1   -1    0    0    0  501  0.00000000000E+00  0.00000000000E+00  0.16424417185E+04  0.16424417185E+04  0.50400001928E-02 0.  1.
        1   -1    0    0  501    0  0.00000000000E+00  0.00000000000E+00 -0.11099744697E+04  0.11099744697E+04  0.50400001928E-02 0. -1.
    10030    2    1    2    0    0  0.00000000000E+00  0.00000000000E+00  0.53246724872E+03  0.27524161882E+04  0.27004209861E+04 0.  0.
        5    1    3    3  502    0  0.10596179536E+04  0.50376796640E+02  0.11176121121E+04  0.15409110787E+04  0.46999998093E+01 0.  1.
       -5    1    3    3    0  502 -0.10596179536E+04 -0.50376796640E+02 -0.58514486339E+03  0.12115051095E+04  0.46999998093E+01 0. -1.
</event>
<event>
 5   0  0.1937896E-07  0.2692944E+04  0.7818609E-02  0.8337298E-01
       -1   -1    0    0    0  501  0.00000000000E+00  0.00000000000E+00  0.78819612226E+03  0.78819612228E+03  0.50400001928E-02 0. -1.
        1   -1    0    0  501    0  0.00000000000E+00  0.00000000000E+00 -0.23001727488E+04  0.23001727488E+04  0.50400001928E-02 0.  1.
    10030    2    1    2    0    0  0.00000000000E+00  0.00000000000E+00 -0.15119766265E+04  0.30883688710E+04  0.26929442929E+04 0.  0.
        3    1    3    3  502    0  0.25693023002E+02  0.13461335736E+04 -0.77417577994E+03  0.15530884964E+04  0.10100000352E+00 0. -1.
       -3    1    3    3    0  502 -0.25693023002E+02 -0.13461335736E+04 -0.73780084655E+03  0.15352803746E+04  0.10100000352E+00 0.  1.
</event>
<event>
 5   0  0.4843887E-07  0.2700365E+04  0.7818609E-02  0.8334886E-01
       -2   -1    0    0    0  501  0.00000000000E+00  0.00000000000E+00  0.81282209717E+03  0.81282209717E+03  0.25500000920E-02 0. -1.
        2   -1    0    0  501    0  0.00000000000E+00  0.00000000000E+00 -0.22427947499E+04  0.22427947499E+04  0.25500000920E-02 0.  1.
    10030    2    1    2    0    0  0.00000000000E+00  0.00000000000E+00 -0.14299726528E+04  0.30556168471E+04  0.27003652584E+04 0.  0.
        5    1    3    3  502    0  0.11872030277E+04 -0.76341306928E+02  0.75213877085E+01  0.11896880622E+04  0.46999998093E+01 0. -1.
       -5    1    3    3    0  502 -0.11872030277E+04  0.76341306928E+02 -0.14374940405E+04  0.18659287849E+04  0.46999998093E+01 0.  1.
</event>
<event>
 5   0  0.1971600E-07  0.2700417E+04  0.7818609E-02  0.8334870E-01
       -1   -1    0    0    0  501  0.00000000000E+00  0.00000000000E+00  0.12047247350E+04  0.12047247350E+04  0.50400001928E-02 0.  1.
        1   -1    0    0  501    0  0.00000000000E+00  0.00000000000E+00 -0.15132611237E+04  0.15132611237E+04  0.50400001928E-02 0. -1.
    10030    2    1    2    0    0  0.00000000000E+00  0.00000000000E+00 -0.30853638876E+03  0.27179858587E+04  0.27004170835E+04 0.  0.
        5    1    3    3  502    0  0.82671635440E+03  0.84853938552E+03 -0.80621838688E+03  0.14330000687E+04  0.46999998093E+01 0. -1.
       -5    1    3    3    0  502 -0.82671635440E+03 -0.84853938552E+03  0.49768199812E+03  0.12849857901E+04  0.46999998093E+01 0.  1.
</event>
<event>
 5   0  0.5043890E-07  0.2702816E+04  0.7818609E-02  0.8334092E-01
        2   -1    0    0  501    0  0.00000000000E+00  0.00000000000E+00  0.25169661370E+04  0.25169661370E+04  0.25500000920E-02 0. -1.
       -2   -1    0    0    0  501  0.00000000000E+00  0.00000000000E+00 -0.72559723560E+03  0.72559723560E+03  0.25500000920E-02 0.  1.
    10030    2    1    2    0    0  0.00000000000E+00  0.00000000000E+00  0.17913689014E+04  0.32425633726E+04  0.27028160656E+04 0.  0.
        3    1    3    3  502    0  0.34589221791E+03 -0.30935044748E+03 -0.62701773387E+03  0.78005793025E+03  0.10100000352E+00 0.  1.
       -3    1    3    3    0  502 -0.34589221791E+03  0.30935044748E+03  0.24183866353E+04  0.24625054423E+04  0.10100000352E+00 0. -1.
</event>
<event>
 5   0  0.1888149E-07  0.2700641E+04  0.7818609E-02  0.8334797E-01
       -1   -1    0    0    0  501  0.00000000000E+00  0.00000000000E+00  0.72416944071E+03  0.72416944073E+03  0.50400001928E-02 0.  1.
        1   -1    0    0  501    0  0.00000000000E+00  0.00000000000E+00 -0.25178713195E+04  0.25178713195E+04  0.50400001928E-02 0. -1.
    10030    2    1    2    0    0  0.00000000000E+00  0.00000000000E+00 -0.17937018788E+04  0.32420407602E+04  0.27006410093E+04 0.  0.
        1    1    3    3  502    0 -0.10825238511E+04 -0.26524702024E+03 -0.18120094645E+04  0.21273439236E+04  0.50400001928E-02 0. -1.
       -1    1    3    3    0  502  0.10825238511E+04  0.26524702024E+03  0.18307585729E+02  0.11146968366E+04  0.50400001928E-02 0.  1.
</event>
<event>
 5   0  0.1971600E-07  0.2700894E+04  0.7818609E-02  0.8334715E-01
       -1   -1    0    0    0  501  0.00000000000E+00  0.00000000000E+00  0.78895418378E+03  0.78895418380E+03  0.50400001928E-02 0. -1.
        1   -1    0    0  501    0  0.00000000000E+00  0.00000000000E+00 -0.23115503344E+04  0.23115503344E+04  0.50400001928E-02 0.  1.
    10030    2    1    2    0    0  0.00000000000E+00  0.00000000000E+00 -0.15225961507E+04  0.31005045182E+04  0.27008941537E+04 0.  0.
        5    1    3    3  502    0  0.39724405282E+02  0.12140002168E+04 -0.14387963422E+04  0.18829581936E+04  0.46999998093E+01 0.  1.
       -5    1    3    3    0  502 -0.39724405282E+02 -0.12140002168E+04 -0.83799808475E+02  0.12175463246E+04  0.46999998093E+01 0. -1.
</event>
<event>
 5   0  0.5043890E-07  0.2702377E+04  0.7818609E-02  0.8334234E-01
       -2   -1    0    0    0  501  0.00000000000E+00  0.00000000000E+00  0.14008387333E+04  0.14008387333E+04  0.25500000920E-02 0.  1.
        2   -1    0    0  501    0  0.00000000000E+00  0.00000000000E+00 -0.13032983713E+04  0.13032983713E+04  0.25500000920E-02 0. -1.
    10030    2    1    2    0    0  0.00000000000E+00  0.00000000000E+00  0.97540361926E+02  0.27041371046E+04  0.27023773530E+04 0.  0.
        3    1    3    3  502    0  0.10616975714E+04  0.62020504610E+03  0.60936244474E+03  0.13722895582E+04  0.10100000352E+00 0.  1.
       -3    1    3    3    0  502 -0.10616975714E+04 -0.62020504610E+03 -0.51182208282E+03  0.13318475464E+04  0.10100000352E+00 0. -1.
</event>
<event>
 5   0  0.4843887E-07  0.2699657E+04  0.7818609E-02  0.8335116E-01
       -2   -1    0    0    0  501  0.00000000000E+00  0.00000000000E+00  0.68806578357E+03  0.68806578357E+03  0.25500000920E-02 0.  1.
        2   -1    0    0  501    0  0.00000000000E+00  0.00000000000E+00 -0.26480555641E+04  0.26480555641E+04  0.25500000920E-02 0. -1.
    10030    2    1    2    0    0  0.00000000000E+00  0.00000000000E+00 -0.19599897805E+04  0.33361213477E+04  0.26996565905E+04 0.  0.
        5    1    3    3  502    0 -0.98259371358E+03  0.30001982665E+03  0.10191926961E+03  0.10324301089E+04  0.46999998093E+01 0.  1.
       -5    1    3    3    0  502  0.98259371358E+03 -0.30001982665E+03 -0.20619090501E+04  0.23036912387E+04  0.46999998093E+01 0. -1.
</event>
<event>
 5   0  0.4843887E-07  0.2700046E+04  0.7818609E-02  0.8334990E-01
       -2   -1    0    0    0  501  0.00000000000E+00  0.00000000000E+00  0.10068896330E+04  0.10068896330E+04  0.25500000920E-02 0. -1.
        2   -1    0    0  501    0  0.00000000000E+00  0.00000000000E+00 -0.18100912599E+04  0.18100912599E+04  0.25500000920E-02 0.  1.
    10030    2    1    2    0    0  0.00000000000E+00  0.00000000000E+00 -0.80320162685E+03  0.28169808929E+04  0.27000460177E+04 0.  0.
        5    1    3    3  502    0 -0.77226409093E+03  0.80755984105E+03 -0.11920371701E+04  0.16338664045E+04  0.46999998093E+01 0.  1.
       -5    1    3    3    0  502  0.77226409093E+03 -0.80755984105E+03  0.38883554323E+03  0.11831144884E+04  0.46999998093E+01 0. -1.
</event>
<event>
 5   0  0.1965415E-07  0.2700903E+04  0.7818609E-02  0.8334712E-01
        1   -1    0    0  501    0  0.00000000000E+00  0.00000000000E+00  0.14231292261E+04  0.14231292261E+04  0.50400001928E-02 0. -1.
       -1   -1    0    0    0  501  0.00000000000E+00  0.00000000000E+00 -0.12814854143E+04  0.12814854143E+04  0.50400001928E-02 0.  1.
    10030    2    1    2    0    0  0.00000000000E+00  0.00000000000E+00  0.14164381176E+03  0.27046146404E+04  0.27009030682E+04 0.  0.
        4    1    3    3  502    0  0.62604826910E+03  0.96442190648E+03 -0.63843927497E+03  0.13151624879E+04  0.12699999809E+01 0.  1.
       -4    1    3    3    0  502 -0.62604826910E+03 -0.96442190648E+03  0.78008308673E+03  0.13894521525E+04  0.12699999809E+01 0. -1.
</event>
<event>
 5   0  0.1641625E-07  0.2702056E+04  0.7818609E-02  0.8334338E-01
        3   -1    0    0  501    0  0.00000000000E+00  0.00000000000E+00  0.11139233538E+04  0.11139233583E+04  0.10100000352E+00 0. -1.
       -3   -1    0    0    0  501  0.00000000000E+00  0.00000000000E+00 -0.16386019591E+04  0.16386019622E+04  0.10100000352E+00 0.  1.
    10030    2    1    2    0    0  0.00000000000E+00  0.00000000000E+00 -0.52467860530E+03  0.27525253205E+04  0.27020562542E+04 0.  0.
        1    1    3    3  502    0 -0.87248511215E+03  0.63979674857E+03 -0.10865920032E+04  0.15333793829E+04  0.50400001928E-02 0.  1.
       -1    1    3    3    0  502  0.87248511215E+03 -0.63979674857E+03  0.56191339790E+03  0.12191459376E+04  0.50400001928E-02 0. -1.
</event>
<event>
 5   0  0.1965415E-07  0.2693806E+04  0.7818609E-02  0.8337017E-01
        1   -1    0    0  501    0  0.00000000000E+00  0.00000000000E+00  0.65628406461E+03  0.65628406463E+03  0.50400001928E-02 0. -1.
       -1   -1    0    0    0  501  0.00000000000E+00  0.00000000000E+00 -0.27642723259E+04  0.27642723259E+04  0.50400001928E-02 0.  1.
    10030    2    1    2    0    0  0.00000000000E+00  0.00000000000E+00 -0.21079882613E+04  0.34205563906E+04  0.26938061384E+04 0.  0.
        4    1    3    3  502    0 -0.21705731882E+03  0.13204891777E+04 -0.86000048175E+03  0.15907256173E+04  0.12699999809E+01 0. -1.
       -4    1    3    3    0  502  0.21705731882E+03 -0.13204891777E+04 -0.12479877796E+04  0.18298307733E+04  0.12699999809E+01 0.  1.
</event>
<event>
 5   0  0.1937896E-07  0.2699901E+04  0.7818609E-02  0.8335037E-01
        1   -1    0    0  501    0  0.00000000000E+00  0.00000000000E+00  0.20189844612E+04  0.20189844612E+04  0.50400001928E-02 0.  1.
       -1   -1    0    0    0  501  0.00000000000E+00  0.00000000000E+00 -0.90261532951E+03  0.90261532953E+03  0.50400001928E-02 0. -1.
    10030    2    1    2    0    0  0.00000000000E+00  0.00000000000E+00  0.11163691317E+04  0.29215997907E+04  0.26999009795E+04 0.  0.
        3    1    3    3  502    0  0.70449951485E+03  0.37824113121E+03 -0.61877532226E+03  0.10110731078E+04  0.10100000352E+00 0. -1.
       -3    1    3    3    0  502 -0.70449951485E+03 -0.37824113121E+03  0.17351444539E+04  0.19105266829E+04  0.10100000352E+00 0.  1.
</event>
<event>
 5   0  0.1888149E-07  0.2702120E+04  0.7818609E-02  0.8334317E-01
        1   -1    0    0  501    0  0.00000000000E+00  0.00000000000E+00  0.18030630228E+04  0.18030630228E+04  0.50400001928E-02 0.  1.
       -1   -1    0    0    0  501  0.00000000000E+00  0.00000000000E+00 -0.10123680535E+04  0.10123680535E+04  0.50400001928E-02 0. -1.
    10030    2    1    2    0    0  0.00000000000E+00  0.00000000000E+00  0.79069496926E+03  0.28154310763E+04  0.27021202066E+04 0.  0.
        1    1    3    3  502    0 -0.70639811839E+03 -0.86387626010E+02  0.15919407223E+04  0.17437707381E+04  0.50400001928E-02 0.  1.
       -1    1    3    3    0  502  0.70639811839E+03  0.86387626010E+02 -0.80124575307E+03  0.10716603382E+04  0.50400001928E-02 0. -1.
</event>
<event>
 5   0  0.5043890E-07  0.2698480E+04  0.7818609E-02  0.8335498E-01
        2   -1    0    0  501    0  0.00000000000E+00  0.00000000000E+00  0.16557923720E+04  0.16557923720E+04  0.25500000920E-02 0.  1.
       -2   -1    0    0    0  501  0.00000000000E+00  0.00000000000E+00 -0.10994423242E+04  0.10994423242E+04  0.25500000920E-02 0. -1.
    10030    2    1    2    0    0  0.00000000000E+00  0.00000000000E+00  0.55635004774E+03  0.27552346962E+04  0.26984797304E+04 0.  0.
        3    1    3    3  502    0 -0.16301362126E+03 -0.52442167658E+03  0.15365145386E+04  0.16317072266E+04  0.10100000352E+00 0.  1.
       -3    1    3    3    0  502  0.16301362126E+03  0.52442167658E+03 -0.98016449090E+03  0.11235274696E+04  0.10100000352E+00 0. -1.
</event>
<event>
 5   0  0.4843887E-07  0.2698933E+04  0.7818609E-02  0.8335351E-01
       -2   -1    0    0    0  501  0.00000000000E+00  0.00000000000E+00  0.18277499824E+04  0.18277499824E+04  0.25500000920E-02 0.  1.
        2   -1    0    0  501    0  0.00000000000E+00  0.00000000000E+00 -0.99633995389E+03  0.99633995390E+03  0.25500000920E-02 0. -1.
    10030    2    1    2    0    0  0.00000000000E+00  0.00000000000E+00  0.83141002856E+03  0.28240899363E+04  0.26989333695E+04 0.  0.
        5    1    3    3  502    0  0.25152516807E+03  0.62287324565E+03 -0.80895432373E+03  0.10515061475E+04  0.46999998093E+01 0. -1.
       -5    1    3    3    0  502 -0.25152516807E+03 -0.62287324565E+03  0.16403643523E+04  0.17725837889E+04  0.46999998093E+01 0.  1.
</event>
<event>
 5   0  0.4843887E-07  0.2703112E+04  0.7818609E-02  0.8333996E-01
       -2   -1    0    0    0  501  0.00000000000E+00  0.00000000000E+00  0.99462871372E+03  0.99462871372E+03  0.25500000920E-02 0.  1.
        2   -1    0    0  501    0  0.00000000000E+00  0.00000000000E+00 -0.18365685131E+04  0.18365685131E+04  0.25500000920E-02 0. -1.
    10030    2    1    2    0    0  0.00000000000E+00  0.00000000000E+00 -0.84193979936E+03  0.28311972268E+04  0.27031121159E+04 0.  0.
        5    1    3    3  502    0  0.93157280665E+03  0.51785266965E+03  0.44948297080E+03  0.11567438405E+04  0.46999998093E+01 0.  1.
       -5    1    3    3    0  502 -0.93157280665E+03 -0.51785266965E+03 -0.12914227702E+04  0.16744533863E+04  0.46999998093E+01 0. -1.
</event>
<event>
 5   0  0.1888149E-07  0.2699695E+04  0.7818609E-02  0.8335104E-01
        1   -1    0    0  501    0  0.00000000000E+00  0.00000000000E+00  0.17544005509E+04  0.17544005509E+04  0.50400001928E-02 0.  1.
       -1   -1    0    0    0  501  0.00000000000E+00  0.00000000000E+00 -0.10385819348E+04  0.10385819348E+04  0.50400001928E-02 0. -1.
    10030    2    1    2    0    0  0.00000000000E+00  0.00000000000E+00  0.71581861607E+03  0.27929824857E+04  0.26996953300E+04 0.  0.
        1    1    3    3  502    0 -0.67530822393E+03 -0.53209999300E+03 -0.71868248942E+03  0.11205695518E+04  0.50400001928E-02 0. -1.
       -1    1    3    3    0  502  0.67530822393E+03  0.53209999300E+03  0.14345011055E+04  0.16724129339E+04  0.50400001928E-02 0.  1.
</event>
<event>
 5   0  0.4992668E-07  0.2701641E+04  0.7818609E-02  0.8334473E-01
        2   -1    0    0  501    0  0.00000000000E+00  0.00000000000E+00  0.10967993450E+04  0.10967993450E+04  0.25500000920E-02 0.  1.
       -2   -1    0    0    0  501  0.00000000000E+00  0.00000000000E+00 -0.16636733176E+04  0.16636733176E+04  0.25500000920E-02 0. -1.
    10030    2    1    2    0    0  0.00000000000E+00  0.00000000000E+00 -0.56687397266E+03  0.27604726626E+04  0.27016408385E+04 0.  0.
        1    1    3    3  502    0  0.10171726208E+04 -0.28590975079E+03 -0.11433886640E+04  0.15568308075E+04  0.50400001928E-02 0. -1.
       -1    1    3    3    0  502 -0.10171726208E+04  0.28590975079E+03  0.57651469135E+03  0.12036418551E+04  0.50400001928E-02 0.  1.
</event>
<event>
 5   0  0.4992668E-07  0.2699993E+04  0.7818609E-02  0.8335007E-01
       -2   -1    0    0    0  501  0.00000000000E+00  0.00000000000E+00  0.15840640388E+04  0.15840640388E+04  0.25500000920E-02 0.  1.
        2   -1    0    0  501    0  0.00000000000E+00  0.00000000000E+00 -0.11505153986E+04  0.11505153986E+04  0.25500000920E-02 0. -1.
    10030    2    1    2    0    0  0.00000000000E+00  0.00000000000E+00  0.43354864020E+03  0.27345794373E+04  0.26999926436E+04 0.  0.
        1    1    3    3  502    0 -0.30587415061E+03 -0.12948966284E+04  0.44811615475E+03  0.14039673651E+04  0.50400001928E-02 0.  1.
       -1    1    3    3    0  502  0.30587415061E+03  0.12948966284E+04 -0.14567514544E+02  0.13306120722E+04  0.50400001928E-02 0. -1.
</event>
<event>
 5   0  0.1937896E-07  0.2700418E+04  0.7818609E-02  0.8334869E-01
       -1   -1    0    0    0  501  0.00000000000E+00  0.00000000000E+00  0.14266937252E+04  0.14266937252E+04  0.50400001928E-02 0. -1.
        1   -1    0    0  501    0  0.00000000000E+00  0.00000000000E+00 -0.12778245679E+04  0.12778245679E+04  0.50400001928E-02 0.  1.
    10030    2    1    2    0    0  0.00000000000E+00  0.00000000000E+00  0.14886915733E+03  0.27045182932E+04  0.27004179625E+04 0.  0.
        3    1    3    3  502    0 -0.30065708839E+03 -0.17463031299E+03 -0.12322202947E+04  0.12803348374E+04  0.10100000352E+00 0.  1.
       -3    1    3    3    0  502  0.30065708839E+03  0.17463031299E+03  0.13810894520E+04  0.14241834558E+04  0.10100000352E+00 0. -1.
</event>
<event>
 5   0  0.4983208E-07  0.2698639E+04  0.7818609E-02  0.8335447E-01
        2   -1    0    0  501    0  0.00000000000E+00  0.00000000000E+00  0.14195675047E+04  0.14195675047E+04  0.25500000920E-02 0.  1.
       -2   -1    0    0    0  501  0.00000000000E+00  0.00000000000E+00 -0.12825477480E+04  0.12825477480E+04  0.25500000920E-02 0. -1.
    10030    2    1    2    0    0  0.00000000000E+00  0.00000000000E+00  0.13701975671E+03  0.27021152527E+04  0.26986389950E+04 0.  0.
        4    1    3    3  502    0 -0.22597352640E+03  0.85899451915E+03  0.10855573830E+04  0.14026304086E+04  0.12699999809E+01 0.  1.
       -4    1    3    3    0  502  0.22597352640E+03 -0.85899451915E+03 -0.94853762628E+03  0.12994848441E+04  0.12699999809E+01 0. -1.
</event>
<event>
 5   0  0.1964242E-07  0.2700086E+04  0.7818609E-02  0.8334977E-01
        1   -1    0    0  501    0  0.00000000000E+00  0.00000000000E+00  0.16268103596E+04  0.16268103596E+04  0.50400001928E-02 0.  1.
       -1   -1    0    0    0  501  0.00000000000E+00  0.00000000000E+00 -0.11203614918E+04  0.11203614918E+04  0.50400001928E-02 0. -1.
    10030    2    1    2    0    0  0.00000000000E+00  0.00000000000E+00  0.50644886782E+03  0.27471718513E+04  0.27000856885E+04 0.  0.
        2    1    3    3  502    0  0.20255734109E+03  0.12958826286E+04  0.57860513384E+03  0.14335707741E+04  0.25500000920E-02 0.  1.
       -2    1    3    3    0  502 -0.20255734109E+03 -0.12958826286E+04 -0.72156266030E+02  0.13136010772E+04  0.25500000920E-02 0. -1.
</event>
<event>
 5   0  0.4735120E-07  0.2701827E+04  0.7818609E-02  0.8334413E-01
       -2   -1    0    0    0  501  0.00000000000E+00  0.00000000000E+00  0.15242013616E+04  0.15242013616E+04  0.25500000920E-02 0. -1.
        2   -1    0    0  501    0  0.00000000000E+00  0.00000000000E+00 -0.11973266582E+04  0.11973266582E+04  0.25500000920E-02 0.  1.
    10030    2    1    2    0    0  0.00000000000E+00  0.00000000000E+00  0.32687470335E+03  0.27215280198E+04  0.27018267322E+04 0.  0.
        2    1    3    3  502    0  0.21543619661E+03 -0.15759080704E+03 -0.11704997655E+04  0.12005487572E+04  0.25500000920E-02 0.  1.
       -2    1    3    3    0  502 -0.21543619661E+03  0.15759080704E+03  0.14973744689E+04  0.15209792626E+04  0.25500000920E-02 0. -1.
</event>
<event>
 5   0  0.1888149E-07  0.2699801E+04  0.7818609E-02  0.8335069E-01
        1   -1    0    0  501    0  0.00000000000E+00  0.00000000000E+00  0.11244978019E+04  0.11244978019E+04  0.50400001928E-02 0. -1.
       -1   -1    0    0    0  501  0.00000000000E+00  0.00000000000E+00 -0.16204850765E+04  0.16204850765E+04  0.50400001928E-02 0.  1.
    10030    2    1    2    0    0  0.00000000000E+00  0.00000000000E+00 -0.49598727463E+03  0.27449828785E+04  0.26998014050E+04 0.  0.
        1    1    3    3  502    0  0.12907193201E+03 -0.65911879743E+03 -0.14385443255E+04  0.15876104463E+04  0.50400001928E-02 0.  1.
       -1    1    3    3    0  502 -0.12907193201E+03  0.65911879743E+03  0.94255705082E+03  0.11573724322E+04  0.50400001928E-02 0. -1.
</event>
<event>
 5   0  0.4735120E-07  0.2697334E+04  0.7818609E-02  0.8335870E-01
       -2   -1    0    0    0  501  0.00000000000E+00  0.00000000000E+00  0.14651686784E+04  0.14651686784E+04  0.25500000920E-02 0. -1.
        2   -1    0    0  501    0  0.00000000000E+00  0.00000000000E+00 -0.12414291152E+04  0.12414291152E+04  0.25500000920E-02 0.  1.
    10030    2    1    2    0    0  0.00000000000E+00  0.00000000000E+00  0.22373956315E+03  0.27065977936E+04  0.26973342811E+04 0.  0.
        2    1    3    3  502    0 -0.73913972635E+03 -0.99427217171E+03 -0.42287539366E+03  0.13090944523E+04  0.25500000920E-02 0.  1.
       -2    1    3    3    0  502  0.73913972635E+03  0.99427217171E+03  0.64661495680E+03  0.13975033413E+04  0.25500000920E-02 0. -1.
</event>
<event>
 5   0  0.4843887E-07  0.2699492E+04  0.7818609E-02  0.8335170E-01
       -2   -1    0    0    0  501  0.00000000000E+00  0.00000000000E+00  0.94648964201E+03  0.94648964201E+03  0.25500000920E-02 0. -1.
        2   -1    0    0  501    0  0.00000000000E+00  0.00000000000E+00 -0.19248117050E+04  0.19248117050E+04  0.25500000920E-02 0.  1.
    10030    2    1    2    0    0  0.00000000000E+00  0.00000000000E+00 -0.97832206302E+03  0.28713013470E+04  0.26994920571E+04 0.  0.
        5    1    3    3  502    0  0.73968217167E+03 -0.11347112743E+03 -0.16839459101E+04  0.18427428823E+04  0.46999998093E+01 0.  1.
       -5    1    3    3    0  502 -0.73968217167E+03  0.11347112743E+03  0.70562384712E+03  0.10285584648E+04  0.46999998093E+01 0. -1.
</event>
<event>
 5   0  0.4843887E-07  0.2700524E+04  0.7818609E-02  0.8334835E-01
       -2   -1    0    0    0  501  0.00000000000E+00  0.00000000000E+00  0.71599247683E+03  0.71599247684E+03  0.25500000920E-02 0. -1.
        2   -1    0    0  501    0  0.00000000000E+00  0.00000000000E+00 -0.25464056010E+04  0.25464056010E+04  0.25500000920E-02 0.  1.
    10030    2    1    2    0    0  0.00000000000E+00  0.00000000000E+00 -0.18304131242E+04  0.32623980779E+04  0.27005238405E+04 0.  0.
        5    1    3    3  502    0  0.13241332479E+04 -0.23482967286E+03 -0.10617326332E+04  0.17134094980E+04  0.46999998093E+01 0.  1.
       -5    1    3    3    0  502 -0.13241332479E+04  0.23482967286E+03 -0.76868049098E+03  0.15489885799E+04  0.46999998093E+01 0. -1.
</event>
<event>
 5   0  0.1641625E-07  0.2694008E+04  0.7818609E-02  0.8336952E-01
        4   -1    0    0  501    0  0.00000000000E+00  0.00000000000E+00  0.10641996024E+04  0.10642003602E+04  0.12699999809E+01 0. -1.
       -4   -1    0    0    0  501  0.00000000000E+00  0.00000000000E+00 -0.17049606037E+04  0.17049610767E+04  0.12699999809E+01 0.  1.
    10030    2    1    2    0    0  0.00000000000E+00  0.00000000000E+00 -0.64076100133E+03  0.27691614368E+04  0.26940082410E+04 0.  0.
        4    1    3    3  502    0  0.80003619421E+03 -0.10204807511E+04  0.54456010000E+02  0.12978466571E+04  0.12699999809E+01 0. -1.
       -4    1    3    3    0  502 -0.80003619421E+03  0.10204807511E+04 -0.69521701133E+03  0.14713147798E+04  0.12699999809E+01 0.  1.
</event>
<event>
 5   0  0.1937896E-07  0.2700629E+04  0.7818609E-02  0.8334801E-01
        1   -1    0    0  501    0  0.00000000000E+00  0.00000000000E+00  0.14515621139E+04  0.14515621139E+04  0.50400001928E-02 0.  1.
       -1   -1    0    0    0  501  0.00000000000E+00  0.00000000000E+00 -0.12561285695E+04  0.12561285695E+04  0.50400001928E-02 0. -1.
    10030    2    1    2    0    0  0.00000000000E+00  0.00000000000E+00  0.19543354440E+03  0.27076906834E+04  0.27006285503E+04 0.  0.
        3    1    3    3  502    0 -0.72788795965E+03 -0.49792782262E+03 -0.92750088278E+03  0.12798479973E+04  0.10100000352E+00 0. -1.
       -3    1    3    3    0  502  0.72788795965E+03  0.49792782262E+03  0.11229344272E+04  0.14278426861E+04  0.10100000352E+00 0.  1.
</event>
<event>
 5   0  0.1937896E-07  0.2700137E+04  0.7818609E-02  0.8334960E-01
        1   -1    0    0  501    0  0.00000000000E+00  0.00000000000E+00  0.15668887701E+04  0.15668887701E+04  0.50400001928E-02 0.  1.
       -1   -1    0    0    0  501  0.00000000000E+00  0.00000000000E+00 -0.11632513262E+04  0.11632513262E+04  0.50400001928E-02 0. -1.
    10030    2    1    2    0    0  0.00000000000E+00  0.00000000000E+00  0.40363744388E+03  0.27301400963E+04  0.27001373593E+04 0.  0.
        3    1    3    3  502    0 -0.21213725120E+03  0.13330802006E+04  0.17745963856E+03  0.13614686805E+04  0.10100000352E+00 0.  1.
       -3    1    3    3    0  502  0.21213725120E+03 -0.13330802006E+04  0.22617780532E+03  0.13686714158E+04  0.10100000352E+00 0. -1.
</event>
<event>
 5   0  0.1971600E-07  0.2700392E+04  0.7818609E-02  0.8334878E-01
        1   -1    0    0  501    0  0.00000000000E+00  0.00000000000E+00  0.16915745140E+04  0.16915745140E+04  0.50400001928E-02 0.  1.
       -1   -1    0    0    0  501  0.00000000000E+00  0.00000000000E+00 -0.10777114716E+04  0.10777114717E+04  0.50400001928E-02 0. -1.
    10030    2    1    2    0    0  0.00000000000E+00  0.00000000000E+00  0.61386304236E+03  0.27692859857E+04  0.27003920152E+04 0.  0.
        5    1    3    3  502    0 -0.56626966393E+03  0.76137874867E+03 -0.67812028354E+03  0.11662881892E+04  0.46999998093E+01 0. -1.
       -5    1    3    3    0  502  0.56626966393E+03 -0.76137874867E+03  0.12919833259E+04  0.16029977965E+04  0.46999998093E+01 0.  1.
</event>
<event>
 5   0  0.4992668E-07  0.2699767E+04  0.7818609E-02  0.8335081E-01
        2   -1    0    0  501    0  0.00000000000E+00  0.00000000000E+00  0.17244656411E+04  0.17244656411E+04  0.25500000920E-02 0.  1.
       -2   -1    0    0    0  501  0.00000000000E+00  0.00000000000E+00 -0.10566666774E+04  0.10566666774E+04  0.25500000920E-02 0. -1.
    10030    2    1    2    0    0  0.00000000000E+00  0.00000000000E+00  0.66779896373E+03  0.27811323185E+04  0.26997669375E+04 0.  0.
        1    1    3    3  502    0 -0.13812660005E+03  0.12435162562E+04  0.85589969775E+03  0.15159076257E+04  0.50400001928E-02 0.  1.
       -1    1    3    3    0  502  0.13812660005E+03 -0.12435162562E+04 -0.18810073401E+03  0.12652246928E+04  0.50400001928E-02 0. -1.
</event>
<event>
 5   0  0.1971600E-07  0.2700866E+04  0.7818609E-02  0.8334724E-01
        1   -1    0    0  501    0  0.00000000000E+00  0.00000000000E+00  0.11629938562E+04  0.11629938562E+04  0.50400001928E-02 0. -1.
       -1   -1    0    0    0  501  0.00000000000E+00  0.00000000000E+00 -0.15680812802E+04  0.15680812802E+04  0.50400001928E-02 0.  1.
    10030    2    1    2    0    0  0.00000000000E+00  0.00000000000E+00 -0.40508742400E+03  0.27310751365E+04  0.27008657093E+04 0.  0.
        5    1    3    3  502    0 -0.38458168523E+03  0.11610370677E+04 -0.78142987526E+03  0.14514010077E+04  0.46999998093E+01 0.  1.
       -5    1    3    3    0  502  0.38458168523E+03 -0.11610370677E+04  0.37634245126E+03  0.12796741288E+04  0.46999998093E+01 0. -1.
</event>
<event>
 5   0  0.4992668E-07  0.2699036E+04  0.7818609E-02  0.8335318E-01
       -2   -1    0    0    0  501  0.00000000000E+00  0.00000000000E+00  0.83651127098E+03  0.83651127099E+03  0.25500000920E-02 0. -1.
        2   -1    0    0  501    0  0.00000000000E+00  0.00000000000E+00 -0.21771364188E+04  0.21771364188E+04  0.25500000920E-02 0.  1.
    10030    2    1    2    0    0  0.00000000000E+00  0.00000000000E+00 -0.13406251478E+04  0.30136476898E+04  0.26990362375E+04 0.  0.
        1    1    3    3  502    0  0.29385631192E+03  0.32585819324E+03 -0.20952622290E+04  0.21407145775E+04  0.50400001928E-02 0.  1.
       -1    1    3    3    0  502 -0.29385631192E+03 -0.32585819324E+03  0.75463708118E+03  0.87293311226E+03  0.50400001928E-02 0. -1.
</event>
<event>
 5   0  0.5043890E-07  0.2701263E+04  0.7818609E-02  0.8334595E-01
        2   -1    0    0  501    0  0.00000000000E+00  0.00000000000E+00  0.20325951501E+04  0.20325951501E+04  0.25500000920E-02 0. -1.
       -2   -1    0    0    0  501  0.00000000000E+00  0.00000000000E+00 -0.89747579423E+03  0.89747579423E+03  0.25500000920E-02 0.  1.
    10030    2    1    2    0    0  0.00000000000E+00  0.00000000000E+00  0.11351193559E+04  0.29300709444E+04  0.27012626283E+04 0.  0.
        3    1    3    3  502    0  0.76566550025E+02 -0.12939893489E+04  0.15603761782E+03  0.13056104396E+04  0.10100000352E+00 0.  1.
       -3    1    3    3    0  502 -0.76566550025E+02  0.12939893489E+04  0.97908173809E+03  0.16244605048E+04  0.10100000352E+00 0. -1.
</event>
<event>
 5   0  0.4735120E-07  0.2699996E+04  0.7818609E-02  0.8335006E-01
       -2   -1    0    0    0  501  0.00000000000E+00  0.00000000000E+00  0.18834817830E+04  0.18834817830E+04  0.25500000920E-02 0. -1.
        2   -1    0    0  501    0  0.00000000000E+00  0.00000000000E+00 -0.96762001250E+03  0.96762001251E+03  0.25500000920E-02 0.  1.
    10030    2    1    2    0    0  0.00000000000E+00  0.00000000000E+00  0.91586177054E+03  0.28511017956E+04  0.26999960492E+04 0.  0.
        2    1    3    3  502    0 -0.11528637242E+02  0.12108891003E+04 -0.17221525357E+03  0.12231285362E+04  0.25500000920E-02 0.  1.
       -2    1    3    3    0  502  0.11528637242E+02 -0.12108891003E+04  0.10880770241E+04  0.16279732593E+04  0.25500000920E-02 0. -1.
</event>
<event>
 5   0  0.1964242E-07  0.2699708E+04  0.7818609E-02  0.8335100E-01
       -1   -1    0    0    0  501  0.00000000000E+00  0.00000000000E+00  0.10392843498E+04  0.10392843498E+04  0.50400001928E-02 0. -1.
        1   -1    0    0  501    0  0.00000000000E+00  0.00000000000E+00 -0.17532317495E+04  0.17532317496E+04  0.50400001928E-02 0.  1.
    10030    2    1    2    0    0  0.00000000000E+00  0.00000000000E+00 -0.71394739979E+03  0.27925160993E+04  0.26997083686E+04 0.  0.
        2    1    3    3  502    0  0.42508397028E+03 -0.12758513066E+04 -0.23628632975E+03  0.13654025663E+04  0.25500000920E-02 0.  1.
       -2    1    3    3    0  502 -0.42508397028E+03  0.12758513066E+04 -0.47766107004E+03  0.14271135330E+04  0.25500000920E-02 0. -1.
</event>
<event>
 5   0  0.4843887E-07  0.2700274E+04  0.7818609E-02  0.8334916E-01
        2   -1    0    0  501    0  0.00000000000E+00  0.00000000000E+00  0.18671469694E+04  0.18671469694E+04  0.25500000920E-02 0.  1.
       -2   -1    0    0    0  501  0.00000000000E+00  0.00000000000E+00 -0.97628660997E+03  0.97628660997E+03  0.25500000920E-02 0. -1.
    10030    2    1    2    0    0  0.00000000000E+00  0.00000000000E+00  0.89086035946E+03  0.28434335794E+04  0.27002744935E+04 0.  0.
        5    1    3    3  502    0 -0.79003958145E+03  0.88390490445E+03 -0.23488536517E+03  0.12085709103E+04  0.46999998093E+01 0. -1.
       -5    1    3    3    0  502  0.79003958145E+03 -0.88390490445E+03  0.11257457246E+04  0.16348626691E+04  0.46999998093E+01 0.  1.
</event>
<event>
 5   0  0.4843887E-07  0.2700542E+04  0.7818609E-02  0.8334829E-01
        2   -1    0    0  501    0  0.00000000000E+00  0.00000000000E+00  0.19192692351E+04  0.19192692351E+04  0.25500000920E-02 0.  1.
       -2   -1    0    0    0  501  0.00000000000E+00  0.00000000000E+00 -0.94996162760E+03  0.94996162760E+03  0.25500000920E-02 0. -1.
    10030    2    1    2    0    0  0.00000000000E+00  0.00000000000E+00  0.96930760746E+03  0.28692308627E+04  0.27005422614E+04 0.  0.
        5    1    3    3  502    0 -0.63327466308E+02  0.11763558393E+04  0.11857087353E+04  0.16714516815E+04  0.46999998093E+01 0. -1.
       -5    1    3    3    0  502  0.63327466308E+02 -0.11763558393E+04 -0.21640112784E+03  0.11977791812E+04  0.46999998093E+01 0.  1.
</event>
<event>
 5   0  0.4992668E-07  0.2699921E+04  0.7818609E-02  0.8335031E-01
       -2   -1    0    0    0  501  0.00000000000E+00  0.00000000000E+00  0.11999308224E+04  0.11999308224E+04  0.25500000920E-02 0. -1.
        2   -1    0    0  501    0  0.00000000000E+00  0.00000000000E+00 -0.15187488342E+04  0.15187488343E+04  0.25500000920E-02 0.  1.
    10030    2    1    2    0    0  0.00000000000E+00  0.00000000000E+00 -0.31881801185E+03  0.27186796567E+04  0.26999211379E+04 0.  0.
        1    1    3    3  502    0  0.11284231437E+02 -0.45270462955E+03 -0.14399856335E+04  0.15095123186E+04  0.50400001928E-02 0.  1.
       -1    1    3    3    0  502 -0.11284231437E+02  0.45270462955E+03  0.11211676216E+04  0.12091673380E+04  0.50400001928E-02 0. -1.
</event>
<event>
 5   0  0.4983208E-07  0.2702281E+04  0.7818609E-02  0.8334265E-01
        2   -1    0    0  501    0  0.00000000000E+00  0.00000000000E+00  0.15431654664E+04  0.15431654664E+04  0.25500000920E-02 0. -1.
       -2   -1    0    0    0  501  0.00000000000E+00  0.00000000000E+00 -0.11830104305E+04  0.11830104305E+04  0.25500000920E-02 0.  1.
    10030    2    1    2    0    0  0.00000000000E+00  0.00000000000E+00  0.36015503594E+03  0.27261758970E+04  0.27022811421E+04 0.  0.
        4    1    3    3  502    0  0.11640507845E+04  0.35378437102E+03 -0.41282804917E+03  0.12847592074E+04  0.12699999809E+01 0.  1.
       -4    1    3    3    0  502 -0.11640507845E+04 -0.35378437102E+03  0.77298308511E+03  0.14414166895E+04  0.12699999809E+01 0. -1.
</event>
<event>
 5   0  0.1964242E-07  0.2699977E+04  0.7818609E-02  0.8335012E-01
       -1   -1    0    0    0  501  0.00000000000E+00  0.00000000000E+00  0.13616941788E+04  0.13616941788E+04  0.50400001928E-02 0. -1.
        1   -1    0    0  501    0  0.00000000000E+00  0.00000000000E+00 -0.13383834071E+04  0.13383834071E+04  0.50400001928E-02 0.  1.
    10030    2    1    2    0    0  0.00000000000E+00  0.00000000000E+00  0.23310771654E+02  0.27000775859E+04  0.26999769588E+04 0.  0.
        2    1    3    3  502    0  0.38757838009E+03  0.73661140661E+03 -0.10512367699E+04  0.13408624506E+04  0.25500000920E-02 0.  1.
       -2    1    3    3    0  502 -0.38757838009E+03 -0.73661140661E+03  0.10745475415E+04  0.13592151353E+04  0.25500000920E-02 0. -1.
</event>
<event>
 5   0  0.1964242E-07  0.2700343E+04  0.7818609E-02  0.8334894E-01
        1   -1    0    0  501    0  0.00000000000E+00  0.00000000000E+00  0.12116809507E+04  0.12116809507E+04  0.50400001928E-02 0.  1.
       -1   -1    0    0    0  501  0.00000000000E+00  0.00000000000E+00 -0.15044914615E+04  0.15044914615E+04  0.50400001928E-02 0. -1.
    10030    2    1    2    0    0  0.00000000000E+00  0.00000000000E+00 -0.29281051082E+03  0.27161724122E+04  0.27003434185E+04 0.  0.
        2    1    3    3  502    0  0.51883871453E+03 -0.77364357227E+03  0.83669061102E+03  0.12521058930E+04  0.25500000920E-02 0.  1.
       -2    1    3    3    0  502 -0.51883871453E+03  0.77364357227E+03 -0.11295011218E+04  0.14640665193E+04  0.25500000920E-02 0. -1.
</event>
<event>
 5   0  0.4843887E-07  0.2696860E+04  0.7818609E-02  0.8336024E-01
        2   -1    0    0  501    0  0.00000000000E+00  0.00000000000E+00  0.11733521243E+04  0.11733521243E+04  0.25500000920E-02 0. -1.
       -2   -1    0    0    0  501  0.00000000000E+00  0.00000000000E+00 -0.15496318785E+04  0.15496318785E+04  0.25500000920E-02 0.  1.
    10030    2    1    2    0    0  0.00000000000E+00  0.00000000000E+00 -0.37627975424E+03  0.27229840028E+04  0.26968602904E+04 0.  0.
        5    1    3    3  502    0 -0.91266347934E+03  0.29885673548E+03  0.76758702245E+03  0.12294234022E+04  0.46999998093E+01 0. -1.
       -5    1    3    3    0  502  0.91266347934E+03 -0.29885673548E+03 -0.11438667767E+04  0.14935606006E+04  0.46999998093E+01 0.  1.
</event>
<event>
 5   0  0.5043890E-07  0.2697200E+04  0.7818609E-02  0.8335914E-01
        2   -1    0    0  501    0  0.00000000000E+00  0.00000000000E+00  0.24516961052E+04  0.24516961052E+04  0.25500000920E-02 0.  1.
       -2   -1    0    0    0  501  0.00000000000E+00  0.00000000000E+00 -0.74182188792E+03  0.74182188793E+03  0.25500000920E-02 0. -1.
    10030    2    1    2    0    0  0.00000000000E+00  0.00000000000E+00  0.17098742173E+04  0.31935179931E+04  0.26971999061E+04 0.  0.
        3    1    3    3  502    0  0.11032611713E+04 -0.76383469393E+03  0.69567458961E+03  0.15114866181E+04  0.10100000352E+00 0. -1.
       -3    1    3    3    0  502 -0.11032611713E+04  0.76383469393E+03  0.10141996277E+04  0.16820313751E+04  0.10100000352E+00 0.  1.
</event>
<event>
 5   0  0.1964242E-07  0.2701275E+04  0.7818609E-02  0.8334591E-01
        1   -1    0    0  501    0  0.00000000000E+00  0.00000000000E+00  0.18883409982E+04  0.18883409982E+04  0.50400001928E-02 0.  1.
       -1   -1    0    0    0  501  0.00000000000E+00  0.00000000000E+00 -0.96604443833E+03  0.96604443834E+03  0.50400001928E-02 0. -1.
    10030    2    1    2    0    0  0.00000000000E+00  0.00000000000E+00  0.92229655984E+03  0.28543854365E+04  0.27012747502E+04 0.  0.
        2    1    3    3  502    0 -0.68357472868E+03 -0.76579524678E+03 -0.46638918677E+03  0.11274908617E+04  0.25500000920E-02 0. -1.
       -2    1    3    3    0  502  0.68357472868E+03  0.76579524678E+03  0.13886857466E+04  0.17268945748E+04  0.25500000920E-02 0.  1.
</event>
<event>
 5   0  0.4735120E-07  0.2700348E+04  0.7818609E-02  0.8334892E-01
       -2   -1    0    0    0  501  0.00000000000E+00  0.00000000000E+00  0.13615512396E+04  0.13615512396E+04  0.25500000920E-02 0.  1.
        2   -1    0    0  501    0  0.00000000000E+00  0.00000000000E+00 -0.13388919206E+04  0.13388919206E+04  0.25500000920E-02 0. -1.
    10030    2    1    2    0    0  0.00000000000E+00  0.00000000000E+00  0.22659318958E+02  0.27004431602E+04  0.27003480918E+04 0.  0.
        2    1    3    3  502    0 -0.60240916292E+03 -0.45548965937E+03  0.11305662407E+04  0.13596130530E+04  0.25500000920E-02 0.  1.
       -2    1    3    3    0  502  0.60240916292E+03  0.45548965937E+03 -0.11079069217E+04  0.13408301072E+04  0.25500000920E-02 0. -1.
</event>
<event>
 5   0  0.1965415E-07  0.2688112E+04  0.7818609E-02  0.8338873E-01
        1   -1    0    0  501    0  0.00000000000E+00  0.00000000000E+00  0.17375925515E+04  0.17375925515E+04  0.50400001928E-02 0. -1.
       -1   -1    0    0    0  501  0.00000000000E+00  0.00000000000E+00 -0.10396487808E+04  0.10396487808E+04  0.50400001928E-02 0.  1.
    10030    2    1    2    0    0  0.00000000000E+00  0.00000000000E+00  0.69794377069E+03  0.27772413323E+04  0.26881115882E+04 0.  0.
        4    1    3    3  502    0 -0.32859940814E+03  0.15368331722E+03  0.16860575804E+04  0.17246413860E+04  0.12699999809E+01 0. -1.
       -4    1    3    3    0  502  0.32859940814E+03 -0.15368331722E+03 -0.98811380973E+03  0.10525999463E+04  0.12699999809E+01 0.  1.
</event>
<event>
 5   0  0.1937896E-07  0.2700560E+04  0.7818609E-02  0.8334823E-01
        1   -1    0    0  501    0  0.00000000000E+00  0.00000000000E+00  0.12927351608E+04  0.12927351608E+04  0.50400001928E-02 0. -1.
       -1   -1    0    0    0  501  0.00000000000E+00  0.00000000000E+00 -0.14103864485E+04  0.14103864485E+04  0.50400001928E-02 0.  1.
    10030    2    1    2    0    0  0.00000000000E+00  0.00000000000E+00 -0.11765128769E+03  0.27031216093E+04  0.27005600547E+04 0.  0.
        3    1    3    3  502    0  0.15199764436E+03 -0.11376336642E+04 -0.77079668246E+03  0.13825487961E+04  0.10100000352E+00 0.  1.
       -3    1    3    3    0  502 -0.15199764436E+03  0.11376336642E+04  0.65314539477E+03  0.13205728131E+04  0.10100000352E+00 0. -1.
</event>
<event>
 5   0  0.4992668E-07  0.2699318E+04  0.7818609E-02  0.8335226E-01
       -2   -1    0    0    0  501  0.00000000000E+00  0.00000000000E+00  0.70465680398E+03  0.70465680399E+03  0.25500000920E-02 0.  1.
        2   -1    0    0  501    0  0.00000000000E+00  0.00000000000E+00 -0.25850582014E+04  0.25850582014E+04  0.25500000920E-02 0. -1.
    10030    2    1    2    0    0  0.00000000000E+00  0.00000000000E+00 -0.18804013974E+04  0.32897150054E+04  0.26993175807E+04 0.  0.
        1    1    3    3  502    0  0.10756019521E+04 -0.75593044777E+03 -0.56808454593E+03  0.14321558758E+04  0.50400001928E-02 0.  1.
       -1    1    3    3    0  502 -0.10756019521E+04  0.75593044777E+03 -0.13123168515E+04  0.18575591296E+04  0.50400001928E-02 0. -1.
</event>
<event>
 5   0  0.1964242E-07  0.2700776E+04  0.7818609E-02  0.8334753E-01
        1   -1    0    0  501    0  0.00000000000E+00  0.00000000000E+00  0.10925149878E+04  0.10925149878E+04  0.50400001928E-02 0.  1.
       -1   -1    0    0    0  501  0.00000000000E+00  0.00000000000E+00 -0.16691283131E+04  0.16691283131E+04  0.50400001928E-02 0. -1.
    10030    2    1    2    0    0  0.00000000000E+00  0.00000000000E+00 -0.57661332526E+03  0.27616433009E+04  0.27007759616E+04 0.  0.
        2    1    3    3  502    0  0.34287501507E+03 -0.63652272794E+03 -0.14545472930E+04  0.16243251788E+04  0.25500000920E-02 0. -1.
       -2    1    3    3    0  502 -0.34287501507E+03  0.63652272794E+03  0.87793396770E+03  0.11373181221E+04  0.25500000920E-02 0.  1.
</event>
<event>
 5   0  0.4992668E-07  0.2700078E+04  0.7818609E-02  0.8334980E-01
       -2   -1    0    0    0  501  0.00000000000E+00  0.00000000000E+00  0.11785542284E+04  0.11785542284E+04  0.25500000920E-02 0.  1.
        2   -1    0    0  501    0  0.00000000000E+00  0.00000000000E+00 -0.15464756763E+04  0.15464756763E+04  0.25500000920E-02 0. -1.
    10030    2    1    2    0    0  0.00000000000E+00  0.00000000000E+00 -0.36792144787E+03  0.27250299047E+04  0.27000781080E+04 0.  0.
        1    1    3    3  502    0 -0.33877229449E+03  0.26294594921E+03  0.11079854922E+04  0.11880821061E+04  0.50400001928E-02 0.  1.
       -1    1    3    3    0  502  0.33877229449E+03 -0.26294594921E+03 -0.14759069401E+04  0.15369477986E+04  0.50400001928E-02 0. -1.
</event>
<event>
 5   0  0.5043890E-07  0.2700001E+04  0.7818609E-02  0.8335005E-01
       -2   -1    0    0    0  501  0.00000000000E+00  0.00000000000E+00  0.89477332865E+03  0.89477332865E+03  0.25500000920E-02 0.  1.
        2   -1    0    0  501    0  0.00000000000E+00  0.00000000000E+00 -0.20368296316E+04  0.20368296316E+04  0.25500000920E-02 0. -1.
    10030    2    1    2    0    0  0.00000000000E+00  0.00000000000E+00 -0.11420563029E+04  0.29316029602E+04  0.27000006143E+04 0.  0.
        3    1    3    3  502    0 -0.10264244108E+04  0.57971170174E+03 -0.12854078559E+04  0.17441003682E+04  0.10100000352E+00 0. -1.
       -3    1    3    3    0  502  0.10264244108E+04 -0.57971170174E+03  0.14335155296E+03  0.11875025920E+04  0.10100000352E+00 0.  1.
</event>
<event>
 5   0  0.1888149E-07  0.2699215E+04  0.7818609E-02  0.8335260E-01
        1   -1    0    0  501    0  0.00000000000E+00  0.00000000000E+00  0.13573318238E+04  0.13573318239E+04  0.50400001928E-02 0.  1.
       -1   -1    0    0    0  501  0.00000000000E+00  0.00000000000E+00 -0.13419273268E+04  0.13419273268E+04  0.50400001928E-02 0. -1.
    10030    2    1    2    0    0  0.00000000000E+00  0.00000000000E+00  0.15404497077E+02  0.26992591506E+04  0.26992151940E+04 0.  0.
        1    1    3    3  502    0  0.37522054074E+03 -0.60280096315E+03 -0.11400451604E+04  0.13430794552E+04  0.50400001928E-02 0. -1.
       -1    1    3    3    0  502 -0.37522054074E+03  0.60280096315E+03  0.11554496574E+04  0.13561796954E+04  0.50400001928E-02 0.  1.
</event>
<event>
 5   0  0.1888149E-07  0.2699029E+04  0.7818609E-02  0.8335320E-01
       -1   -1    0    0    0  501  0.00000000000E+00  0.00000000000E+00  0.15513075035E+04  0.15513075035E+04  0.50400001928E-02 0. -1.
        1   -1    0    0  501    0  0.00000000000E+00  0.00000000000E+00 -0.11739707916E+04  0.11739707916E+04  0.50400001928E-02 0.  1.
    10030    2    1    2    0    0  0.00000000000E+00  0.00000000000E+00  0.37733671192E+03  0.27252782951E+04  0.26990292313E+04 0.  0.
        1    1    3    3  502    0  0.11330917358E+04 -0.72932030350E+03  0.11457411286E+03  0.13523802033E+04  0.50400001928E-02 0.  1.
       -1    1    3    3    0  502 -0.11330917358E+04  0.72932030350E+03  0.26276259905E+03  0.13728980918E+04  0.50400001928E-02 0. -1.
</event>
<event>
 5   0  0.4992668E-07  0.2698474E+04  0.7818609E-02  0.8335500E-01
        2   -1    0    0  501    0  0.00000000000E+00  0.00000000000E+00  0.73171605682E+03  0.73171605683E+03  0.25500000920E-02 0.  1.
       -2   -1    0    0    0  501  0.00000000000E+00  0.00000000000E+00 -0.24879061059E+04  0.24879061059E+04  0.25500000920E-02 0. -1.
    10030    2    1    2    0    0  0.00000000000E+00  0.00000000000E+00 -0.17561900491E+04  0.32196221628E+04  0.26984742694E+04 0.  0.
        1    1    3    3  502    0 -0.10135961117E+04 -0.12408867428E+03  0.17406820024E+03  0.10358932451E+04  0.50400001928E-02 0.  1.
       -1    1    3    3    0  502  0.10135961117E+04  0.12408867428E+03 -0.19302582494E+04  0.21837289177E+04  0.50400001928E-02 0. -1.
</event>
<event>
 5   0  0.1964242E-07  0.2698696E+04  0.7818609E-02  0.8335428E-01
        1   -1    0    0  501    0  0.00000000000E+00  0.00000000000E+00  0.11804582190E+04  0.11804582190E+04  0.50400001928E-02 0.  1.
       -1   -1    0    0    0  501  0.00000000000E+00  0.00000000000E+00 -0.15424006596E+04  0.15424006596E+04  0.50400001928E-02 0. -1.
    10030    2    1    2    0    0  0.00000000000E+00  0.00000000000E+00 -0.36194244060E+03  0.27228588786E+04  0.26986956372E+04 0.  0.
        2    1    3    3  502    0  0.74568321378E+03 -0.11095477315E+03  0.94814897554E+03  0.12113384733E+04  0.25500000920E-02 0.  1.
       -2    1    3    3    0  502 -0.74568321378E+03  0.11095477315E+03 -0.13100914161E+04  0.15115204053E+04  0.25500000920E-02 0. -1.
</event>
<event>
 5   0  0.1888149E-07  0.2698599E+04  0.7818609E-02  0.8335460E-01
       -1   -1    0    0    0  501  0.00000000000E+00  0.00000000000E+00  0.87207843622E+03  0.87207843623E+03  0.50400001928E-02 0. -1.
        1   -1    0    0  501    0  0.00000000000E+00  0.00000000000E+00 -0.20876672521E+04  0.20876672521E+04  0.50400001928E-02 0.  1.
    10030    2    1    2    0    0  0.00000000000E+00  0.00000000000E+00 -0.12155888159E+04  0.29597456883E+04  0.26985993349E+04 0.  0.
        1    1    3    3  502    0 -0.11423796900E+04  0.47172032316E+03 -0.14059058303E+02  0.12360214709E+04  0.50400001928E-02 0. -1.
       -1    1    3    3    0  502  0.11423796900E+04 -0.47172032316E+03 -0.12015297576E+04  0.17237242174E+04  0.50400001928E-02 0.  1.
</event>
<event>
 5   0  0.5043890E-07  0.2701187E+04  0.7818609E-02  0.8334620E-01
        2   -1    0    0  501    0  0.00000000000E+00  0.00000000000E+00  0.15235075119E+04  0.15235075119E+04  0.25500000920E-02 0. -1.
       -2   -1    0    0    0  501  0.00000000000E+00  0.00000000000E+00 -0.11973046759E+04  0.11973046759E+04  0.25500000920E-02 0.  1.
    10030    2    1    2    0    0  0.00000000000E+00  0.00000000000E+00  0.32620283600E+03  0.27208121878E+04  0.27011869005E+04 0.  0.
        3    1    3    3  502    0 -0.60452034770E+03  0.19252120535E+03  0.13640699484E+04  0.15043922692E+04  0.10100000352E+00 0. -1.
       -3    1    3    3    0  502  0.60452034770E+03 -0.19252120535E+03 -0.10378671124E+04  0.12164199186E+04  0.10100000352E+00 0.  1.
</event>
<event>
 5   0  0.1965415E-07  0.2698113E+04  0.7818609E-02  0.8335618E-01
       -1   -1    0    0    0  501  0.00000000000E+00  0.00000000000E+00  0.72202259983E+03  0.72202259984E+03  0.50400001928E-02 0.  1.
        1   -1    0    0  501    0  0.00000000000E+00  0.00000000000E+00 -0.25206320482E+04  0.25206320482E+04  0.50400001928E-02 0. -1.
    10030    2    1    2    0    0  0.00000000000E+00  0.00000000000E+00 -0.17986094484E+04  0.32426546480E+04  0.26981128996E+04 0.  0.
        4    1    3    3  502    0 -0.99280656894E+03  0.10722721685E+03  0.19084174534E+03  0.10166536992E+04  0.12699999809E+01 0.  1.
       -4    1    3    3    0  502  0.99280656894E+03 -0.10722721685E+03 -0.19894511937E+04  0.22260009489E+04  0.12699999809E+01 0. -1.
</event>
<event>
 5   0  0.1888149E-07  0.2700672E+04  0.7818609E-02  0.8334787E-01
       -1   -1    0    0    0  501  0.00000000000E+00  0.00000000000E+00  0.98427732705E+03  0.98427732706E+03  0.50400001928E-02 0.  1.
        1   -1    0    0  501    0  0.00000000000E+00  0.00000000000E+00 -0.18525341622E+04  0.18525341622E+04  0.50400001928E-02 0. -1.
    10030    2    1    2    0    0  0.00000000000E+00  0.00000000000E+00 -0.86825683512E+03  0.28368114892E+04  0.27006720448E+04 0.  0.
        1    1    3    3  502    0 -0.51567144862E+03 -0.10631308012E+04  0.25245960522E+03  0.12082632145E+04  0.50400001928E-02 0.  1.
       -1    1    3    3    0  502  0.51567144862E+03  0.10631308012E+04 -0.11207164403E+04  0.16285482747E+04  0.50400001928E-02 0. -1.
</event>
<event>
 5   0  0.1888149E-07  0.2700725E+04  0.7818609E-02  0.8334770E-01
       -1   -1    0    0    0  501  0.00000000000E+00  0.00000000000E+00  0.13250617581E+04  0.13250617581E+04  0.50400001928E-02 0.  1.
        1   -1    0    0  501    0  0.00000000000E+00  0.00000000000E+00 -0.13761465806E+04  0.13761465806E+04  0.50400001928E-02 0. -1.
    10030    2    1    2    0    0  0.00000000000E+00  0.00000000000E+00 -0.51084822485E+02  0.27012083388E+04  0.27007252416E+04 0.  0.
        1    1    3    3  502    0  0.83887904298E+01 -0.68379202289E+03  0.11390701442E+04  0.13285792020E+04  0.50400001928E-02 0.  1.
       -1    1    3    3    0  502 -0.83887904298E+01  0.68379202289E+03 -0.11901549667E+04  0.13726291368E+04  0.50400001928E-02 0. -1.
</event>
<event>
 5   0  0.4735120E-07  0.2700766E+04  0.7818609E-02  0.8334757E-01
        2   -1    0    0  501    0  0.00000000000E+00  0.00000000000E+00  0.11324868937E+04  0.11324868937E+04  0.25500000920E-02 0.  1.
       -2   -1    0    0    0  501  0.00000000000E+00  0.00000000000E+00 -0.16102029437E+04  0.16102029437E+04  0.25500000920E-02 0. -1.
    10030    2    1    2    0    0  0.00000000000E+00  0.00000000000E+00 -0.47771604998E+03  0.27426898373E+04  0.27007656173E+04 0.  0.
        2    1    3    3  502    0 -0.82497716921E+03 -0.95119401878E+02  0.84251848091E+03  0.11829929928E+04  0.25500000920E-02 0.  1.
       -2    1    3    3    0  502  0.82497716921E+03  0.95119401878E+02 -0.13202345309E+04  0.15596968445E+04  0.25500000920E-02 0. -1.
</event>
<event>
 5   0  0.4983208E-07  0.2700703E+04  0.7818609E-02  0.8334777E-01
       -2   -1    0    0    0  501  0.00000000000E+00  0.00000000000E+00  0.75195959566E+03  0.75195959567E+03  0.25500000920E-02 0. -1.
        2   -1    0    0  501    0  0.00000000000E+00  0.00000000000E+00 -0.24249295092E+04  0.24249295092E+04  0.25500000920E-02 0.  1.
    10030    2    1    2    0    0  0.00000000000E+00  0.00000000000E+00 -0.16729699135E+04  0.31768891048E+04  0.27007028813E+04 0.  0.
        4    1    3    3  502    0  0.58480581057E+03  0.31192645361E+03 -0.22204242935E+04  0.23172357680E+04  0.12699999809E+01 0.  1.
       -4    1    3    3    0  502 -0.58480581057E+03 -0.31192645361E+03  0.54745437995E+03  0.85965333685E+03  0.12699999809E+01 0. -1.
</event>
<event>
 5   0  0.5043890E-07  0.2699726E+04  0.7818609E-02  0.8335094E-01
        2   -1    0    0  501    0  0.00000000000E+00  0.00000000000E+00  0.86653379665E+03  0.86653379665E+03  0.25500000920E-02 0. -1.
       -2   -1    0    0    0  501  0.00000000000E+00  0.00000000000E+00 -0.21027805837E+04  0.21027805837E+04  0.25500000920E-02 0.  1.
    10030    2    1    2    0    0  0.00000000000E+00  0.00000000000E+00 -0.12362467871E+04  0.29693143804E+04  0.26997262400E+04 0.  0.
        3    1    3    3  502    0  0.74108051816E+03  0.33723064908E+03 -0.18023005712E+04  0.19776784886E+04  0.10100000352E+00 0.  1.
       -3    1    3    3    0  502 -0.74108051816E+03 -0.33723064908E+03  0.56605378416E+03  0.99163589176E+03  0.10100000352E+00 0. -1.
</event>
<event>
 5   0  0.1937896E-07  0.2700988E+04  0.7818609E-02  0.8334684E-01
        1   -1    0    0  501    0  0.00000000000E+00  0.00000000000E+00  0.18116848914E+04  0.18116848914E+04  0.50400001928E-02 0. -1.
       -1   -1    0    0    0  501  0.00000000000E+00  0.00000000000E+00 -0.10067061716E+04  0.10067061716E+04  0.50400001928E-02 0.  1.
    10030    2    1    2    0    0  0.00000000000E+00  0.00000000000E+00  0.80497871980E+03  0.28183910631E+04  0.27009882349E+04 0.  0.
        3    1    3    3  502    0  0.84200385919E+03  0.86950894338E+03  0.10275407152E+04  0.15877204518E+04  0.10100000352E+00 0.  1.
       -3    1    3    3    0  502 -0.84200385919E+03 -0.86950894338E+03 -0.22256199537E+03  0.12306706113E+04  0.10100000352E+00 0. -1.
</event>
<event>
 5   0  0.4843887E-07  0.2700258E+04  0.7818609E-02  0.8334921E-01
       -2   -1    0    0    0  501  0.00000000000E+00  0.00000000000E+00  0.93259361994E+03  0.93259361995E+03  0.25500000920E-02 0. -1.
        2   -1    0    0  501    0  0.00000000000E+00  0.00000000000E+00 -0.19546005495E+04  0.19546005495E+04  0.25500000920E-02 0.  1.
    10030    2    1    2    0    0  0.00000000000E+00  0.00000000000E+00 -0.10220069296E+04  0.28871941695E+04  0.27002577670E+04 0.  0.
        5    1    3    3  502    0 -0.33744934164E+03  0.29286941534E+03 -0.18732455440E+04  0.19258025628E+04  0.46999998093E+01 0.  1.
       -5    1    3    3    0  502  0.33744934164E+03 -0.29286941534E+03  0.85123861447E+03  0.96139160667E+03  0.46999998093E+01 0. -1.
</event>
<event>
 5   0  0.4735120E-07  0.2699251E+04  0.7818609E-02  0.8335248E-01
        2   -1    0    0  501    0  0.00000000000E+00  0.00000000000E+00  0.12920455112E+04  0.12920455112E+04  0.25500000920E-02 0.  1.
       -2   -1    0    0    0  501  0.00000000000E+00  0.00000000000E+00 -0.14097715653E+04  0.14097715653E+04  0.25500000920E-02 0. -1.
    10030    2    1    2    0    0  0.00000000000E+00  0.00000000000E+00 -0.11772605417E+03  0.27018170765E+04  0.26992510241E+04 0.  0.
        2    1    3    3  502    0 -0.60906952271E+03 -0.44430172662E+03 -0.11793553349E+04  0.13997316578E+04  0.25500000920E-02 0. -1.
       -2    1    3    3    0  502  0.60906952271E+03  0.44430172662E+03  0.10616292808E+04  0.13020854187E+04  0.25500000920E-02 0.  1.
</event>
<event>
 5   0  0.1937896E-07  0.2700018E+04  0.7818609E-02  0.8334999E-01
        1   -1    0    0  501    0  0.00000000000E+00  0.00000000000E+00  0.15897526673E+04  0.15897526673E+04  0.50400001928E-02 0. -1.
       -1   -1    0    0    0  501  0.00000000000E+00  0.00000000000E+00 -0.11464202108E+04  0.11464202108E+04  0.50400001928E-02 0.  1.
    10030    2    1    2    0    0  0.00000000000E+00  0.00000000000E+00  0.44333245642E+03  0.27361728781E+04  0.27000182133E+04 0.  0.
        3    1    3    3  502    0 -0.12374493776E+04 -0.53792069642E+03  0.26566348561E+03  0.13752151597E+04  0.10100000352E+00 0. -1.
       -3    1    3    3    0  502  0.12374493776E+04  0.53792069642E+03  0.17766897082E+03  0.13609577184E+04  0.10100000352E+00 0.  1.
</event>
<event>
 5   0  0.4843887E-07  0.2700349E+04  0.7818609E-02  0.8334892E-01
        2   -1    0    0  501    0  0.00000000000E+00  0.00000000000E+00  0.67597441790E+03  0.67597441791E+03  0.25500000920E-02 0.  1.
       -2   -1    0    0    0  501  0.00000000000E+00  0.00000000000E+00 -0.26968044538E+04  0.26968044538E+04  0.25500000920E-02 0. -1.
    10030    2    1    2    0    0  0.00000000000E+00  0.00000000000E+00 -0.20208300359E+04  0.33727788717E+04  0.27003487337E+04 0.  0.
        5    1    3    3  502    0  0.73609568999E+03 -0.32629938412E+03 -0.23641090494E+04  0.24974670850E+04  0.46999998093E+01 0. -1.
       -5    1    3    3    0  502 -0.73609568999E+03  0.32629938412E+03  0.34327901352E+03  0.87531178675E+03  0.46999998093E+01 0.  1.
</event>
<event>
 5   0  0.1641625E-07  0.2696350E+04  0.7818609E-02  0.8336190E-01
        3   -1    0    0  501    0  0.00000000000E+00  0.00000000000E+00  0.14289492737E+04  0.14289492773E+04  0.10100000352E+00 0.  1.
       -3   -1    0    0    0  501  0.00000000000E+00  0.00000000000E+00 -0.12719670963E+04  0.12719671003E+04  0.10100000352E+00 0. -1.
    10030    2    1    2    0    0  0.00000000000E+00  0.00000000000E+00  0.15698217745E+03  0.27009163776E+04  0.26963504733E+04 0.  0.
        3    1    3    3  502    0 -0.10209825411E+04  0.87020893246E+03 -0.55554509236E+02  0.13426672146E+04  0.10100000352E+00 0.  1.
       -3    1    3    3    0  502  0.10209825411E+04 -0.87020893246E+03  0.21253668668E+03  0.13582491630E+04  0.10100000352E+00 0. -1.
</event>
<event>
 5   0  0.4843887E-07  0.2700005E+04  0.7818609E-02  0.8335003E-01
        2   -1    0    0  501    0  0.00000000000E+00  0.00000000000E+00  0.15574763729E+04  0.15574763729E+04  0.25500000920E-02 0. -1.
       -2   -1    0    0    0  501  0.00000000000E+00  0.00000000000E+00 -0.11701661913E+04  0.11701661913E+04  0.25500000920E-02 0.  1.
    10030    2    1    2    0    0  0.00000000000E+00  0.00000000000E+00  0.38731018166E+03  0.27276425642E+04  0.27000045891E+04 0.  0.
        5    1    3    3  502    0  0.14541320632E+03  0.11529980035E+04  0.88766219485E+03  0.14623664584E+04  0.46999998093E+01 0. -1.
       -5    1    3    3    0  502 -0.14541320632E+03 -0.11529980035E+04 -0.50035201319E+03  0.12652761057E+04  0.46999998093E+01 0.  1.
</event>
<event>
 5   0  0.4992668E-07  0.2700959E+04  0.7818609E-02  0.8334694E-01
        2   -1    0    0  501    0  0.00000000000E+00  0.00000000000E+00  0.16997682791E+04  0.16997682791E+04  0.25500000920E-02 0. -1.
       -2   -1    0    0    0  501  0.00000000000E+00  0.00000000000E+00 -0.10729667231E+04  0.10729667231E+04  0.25500000920E-02 0.  1.
    10030    2    1    2    0    0  0.00000000000E+00  0.00000000000E+00  0.62680155605E+03  0.27727350022E+04  0.27009589411E+04 0.  0.
        1    1    3    3  502    0  0.10593570412E+04  0.42854690245E+03  0.10521813048E+04  0.15533754493E+04  0.50400001928E-02 0. -1.
       -1    1    3    3    0  502 -0.10593570412E+04 -0.42854690245E+03 -0.42537974875E+03  0.12193595528E+04  0.50400001928E-02 0.  1.
</event>
<event>
 5   0  0.4983208E-07  0.2698133E+04  0.7818609E-02  0.8335611E-01
        2   -1    0    0  501    0  0.00000000000E+00  0.00000000000E+00  0.24338060571E+04  0.24338060571E+04  0.25500000920E-02 0. -1.
       -2   -1    0    0    0  501  0.00000000000E+00  0.00000000000E+00 -0.74779205413E+03  0.74779205413E+03  0.25500000920E-02 0.  1.
    10030    2    1    2    0    0  0.00000000000E+00  0.00000000000E+00  0.16860140030E+04  0.31815981113E+04  0.26981333035E+04 0.  0.
        4    1    3    3  502    0 -0.21339473339E+02  0.92528071521E+03  0.20003993450E+04  0.22041322391E+04  0.12699999809E+01 0. -1.
       -4    1    3    3    0  502  0.21339473339E+02 -0.92528071521E+03 -0.31438534201E+03  0.97746587216E+03  0.12699999809E+01 0.  1.
</event>
<event>
 5   0  0.1937896E-07  0.2699134E+04  0.7818609E-02  0.8335286E-01
        1   -1    0    0  501    0  0.00000000000E+00  0.00000000000E+00  0.23259849568E+04  0.23259849568E+04  0.50400001928E-02 0. -1.
       -1   -1    0    0    0  501  0.00000000000E+00  0.00000000000E+00 -0.78303647667E+03  0.78303647668E+03  0.50400001928E-02 0.  1.
    10030    2    1    2    0    0  0.00000000000E+00  0.00000000000E+00  0.15429484802E+04  0.31090214335E+04  0.26991339836E+04 0.  0.
        3    1    3    3  502    0  0.47566291065E+03 -0.40949081610E+03  0.21476410288E+04  0.22374762416E+04  0.10100000352E+00 0. -1.
       -3    1    3    3    0  502 -0.47566291065E+03  0.40949081610E+03 -0.60469254861E+03  0.87154519193E+03  0.10100000352E+00 0.  1.
</event>
<event>
 5   0  0.1965415E-07  0.2700185E+04  0.7818609E-02  0.8334945E-01
        1   -1    0    0  501    0  0.00000000000E+00  0.00000000000E+00  0.11320191603E+04  0.11320191603E+04  0.50400001928E-02 0.  1.
       -1   -1    0    0    0  501  0.00000000000E+00  0.00000000000E+00 -0.16101759255E+04  0.16101759255E+04  0.50400001928E-02 0. -1.
    10030    2    1    2    0    0  0.00000000000E+00  0.00000000000E+00 -0.47815676524E+03  0.27421950858E+04  0.27001851782E+04 0.  0.
        4    1    3    3  502    0 -0.35023930256E+03  0.12551979781E+04 -0.59749827031E+03  0.14335952459E+04  0.12699999809E+01 0. -1.
       -4    1    3    3    0  502  0.35023930256E+03 -0.12551979781E+04  0.11934150507E+03  0.13085998399E+04  0.12699999809E+01 0.  1.
</event>
<event>
 5   0  0.4992668E-07  0.2698813E+04  0.7818609E-02  0.8335390E-01
        2   -1    0    0  501    0  0.00000000000E+00  0.00000000000E+00  0.21715707536E+04  0.21715707536E+04  0.25500000920E-02 0.  1.
       -2   -1    0    0    0  501  0.00000000000E+00  0.00000000000E+00 -0.83851643808E+03  0.83851643808E+03  0.25500000920E-02 0. -1.
    10030    2    1    2    0    0  0.00000000000E+00  0.00000000000E+00  0.13330543155E+04  0.30100871916E+04  0.26988129045E+04 0.  0.
        1    1    3    3  502    0  0.10247051835E+04 -0.32126816733E+03 -0.24482289007E+03  0.11014409635E+04  0.50400001928E-02 0. -1.
       -1    1    3    3    0  502 -0.10247051835E+04  0.32126816733E+03  0.15778772055E+04  0.19086462282E+04  0.50400001928E-02 0.  1.
</event>
<event>
 5   0  0.1888149E-07  0.2700745E+04  0.7818609E-02  0.8334763E-01
        1   -1    0    0  501    0  0.00000000000E+00  0.00000000000E+00  0.18094160725E+04  0.18094160725E+04  0.50400001928E-02 0. -1.
       -1   -1    0    0    0  501  0.00000000000E+00  0.00000000000E+00 -0.10077867929E+04  0.10077867929E+04  0.50400001928E-02 0.  1.
    10030    2    1    2    0    0  0.00000000000E+00  0.00000000000E+00  0.80162927960E+03  0.28172028655E+04  0.27007448016E+04 0.  0.
        1    1    3    3  502    0  0.75374441288E+03  0.57363810754E+03  0.14047685082E+04  0.16942744406E+04  0.50400001928E-02 0. -1.
       -1    1    3    3    0  502 -0.75374441288E+03 -0.57363810754E+03 -0.60313922858E+03  0.11229284249E+04  0.50400001928E-02 0.  1.
</event>
<event>
 5   0  0.4983208E-07  0.2700468E+04  0.7818609E-02  0.8334853E-01
       -2   -1    0    0    0  501  0.00000000000E+00  0.00000000000E+00  0.17652585342E+04  0.17652585342E+04  0.25500000920E-02 0.  1.
        2   -1    0    0  501    0  0.00000000000E+00  0.00000000000E+00 -0.10327849807E+04  0.10327849807E+04  0.25500000920E-02 0. -1.
    10030    2    1    2    0    0  0.00000000000E+00  0.00000000000E+00  0.73247355353E+03  0.27980435150E+04  0.27004684788E+04 0.  0.
        4    1    3    3  502    0  0.11718471043E+04  0.21689236662E+03  0.10238855561E+04  0.15711814597E+04  0.12699999809E+01 0.  1.
       -4    1    3    3    0  502 -0.11718471043E+04 -0.21689236662E+03 -0.29141200259E+03  0.12268620552E+04  0.12699999809E+01 0. -1.
</event>
<event>
 5   0  0.4843887E-07  0.2698985E+04  0.7818609E-02  0.8335334E-01
       -2   -1    0    0    0  501  0.00000000000E+00  0.00000000000E+00  0.14701314857E+04  0.14701314857E+04  0.25500000920E-02 0.  1.
        2   -1    0    0  501    0  0.00000000000E+00  0.00000000000E+00 -0.12387532517E+04  0.12387532517E+04  0.25500000920E-02 0. -1.
    10030    2    1    2    0    0  0.00000000000E+00  0.00000000000E+00  0.23137823395E+03  0.27088847374E+04  0.26989851118E+04 0.  0.
        5    1    3    3  502    0 -0.62087225084E+03  0.87902815386E+03 -0.70150566346E+03  0.12846420252E+04  0.46999998093E+01 0. -1.
       -5    1    3    3    0  502  0.62087225084E+03 -0.87902815386E+03  0.93288389741E+03  0.14242427122E+04  0.46999998093E+01 0.  1.
</event>
<event>
 5   0  0.4843887E-07  0.2699685E+04  0.7818609E-02  0.8335107E-01
        2   -1    0    0  501    0  0.00000000000E+00  0.00000000000E+00  0.13568237173E+04  0.13568237173E+04  0.25500000920E-02 0.  1.
       -2   -1    0    0    0  501  0.00000000000E+00  0.00000000000E+00 -0.13428976229E+04  0.13428976229E+04  0.25500000920E-02 0. -1.
    10030    2    1    2    0    0  0.00000000000E+00  0.00000000000E+00  0.13926094471E+02  0.26997213402E+04  0.26996854222E+04 0.  0.
        5    1    3    3  502    0  0.76309725382E+03 -0.84400882149E+03 -0.71925935565E+03  0.13461145643E+04  0.46999998093E+01 0. -1.
       -5    1    3    3    0  502 -0.76309725382E+03  0.84400882149E+03  0.73318545012E+03  0.13536067759E+04  0.46999998093E+01 0.  1.
</event>
<event>
 5   0  0.1965415E-07  0.2700016E+04  0.7818609E-02  0.8335000E-01
        1   -1    0    0  501    0  0.00000000000E+00  0.00000000000E+00  0.12404153410E+04  0.12404153411E+04  0.50400001928E-02 0.  1.
       -1   -1    0    0    0  501  0.00000000000E+00  0.00000000000E+00 -0.14692831668E+04  0.14692831668E+04  0.50400001928E-02 0. -1.
    10030    2    1    2    0    0  0.00000000000E+00  0.00000000000E+00 -0.22886782575E+03  0.27096985079E+04  0.27000158373E+04 0.  0.
        4    1    3    3  502    0  0.33871232952E+03 -0.74329763068E+03  0.96427058695E+03  0.12637392087E+04  0.12699999809E+01 0.  1.
       -4    1    3    3    0  502 -0.33871232952E+03  0.74329763068E+03 -0.11931384127E+04  0.14459592991E+04  0.12699999809E+01 0. -1.
</event>
<event>
 5   0  0.1965415E-07  0.2697058E+04  0.7818609E-02  0.8335960E-01
       -1   -1    0    0    0  501  0.00000000000E+00  0.00000000000E+00  0.90701294281E+03  0.90701294282E+03  0.50400001928E-02 0. -1.
        1   -1    0    0  501    0  0.00000000000E+00  0.00000000000E+00 -0.20049660174E+04  0.20049660174E+04  0.50400001928E-02 0.  1.
    10030    2    1    2    0    0  0.00000000000E+00  0.00000000000E+00 -0.10979530746E+04  0.29119789602E+04  0.26970577507E+04 0.  0.
        4    1    3    3  502    0  0.10942811331E+04 -0.18537212664E+03  0.27803466881E+03  0.11441673451E+04  0.12699999809E+01 0. -1.
       -4    1    3    3    0  502 -0.10942811331E+04  0.18537212664E+03 -0.13759877434E+04  0.17678116151E+04  0.12699999809E+01 0.  1.
</event>
<event>
 5   0  0.1888149E-07  0.2699706E+04  0.7818609E-02  0.8335100E-01
       -1   -1    0    0    0  501  0.00000000000E+00  0.00000000000E+00  0.12704638755E+04  0.12704638755E+04  0.50400001928E-02 0. -1.
        1   -1    0    0  501    0  0.00000000000E+00  0.00000000000E+00 -0.14342034716E+04  0.14342034716E+04  0.50400001928E-02 0.  1.
    10030    2    1    2    0    0  0.00000000000E+00  0.00000000000E+00 -0.16373959610E+03  0.27046673471E+04  0.26997064290E+04 0.  0.
        1    1    3    3  502    0 -0.68847314841E+02  0.13226513332E+04 -0.34303484444E+03  0.13681445123E+04  0.50400001928E-02 0.  1.
       -1    1    3    3    0  502  0.68847314841E+02 -0.13226513332E+04  0.17929524835E+03  0.13365228348E+04  0.50400001928E-02 0. -1.
</event>
<event>
 5   0  0.4843887E-07  0.2699934E+04  0.7818609E-02  0.8335026E-01
       -2   -1    0    0    0  501  0.00000000000E+00  0.00000000000E+00  0.16364907492E+04  0.16364907492E+04  0.25500000920E-02 0. -1.
        2   -1    0    0  501    0  0.00000000000E+00  0.00000000000E+00 -0.11136087638E+04  0.11136087638E+04  0.25500000920E-02 0.  1.
    10030    2    1    2    0    0  0.00000000000E+00  0.00000000000E+00  0.52288198540E+03  0.27500995130E+04  0.26999336585E+04 0.  0.
        5    1    3    3  502    0  0.91294577030E+03 -0.81498319680E+03 -0.31898966487E+03  0.12646913010E+04  0.46999998093E+01 0.  1.
       -5    1    3    3    0  502 -0.91294577030E+03  0.81498319680E+03  0.84187165028E+03  0.14854082119E+04  0.46999998093E+01 0. -1.
</event>
<event>
 5   0  0.4983208E-07  0.2699016E+04  0.7818609E-02  0.8335324E-01
        2   -1    0    0  501    0  0.00000000000E+00  0.00000000000E+00  0.23163756414E+04  0.23163756414E+04  0.25500000920E-02 0. -1.
       -2   -1    0    0    0  501  0.00000000000E+00  0.00000000000E+00 -0.78621607055E+03  0.78621607055E+03  0.25500000920E-02 0.  1.
    10030    2    1    2    0    0  0.00000000000E+00  0.00000000000E+00  0.15301595709E+04  0.31025917120E+04  0.26990159353E+04 0.  0.
        4    1    3    3  502    0 -0.35313586940E+03 -0.10818080759E+04  0.15989081099E+04  0.19625295953E+04  0.12699999809E+01 0. -1.
       -4    1    3    3    0  502  0.35313586940E+03  0.10818080759E+04 -0.68748539059E+02  0.11400621167E+04  0.12699999809E+01 0.  1.
</event>
<event>
 5   0  0.4992668E-07  0.2700038E+04  0.7818609E-02  0.8334993E-01
        2   -1    0    0  501    0  0.00000000000E+00  0.00000000000E+00  0.11713395881E+04  0.11713395881E+04  0.25500000920E-02 0. -1.
       -2   -1    0    0    0  501  0.00000000000E+00  0.00000000000E+00 -0.15559546334E+04  0.15559546334E+04  0.25500000920E-02 0.  1.
    10030    2    1    2    0    0  0.00000000000E+00  0.00000000000E+00 -0.38461504528E+03  0.27272942215E+04  0.27000379697E+04 0.  0.
        1    1    3    3  502    0  0.12169197519E+03 -0.44205513194E+03  0.10902859696E+04  0.11827701265E+04  0.50400001928E-02 0. -1.
       -1    1    3    3    0  502 -0.12169197519E+03  0.44205513194E+03 -0.14749010149E+04  0.15445240951E+04  0.50400001928E-02 0.  1.
</event>
<event>
 5   0  0.4992668E-07  0.2700129E+04  0.7818609E-02  0.8334963E-01
        2   -1    0    0  501    0  0.00000000000E+00  0.00000000000E+00  0.14645425494E+04  0.14645425494E+04  0.25500000920E-02 0.  1.
       -2   -1    0    0    0  501  0.00000000000E+00  0.00000000000E+00 -0.12445350945E+04  0.12445350945E+04  0.25500000920E-02 0. -1.
    10030    2    1    2    0    0  0.00000000000E+00  0.00000000000E+00  0.22000745488E+03  0.27090776439E+04  0.27001293303E+04 0.  0.
        1    1    3    3  502    0  0.50615256405E+03 -0.12115162895E+04  0.42523034241E+03  0.13801387546E+04  0.50400001928E-02 0.  1.
       -1    1    3    3    0  502 -0.50615256405E+03  0.12115162895E+04 -0.20522288753E+03  0.13289388893E+04  0.50400001928E-02 0. -1.
</event>
<event>
 5   0  0.1964242E-07  0.2699130E+04  0.7818609E-02  0.8335287E-01
        1   -1    0    0  501    0  0.00000000000E+00  0.00000000000E+00  0.17184587156E+04  0.17184587157E+04  0.50400001928E-02 0.  1.
       -1   -1    0    0    0  501  0.00000000000E+00  0.00000000000E+00 -0.10598603198E+04  0.10598603198E+04  0.50400001928E-02 0. -1.
    10030    2    1    2    0    0  0.00000000000E+00  0.00000000000E+00  0.65859839582E+03  0.27783190355E+04  0.26991303814E+04 0.  0.
        2    1    3    3  502    0 -0.21231283023E+02  0.45555026230E+03  0.16367413005E+04  0.16990876651E+04  0.25500000920E-02 0.  1.
       -2    1    3    3    0  502  0.21231283023E+02 -0.45555026230E+03 -0.97814290469E+03  0.10792313704E+04  0.25500000920E-02 0. -1.
</event>
<event>
 5   0  0.1971600E-07  0.2700102E+04  0.7818609E-02  0.8334972E-01
        1   -1    0    0  501    0  0.00000000000E+00  0.00000000000E+00  0.15248726700E+04  0.15248726700E+04  0.50400001928E-02 0. -1.
       -1   -1    0    0    0  501  0.00000000000E+00  0.00000000000E+00 -0.11952721943E+04  0.11952721943E+04  0.50400001928E-02 0.  1.
    10030    2    1    2    0    0  0.00000000000E+00  0.00000000000E+00  0.32960047571E+03  0.27201448643E+04  0.27001021479E+04 0.  0.
        5    1    3    3  502    0 -0.94369013784E+03 -0.28097296991E+03 -0.76570029794E+03  0.12473235035E+04  0.46999998093E+01 0.  1.
       -5    1    3    3    0  502  0.94369013784E+03  0.28097296991E+03  0.10953007736E+04  0.14728213608E+04  0.46999998093E+01 0. -1.
</event>
<event>
 5   0  0.4843887E-07  0.2698776E+04  0.7818609E-02  0.8335402E-01
       -2   -1    0    0    0  501  0.00000000000E+00  0.00000000000E+00  0.97783370259E+03  0.97783370260E+03  0.25500000920E-02 0. -1.
        2   -1    0    0  501    0  0.00000000000E+00  0.00000000000E+00 -0.18621241251E+04  0.18621241251E+04  0.25500000920E-02 0.  1.
    10030    2    1    2    0    0  0.00000000000E+00  0.00000000000E+00 -0.88429042254E+03  0.28399578277E+04  0.26987758173E+04 0.  0.
        5    1    3    3  502    0 -0.26426467835E+02 -0.51969178568E+02  0.97649905555E+03  0.97824927764E+03  0.46999998093E+01 0. -1.
       -5    1    3    3    0  502  0.26426467835E+02  0.51969178568E+02 -0.18607894781E+04  0.18617085501E+04  0.46999998093E+01 0.  1.
</event>
<event>
 5   0  0.1965415E-07  0.2699490E+04  0.7818609E-02  0.8335170E-01
        1   -1    0    0  501    0  0.00000000000E+00  0.00000000000E+00  0.16923170506E+04  0.16923170506E+04  0.50400001928E-02 0. -1.
       -1   -1    0    0    0  501  0.00000000000E+00  0.00000000000E+00 -0.10765194370E+04  0.10765194370E+04  0.50400001928E-02 0.  1.
    10030    2    1    2    0    0  0.00000000000E+00  0.00000000000E+00  0.61579761362E+03  0.27688364876E+04  0.26994904694E+04 0.  0.
        4    1    3    3  502    0 -0.11642541844E+04 -0.64146414340E+03  0.67689351149E+02  0.13309949340E+04  0.12699999809E+01 0.  1.
       -4    1    3    3    0  502  0.11642541844E+04  0.64146414340E+03  0.54810826248E+03  0.14378415536E+04  0.12699999809E+01 0. -1.
</event>
<event>
 5   0  0.4735120E-07  0.2700054E+04  0.7818609E-02  0.8334987E-01
       -2   -1    0    0    0  501  0.00000000000E+00  0.00000000000E+00  0.19219720940E+04  0.19219720940E+04  0.25500000920E-02 0.  1.
        2   -1    0    0  501    0  0.00000000000E+00  0.00000000000E+00 -0.94828272775E+03  0.94828272776E+03  0.25500000920E-02 0. -1.
    10030    2    1    2    0    0  0.00000000000E+00  0.00000000000E+00  0.97368936620E+03  0.28702548217E+04  0.27000540290E+04 0.  0.
        2    1    3    3  502    0 -0.49550652631E+03  0.49975524250E+03  0.17115484742E+04  0.18505891494E+04  0.25500000920E-02 0.  1.
       -2    1    3    3    0  502  0.49550652631E+03 -0.49975524250E+03 -0.73785910805E+03  0.10196656723E+04  0.25500000920E-02 0. -1.
</event>
<event>
 5   0  0.1888149E-07  0.2699433E+04  0.7818609E-02  0.8335189E-01
       -1   -1    0    0    0  501  0.00000000000E+00  0.00000000000E+00  0.10911187226E+04  0.10911187226E+04  0.50400001928E-02 0. -1.
        1   -1    0    0  501    0  0.00000000000E+00  0.00000000000E+00 -0.16696028931E+04  0.16696028931E+04  0.50400001928E-02 0.  1.
    10030    2    1    2    0    0  0.00000000000E+00  0.00000000000E+00 -0.57848417051E+03  0.27607216157E+04  0.26994332561E+04 0.  0.
        1    1    3    3  502    0  0.10778827612E+03  0.13342093933E+04 -0.11209874715E+03  0.13432420283E+04  0.50400001928E-02 0. -1.
       -1    1    3    3    0  502 -0.10778827612E+03 -0.13342093933E+04 -0.46638542336E+03  0.14174795874E+04  0.50400001928E-02 0.  1.
</event>
<event>
 5   0  0.5043890E-07  0.2699137E+04  0.7818609E-02  0.8335285E-01
       -2   -1    0    0    0  501  0.00000000000E+00  0.00000000000E+00  0.74081118856E+03  0.74081118856E+03  0.25500000920E-02 0. -1.
        2   -1    0    0  501    0  0.00000000000E+00  0.00000000000E+00 -0.24585695230E+04  0.24585695230E+04  0.25500000920E-02 0.  1.
    10030    2    1    2    0    0  0.00000000000E+00  0.00000000000E+00 -0.17177583345E+04  0.31993807116E+04  0.26991374997E+04 0.  0.
        3    1    3    3  502    0 -0.44194865230E+02  0.36709534576E+03  0.67960260876E+03  0.77367428226E+03  0.10100000352E+00 0. -1.
       -3    1    3    3    0  502  0.44194865230E+02 -0.36709534576E+03 -0.23973609432E+04  0.24257064293E+04  0.10100000352E+00 0.  1.
</event>
<event>
 5   0  0.4843887E-07  0.2700973E+04  0.7818609E-02  0.8334689E-01
        2   -1    0    0  501    0  0.00000000000E+00  0.00000000000E+00  0.23206563817E+04  0.23206563817E+04  0.25500000920E-02 0. -1.
       -2   -1    0    0    0  501  0.00000000000E+00  0.00000000000E+00 -0.78590452380E+03  0.78590452380E+03  0.25500000920E-02 0.  1.
    10030    2    1    2    0    0  0.00000000000E+00  0.00000000000E+00  0.15347518579E+04  0.31065609055E+04  0.27009734161E+04 0.  0.
        5    1    3    3  502    0  0.83260212235E+03  0.10621998613E+04  0.71224698551E+03  0.15260447890E+04  0.46999998093E+01 0. -1.
       -5    1    3    3    0  502 -0.83260212235E+03 -0.10621998613E+04  0.82250487240E+03  0.15805161165E+04  0.46999998093E+01 0.  1.
</event>
<event>
 5   0  0.1888149E-07  0.2700985E+04  0.7818609E-02  0.8334685E-01
        1   -1    0    0  501    0  0.00000000000E+00  0.00000000000E+00  0.13374023781E+04  0.13374023782E+04  0.50400001928E-02 0.  1.
       -1   -1    0    0    0  501  0.00000000000E+00  0.00000000000E+00 -0.13637106977E+04  0.13637106977E+04  0.50400001928E-02 0. -1.
    10030    2    1    2    0    0  0.00000000000E+00  0.00000000000E+00 -0.26308319549E+02  0.27011130759E+04  0.27009849538E+04 0.  0.
        1    1    3    3  502    0  0.95806062714E+03  0.34180377059E+03 -0.90152053317E+03  0.13592090548E+04  0.50400001928E-02 0. -1.
       -1    1    3    3    0  502 -0.95806062714E+03 -0.34180377059E+03  0.87521221362E+03  0.13419040211E+04  0.50400001928E-02 0.  1.
</event>
<event>
 5   0  0.1965415E-07  0.2699983E+04  0.7818609E-02  0.8335011E-01
       -1   -1    0    0    0  501  0.00000000000E+00  0.00000000000E+00  0.87452436283E+03  0.87452436285E+03  0.50400001928E-02 0.  1.
        1   -1    0    0  501    0  0.00000000000E+00  0.00000000000E+00 -0.20839634811E+04  0.20839634811E+04  0.50400001928E-02 0. -1.
    10030    2    1    2    0    0  0.00000000000E+00  0.00000000000E+00 -0.12094391182E+04  0.29584878439E+04  0.26999828410E+04 0.  0.
        4    1    3    3  502    0  0.10360450210E+04 -0.45164016923E+03  0.20428264004E+03  0.11485212832E+04  0.12699999809E+01 0.  1.
       -4    1    3    3    0  502 -0.10360450210E+04  0.45164016923E+03 -0.14137217583E+04  0.18099665607E+04  0.12699999809E+01 0. -1.
</event>
<event>
 5   0  0.1641625E-07  0.2700070E+04  0.7818609E-02  0.8334982E-01
       -3   -1    0    0    0  501  0.00000000000E+00  0.00000000000E+00  0.18850193540E+04  0.18850193567E+04  0.10100000352E+00 0. -1.
        3   -1    0    0  501    0  0.00000000000E+00  0.00000000000E+00 -0.96688359727E+03  0.96688360254E+03  0.10100000352E+00 0.  1.
    10030    2    1    2    0    0  0.00000000000E+00  0.00000000000E+00  0.91813575668E+03  0.28519029592E+04  0.27000698548E+04 0.  0.
        3    1    3    3  502    0 -0.66458165911E+03 -0.14364765577E+03 -0.77283262983E+03  0.10293559708E+04  0.10100000352E+00 0.  1.
       -3    1    3    3    0  502  0.66458165911E+03  0.14364765577E+03  0.16909683865E+04  0.18225469884E+04  0.10100000352E+00 0. -1.
</event>
<event>
 5   0  0.1971600E-07  0.2700602E+04  0.7818609E-02  0.8334810E-01
       -1   -1    0    0    0  501  0.00000000000E+00  0.00000000000E+00  0.94154396230E+03  0.94154396231E+03  0.50400001928E-02 0.  1.
        1   -1    0    0  501    0  0.00000000000E+00  0.00000000000E+00 -0.19365136456E+04  0.19365136456E+04  0.50400001928E-02 0. -1.
    10030    2    1    2    0    0  0.00000000000E+00  0.00000000000E+00 -0.99496968330E+03  0.28780576079E+04  0.27006019558E+04 0.  0.
        5    1    3    3  502    0 -0.55031372446E+03 -0.44143683968E+03 -0.17244767714E+04  0.18632106439E+04  0.46999998093E+01 0. -1.
       -5    1    3    3    0  502  0.55031372446E+03  0.44143683968E+03  0.72950708806E+03  0.10148469640E+04  0.46999998093E+01 0.  1.
</event>
<event>
 5   0  0.4843887E-07  0.2698642E+04  0.7818609E-02  0.8335446E-01
        2   -1    0    0  501    0  0.00000000000E+00  0.00000000000E+00  0.10238353448E+04  0.10238353448E+04  0.25500000920E-02 0.  1.
       -2   -1    0    0    0  501  0.00000000000E+00  0.00000000000E+00 -0.17782808726E+04  0.17782808726E+04  0.25500000920E-02 0. -1.
    10030    2    1    2    0    0  0.00000000000E+00  0.00000000000E+00 -0.75444552784E+03  0.28021162174E+04  0.26986417401E+04 0.  0.
        5    1    3    3  502    0 -0.12378545755E+04  0.53677383420E+03 -0.36131810417E+03  0.13967759168E+04  0.46999998093E+01 0.  1.
       -5    1    3    3    0  502  0.12378545755E+04 -0.53677383420E+03 -0.39312742367E+03  0.14053403006E+04  0.46999998093E+01 0. -1.
</event>
<event>
 5   0  0.4843887E-07  0.2700418E+04  0.7818609E-02  0.8334869E-01
        2   -1    0    0  501    0  0.00000000000E+00  0.00000000000E+00  0.16122058394E+04  0.16122058394E+04  0.25500000920E-02 0. -1.
       -2   -1    0    0    0  501  0.00000000000E+00  0.00000000000E+00 -0.11307887669E+04  0.11307887669E+04  0.25500000920E-02 0.  1.
    10030    2    1    2    0    0  0.00000000000E+00  0.00000000000E+00  0.48141707251E+03  0.27429946062E+04  0.27004179329E+04 0.  0.
        5    1    3    3  502    0 -0.33615626399E+03  0.12540554553E+04  0.61720879574E+03  0.14375760523E+04  0.46999998093E+01 0. -1.
       -5    1    3    3    0  502  0.33615626399E+03 -0.12540554553E+04 -0.13579172323E+03  0.13054185539E+04  0.46999998093E+01 0.  1.
</event>
<event>
 5   0  0.5043890E-07  0.2701651E+04  0.7818609E-02  0.8334470E-01
        2   -1    0    0  501    0  0.00000000000E+00  0.00000000000E+00  0.30457767065E+04  0.30457767065E+04  0.25500000920E-02 0.  1.
       -2   -1    0    0    0  501  0.00000000000E+00  0.00000000000E+00 -0.59910148007E+03  0.59910148008E+03  0.25500000920E-02 0. -1.
    10030    2    1    2    0    0  0.00000000000E+00  0.00000000000E+00  0.24466752264E+04  0.36448781865E+04  0.27016508530E+04 0.  0.
        3    1    3    3  502    0  0.55682087254E+03  0.73020146752E+03  0.25599201253E+04  0.27196387123E+04  0.10100000352E+00 0.  1.
       -3    1    3    3    0  502 -0.55682087254E+03 -0.73020146752E+03 -0.11324489897E+03  0.92523947420E+03  0.10100000352E+00 0. -1.
</event>
<event>
 5   0  0.4843887E-07  0.2705875E+04  0.7818609E-02  0.8333101E-01
       -2   -1    0    0    0  501  0.00000000000E+00  0.00000000000E+00  0.73110772707E+03  0.73110772708E+03  0.25500000920E-02 0. -1.
        2   -1    0    0  501    0  0.00000000000E+00  0.00000000000E+00 -0.25036530342E+04  0.25036530342E+04  0.25500000920E-02 0.  1.
    10030    2    1    2    0    0  0.00000000000E+00  0.00000000000E+00 -0.17725453071E+04  0.32347607612E+04  0.27058751480E+04 0.  0.
        5    1    3    3  502    0 -0.31556676310E+03  0.10866642849E+04 -0.17728452673E+04  0.21031937813E+04  0.46999998093E+01 0.  1.
       -5    1    3    3    0  502  0.31556676310E+03 -0.10866642849E+04  0.29996017233E+00  0.11315669799E+04  0.46999998093E+01 0. -1.
</event>
<event>
 5   0  0.1964242E-07  0.2701299E+04  0.7818609E-02  0.8334584E-01
       -1   -1    0    0    0  501  0.00000000000E+00  0.00000000000E+00  0.10559348804E+04  0.10559348804E+04  0.50400001928E-02 0. -1.
        1   -1    0    0  501    0  0.00000000000E+00  0.00000000000E+00 -0.17276195036E+04  0.17276195036E+04  0.50400001928E-02 0.  1.
    10030    2    1    2    0    0  0.00000000000E+00  0.00000000000E+00 -0.67168462313E+03  0.27835543840E+04  0.27012987202E+04 0.  0.
        2    1    3    3  502    0  0.37004772047E+03  0.46825552005E+03 -0.15843703013E+04  0.16930528046E+04  0.25500000920E-02 0.  1.
       -2    1    3    3    0  502 -0.37004772047E+03 -0.46825552005E+03  0.91268567820E+03  0.10905015794E+04  0.25500000920E-02 0. -1.
</event>
<event>
 5   0  0.5043890E-07  0.2699471E+04  0.7818609E-02  0.8335177E-01
       -2   -1    0    0    0  501  0.00000000000E+00  0.00000000000E+00  0.83102499891E+03  0.83102499891E+03  0.25500000920E-02 0. -1.
        2   -1    0    0  501    0  0.00000000000E+00  0.00000000000E+00 -0.21922148299E+04  0.21922148299E+04  0.25500000920E-02 0.  1.
    10030    2    1    2    0    0  0.00000000000E+00  0.00000000000E+00 -0.13611898310E+04  0.30232398288E+04  0.26994705604E+04 0.  0.
        3    1    3    3  502    0 -0.33933756379E+03 -0.11861734207E+04 -0.12936297690E+04  0.17876340105E+04  0.10100000352E+00 0.  1.
       -3    1    3    3    0  502  0.33933756379E+03  0.11861734207E+04 -0.67560062015E+02  0.12356058183E+04  0.10100000352E+00 0. -1.
</event>
<event>
 5   0  0.4735120E-07  0.2697111E+04  0.7818609E-02  0.8335943E-01
       -2   -1    0    0    0  501  0.00000000000E+00  0.00000000000E+00  0.87154402985E+03  0.87154402985E+03  0.25500000920E-02 0. -1.
        2   -1    0    0  501    0  0.00000000000E+00  0.00000000000E+00 -0.20866445573E+04  0.20866445573E+04  0.25500000920E-02 0.  1.
    10030    2    1    2    0    0  0.00000000000E+00  0.00000000000E+00 -0.12151005274E+04  0.29581885871E+04  0.26971114966E+04 0.  0.
        2    1    3    3  502    0 -0.46876860588E+03 -0.11879707884E+04 -0.10825844449E+04  0.16742185283E+04  0.25500000920E-02 0. -1.
       -2    1    3    3    0  502  0.46876860588E+03  0.11879707884E+04 -0.13251608252E+03  0.12839700589E+04  0.25500000920E-02 0.  1.
</event>
<event>
 5   0  0.5043890E-07  0.2701789E+04  0.7818609E-02  0.8334425E-01
        2   -1    0    0  501    0  0.00000000000E+00  0.00000000000E+00  0.97743333740E+03  0.97743333740E+03  0.25500000920E-02 0. -1.
       -2   -1    0    0    0  501  0.00000000000E+00  0.00000000000E+00 -0.18670495668E+04  0.18670495668E+04  0.25500000920E-02 0.  1.
    10030    2    1    2    0    0  0.00000000000E+00  0.00000000000E+00 -0.88961622937E+03  0.28444829042E+04  0.27017893990E+04 0.  0.
        3    1    3    3  502    0  0.13121278727E+03  0.63781273282E+03 -0.16909129046E+04  0.18119625655E+04  0.10100000352E+00 0.  1.
       -3    1    3    3    0  502 -0.13121278727E+03 -0.63781273282E+03  0.80129667526E+03  0.10325203386E+04  0.10100000352E+00 0. -1.
</event>
<event>
 5   0  0.1964242E-07  0.2699979E+04  0.7818609E-02  0.8335012E-01
        1   -1    0    0  501    0  0.00000000000E+00  0.00000000000E+00  0.20150960578E+04  0.20150960578E+04  0.50400001928E-02 0.  1.
       -1   -1    0    0    0  501  0.00000000000E+00  0.00000000000E+00 -0.90440940671E+03  0.90440940672E+03  0.50400001928E-02 0. -1.
    10030    2    1    2    0    0  0.00000000000E+00  0.00000000000E+00  0.11106866511E+04  0.29195054645E+04  0.26999791333E+04 0.  0.
        2    1    3    3  502    0 -0.99494044647E+03  0.65484997211E+03 -0.13172207856E+03  0.11983679251E+04  0.25500000920E-02 0. -1.
       -2    1    3    3    0  502  0.99494044647E+03 -0.65484997211E+03  0.12424087297E+04  0.17211375394E+04  0.25500000920E-02 0.  1.
</event>
<event>
 5   0  0.4735120E-07  0.2699689E+04  0.7818609E-02  0.8335106E-01
        2   -1    0    0  501    0  0.00000000000E+00  0.00000000000E+00  0.64228148886E+03  0.64228148886E+03  0.25500000920E-02 0. -1.
       -2   -1    0    0    0  501  0.00000000000E+00  0.00000000000E+00 -0.28368866528E+04  0.28368866528E+04  0.25500000920E-02 0.  1.
    10030    2    1    2    0    0  0.00000000000E+00  0.00000000000E+00 -0.21946051639E+04  0.34791681416E+04  0.26996887103E+04 0.  0.
        2    1    3    3  502    0  0.11101881200E+04  0.67925337448E+03 -0.63591411375E+03  0.14485473995E+04  0.25500000920E-02 0. -1.
       -2    1    3    3    0  502 -0.11101881200E+04 -0.67925337448E+03 -0.15586910502E+04  0.20306207421E+04  0.25500000920E-02 0.  1.
</event>
<event>
 5   0  0.1965415E-07  0.2699507E+04  0.7818609E-02  0.8335165E-01
        1   -1    0    0  501    0  0.00000000000E+00  0.00000000000E+00  0.11970060749E+04  0.11970060749E+04  0.50400001928E-02 0. -1.
       -1   -1    0    0    0  501  0.00000000000E+00  0.00000000000E+00 -0.15219928237E+04  0.15219928237E+04  0.50400001928E-02 0.  1.
    10030    2    1    2    0    0  0.00000000000E+00  0.00000000000E+00 -0.32498674878E+03  0.27189988986E+04  0.26995071075E+04 0.  0.
        4    1    3    3  502    0  0.18894982620E+02  0.59378337422E+03  0.10582384779E+04  0.12135921905E+04  0.12699999809E+01 0. -1.
       -4    1    3    3    0  502 -0.18894982620E+02 -0.59378337422E+03 -0.13832252267E+04  0.15054067080E+04  0.12699999809E+01 0.  1.
</event>
<event>
 5   0  0.1965415E-07  0.2699684E+04  0.7818609E-02  0.8335107E-01
        1   -1    0    0  501    0  0.00000000000E+00  0.00000000000E+00  0.24230578045E+04  0.24230578045E+04  0.50400001928E-02 0.  1.
       -1   -1    0    0    0  501  0.00000000000E+00  0.00000000000E+00 -0.75197295620E+03  0.75197295622E+03  0.50400001928E-02 0. -1.
    10030    2    1    2    0    0  0.00000000000E+00  0.00000000000E+00  0.16710848483E+04  0.31750307607E+04  0.26996843818E+04 0.  0.
        4    1    3    3  502    0  0.11875752653E+04 -0.60034757064E+03  0.56911511566E+03  0.14472891363E+04  0.12699999809E+01 0.  1.
       -4    1    3    3    0  502 -0.11875752653E+04  0.60034757064E+03  0.11019697326E+04  0.17277416244E+04  0.12699999809E+01 0. -1.
</event>
<event>
 5   0  0.4983208E-07  0.2696887E+04  0.7818609E-02  0.8336016E-01
       -2   -1    0    0    0  501  0.00000000000E+00  0.00000000000E+00  0.64117119154E+03  0.64117119154E+03  0.25500000920E-02 0. -1.
        2   -1    0    0  501    0  0.00000000000E+00  0.00000000000E+00 -0.28359046385E+04  0.28359046385E+04  0.25500000920E-02 0.  1.
    10030    2    1    2    0    0  0.00000000000E+00  0.00000000000E+00 -0.21947334470E+04  0.34770758301E+04  0.26968873585E+04 0.  0.
        4    1    3    3  502    0  0.63305947960E+03 -0.11604820843E+04 -0.14404632705E+04  0.19551007696E+04  0.12699999809E+01 0.  1.
       -4    1    3    3    0  502 -0.63305947960E+03  0.11604820843E+04 -0.75427017649E+03  0.15219750605E+04  0.12699999809E+01 0. -1.
</event>
<event>
 5   0  0.1937896E-07  0.2700071E+04  0.7818609E-02  0.8334982E-01
        1   -1    0    0  501    0  0.00000000000E+00  0.00000000000E+00  0.14368648125E+04  0.14368648125E+04  0.50400001928E-02 0.  1.
       -1   -1    0    0    0  501  0.00000000000E+00  0.00000000000E+00 -0.12684536195E+04  0.12684536195E+04  0.50400001928E-02 0. -1.
    10030    2    1    2    0    0  0.00000000000E+00  0.00000000000E+00  0.16841119300E+03  0.27053184320E+04  0.27000713859E+04 0.  0.
        3    1    3    3  502    0  0.37540804231E+03 -0.24726996944E+03  0.13596769471E+04  0.14320597218E+04  0.10100000352E+00 0.  1.
       -3    1    3    3    0  502 -0.37540804231E+03  0.24726996944E+03 -0.11912657541E+04  0.12732587102E+04  0.10100000352E+00 0. -1.
</event>
<event>
 5   0  0.1964242E-07  0.2700222E+04  0.7818609E-02  0.8334933E-01
        1   -1    0    0  501    0  0.00000000000E+00  0.00000000000E+00  0.23712219174E+04  0.23712219174E+04  0.50400001928E-02 0. -1.
       -1   -1    0    0    0  501  0.00000000000E+00  0.00000000000E+00 -0.76871745003E+03  0.76871745005E+03  0.50400001928E-02 0.  1.
    10030    2    1    2    0    0  0.00000000000E+00  0.00000000000E+00  0.16025044674E+04  0.31399393675E+04  0.27002219656E+04 0.  0.
        2    1    3    3  502    0 -0.35808158493E+03 -0.13017482595E+04  0.79502115830E+03  0.15667895822E+04  0.25500000920E-02 0.  1.
       -2    1    3    3    0  502  0.35808158493E+03  0.13017482595E+04  0.80748330910E+03  0.15731497853E+04  0.25500000920E-02 0. -1.
</event>
<event>
 5   0  0.5043890E-07  0.2697443E+04  0.7818609E-02  0.8335835E-01
       -2   -1    0    0    0  501  0.00000000000E+00  0.00000000000E+00  0.11385302833E+04  0.11385302833E+04  0.25500000920E-02 0.  1.
        2   -1    0    0  501    0  0.00000000000E+00  0.00000000000E+00 -0.15977178426E+04  0.15977178426E+04  0.25500000920E-02 0. -1.
    10030    2    1    2    0    0  0.00000000000E+00  0.00000000000E+00 -0.45918755927E+03  0.27362481259E+04  0.26974433436E+04 0.  0.
        3    1    3    3  502    0  0.12795687122E+03  0.54369298854E+03  0.10156964890E+04  0.11591438197E+04  0.10100000352E+00 0.  1.
       -3    1    3    3    0  502 -0.12795687122E+03 -0.54369298854E+03 -0.14748840483E+04  0.15771043062E+04  0.10100000352E+00 0. -1.
</event>
<event>
 5   0  0.5043890E-07  0.2698138E+04  0.7818609E-02  0.8335609E-01
       -2   -1    0    0    0  501  0.00000000000E+00  0.00000000000E+00  0.10588228154E+04  0.10588228154E+04  0.25500000920E-02 0. -1.
        2   -1    0    0  501    0  0.00000000000E+00  0.00000000000E+00 -0.17188783074E+04  0.17188783074E+04  0.25500000920E-02 0.  1.
    10030    2    1    2    0    0  0.00000000000E+00  0.00000000000E+00 -0.66005549202E+03  0.27777011228E+04  0.26981382980E+04 0.  0.
        3    1    3    3  502    0  0.75855636184E+03 -0.11156070715E+04 -0.32918722518E+03  0.13886508314E+04  0.10100000352E+00 0.  1.
       -3    1    3    3    0  502 -0.75855636184E+03  0.11156070715E+04 -0.33086826685E+03  0.13890502915E+04  0.10100000352E+00 0. -1.
</event>
<event>
 5   0  0.4735120E-07  0.2700779E+04  0.7818609E-02  0.8334752E-01
       -2   -1    0    0    0  501  0.00000000000E+00  0.00000000000E+00  0.12449418032E+04  0.12449418032E+04  0.25500000920E-02 0. -1.
        2   -1    0    0  501    0  0.00000000000E+00  0.00000000000E+00 -0.14647683707E+04  0.14647683707E+04  0.25500000920E-02 0.  1.
    10030    2    1    2    0    0  0.00000000000E+00  0.00000000000E+00 -0.21982656751E+03  0.27097101740E+04  0.27007786853E+04 0.  0.
        2    1    3    3  502    0  0.13278525962E+04 -0.14144693964E+03  0.91628151171E+02  0.13385049392E+04  0.25500000920E-02 0. -1.
       -2    1    3    3    0  502 -0.13278525962E+04  0.14144693964E+03 -0.31145471868E+03  0.13712052348E+04  0.25500000920E-02 0.  1.
</event>
<event>
 5   0  0.1888149E-07  0.2699927E+04  0.7818609E-02  0.8335029E-01
        1   -1    0    0  501    0  0.00000000000E+00  0.00000000000E+00  0.17573718916E+04  0.17573718916E+04  0.50400001928E-02 0. -1.
       -1   -1    0    0    0  501  0.00000000000E+00  0.00000000000E+00 -0.10370038358E+04  0.10370038358E+04  0.50400001928E-02 0.  1.
    10030    2    1    2    0    0  0.00000000000E+00  0.00000000000E+00  0.72036805588E+03  0.27943757274E+04  0.26999269564E+04 0.  0.
        1    1    3    3  502    0 -0.12767574032E+04 -0.32932250482E+01 -0.93654186796E+02  0.12801919461E+04  0.50400001928E-02 0.  1.
       -1    1    3    3    0  502  0.12767574032E+04  0.32932250482E+01  0.81402224267E+03  0.15141837813E+04  0.50400001928E-02 0. -1.
</event>
<event>
 5   0  0.4983208E-07  0.2699849E+04  0.7818609E-02  0.8335054E-01
       -2   -1    0    0    0  501  0.00000000000E+00  0.00000000000E+00  0.12358598296E+04  0.12358598296E+04  0.25500000920E-02 0. -1.
        2   -1    0    0  501    0  0.00000000000E+00  0.00000000000E+00 -0.14745169938E+04  0.14745169938E+04  0.25500000920E-02 0.  1.
    10030    2    1    2    0    0  0.00000000000E+00  0.00000000000E+00 -0.23865716414E+03  0.27103768234E+04  0.26998491223E+04 0.  0.
        4    1    3    3  502    0 -0.12941490892E+04 -0.14283828939E+03  0.23853030553E+03  0.13236778164E+04  0.12699999809E+01 0.  1.
       -4    1    3    3    0  502  0.12941490892E+04  0.14283828939E+03 -0.47718746967E+03  0.13866990070E+04  0.12699999809E+01 0. -1.
</event>
<event>
 5   0  0.1937896E-07  0.2700381E+04  0.7818609E-02  0.8334881E-01
        1   -1    0    0  501    0  0.00000000000E+00  0.00000000000E+00  0.15660097808E+04  0.15660097808E+04  0.50400001928E-02 0.  1.
       -1   -1    0    0    0  501  0.00000000000E+00  0.00000000000E+00 -0.11641142682E+04  0.11641142682E+04  0.50400001928E-02 0. -1.
    10030    2    1    2    0    0  0.00000000000E+00  0.00000000000E+00  0.40189551259E+03  0.27301240490E+04  0.27003809583E+04 0.  0.
        3    1    3    3  502    0 -0.35251202069E+02 -0.16445628216E+03 -0.11534817214E+04  0.11656794619E+04  0.10100000352E+00 0. -1.
       -3    1    3    3    0  502  0.35251202069E+02  0.16445628216E+03  0.15553772340E+04  0.15644445871E+04  0.10100000352E+00 0.  1.
</event>
<event>
 5   0  0.5043890E-07  0.2703274E+04  0.7818609E-02  0.8333943E-01
       -2   -1    0    0    0  501  0.00000000000E+00  0.00000000000E+00  0.12823571567E+04  0.12823571567E+04  0.25500000920E-02 0. -1.
        2   -1    0    0  501    0  0.00000000000E+00  0.00000000000E+00 -0.14246597442E+04  0.14246597442E+04  0.25500000920E-02 0.  1.
    10030    2    1    2    0    0  0.00000000000E+00  0.00000000000E+00 -0.14230258756E+03  0.27070169009E+04  0.27032740289E+04 0.  0.
        3    1    3    3  502    0  0.74929803849E+03 -0.10690686313E+04 -0.42173218409E+03  0.13719378026E+04  0.10100000352E+00 0.  1.
       -3    1    3    3    0  502 -0.74929803849E+03  0.10690686313E+04  0.27942959654E+03  0.13350790982E+04  0.10100000352E+00 0. -1.
</event>
<event>
 5   0  0.5043890E-07  0.2707731E+04  0.7818609E-02  0.8332501E-01
       -2   -1    0    0    0  501  0.00000000000E+00  0.00000000000E+00  0.13943219334E+04  0.13943219334E+04  0.25500000920E-02 0. -1.
        2   -1    0    0  501    0  0.00000000000E+00  0.00000000000E+00 -0.13145826243E+04  0.13145826244E+04  0.25500000920E-02 0.  1.
    10030    2    1    2    0    0  0.00000000000E+00  0.00000000000E+00  0.79739309030E+02  0.27089045577E+04  0.27077307003E+04 0.  0.
        3    1    3    3  502    0 -0.56117273677E+03  0.91226415615E+03 -0.78862621165E+03  0.13300646762E+04  0.10100000352E+00 0.  1.
       -3    1    3    3    0  502  0.56117273677E+03 -0.91226415615E+03  0.86836552068E+03  0.13788398815E+04  0.10100000352E+00 0. -1.
</event>
<event>
 5   0  0.1888149E-07  0.2699477E+04  0.7818609E-02  0.8335175E-01
        1   -1    0    0  501    0  0.00000000000E+00  0.00000000000E+00  0.18528813645E+04  0.18528813645E+04  0.50400001928E-02 0. -1.
       -1   -1    0    0    0  501  0.00000000000E+00  0.00000000000E+00 -0.98322188050E+03  0.98322188052E+03  0.50400001928E-02 0.  1.
    10030    2    1    2    0    0  0.00000000000E+00  0.00000000000E+00  0.86965948400E+03  0.28361032450E+04  0.26994766156E+04 0.  0.
        1    1    3    3  502    0  0.27773487521E+03  0.82283823769E+03  0.15203690250E+04  0.17509201577E+04  0.50400001928E-02 0. -1.
       -1    1    3    3    0  502 -0.27773487521E+03 -0.82283823769E+03 -0.65070954100E+03  0.10851830874E+04  0.50400001928E-02 0.  1.
</event>
<event>
 5   0  0.1888149E-07  0.2699950E+04  0.7818609E-02  0.8335021E-01
       -1   -1    0    0    0  501  0.00000000000E+00  0.00000000000E+00  0.88735125854E+03  0.88735125856E+03  0.50400001928E-02 0.  1.
        1   -1    0    0  501    0  0.00000000000E+00  0.00000000000E+00 -0.20537894749E+04  0.20537894749E+04  0.50400001928E-02 0. -1.
    10030    2    1    2    0    0  0.00000000000E+00  0.00000000000E+00 -0.11664382163E+04  0.29411407334E+04  0.26999501294E+04 0.  0.
        1    1    3    3  502    0 -0.60549907885E+03 -0.69928248455E+03 -0.16543192570E+04  0.18953620582E+04  0.50400001928E-02 0. -1.
       -1    1    3    3    0  502  0.60549907885E+03  0.69928248455E+03  0.48788104065E+03  0.10457786752E+04  0.50400001928E-02 0.  1.
</event>
<event>
 5   0  0.4992668E-07  0.2700738E+04  0.7818609E-02  0.8334765E-01
       -2   -1    0    0    0  501  0.00000000000E+00  0.00000000000E+00  0.10993577308E+04  0.10993577308E+04  0.25500000920E-02 0. -1.
        2   -1    0    0  501    0  0.00000000000E+00  0.00000000000E+00 -0.16586929613E+04  0.16586929613E+04  0.25500000920E-02 0.  1.
    10030    2    1    2    0    0  0.00000000000E+00  0.00000000000E+00 -0.55933523050E+03  0.27580506920E+04  0.27007383657E+04 0.  0.
        1    1    3    3  502    0 -0.12321706524E+04 -0.48890539798E+03 -0.54246872146E+03  0.14323216534E+04  0.50400001928E-02 0. -1.
       -1    1    3    3    0  502  0.12321706524E+04  0.48890539798E+03 -0.16866509042E+02  0.13257290387E+04  0.50400001928E-02 0.  1.
</event>
<event>
 5   0  0.1965415E-07  0.2695127E+04  0.7818609E-02  0.8336588E-01
       -1   -1    0    0    0  501  0.00000000000E+00  0.00000000000E+00  0.71269486825E+03  0.71269486827E+03  0.50400001928E-02 0.  1.
        1   -1    0    0  501    0  0.00000000000E+00  0.00000000000E+00 -0.25479722769E+04  0.25479722769E+04  0.50400001928E-02 0. -1.
    10030    2    1    2    0    0  0.00000000000E+00  0.00000000000E+00 -0.18352774086E+04  0.32606671451E+04  0.26951265397E+04 0.  0.
        4    1    3    3  502    0 -0.43230048310E+03  0.11712245892E+04 -0.15312955735E+04  0.19757323939E+04  0.12699999809E+01 0. -1.
       -4    1    3    3    0  502  0.43230048310E+03 -0.11712245892E+04 -0.30398183512E+03  0.12849347512E+04  0.12699999809E+01 0.  1.
</event>
<event>
 5   0  0.4843887E-07  0.2698534E+04  0.7818609E-02  0.8335481E-01
        2   -1    0    0  501    0  0.00000000000E+00  0.00000000000E+00  0.19712876373E+04  0.19712876373E+04  0.25500000920E-02 0. -1.
       -2   -1    0    0    0  501  0.00000000000E+00  0.00000000000E+00 -0.92351921025E+03  0.92351921026E+03  0.25500000920E-02 0.  1.
    10030    2    1    2    0    0  0.00000000000E+00  0.00000000000E+00  0.10477684271E+04  0.28948068476E+04  0.26985344185E+04 0.  0.
        5    1    3    3  502    0  0.19379590994E+03 -0.58578343098E+03 -0.76330632637E+03  0.98150788107E+03  0.46999998093E+01 0.  1.
       -5    1    3    3    0  502 -0.19379590994E+03  0.58578343098E+03  0.18110747535E+04  0.19132989665E+04  0.46999998093E+01 0. -1.
</event>
<event>
 5   0  0.1964242E-07  0.2700623E+04  0.7818609E-02  0.8334803E-01
        1   -1    0    0  501    0  0.00000000000E+00  0.00000000000E+00  0.15886184363E+04  0.15886184363E+04  0.50400001928E-02 0.  1.
       -1   -1    0    0    0  501  0.00000000000E+00  0.00000000000E+00 -0.11477530547E+04  0.11477530547E+04  0.50400001928E-02 0. -1.
    10030    2    1    2    0    0  0.00000000000E+00  0.00000000000E+00  0.44086538154E+03  0.27363714910E+04  0.27006233821E+04 0.  0.
        2    1    3    3  502    0  0.82166786459E+03 -0.61687371766E+03 -0.66733315172E+03  0.12251550100E+04  0.25500000920E-02 0.  1.
       -2    1    3    3    0  502 -0.82166786459E+03  0.61687371766E+03  0.11081985333E+04  0.15112164810E+04  0.25500000920E-02 0. -1.
</event>
<event>
 5   0  0.1971600E-07  0.2699110E+04  0.7818609E-02  0.8335294E-01
       -1   -1    0    0    0  501  0.00000000000E+00  0.00000000000E+00  0.80452867540E+03  0.80452867542E+03  0.50400001928E-02 0.  1.
        1   -1    0    0  501    0  0.00000000000E+00  0.00000000000E+00 -0.22638088127E+04  0.22638088128E+04  0.50400001928E-02 0. -1.
    10030    2    1    2    0    0  0.00000000000E+00  0.00000000000E+00 -0.14592801373E+04  0.30683374882E+04  0.26991103019E+04 0.  0.
        5    1    3    3  502    0  0.11077871587E+03  0.68133514624E+03  0.58864498083E+03  0.90720147092E+03  0.46999998093E+01 0.  1.
       -5    1    3    3    0  502 -0.11077871587E+03 -0.68133514624E+03 -0.20479251182E+04  0.21611360172E+04  0.46999998093E+01 0. -1.
</event>
<event>
 5   0  0.1937896E-07  0.2699354E+04  0.7818609E-02  0.8335215E-01
        1   -1    0    0  501    0  0.00000000000E+00  0.00000000000E+00  0.10766674313E+04  0.10766674313E+04  0.50400001928E-02 0.  1.
       -1   -1    0    0    0  501  0.00000000000E+00  0.00000000000E+00 -0.16919128817E+04  0.16919128817E+04  0.50400001928E-02 0. -1.
    10030    2    1    2    0    0  0.00000000000E+00  0.00000000000E+00 -0.61524545044E+03  0.27685803130E+04  0.26993536237E+04 0.  0.
        3    1    3    3  502    0  0.94985786285E+03  0.32432823796E+03  0.61785339863E+03  0.11786269970E+04  0.10100000352E+00 0.  1.
       -3    1    3    3    0  502 -0.94985786285E+03 -0.32432823796E+03 -0.12330988491E+04  0.15899533161E+04  0.10100000352E+00 0. -1.
</event>
<event>
 5   0  0.4843887E-07  0.2697679E+04  0.7818609E-02  0.8335758E-01
       -2   -1    0    0    0  501  0.00000000000E+00  0.00000000000E+00  0.16930718809E+04  0.16930718809E+04  0.25500000920E-02 0. -1.
        2   -1    0    0  501    0  0.00000000000E+00  0.00000000000E+00 -0.10745960685E+04  0.10745960685E+04  0.25500000920E-02 0.  1.
    10030    2    1    2    0    0  0.00000000000E+00  0.00000000000E+00  0.61847581240E+03  0.27676679494E+04  0.26976792893E+04 0.  0.
        5    1    3    3  502    0 -0.11461154073E+04  0.65981038846E+03  0.36993222402E+02  0.13229969252E+04  0.46999998093E+01 0. -1.
       -5    1    3    3    0  502  0.11461154073E+04 -0.65981038846E+03  0.58148259000E+03  0.14446710242E+04  0.46999998093E+01 0.  1.
</event>
<event>
 5   0  0.1964242E-07  0.2699768E+04  0.7818609E-02  0.8335080E-01
       -1   -1    0    0    0  501  0.00000000000E+00  0.00000000000E+00  0.11524874888E+04  0.11524874888E+04  0.50400001928E-02 0. -1.
        1   -1    0    0  501    0  0.00000000000E+00  0.00000000000E+00 -0.15810899682E+04  0.15810899682E+04  0.50400001928E-02 0.  1.
    10030    2    1    2    0    0  0.00000000000E+00  0.00000000000E+00 -0.42860247943E+03  0.27335774570E+04  0.26997676989E+04 0.  0.
        2    1    3    3  502    0 -0.16679340265E+02  0.77719496565E+03 -0.13316958125E+04  0.15419870142E+04  0.25500000920E-02 0.  1.
       -2    1    3    3    0  502  0.16679340265E+02 -0.77719496565E+03  0.90309333306E+03  0.11915904427E+04  0.25500000920E-02 0. -1.
</event>
<event>
 5   0  0.1937896E-07  0.2700411E+04  0.7818609E-02  0.8334872E-01
       -1   -1    0    0    0  501  0.00000000000E+00  0.00000000000E+00  0.14942291817E+04  0.14942291817E+04  0.50400001928E-02 0.  1.
        1   -1    0    0  501    0  0.00000000000E+00  0.00000000000E+00 -0.12200639341E+04  0.12200639341E+04  0.50400001928E-02 0. -1.
    10030    2    1    2    0    0  0.00000000000E+00  0.00000000000E+00  0.27416524759E+03  0.27142931158E+04  0.27004111789E+04 0.  0.
        3    1    3    3  502    0 -0.86750554776E+03 -0.84167674265E+02 -0.89943384637E+03  0.12524501295E+04  0.10100000352E+00 0. -1.
       -3    1    3    3    0  502  0.86750554776E+03  0.84167674265E+02  0.11735990940E+04  0.14618429862E+04  0.10100000352E+00 0.  1.
</event>
<event>
 5   0  0.5043890E-07  0.2701228E+04  0.7818609E-02  0.8334607E-01
        2   -1    0    0  501    0  0.00000000000E+00  0.00000000000E+00  0.86081737766E+03  0.86081737766E+03  0.25500000920E-02 0. -1.
       -2   -1    0    0    0  501  0.00000000000E+00  0.00000000000E+00 -0.21190993297E+04  0.21190993297E+04  0.25500000920E-02 0.  1.
    10030    2    1    2    0    0  0.00000000000E+00  0.00000000000E+00 -0.12582819521E+04  0.29799167074E+04  0.27012275195E+04 0.  0.
        3    1    3    3  502    0 -0.94757284327E+02  0.11252472350E+04 -0.14465285631E+04  0.18351035875E+04  0.10100000352E+00 0.  1.
       -3    1    3    3    0  502  0.94757284327E+02 -0.11252472350E+04  0.18824661104E+03  0.11448131199E+04  0.10100000352E+00 0. -1.
</event>
<event>
 5   0  0.4843887E-07  0.2699653E+04  0.7818609E-02  0.8335118E-01
       -2   -1    0    0    0  501  0.00000000000E+00  0.00000000000E+00  0.14634977629E+04  0.14634977629E+04  0.25500000920E-02 0. -1.
        2   -1    0    0  501    0  0.00000000000E+00  0.00000000000E+00 -0.12449839862E+04  0.12449839862E+04  0.25500000920E-02 0.  1.
    10030    2    1    2    0    0  0.00000000000E+00  0.00000000000E+00  0.21851377677E+03  0.27084817491E+04  0.26996527767E+04 0.  0.
        5    1    3    3  502    0 -0.50910959324E+03 -0.41807748556E+03  0.12912558367E+04  0.14496016996E+04  0.46999998093E+01 0. -1.
       -5    1    3    3    0  502  0.50910959324E+03  0.41807748556E+03 -0.10727420599E+04  0.12588800495E+04  0.46999998093E+01 0.  1.
</event>
<event>
 5   0  0.4992668E-07  0.2700767E+04  0.7818609E-02  0.8334756E-01
       -2   -1    0    0    0  501  0.00000000000E+00  0.00000000000E+00  0.98923398661E+03  0.98923398661E+03  0.25500000920E-02 0.  1.
        2   -1    0    0  501    0  0.00000000000E+00  0.00000000000E+00 -0.18433816121E+04  0.18433816121E+04  0.25500000920E-02 0. -1.
    10030    2    1    2    0    0  0.00000000000E+00  0.00000000000E+00 -0.85414762553E+03  0.28326155988E+04  0.27007671066E+04 0.  0.
        1    1    3    3  502    0 -0.10506075110E+04 -0.82388079994E+03 -0.63939171909E+03  0.14803301947E+04  0.50400001928E-02 0. -1.
       -1    1    3    3    0  502  0.10506075110E+04  0.82388079994E+03 -0.21475590643E+03  0.13522854041E+04  0.50400001928E-02 0.  1.
</event>
<event>
 5   0  0.1965415E-07  0.2699722E+04  0.7818609E-02  0.8335095E-01
       -1   -1    0    0    0  501  0.00000000000E+00  0.00000000000E+00  0.13809831738E+04  0.13809831738E+04  0.50400001928E-02 0.  1.
        1   -1    0    0  501    0  0.00000000000E+00  0.00000000000E+00 -0.13194406236E+04  0.13194406236E+04  0.50400001928E-02 0. -1.
    10030    2    1    2    0    0  0.00000000000E+00  0.00000000000E+00  0.61542550247E+02  0.27004237974E+04  0.26997224302E+04 0.  0.
        4    1    3    3  502    0 -0.15452347994E+03  0.12453064109E+04 -0.46680958900E+03  0.13388720507E+04  0.12699999809E+01 0. -1.
       -4    1    3    3    0  502  0.15452347994E+03 -0.12453064109E+04  0.52835213924E+03  0.13615517467E+04  0.12699999809E+01 0.  1.
</event>
<event>
 5   0  0.1971600E-07  0.2700969E+04  0.7818609E-02  0.8334691E-01
       -1   -1    0    0    0  501  0.00000000000E+00  0.00000000000E+00  0.10066841081E+04  0.10066841081E+04  0.50400001928E-02 0. -1.
        1   -1    0    0  501    0  0.00000000000E+00  0.00000000000E+00 -0.18116990547E+04  0.18116990547E+04  0.50400001928E-02 0.  1.
    10030    2    1    2    0    0  0.00000000000E+00  0.00000000000E+00 -0.80501494658E+03  0.28183831628E+04  0.27009691942E+04 0.  0.
        5    1    3    3  502    0  0.72951695302E+03  0.98371310800E+03 -0.99637002691E+03  0.15788165771E+04  0.46999998093E+01 0.  1.
       -5    1    3    3    0  502 -0.72951695302E+03 -0.98371310800E+03  0.19135508033E+03  0.12395665857E+04  0.46999998093E+01 0. -1.
</event>
<event>
 5   0  0.1937896E-07  0.2700917E+04  0.7818609E-02  0.8334707E-01
        1   -1    0    0  501    0  0.00000000000E+00  0.00000000000E+00  0.12760059262E+04  0.12760059262E+04  0.50400001928E-02 0.  1.
       -1   -1    0    0    0  501  0.00000000000E+00  0.00000000000E+00 -0.14292552995E+04  0.14292552995E+04  0.50400001928E-02 0. -1.
    10030    2    1    2    0    0  0.00000000000E+00  0.00000000000E+00 -0.15324937332E+03  0.27052612257E+04  0.27009170533E+04 0.  0.
        3    1    3    3  502    0 -0.22805100829E+03  0.55188717092E+03 -0.12898331838E+04  0.14213572260E+04  0.10100000352E+00 0. -1.
       -3    1    3    3    0  502  0.22805100829E+03 -0.55188717092E+03  0.11365838105E+04  0.12839039996E+04  0.10100000352E+00 0.  1.
</event>
<event>
 5   0  0.4735120E-07  0.2700464E+04  0.7818609E-02  0.8334854E-01
       -2   -1    0    0    0  501  0.00000000000E+00  0.00000000000E+00  0.15401966853E+04  0.15401966853E+04  0.25500000920E-02 0. -1.
        2   -1    0    0  501    0  0.00000000000E+00  0.00000000000E+00 -0.11836970736E+04  0.11836970736E+04  0.25500000920E-02 0.  1.
    10030    2    1    2    0    0  0.00000000000E+00  0.00000000000E+00  0.35649961173E+03  0.27238937589E+04  0.27004638928E+04 0.  0.
        2    1    3    3  502    0  0.86476385993E+03  0.10346341103E+04  0.24843826157E+03  0.13711330517E+04  0.25500000920E-02 0.  1.
       -2    1    3    3    0  502 -0.86476385993E+03 -0.10346341103E+04  0.10806135015E+03  0.13527607072E+04  0.25500000920E-02 0. -1.
</event>
<event>
 5   0  0.1937896E-07  0.2695934E+04  0.7818609E-02  0.8336325E-01
       -1   -1    0    0    0  501  0.00000000000E+00  0.00000000000E+00  0.71809224609E+03  0.71809224611E+03  0.50400001928E-02 0. -1.
        1   -1    0    0  501    0  0.00000000000E+00  0.00000000000E+00 -0.25303367294E+04  0.25303367294E+04  0.50400001928E-02 0.  1.
    10030    2    1    2    0    0  0.00000000000E+00  0.00000000000E+00 -0.18122444833E+04  0.32484289755E+04  0.26959341130E+04 0.  0.
        3    1    3    3  502    0 -0.65090134709E+03  0.95806358840E+03 -0.17369664951E+04  0.20877286745E+04  0.10100000352E+00 0.  1.
       -3    1    3    3    0  502  0.65090134709E+03 -0.95806358840E+03 -0.75277988215E+02  0.11607003010E+04  0.10100000352E+00 0. -1.
</event>
<event>
 5   0  0.1964242E-07  0.2700600E+04  0.7818609E-02  0.8334810E-01
        1   -1    0    0  501    0  0.00000000000E+00  0.00000000000E+00  0.23933729073E+04  0.23933729073E+04  0.50400001928E-02 0. -1.
       -1   -1    0    0    0  501  0.00000000000E+00  0.00000000000E+00 -0.76181612529E+03  0.76181612531E+03  0.50400001928E-02 0.  1.
    10030    2    1    2    0    0  0.00000000000E+00  0.00000000000E+00  0.16315567820E+04  0.31551890326E+04  0.27005999886E+04 0.  0.
        2    1    3    3  502    0  0.11863106507E+04  0.60429246552E+03  0.55243039259E+03  0.14414165541E+04  0.25500000920E-02 0.  1.
       -2    1    3    3    0  502 -0.11863106507E+04 -0.60429246552E+03  0.10791263894E+04  0.17137724785E+04  0.25500000920E-02 0. -1.
</event>
<event>
 5   0  0.1965415E-07  0.2701524E+04  0.7818609E-02  0.8334511E-01
        1   -1    0    0  501    0  0.00000000000E+00  0.00000000000E+00  0.18909312394E+04  0.18909312394E+04  0.50400001928E-02 0.  1.
       -1   -1    0    0    0  501  0.00000000000E+00  0.00000000000E+00 -0.96489939663E+03  0.96489939664E+03  0.50400001928E-02 0. -1.
    10030    2    1    2    0    0  0.00000000000E+00  0.00000000000E+00  0.92603184280E+03  0.28558306361E+04  0.27015243194E+04 0.  0.
        4    1    3    3  502    0  0.27754526859E+03 -0.12647715659E+04  0.56501642647E+02  0.12960989694E+04  0.12699999809E+01 0.  1.
       -4    1    3    3    0  502 -0.27754526859E+03  0.12647715659E+04  0.86953020015E+03  0.15597316666E+04  0.12699999809E+01 0. -1.
</event>
<event>
 5   0  0.4992668E-07  0.2697906E+04  0.7818609E-02  0.8335685E-01
       -2   -1    0    0    0  501  0.00000000000E+00  0.00000000000E+00  0.18173264694E+04  0.18173264694E+04  0.25500000920E-02 0.  1.
        2   -1    0    0  501    0  0.00000000000E+00  0.00000000000E+00 -0.10012921533E+04  0.10012921533E+04  0.25500000920E-02 0. -1.
    10030    2    1    2    0    0  0.00000000000E+00  0.00000000000E+00  0.81603431603E+03  0.28186186227E+04  0.26979063986E+04 0.  0.
        1    1    3    3  502    0 -0.96083650561E+03  0.55994534508E+03  0.12056762631E+04  0.16402441377E+04  0.50400001928E-02 0.  1.
       -1    1    3    3    0  502  0.96083650561E+03 -0.55994534508E+03 -0.38964194703E+03  0.11783744850E+04  0.50400001928E-02 0. -1.
</event>
<event>
 5   0  0.5043890E-07  0.2700916E+04  0.7818609E-02  0.8334708E-01
       -2   -1    0    0    0  501  0.00000000000E+00  0.00000000000E+00  0.17617042891E+04  0.17617042891E+04  0.25500000920E-02 0.  1.
        2   -1    0    0  501    0  0.00000000000E+00  0.00000000000E+00 -0.10352118609E+04  0.10352118609E+04  0.25500000920E-02 0. -1.
    10030    2    1    2    0    0  0.00000000000E+00  0.00000000000E+00  0.72649242829E+03  0.27969161500E+04  0.27009162708E+04 0.  0.
        3    1    3    3  502    0 -0.20501378934E+03  0.10795437652E+04  0.11761918609E+04  0.16096188054E+04  0.10100000352E+00 0.  1.
       -3    1    3    3    0  502  0.20501378934E+03 -0.10795437652E+04 -0.44969943260E+03  0.11872973446E+04  0.10100000352E+00 0. -1.
</event>
<event>
 5   0  0.1964242E-07  0.2703641E+04  0.7818609E-02  0.8333824E-01
       -1   -1    0    0    0  501  0.00000000000E+00  0.00000000000E+00  0.13200557764E+04  0.13200557764E+04  0.50400001928E-02 0.  1.
        1   -1    0    0  501    0  0.00000000000E+00  0.00000000000E+00 -0.13843500255E+04  0.13843500256E+04  0.50400001928E-02 0. -1.
    10030    2    1    2    0    0  0.00000000000E+00  0.00000000000E+00 -0.64294249125E+02  0.27044058020E+04  0.27036414317E+04 0.  0.
        2    1    3    3  502    0  0.75370378278E+03 -0.83869992780E+03 -0.77796659081E+03  0.13699339318E+04  0.25500000920E-02 0. -1.
       -2    1    3    3    0  502 -0.75370378278E+03  0.83869992780E+03  0.71367234168E+03  0.13344718702E+04  0.25500000920E-02 0.  1.
</event>
<event>
 5   0  0.1971600E-07  0.2700515E+04  0.7818609E-02  0.8334838E-01
        1   -1    0    0  501    0  0.00000000000E+00  0.00000000000E+00  0.13429175204E+04  0.13429175204E+04  0.50400001928E-02 0.  1.
       -1   -1    0    0    0  501  0.00000000000E+00  0.00000000000E+00 -0.13576372570E+04  0.13576372570E+04  0.50400001928E-02 0. -1.
    10030    2    1    2    0    0  0.00000000000E+00  0.00000000000E+00 -0.14719736585E+02  0.27005547774E+04  0.27005146611E+04 0.  0.
        5    1    3    3  502    0  0.60416273656E+03 -0.97673259012E+01  0.12001615913E+04  0.13436956308E+04  0.46999998093E+01 0.  1.
       -5    1    3    3    0  502 -0.60416273656E+03  0.97673259012E+01 -0.12148813279E+04  0.13568591466E+04  0.46999998093E+01 0. -1.
</event>
<event>
 5   0  0.4843887E-07  0.2700204E+04  0.7818609E-02  0.8334939E-01
       -2   -1    0    0    0  501  0.00000000000E+00  0.00000000000E+00  0.15868559566E+04  0.15868559566E+04  0.25500000920E-02 0.  1.
        2   -1    0    0  501    0  0.00000000000E+00  0.00000000000E+00 -0.11486706296E+04  0.11486706296E+04  0.25500000920E-02 0. -1.
    10030    2    1    2    0    0  0.00000000000E+00  0.00000000000E+00  0.43818532693E+03  0.27355265862E+04  0.27002035706E+04 0.  0.
        5    1    3    3  502    0  0.53882154532E+03 -0.91217059305E+03 -0.62873553469E+03  0.12319554826E+04  0.46999998093E+01 0. -1.
       -5    1    3    3    0  502 -0.53882154532E+03  0.91217059305E+03  0.10669208616E+04  0.15035711036E+04  0.46999998093E+01 0.  1.
</event>
<event>
 5   0  0.4992668E-07  0.2700984E+04  0.7818609E-02  0.8334686E-01
        2   -1    0    0  501    0  0.00000000000E+00  0.00000000000E+00  0.18289910558E+04  0.18289910558E+04  0.25500000920E-02 0.  1.
       -2   -1    0    0    0  501  0.00000000000E+00  0.00000000000E+00 -0.99717754341E+03  0.99717754341E+03  0.25500000920E-02 0. -1.
    10030    2    1    2    0    0  0.00000000000E+00  0.00000000000E+00  0.83181351240E+03  0.28261685992E+04  0.27009841228E+04 0.  0.
        1    1    3    3  502    0 -0.35204803762E+03 -0.23411492057E+03 -0.92614635727E+03  0.10180838335E+04  0.50400001928E-02 0. -1.
       -1    1    3    3    0  502  0.35204803762E+03  0.23411492057E+03  0.17579598697E+04  0.18080847658E+04  0.50400001928E-02 0.  1.
</event>
<event>
 5   0  0.1641625E-07  0.2699064E+04  0.7818609E-02  0.8335309E-01
        3   -1    0    0  501    0  0.00000000000E+00  0.00000000000E+00  0.17775095155E+04  0.17775095184E+04  0.10100000352E+00 0.  1.
       -3   -1    0    0    0  501  0.00000000000E+00  0.00000000000E+00 -0.10246000756E+04  0.10246000806E+04  0.10100000352E+00 0. -1.
    10030    2    1    2    0    0  0.00000000000E+00  0.00000000000E+00  0.75290943997E+03  0.28021095990E+04  0.26990638340E+04 0.  0.
        3    1    3    3  502    0  0.37253289554E+03  0.15220415392E+03  0.17137676612E+04  0.17603824782E+04  0.10100000352E+00 0.  1.
       -3    1    3    3    0  502 -0.37253289554E+03 -0.15220415392E+03 -0.96085822121E+03  0.10417271208E+04  0.10100000352E+00 0. -1.
</event>
<event>
 5   0  0.1965415E-07  0.2699294E+04  0.7818609E-02  0.8335234E-01
       -1   -1    0    0    0  501  0.00000000000E+00  0.00000000000E+00  0.20058645350E+04  0.20058645350E+04  0.50400001928E-02 0.  1.
        1   -1    0    0  501    0  0.00000000000E+00  0.00000000000E+00 -0.90811089583E+03  0.90811089584E+03  0.50400001928E-02 0. -1.
    10030    2    1    2    0    0  0.00000000000E+00  0.00000000000E+00  0.10977536392E+04  0.29139754309E+04  0.26992943077E+04 0.  0.
        4    1    3    3  502    0 -0.95937687218E+03  0.82279300559E+03  0.10599798108E+04  0.16495305772E+04  0.12699999809E+01 0.  1.
       -4    1    3    3    0  502  0.95937687218E+03 -0.82279300559E+03  0.37773828357E+02  0.12644448537E+04  0.12699999809E+01 0. -1.
</event>
<event>
 5   0  0.4983208E-07  0.2700596E+04  0.7818609E-02  0.8334812E-01
       -2   -1    0    0    0  501  0.00000000000E+00  0.00000000000E+00  0.13060960567E+04  0.13060960567E+04  0.25500000920E-02 0. -1.
        2   -1    0    0  501    0  0.00000000000E+00  0.00000000000E+00 -0.13959954218E+04  0.13959954218E+04  0.25500000920E-02 0.  1.
    10030    2    1    2    0    0  0.00000000000E+00  0.00000000000E+00 -0.89899365088E+02  0.27020914786E+04  0.27005955756E+04 0.  0.
        4    1    3    3  502    0  0.10969064368E+04  0.40324523960E+03 -0.72170592607E+03  0.13735616153E+04  0.12699999809E+01 0.  1.
       -4    1    3    3    0  502 -0.10969064368E+04 -0.40324523960E+03  0.63180656098E+03  0.13285298633E+04  0.12699999809E+01 0. -1.
</event>
<event>
 5   0  0.5043890E-07  0.2695932E+04  0.7818609E-02  0.8336326E-01
        2   -1    0    0  501    0  0.00000000000E+00  0.00000000000E+00  0.16665302872E+04  0.16665302872E+04  0.25500000920E-02 0. -1.
       -2   -1    0    0    0  501  0.00000000000E+00  0.00000000000E+00 -0.10902964737E+04  0.10902964737E+04  0.25500000920E-02 0.  1.
    10030    2    1    2    0    0  0.00000000000E+00  0.00000000000E+00  0.57623381349E+03  0.27568267609E+04  0.26959318207E+04 0.  0.
        3    1    3    3  502    0 -0.89401934610E+03 -0.27280575294E+03 -0.70506717535E+03  0.11708173649E+04  0.10100000352E+00 0.  1.
       -3    1    3    3    0  502  0.89401934610E+03  0.27280575294E+03  0.12813009888E+04  0.15860093960E+04  0.10100000352E+00 0. -1.
</event>
<event>
 5   0  0.4843887E-07  0.2701486E+04  0.7818609E-02  0.8334523E-01
       -2   -1    0    0    0  501  0.00000000000E+00  0.00000000000E+00  0.14051390110E+04  0.14051390110E+04  0.25500000920E-02 0. -1.
        2   -1    0    0  501    0  0.00000000000E+00  0.00000000000E+00 -0.12984527380E+04  0.12984527380E+04  0.25500000920E-02 0.  1.
    10030    2    1    2    0    0  0.00000000000E+00  0.00000000000E+00  0.10668627299E+03  0.27035917491E+04  0.27014859586E+04 0.  0.
        5    1    3    3  502    0  0.75834974540E+02 -0.11725187285E+04 -0.61345949566E+03  0.13254832156E+04  0.46999998093E+01 0.  1.
       -5    1    3    3    0  502 -0.75834974540E+02  0.11725187285E+04  0.72014576864E+03  0.13781085335E+04  0.46999998093E+01 0. -1.
</event>
<event>
 5   0  0.4843887E-07  0.2699229E+04  0.7818609E-02  0.8335255E-01
       -2   -1    0    0    0  501  0.00000000000E+00  0.00000000000E+00  0.13335558903E+04  0.13335558903E+04  0.25500000920E-02 0. -1.
        2   -1    0    0  501    0  0.00000000000E+00  0.00000000000E+00 -0.13658661053E+04  0.13658661053E+04  0.25500000920E-02 0.  1.
    10030    2    1    2    0    0  0.00000000000E+00  0.00000000000E+00 -0.32310215059E+02  0.26994219956E+04  0.26992286232E+04 0.  0.
        5    1    3    3  502    0  0.13017136249E+04  0.24059694378E+03 -0.27902646226E+03  0.13528573862E+04  0.46999998093E+01 0.  1.
       -5    1    3    3    0  502 -0.13017136249E+04 -0.24059694378E+03  0.24671624720E+03  0.13465646094E+04  0.46999998093E+01 0. -1.
</event>
<event>
 5   0  0.4843887E-07  0.2699811E+04  0.7818609E-02  0.8335066E-01
        2   -1    0    0  501    0  0.00000000000E+00  0.00000000000E+00  0.15148029047E+04  0.15148029047E+04  0.25500000920E-02 0.  1.
       -2   -1    0    0    0  501  0.00000000000E+00  0.00000000000E+00 -0.12029582104E+04  0.12029582105E+04  0.25500000920E-02 0. -1.
    10030    2    1    2    0    0  0.00000000000E+00  0.00000000000E+00  0.31184469429E+03  0.27177611152E+04  0.26998108019E+04 0.  0.
        5    1    3    3  502    0 -0.28425349292E+03 -0.90730618282E+03 -0.80868560472E+03  0.12481983235E+04  0.46999998093E+01 0. -1.
       -5    1    3    3    0  502  0.28425349292E+03  0.90730618282E+03  0.11205302990E+04  0.14695627917E+04  0.46999998093E+01 0.  1.
</event>
<event>
 5   0  0.1971600E-07  0.2698456E+04  0.7818609E-02  0.8335506E-01
        1   -1    0    0  501    0  0.00000000000E+00  0.00000000000E+00  0.25481830011E+04  0.25481830011E+04  0.50400001928E-02 0.  1.
       -1   -1    0    0    0  501  0.00000000000E+00  0.00000000000E+00 -0.71439782534E+03  0.71439782536E+03  0.50400001928E-02 0. -1.
    10030    2    1    2    0    0  0.00000000000E+00  0.00000000000E+00  0.18337851758E+04  0.32625808265E+04  0.26984561472E+04 0.  0.
        5    1    3    3  502    0 -0.55858966530E+03 -0.29054903773E+03 -0.52586632121E+03  0.82036494031E+03  0.46999998093E+01 0. -1.
       -5    1    3    3    0  502  0.55858966530E+03  0.29054903773E+03  0.23596514970E+04  0.24422158862E+04  0.46999998093E+01 0.  1.
</event>
<event>
 5   0  0.4992668E-07  0.2699904E+04  0.7818609E-02  0.8335036E-01
        2   -1    0    0  501    0  0.00000000000E+00  0.00000000000E+00  0.13110669494E+04  0.13110669494E+04  0.25500000920E-02 0.  1.
       -2   -1    0    0    0  501  0.00000000000E+00  0.00000000000E+00 -0.13899907735E+04  0.13899907735E+04  0.25500000920E-02 0. -1.
    10030    2    1    2    0    0  0.00000000000E+00  0.00000000000E+00 -0.78923824152E+02  0.27010577229E+04  0.26999044154E+04 0.  0.
        1    1    3    3  502    0 -0.82164732095E+03  0.10617763243E+04  0.10165748060E+03  0.13464054093E+04  0.50400001928E-02 0. -1.
       -1    1    3    3    0  502  0.82164732095E+03 -0.10617763243E+04 -0.18058130475E+03  0.13546523135E+04  0.50400001928E-02 0.  1.
</event>
<event>
 5   0  0.1964242E-07  0.2699268E+04  0.7818609E-02  0.8335243E-01
       -1   -1    0    0    0  501  0.00000000000E+00  0.00000000000E+00  0.12042063176E+04  0.12042063176E+04  0.50400001928E-02 0. -1.
        1   -1    0    0  501    0  0.00000000000E+00  0.00000000000E+00 -0.15126240086E+04  0.15126240086E+04  0.50400001928E-02 0.  1.
    10030    2    1    2    0    0  0.00000000000E+00  0.00000000000E+00 -0.30841769100E+03  0.27168303262E+04  0.26992675949E+04 0.  0.
        2    1    3    3  502    0  0.18512601373E+02 -0.13419987709E+04 -0.11129179848E+02  0.13421725955E+04  0.25500000920E-02 0.  1.
       -2    1    3    3    0  502 -0.18512601373E+02  0.13419987709E+04 -0.29728851115E+03  0.13746577306E+04  0.25500000920E-02 0. -1.
</event>
<event>
 5   0  0.1965415E-07  0.2700093E+04  0.7818609E-02  0.8334975E-01
       -1   -1    0    0    0  501  0.00000000000E+00  0.00000000000E+00  0.64754022140E+03  0.64754022142E+03  0.50400001928E-02 0. -1.
        1   -1    0    0  501    0  0.00000000000E+00  0.00000000000E+00 -0.28146912199E+04  0.28146912199E+04  0.50400001928E-02 0.  1.
    10030    2    1    2    0    0  0.00000000000E+00  0.00000000000E+00 -0.21671509985E+04  0.34622314413E+04  0.27000931656E+04 0.  0.
        4    1    3    3  502    0 -0.31129571269E+03 -0.93288001095E+03  0.10239990952E+03  0.98876563955E+03  0.12699999809E+01 0. -1.
       -4    1    3    3    0  502  0.31129571269E+03  0.93288001095E+03 -0.22695509080E+04  0.24734658018E+04  0.12699999809E+01 0.  1.
</event>
<event>
 5   0  0.1937896E-07  0.2698827E+04  0.7818609E-02  0.8335386E-01
       -1   -1    0    0    0  501  0.00000000000E+00  0.00000000000E+00  0.95087752930E+03  0.95087752931E+03  0.50400001928E-02 0. -1.
        1   -1    0    0  501    0  0.00000000000E+00  0.00000000000E+00 -0.19149859971E+04  0.19149859971E+04  0.50400001928E-02 0.  1.
    10030    2    1    2    0    0  0.00000000000E+00  0.00000000000E+00 -0.96410846782E+03  0.28658635264E+04  0.26988272665E+04 0.  0.
        3    1    3    3  502    0 -0.77167882010E+03  0.10523092677E+04 -0.11716770964E+03  0.13101798650E+04  0.10100000352E+00 0.  1.
       -3    1    3    3    0  502  0.77167882010E+03 -0.10523092677E+04 -0.84694075818E+03  0.15556836614E+04  0.10100000352E+00 0. -1.
</event>
<event>
 5   0  0.4992668E-07  0.2700327E+04  0.7818609E-02  0.8334899E-01
        2   -1    0    0  501    0  0.00000000000E+00  0.00000000000E+00  0.18600669805E+04  0.18600669805E+04  0.25500000920E-02 0.  1.
       -2   -1    0    0    0  501  0.00000000000E+00  0.00000000000E+00 -0.98004054781E+03  0.98004054781E+03  0.25500000920E-02 0. -1.
    10030    2    1    2    0    0  0.00000000000E+00  0.00000000000E+00  0.88002643266E+03  0.28401075283E+04  0.27003266932E+04 0.  0.
        1    1    3    3  502    0 -0.10031404102E+04 -0.10498875910E+03 -0.50401653080E+03  0.11275397933E+04  0.50400001928E-02 0. -1.
       -1    1    3    3    0  502  0.10031404102E+04  0.10498875910E+03  0.13840429635E+04  0.17125677350E+04  0.50400001928E-02 0.  1.
</event>
<event>
 5   0  0.1965415E-07  0.2700733E+04  0.7818609E-02  0.8334767E-01
        1   -1    0    0  501    0  0.00000000000E+00  0.00000000000E+00  0.13874606676E+04  0.13874606676E+04  0.50400001928E-02 0.  1.
       -1   -1    0    0    0  501  0.00000000000E+00  0.00000000000E+00 -0.13142643322E+04  0.13142643322E+04  0.50400001928E-02 0. -1.
    10030    2    1    2    0    0  0.00000000000E+00  0.00000000000E+00  0.73196335403E+02  0.27017249999E+04  0.27007332840E+04 0.  0.
        4    1    3    3  502    0 -0.71752603584E+03  0.73461337264E+03  0.91383980364E+03  0.13746291205E+04  0.12699999809E+01 0.  1.
       -4    1    3    3    0  502  0.71752603584E+03 -0.73461337264E+03 -0.84064346823E+03  0.13270958793E+04  0.12699999809E+01 0. -1.
</event>
<event>
 5   0  0.1965415E-07  0.2718903E+04  0.7818609E-02  0.8328897E-01
       -1   -1    0    0    0  501  0.00000000000E+00  0.00000000000E+00  0.95797397672E+03  0.95797397674E+03  0.50400001928E-02 0.  1.
        1   -1    0    0  501    0  0.00000000000E+00  0.00000000000E+00 -0.19291849438E+04  0.19291849438E+04  0.50400001928E-02 0. -1.
    10030    2    1    2    0    0  0.00000000000E+00  0.00000000000E+00 -0.97121096705E+03  0.28871589205E+04  0.27189034352E+04 0.  0.
        4    1    3    3  502    0 -0.29099941330E+03  0.87773003638E+03 -0.15437748362E+04  0.17995368941E+04  0.12699999809E+01 0. -1.
       -4    1    3    3    0  502  0.29099941330E+03 -0.87773003638E+03  0.57256386914E+03  0.10876220265E+04  0.12699999809E+01 0.  1.
</event>
<event>
 5   0  0.1971600E-07  0.2700308E+04  0.7818609E-02  0.8334905E-01
        1   -1    0    0  501    0  0.00000000000E+00  0.00000000000E+00  0.12241543471E+04  0.12241543471E+04  0.50400001928E-02 0. -1.
       -1   -1    0    0    0  501  0.00000000000E+00  0.00000000000E+00 -0.14891223800E+04  0.14891223800E+04  0.50400001928E-02 0.  1.
    10030    2    1    2    0    0  0.00000000000E+00  0.00000000000E+00 -0.26496803286E+03  0.27132767272E+04  0.27003078602E+04 0.  0.
        5    1    3    3  502    0  0.15928620040E+03  0.40383236302E+03  0.11521085851E+04  0.12311900555E+04  0.46999998093E+01 0. -1.
       -5    1    3    3    0  502 -0.15928620040E+03 -0.40383236302E+03 -0.14170766179E+04  0.14820866716E+04  0.46999998093E+01 0.  1.
</event>
<event>
 5   0  0.4735120E-07  0.2698185E+04  0.7818609E-02  0.8335594E-01
       -2   -1    0    0    0  501  0.00000000000E+00  0.00000000000E+00  0.96621725776E+03  0.96621725776E+03  0.25500000920E-02 0. -1.
        2   -1    0    0  501    0  0.00000000000E+00  0.00000000000E+00 -0.18836866689E+04  0.18836866689E+04  0.25500000920E-02 0.  1.
    10030    2    1    2    0    0  0.00000000000E+00  0.00000000000E+00 -0.91746941119E+03  0.28499039267E+04  0.26981849957E+04 0.  0.
        2    1    3    3  502    0  0.11157815444E+03 -0.89649943937E+03 -0.15170168842E+04  0.17656446857E+04  0.25500000920E-02 0.  1.
       -2    1    3    3    0  502 -0.11157815444E+03  0.89649943937E+03  0.59954747297E+03  0.10842592410E+04  0.25500000920E-02 0. -1.
</event>
<event>
 5   0  0.4983208E-07  0.2702184E+04  0.7818609E-02  0.8334297E-01
        2   -1    0    0  501    0  0.00000000000E+00  0.00000000000E+00  0.17534603190E+04  0.17534603190E+04  0.25500000920E-02 0. -1.
       -2   -1    0    0    0  501  0.00000000000E+00  0.00000000000E+00 -0.10410552249E+04  0.10410552249E+04  0.25500000920E-02 0.  1.
    10030    2    1    2    0    0  0.00000000000E+00  0.00000000000E+00  0.71240509411E+03  0.27945155438E+04  0.27021835812E+04 0.  0.
        4    1    3    3  502    0  0.88402730011E+02 -0.89293271264E+03  0.14008178313E+04  0.16635612647E+04  0.12699999809E+01 0. -1.
       -4    1    3    3    0  502 -0.88402730011E+02  0.89293271264E+03 -0.68841273717E+03  0.11309542792E+04  0.12699999809E+01 0.  1.
</event>
<event>
 5   0  0.4843887E-07  0.2699039E+04  0.7818609E-02  0.8335317E-01
       -2   -1    0    0    0  501  0.00000000000E+00  0.00000000000E+00  0.14015631618E+04  0.14015631618E+04  0.25500000920E-02 0.  1.
        2   -1    0    0  501    0  0.00000000000E+00  0.00000000000E+00 -0.12994083061E+04  0.12994083061E+04  0.25500000920E-02 0. -1.
    10030    2    1    2    0    0  0.00000000000E+00  0.00000000000E+00  0.10215485571E+03  0.27009714679E+04  0.26990389504E+04 0.  0.
        5    1    3    3  502    0 -0.28531957210E+03 -0.90540462179E+03  0.10109388110E+04  0.13867891538E+04  0.46999998093E+01 0.  1.
       -5    1    3    3    0  502  0.28531957210E+03  0.90540462179E+03 -0.90878395533E+03  0.13141823142E+04  0.46999998093E+01 0. -1.
</event>
<event>
 5   0  0.5043890E-07  0.2696932E+04  0.7818609E-02  0.8336001E-01
        2   -1    0    0  501    0  0.00000000000E+00  0.00000000000E+00  0.14507856490E+04  0.14507856490E+04  0.25500000920E-02 0. -1.
       -2   -1    0    0    0  501  0.00000000000E+00  0.00000000000E+00 -0.12533624880E+04  0.12533624880E+04  0.25500000920E-02 0.  1.
    10030    2    1    2    0    0  0.00000000000E+00  0.00000000000E+00  0.19742316102E+03  0.27041481370E+04  0.26969318201E+04 0.  0.
        3    1    3    3  502    0  0.23650740573E+03 -0.13016442867E+04 -0.16303614766E+03  0.13329645148E+04  0.10100000352E+00 0.  1.
       -3    1    3    3    0  502 -0.23650740573E+03  0.13016442867E+04  0.36045930869E+03  0.13711836221E+04  0.10100000352E+00 0. -1.
</event>
<event>
 5   0  0.4843887E-07  0.2699661E+04  0.7818609E-02  0.8335115E-01
        2   -1    0    0  501    0  0.00000000000E+00  0.00000000000E+00  0.14184616329E+04  0.14184616329E+04  0.25500000920E-02 0. -1.
       -2   -1    0    0    0  501  0.00000000000E+00  0.00000000000E+00 -0.12845195574E+04  0.12845195574E+04  0.25500000920E-02 0.  1.
    10030    2    1    2    0    0  0.00000000000E+00  0.00000000000E+00  0.13394207548E+03  0.27029811903E+04  0.26996605037E+04 0.  0.
        5    1    3    3  502    0  0.10712302772E+03  0.46318876775E+03  0.13318540917E+04  0.14141699294E+04  0.46999998093E+01 0. -1.
       -5    1    3    3    0  502 -0.10712302772E+03 -0.46318876775E+03 -0.11979120162E+04  0.12888112609E+04  0.46999998093E+01 0.  1.
</event>
<event>
 5   0  0.4735120E-07  0.2701348E+04  0.7818609E-02  0.8334568E-01
        2   -1    0    0  501    0  0.00000000000E+00  0.00000000000E+00  0.17997768807E+04  0.17997768807E+04  0.25500000920E-02 0. -1.
       -2   -1    0    0    0  501  0.00000000000E+00  0.00000000000E+00 -0.10136366982E+04  0.10136366982E+04  0.25500000920E-02 0.  1.
    10030    2    1    2    0    0  0.00000000000E+00  0.00000000000E+00  0.78614018252E+03  0.28134135789E+04  0.27013477339E+04 0.  0.
        2    1    3    3  502    0  0.77516557761E+03  0.34562562351E+03  0.14873638332E+04  0.17124806325E+04  0.25500000920E-02 0. -1.
       -2    1    3    3    0  502 -0.77516557761E+03 -0.34562562351E+03 -0.70122365065E+03  0.11009329464E+04  0.25500000920E-02 0.  1.
</event>
<event>
 5   0  0.1888149E-07  0.2698640E+04  0.7818609E-02  0.8335446E-01
       -1   -1    0    0    0  501  0.00000000000E+00  0.00000000000E+00  0.79846844834E+03  0.79846844836E+03  0.50400001928E-02 0.  1.
        1   -1    0    0  501    0  0.00000000000E+00  0.00000000000E+00 -0.22801954781E+04  0.22801954781E+04  0.50400001928E-02 0. -1.
    10030    2    1    2    0    0  0.00000000000E+00  0.00000000000E+00 -0.14817270297E+04  0.30786639264E+04  0.26986397650E+04 0.  0.
        1    1    3    3  502    0  0.10589310153E+04 -0.46076185750E+03  0.55285250473E+02  0.11561543337E+04  0.50400001928E-02 0.  1.
       -1    1    3    3    0  502 -0.10589310153E+04  0.46076185750E+03 -0.15370122802E+04  0.19225095927E+04  0.50400001928E-02 0. -1.
</event>
<event>
 5   0  0.1965415E-07  0.2700384E+04  0.7818609E-02  0.8334880E-01
       -1   -1    0    0    0  501  0.00000000000E+00  0.00000000000E+00  0.94606309496E+03  0.94606309497E+03  0.50400001928E-02 0.  1.
        1   -1    0    0  501    0  0.00000000000E+00  0.00000000000E+00 -0.19269521094E+04  0.19269521094E+04  0.50400001928E-02 0. -1.
    10030    2    1    2    0    0  0.00000000000E+00  0.00000000000E+00 -0.98088901441E+03  0.28730152043E+04  0.27003838812E+04 0.  0.
        4    1    3    3  502    0  0.56445485089E+03  0.11785068333E+04 -0.85206911735E+03  0.15599714832E+04  0.12699999809E+01 0. -1.
       -4    1    3    3    0  502 -0.56445485089E+03 -0.11785068333E+04 -0.12881989706E+03  0.13130437211E+04  0.12699999809E+01 0.  1.
</event>
<event>
 5   0  0.4983208E-07  0.2697992E+04  0.7818609E-02  0.8335657E-01
        2   -1    0    0  501    0  0.00000000000E+00  0.00000000000E+00  0.13334926232E+04  0.13334926232E+04  0.25500000920E-02 0.  1.
       -2   -1    0    0    0  501  0.00000000000E+00  0.00000000000E+00 -0.13646796183E+04  0.13646796183E+04  0.25500000920E-02 0. -1.
    10030    2    1    2    0    0  0.00000000000E+00  0.00000000000E+00 -0.31186995102E+02  0.26981722414E+04  0.26979919970E+04 0.  0.
        4    1    3    3  502    0 -0.67730940305E+03  0.99373673141E+03 -0.62680359428E+03  0.13561508314E+04  0.12699999809E+01 0.  1.
       -4    1    3    3    0  502  0.67730940305E+03 -0.99373673141E+03  0.59561659918E+03  0.13420214100E+04  0.12699999809E+01 0. -1.
</event>
<event>
 5   0  0.4983208E-07  0.2699329E+04  0.7818609E-02  0.8335223E-01
        2   -1    0    0  501    0  0.00000000000E+00  0.00000000000E+00  0.79432975709E+03  0.79432975709E+03  0.25500000920E-02 0. -1.
       -2   -1    0    0    0  501  0.00000000000E+00  0.00000000000E+00 -0.22932471794E+04  0.22932471794E+04  0.25500000920E-02 0.  1.
    10030    2    1    2    0    0  0.00000000000E+00  0.00000000000E+00 -0.14989174223E+04  0.30875769365E+04  0.26993291573E+04 0.  0.
        4    1    3    3  502    0 -0.57032532387E+03 -0.37930308022E+03  0.58075898703E+03  0.89801136721E+03  0.12699999809E+01 0. -1.
       -4    1    3    3    0  502  0.57032532387E+03  0.37930308022E+03 -0.20796764093E+04  0.21895655692E+04  0.12699999809E+01 0.  1.
</event>
<event>
 5   0  0.1964242E-07  0.2702342E+04  0.7818609E-02  0.8334246E-01
        1   -1    0    0  501    0  0.00000000000E+00  0.00000000000E+00  0.75456284642E+03  0.75456284644E+03  0.50400001928E-02 0. -1.
       -1   -1    0    0    0  501  0.00000000000E+00  0.00000000000E+00 -0.24194973733E+04  0.24194973733E+04  0.50400001928E-02 0.  1.
    10030    2    1    2    0    0  0.00000000000E+00  0.00000000000E+00 -0.16649345269E+04  0.31740602197E+04  0.27023418177E+04 0.  0.
        2    1    3    3  502    0 -0.11700931124E+04 -0.63241115568E+03 -0.11119063645E+04  0.17336082386E+04  0.25500000920E-02 0.  1.
       -2    1    3    3    0  502  0.11700931124E+04  0.63241115568E+03 -0.55302816242E+03  0.14404519812E+04  0.25500000920E-02 0. -1.
</event>
<event>
 5   0  0.1964242E-07  0.2698555E+04  0.7818609E-02  0.8335474E-01
       -1   -1    0    0    0  501  0.00000000000E+00  0.00000000000E+00  0.12074868585E+04  0.12074868585E+04  0.50400001928E-02 0. -1.
        1   -1    0    0  501    0  0.00000000000E+00  0.00000000000E+00 -0.15077178552E+04  0.15077178552E+04  0.50400001928E-02 0.  1.
    10030    2    1    2    0    0  0.00000000000E+00  0.00000000000E+00 -0.30023099667E+03  0.27152047137E+04  0.26985547958E+04 0.  0.
        2    1    3    3  502    0  0.10881597392E+04  0.25441132338E+03  0.61067989724E+03  0.12734781806E+04  0.25500000920E-02 0. -1.
       -2    1    3    3    0  502 -0.10881597392E+04 -0.25441132338E+03 -0.91091089391E+03  0.14417265331E+04  0.25500000920E-02 0.  1.
</event>
<event>
 5   0  0.4735120E-07  0.2699977E+04  0.7818609E-02  0.8335013E-01
       -2   -1    0    0    0  501  0.00000000000E+00  0.00000000000E+00  0.84255589987E+03  0.84255589987E+03  0.25500000920E-02 0. -1.
        2   -1    0    0  501    0  0.00000000000E+00  0.00000000000E+00 -0.21630239785E+04  0.21630239785E+04  0.25500000920E-02 0.  1.
    10030    2    1    2    0    0  0.00000000000E+00  0.00000000000E+00 -0.13204680786E+04  0.30055798784E+04  0.26999767515E+04 0.  0.
        2    1    3    3  502    0 -0.89202486346E+03 -0.73583816575E+03  0.11525290828E+03  0.11620883771E+04  0.25500000920E-02 0. -1.
       -2    1    3    3    0  502  0.89202486346E+03  0.73583816575E+03 -0.14357209869E+04  0.18434915013E+04  0.25500000920E-02 0.  1.
</event>
<event>
 5   0  0.5043890E-07  0.2699049E+04  0.7818609E-02  0.8335314E-01
        2   -1    0    0  501    0  0.00000000000E+00  0.00000000000E+00  0.15760506373E+04  0.15760506373E+04  0.25500000920E-02 0. -1.
       -2   -1    0    0    0  501  0.00000000000E+00  0.00000000000E+00 -0.11555570198E+04  0.11555570198E+04  0.25500000920E-02 0.  1.
    10030    2    1    2    0    0  0.00000000000E+00  0.00000000000E+00  0.42049361748E+03  0.27316076571E+04  0.26990490011E+04 0.  0.
        3    1    3    3  502    0  0.10618616012E+04 -0.65992174157E+03 -0.30398638280E+03  0.12866446659E+04  0.10100000352E+00 0.  1.
       -3    1    3    3    0  502 -0.10618616012E+04  0.65992174157E+03  0.72448000028E+03  0.14449629913E+04  0.10100000352E+00 0. -1.
</event>
<event>
 5   0  0.4735120E-07  0.2695515E+04  0.7818609E-02  0.8336462E-01
        2   -1    0    0  501    0  0.00000000000E+00  0.00000000000E+00  0.24591055732E+04  0.24591055732E+04  0.25500000920E-02 0. -1.
       -2   -1    0    0    0  501  0.00000000000E+00  0.00000000000E+00 -0.73866317453E+03  0.73866317454E+03  0.25500000920E-02 0.  1.
    10030    2    1    2    0    0  0.00000000000E+00  0.00000000000E+00  0.17204423986E+04  0.31977687477E+04  0.26955153342E+04 0.  0.
        2    1    3    3  502    0 -0.35173228377E+03 -0.73161407970E+03  0.21365460887E+04  0.22855642520E+04  0.25500000920E-02 0. -1.
       -2    1    3    3    0  502  0.35173228377E+03  0.73161407970E+03 -0.41610369005E+03  0.91220449568E+03  0.25500000920E-02 0.  1.
</event>
<event>
 5   0  0.4992668E-07  0.2699884E+04  0.7818609E-02  0.8335043E-01
       -2   -1    0    0    0  501  0.00000000000E+00  0.00000000000E+00  0.11458715332E+04  0.11458715332E+04  0.25500000920E-02 0. -1.
        2   -1    0    0  501    0  0.00000000000E+00  0.00000000000E+00 -0.15903557196E+04  0.15903557196E+04  0.25500000920E-02 0.  1.
    10030    2    1    2    0    0  0.00000000000E+00  0.00000000000E+00 -0.44448418635E+03  0.27362272528E+04  0.26998839581E+04 0.  0.
        1    1    3    3  502    0  0.80730738588E+03  0.45177053807E+03 -0.12185838561E+04  0.15299635449E+04  0.50400001928E-02 0.  1.
       -1    1    3    3    0  502 -0.80730738588E+03 -0.45177053807E+03  0.77409966974E+03  0.12062637079E+04  0.50400001928E-02 0. -1.
</event>
<event>
 5   0  0.1971600E-07  0.2700757E+04  0.7818609E-02  0.8334759E-01
       -1   -1    0    0    0  501  0.00000000000E+00  0.00000000000E+00  0.11071557287E+04  0.11071557287E+04  0.50400001928E-02 0. -1.
        1   -1    0    0  501    0  0.00000000000E+00  0.00000000000E+00 -0.16470333190E+04  0.16470333190E+04  0.50400001928E-02 0.  1.
    10030    2    1    2    0    0  0.00000000000E+00  0.00000000000E+00 -0.53987759030E+03  0.27541890477E+04  0.27007572083E+04 0.  0.
        5    1    3    3  502    0  0.69746619744E+03 -0.10569489909E+04  0.20827360816E+03  0.12833550762E+04  0.46999998093E+01 0.  1.
       -5    1    3    3    0  502 -0.69746619744E+03  0.10569489909E+04 -0.74815119846E+03  0.14708339715E+04  0.46999998093E+01 0. -1.
</event>
<event>
 5   0  0.4843887E-07  0.2699818E+04  0.7818609E-02  0.8335064E-01
       -2   -1    0    0    0  501  0.00000000000E+00  0.00000000000E+00  0.12872406135E+04  0.12872406135E+04  0.25500000920E-02 0.  1.
        2   -1    0    0  501    0  0.00000000000E+00  0.00000000000E+00 -0.14156279778E+04  0.14156279778E+04  0.25500000920E-02 0. -1.
    10030    2    1    2    0    0  0.00000000000E+00  0.00000000000E+00 -0.12838736432E+03  0.27028685913E+04  0.26998176432E+04 0.  0.
        5    1    3    3  502    0  0.54382125828E+03 -0.41039954842E+03  0.11024825783E+04  0.12960166958E+04  0.46999998093E+01 0.  1.
       -5    1    3    3    0  502 -0.54382125828E+03  0.41039954842E+03 -0.12308699426E+04  0.14068518955E+04  0.46999998093E+01 0. -1.
</event>
<event>
 5   0  0.4983208E-07  0.2699882E+04  0.7818609E-02  0.8335043E-01
        2   -1    0    0  501    0  0.00000000000E+00  0.00000000000E+00  0.14905592620E+04  0.14905592620E+04  0.25500000920E-02 0. -1.
       -2   -1    0    0    0  501  0.00000000000E+00  0.00000000000E+00 -0.12225885267E+04  0.12225885267E+04  0.25500000920E-02 0.  1.
    10030    2    1    2    0    0  0.00000000000E+00  0.00000000000E+00  0.26797073526E+03  0.27131477887E+04  0.26998819619E+04 0.  0.
        4    1    3    3  502    0 -0.64679082072E+03 -0.95911053099E+03 -0.56521178680E+03  0.12875159623E+04  0.12699999809E+01 0.  1.
       -4    1    3    3    0  502  0.64679082072E+03  0.95911053099E+03  0.83318252206E+03  0.14256318264E+04  0.12699999809E+01 0. -1.
</event>
<event>
 5   0  0.4735120E-07  0.2700767E+04  0.7818609E-02  0.8334756E-01
       -2   -1    0    0    0  501  0.00000000000E+00  0.00000000000E+00  0.27365899876E+04  0.27365899876E+04  0.25500000920E-02 0.  1.
        2   -1    0    0  501    0  0.00000000000E+00  0.00000000000E+00 -0.66635339681E+03  0.66635339682E+03  0.25500000920E-02 0. -1.
    10030    2    1    2    0    0  0.00000000000E+00  0.00000000000E+00  0.20702365908E+04  0.34029433844E+04  0.27007673235E+04 0.  0.
        2    1    3    3  502    0 -0.19105646478E+03 -0.25763338370E+03 -0.61766112066E+03  0.69597614407E+03  0.25500000920E-02 0. -1.
       -2    1    3    3    0  502  0.19105646478E+03  0.25763338370E+03  0.26878977114E+04  0.27069672403E+04  0.25500000920E-02 0.  1.
</event>
<event>
 5   0  0.1971600E-07  0.2700314E+04  0.7818609E-02  0.8334903E-01
       -1   -1    0    0    0  501  0.00000000000E+00  0.00000000000E+00  0.15661178722E+04  0.15661178722E+04  0.50400001928E-02 0.  1.
        1   -1    0    0  501    0  0.00000000000E+00  0.00000000000E+00 -0.11639762871E+04  0.11639762871E+04  0.50400001928E-02 0. -1.
    10030    2    1    2    0    0  0.00000000000E+00  0.00000000000E+00  0.40214158513E+03  0.27300941593E+04  0.27003141047E+04 0.  0.
        5    1    3    3  502    0 -0.11869622183E+03  0.97119451622E+03 -0.73956296056E+03  0.12264921704E+04  0.46999998093E+01 0. -1.
       -5    1    3    3    0  502  0.11869622183E+03 -0.97119451622E+03  0.11417045457E+04  0.15036019889E+04  0.46999998093E+01 0.  1.
</event>
<event>
 5   0  0.1971600E-07  0.2700019E+04  0.7818609E-02  0.8334999E-01
        1   -1    0    0  501    0  0.00000000000E+00  0.00000000000E+00  0.13577995023E+04  0.13577995023E+04  0.50400001928E-02 0.  1.
       -1   -1    0    0    0  501  0.00000000000E+00  0.00000000000E+00 -0.13422643107E+04  0.13422643107E+04  0.50400001928E-02 0. -1.
    10030    2    1    2    0    0  0.00000000000E+00  0.00000000000E+00  0.15535191629E+02  0.27000638130E+04  0.27000191207E+04 0.  0.
        5    1    3    3  502    0  0.13011347724E+04 -0.34503779530E+03 -0.94708228962E+02  0.13494422977E+04  0.46999998093E+01 0. -1.
       -5    1    3    3    0  502 -0.13011347724E+04  0.34503779530E+03  0.11024342059E+03  0.13506215154E+04  0.46999998093E+01 0.  1.
</event>
<event>
 5   0  0.4992668E-07  0.2699775E+04  0.7818609E-02  0.8335078E-01
        2   -1    0    0  501    0  0.00000000000E+00  0.00000000000E+00  0.17041253324E+04  0.17041253324E+04  0.25500000920E-02 0.  1.
       -2   -1    0    0    0  501  0.00000000000E+00  0.00000000000E+00 -0.10692851555E+04  0.10692851555E+04  0.25500000920E-02 0. -1.
    10030    2    1    2    0    0  0.00000000000E+00  0.00000000000E+00  0.63484017688E+03  0.27734104879E+04  0.26997747469E+04 0.  0.
        1    1    3    3  502    0 -0.74556123556E+03  0.10345456512E+03  0.14685324747E+04  0.16501975737E+04  0.50400001928E-02 0.  1.
       -1    1    3    3    0  502  0.74556123556E+03 -0.10345456512E+03 -0.83369229784E+03  0.11232129142E+04  0.50400001928E-02 0. -1.
</event>
<event>
 5   0  0.4843887E-07  0.2704830E+04  0.7818609E-02  0.8333440E-01
        2   -1    0    0  501    0  0.00000000000E+00  0.00000000000E+00  0.18049283761E+04  0.18049283761E+04  0.25500000920E-02 0.  1.
       -2   -1    0    0    0  501  0.00000000000E+00  0.00000000000E+00 -0.10133511116E+04  0.10133511116E+04  0.25500000920E-02 0. -1.
    10030    2    1    2    0    0  0.00000000000E+00  0.00000000000E+00  0.79157726450E+03  0.28182794877E+04  0.27048298846E+04 0.  0.
        5    1    3    3  502    0  0.10811445297E+04 -0.53136705780E+03 -0.24462914499E+03  0.12292639883E+04  0.46999998093E+01 0. -1.
       -5    1    3    3    0  502 -0.10811445297E+04  0.53136705780E+03  0.10362064095E+04  0.15890154994E+04  0.46999998093E+01 0.  1.
</event>
<event>
 5   0  0.4843887E-07  0.2700324E+04  0.7818609E-02  0.8334900E-01
       -2   -1    0    0    0  501  0.00000000000E+00  0.00000000000E+00  0.10866765862E+04  0.10866765862E+04  0.25500000920E-02 0. -1.
        2   -1    0    0  501    0  0.00000000000E+00  0.00000000000E+00 -0.16775347247E+04  0.16775347247E+04  0.25500000920E-02 0.  1.
    10030    2    1    2    0    0  0.00000000000E+00  0.00000000000E+00 -0.59085813854E+03  0.27642113109E+04  0.27003242086E+04 0.  0.
        5    1    3    3  502    0 -0.83500634424E+03 -0.23006163631E+03  0.76481274651E+03  0.11554759100E+04  0.46999998093E+01 0. -1.
       -5    1    3    3    0  502  0.83500634424E+03  0.23006163631E+03 -0.13556708850E+04  0.16087354009E+04  0.46999998093E+01 0.  1.
</event>
<event>
 5   0  0.1965415E-07  0.2700126E+04  0.7818609E-02  0.8334964E-01
       -1   -1    0    0    0  501  0.00000000000E+00  0.00000000000E+00  0.10751947714E+04  0.10751947714E+04  0.50400001928E-02 0. -1.
        1   -1    0    0  501    0  0.00000000000E+00  0.00000000000E+00 -0.16952000937E+04  0.16952000937E+04  0.50400001928E-02 0.  1.
    10030    2    1    2    0    0  0.00000000000E+00  0.00000000000E+00 -0.62000532230E+03  0.27703948651E+04  0.27001261283E+04 0.  0.
        4    1    3    3  502    0  0.11129546509E+04  0.52418108946E+03 -0.88056328900E+03  0.15128870375E+04  0.12699999809E+01 0. -1.
       -4    1    3    3    0  502 -0.11129546509E+04 -0.52418108946E+03  0.26055796670E+03  0.12575078275E+04  0.12699999809E+01 0.  1.
</event>
<event>
 5   0  0.1965415E-07  0.2701466E+04  0.7818609E-02  0.8334530E-01
        1   -1    0    0  501    0  0.00000000000E+00  0.00000000000E+00  0.27332669046E+04  0.27332669046E+04  0.50400001928E-02 0.  1.
       -1   -1    0    0    0  501  0.00000000000E+00  0.00000000000E+00 -0.66750859996E+03  0.66750859998E+03  0.50400001928E-02 0. -1.
    10030    2    1    2    0    0  0.00000000000E+00  0.00000000000E+00  0.20657583047E+04  0.34007755046E+04  0.27014656503E+04 0.  0.
        4    1    3    3  502    0  0.21253734936E+02 -0.32900857833E+03 -0.61607739569E+03  0.69874983810E+03  0.12699999809E+01 0. -1.
       -4    1    3    3    0  502 -0.21253734936E+02  0.32900857833E+03  0.26818357004E+04  0.27020256665E+04  0.12699999809E+01 0.  1.
</event>
<event>
 5   0  0.1964242E-07  0.2700166E+04  0.7818609E-02  0.8334951E-01
       -1   -1    0    0    0  501  0.00000000000E+00  0.00000000000E+00  0.66446594447E+03  0.66446594449E+03  0.50400001928E-02 0.  1.
        1   -1    0    0  501    0  0.00000000000E+00  0.00000000000E+00 -0.27431406460E+04  0.27431406460E+04  0.50400001928E-02 0. -1.
    10030    2    1    2    0    0  0.00000000000E+00  0.00000000000E+00 -0.20786747015E+04  0.34076065905E+04  0.27001655802E+04 0.  0.
        2    1    3    3  502    0  0.50306567969E+03 -0.12524169195E+04 -0.99747545316E+03  0.16782671116E+04  0.25500000920E-02 0.  1.
       -2    1    3    3    0  502 -0.50306567969E+03  0.12524169195E+04 -0.10811992483E+04  0.17293394788E+04  0.25500000920E-02 0. -1.
</event>
<event>
 5   0  0.4992668E-07  0.2699724E+04  0.7818609E-02  0.8335094E-01
       -2   -1    0    0    0  501  0.00000000000E+00  0.00000000000E+00  0.14810180654E+04  0.14810180654E+04  0.25500000920E-02 0. -1.
        2   -1    0    0  501    0  0.00000000000E+00  0.00000000000E+00 -0.12303209897E+04  0.12303209897E+04  0.25500000920E-02 0.  1.
    10030    2    1    2    0    0  0.00000000000E+00  0.00000000000E+00  0.25069707567E+03  0.27113390552E+04  0.26997241430E+04 0.  0.
        1    1    3    3  502    0 -0.58370660061E+03  0.41252074850E+03 -0.10246722072E+04  0.12493357818E+04  0.50400001928E-02 0.  1.
       -1    1    3    3    0  502  0.58370660061E+03 -0.41252074850E+03  0.12753692829E+04  0.14620032733E+04  0.50400001928E-02 0. -1.
</event>
<event>
 5   0  0.4843887E-07  0.2700318E+04  0.7818609E-02  0.8334902E-01
        2   -1    0    0  501    0  0.00000000000E+00  0.00000000000E+00  0.20556743906E+04  0.20556743906E+04  0.25500000920E-02 0.  1.
       -2   -1    0    0    0  501  0.00000000000E+00  0.00000000000E+00 -0.88677934957E+03  0.88677934957E+03  0.25500000920E-02 0. -1.
    10030    2    1    2    0    0  0.00000000000E+00  0.00000000000E+00  0.11688950411E+04  0.29424537402E+04  0.27003182028E+04 0.  0.
        5    1    3    3  502    0 -0.32097780752E+02  0.12083190869E+04  0.12399197897E+04  0.17316144081E+04  0.46999998093E+01 0.  1.
       -5    1    3    3    0  502  0.32097780752E+02 -0.12083190869E+04 -0.71024748650E+02  0.12108393321E+04  0.46999998093E+01 0. -1.
</event>
<event>
 5   0  0.5043890E-07  0.2700235E+04  0.7818609E-02  0.8334929E-01
       -2   -1    0    0    0  501  0.00000000000E+00  0.00000000000E+00  0.13688816013E+04  0.13688816013E+04  0.25500000920E-02 0. -1.
        2   -1    0    0  501    0  0.00000000000E+00  0.00000000000E+00 -0.13316106890E+04  0.13316106890E+04  0.25500000920E-02 0.  1.
    10030    2    1    2    0    0  0.00000000000E+00  0.00000000000E+00  0.37270912316E+02  0.27004922903E+04  0.27002350804E+04 0.  0.
        3    1    3    3  502    0 -0.12523779198E+04 -0.32421417677E+03 -0.36773290551E+03  0.13449136725E+04  0.10100000352E+00 0.  1.
       -3    1    3    3    0  502  0.12523779198E+04  0.32421417677E+03  0.40500381783E+03  0.13555786178E+04  0.10100000352E+00 0. -1.
</event>
<event>
 5   0  0.1888149E-07  0.2699754E+04  0.7818609E-02  0.8335085E-01
        1   -1    0    0  501    0  0.00000000000E+00  0.00000000000E+00  0.15575442657E+04  0.15575442657E+04  0.50400001928E-02 0.  1.
       -1   -1    0    0    0  501  0.00000000000E+00  0.00000000000E+00 -0.11698981846E+04  0.11698981846E+04  0.50400001928E-02 0. -1.
    10030    2    1    2    0    0  0.00000000000E+00  0.00000000000E+00  0.38764608112E+03  0.27274424503E+04  0.26997542177E+04 0.  0.
        1    1    3    3  502    0 -0.10761474323E+04 -0.75733592547E+03  0.49776939882E+03  0.14069205288E+04  0.50400001928E-02 0.  1.
       -1    1    3    3    0  502  0.10761474323E+04  0.75733592547E+03 -0.11012331770E+03  0.13205219215E+04  0.50400001928E-02 0. -1.
</event>
<event>
 5   0  0.4992668E-07  0.2699882E+04  0.7818609E-02  0.8335043E-01
       -2   -1    0    0    0  501  0.00000000000E+00  0.00000000000E+00  0.12347179015E+04  0.12347179015E+04  0.25500000920E-02 0.  1.
        2   -1    0    0  501    0  0.00000000000E+00  0.00000000000E+00 -0.14759165385E+04  0.14759165385E+04  0.25500000920E-02 0. -1.
    10030    2    1    2    0    0  0.00000000000E+00  0.00000000000E+00 -0.24119863700E+03  0.27106344399E+04  0.26998819020E+04 0.  0.
        1    1    3    3  502    0 -0.54042451484E+03  0.11794202878E+04  0.25404859455E+03  0.13219801662E+04  0.50400001928E-02 0.  1.
       -1    1    3    3    0  502  0.54042451484E+03 -0.11794202878E+04 -0.49524723155E+03  0.13886542737E+04  0.50400001928E-02 0. -1.
</event>
<event>
 5   0  0.1965415E-07  0.2699766E+04  0.7818609E-02  0.8335081E-01
       -1   -1    0    0    0  501  0.00000000000E+00  0.00000000000E+00  0.83032628945E+03  0.83032628946E+03  0.50400001928E-02 0. -1.
        1   -1    0    0  501    0  0.00000000000E+00  0.00000000000E+00 -0.21945398502E+04  0.21945398503E+04  0.50400001928E-02 0.  1.
    10030    2    1    2    0    0  0.00000000000E+00  0.00000000000E+00 -0.13642135608E+04  0.30248661397E+04  0.26997660128E+04 0.  0.
        4    1    3    3  502    0 -0.57822374519E+03  0.87832662296E+03 -0.16304213356E+04  0.19401225994E+04  0.12699999809E+01 0.  1.
       -4    1    3    3    0  502  0.57822374519E+03 -0.87832662296E+03  0.26620777478E+03  0.10847435404E+04  0.12699999809E+01 0. -1.
</event>
<event>
 5   0  0.5043890E-07  0.2712231E+04  0.7818609E-02  0.8331047E-01
       -2   -1    0    0    0  501  0.00000000000E+00  0.00000000000E+00  0.12088504965E+04  0.12088504965E+04  0.25500000920E-02 0.  1.
        2   -1    0    0  501    0  0.00000000000E+00  0.00000000000E+00 -0.15213208260E+04  0.15213208260E+04  0.25500000920E-02 0. -1.
    10030    2    1    2    0    0  0.00000000000E+00  0.00000000000E+00 -0.31247032958E+03  0.27301713225E+04  0.27122311375E+04 0.  0.
        3    1    3    3  502    0  0.47481833388E+03  0.85135251744E+03  0.79276047292E+03  0.12564723382E+04  0.10100000352E+00 0.  1.
       -3    1    3    3    0  502 -0.47481833388E+03 -0.85135251744E+03 -0.11052308025E+04  0.14736989842E+04  0.10100000352E+00 0. -1.
</event>
<event>
 5   0  0.4983208E-07  0.2699753E+04  0.7818609E-02  0.8335085E-01
        2   -1    0    0  501    0  0.00000000000E+00  0.00000000000E+00  0.10254046587E+04  0.10254046587E+04  0.25500000920E-02 0.  1.
       -2   -1    0    0    0  501  0.00000000000E+00  0.00000000000E+00 -0.17770224787E+04  0.17770224787E+04  0.25500000920E-02 0. -1.
    10030    2    1    2    0    0  0.00000000000E+00  0.00000000000E+00 -0.75161781999E+03  0.28024271373E+04  0.26997534170E+04 0.  0.
        4    1    3    3  502    0 -0.84420360065E+03 -0.48467716260E+03  0.59494348939E+03  0.11408553983E+04  0.12699999809E+01 0.  1.
       -4    1    3    3    0  502  0.84420360065E+03  0.48467716260E+03 -0.13465613094E+04  0.16615717391E+04  0.12699999809E+01 0. -1.
</event>
<event>
 5   0  0.1888149E-07  0.2700235E+04  0.7818609E-02  0.8334929E-01
        1   -1    0    0  501    0  0.00000000000E+00  0.00000000000E+00  0.62100920353E+03  0.62100920355E+03  0.50400001928E-02 0. -1.
       -1   -1    0    0    0  501  0.00000000000E+00  0.00000000000E+00 -0.29352494978E+04  0.29352494978E+04  0.50400001928E-02 0.  1.
    10030    2    1    2    0    0  0.00000000000E+00  0.00000000000E+00 -0.23142402942E+04  0.35562587013E+04  0.27002347697E+04 0.  0.
        1    1    3    3  502    0  0.25583638064E+03  0.12433525026E+04 -0.55152187204E+03  0.13840354312E+04  0.50400001928E-02 0. -1.
       -1    1    3    3    0  502 -0.25583638064E+03 -0.12433525026E+04 -0.17627184222E+04  0.21722232702E+04  0.50400001928E-02 0.  1.
</event>
<event>
 5   0  0.4992668E-07  0.2699813E+04  0.7818609E-02  0.8335066E-01
       -2   -1    0    0    0  501  0.00000000000E+00  0.00000000000E+00  0.15579857448E+04  0.15579857448E+04  0.25500000920E-02 0. -1.
        2   -1    0    0  501    0  0.00000000000E+00  0.00000000000E+00 -0.11696176673E+04  0.11696176673E+04  0.25500000920E-02 0.  1.
    10030    2    1    2    0    0  0.00000000000E+00  0.00000000000E+00  0.38836807753E+03  0.27276034121E+04  0.26998130695E+04 0.  0.
        1    1    3    3  502    0 -0.37879005586E+03 -0.75257282743E+03 -0.87137617777E+03  0.12120825922E+04  0.50400001928E-02 0.  1.
       -1    1    3    3    0  502  0.37879005586E+03  0.75257282743E+03  0.12597442553E+04  0.15155208200E+04  0.50400001928E-02 0. -1.
</event>
<event>
 5   0  0.1971600E-07  0.2698417E+04  0.7818609E-02  0.8335519E-01
        1   -1    0    0  501    0  0.00000000000E+00  0.00000000000E+00  0.15363379562E+04  0.15363379562E+04  0.50400001928E-02 0.  1.
       -1   -1    0    0    0  501  0.00000000000E+00  0.00000000000E+00 -0.11848717158E+04  0.11848717158E+04  0.50400001928E-02 0. -1.
    10030    2    1    2    0    0  0.00000000000E+00  0.00000000000E+00  0.35146624043E+03  0.27212096720E+04  0.26984168620E+04 0.  0.
        5    1    3    3  502    0  0.13348586888E+04  0.71843614630E+02  0.35984598956E+03  0.13843845023E+04  0.46999998093E+01 0.  1.
       -5    1    3    3    0  502 -0.13348586888E+04 -0.71843614630E+02 -0.83797491301E+01  0.13368251697E+04  0.46999998093E+01 0. -1.
</event>
<event>
 5   0  0.1971600E-07  0.2697475E+04  0.7818609E-02  0.8335825E-01
        1   -1    0    0  501    0  0.00000000000E+00  0.00000000000E+00  0.16937433851E+04  0.16937433851E+04  0.50400001928E-02 0. -1.
       -1   -1    0    0    0  501  0.00000000000E+00  0.00000000000E+00 -0.10740076809E+04  0.10740076809E+04  0.50400001928E-02 0.  1.
    10030    2    1    2    0    0  0.00000000000E+00  0.00000000000E+00  0.61973570414E+03  0.27677510660E+04  0.26974754161E+04 0.  0.
        5    1    3    3  502    0  0.54135121657E+03  0.10342825702E+04 -0.38320735767E+03  0.12286869185E+04  0.46999998093E+01 0.  1.
       -5    1    3    3    0  502 -0.54135121657E+03 -0.10342825702E+04  0.10029430618E+04  0.15390641475E+04  0.46999998093E+01 0. -1.
</event>
<event>
 5   0  0.1888149E-07  0.2706687E+04  0.7818609E-02  0.8332838E-01
       -1   -1    0    0    0  501  0.00000000000E+00  0.00000000000E+00  0.24399182711E+04  0.24399182711E+04  0.50400001928E-02 0. -1.
        1   -1    0    0  501    0  0.00000000000E+00  0.00000000000E+00 -0.75065581144E+03  0.75065581145E+03  0.50400001928E-02 0.  1.
    10030    2    1    2    0    0  0.00000000000E+00  0.00000000000E+00  0.16892624597E+04  0.31905740826E+04  0.27066871483E+04 0.  0.
        1    1    3    3  502    0  0.57613494866E+03 -0.10733729651E+04  0.14977601458E+03  0.12273931138E+04  0.50400001928E-02 0.  1.
       -1    1    3    3    0  502 -0.57613494866E+03  0.10733729651E+04  0.15394864451E+04  0.19631809688E+04  0.50400001928E-02 0. -1.
</event>
<event>
 5   0  0.1937896E-07  0.2701215E+04  0.7818609E-02  0.8334611E-01
        1   -1    0    0  501    0  0.00000000000E+00  0.00000000000E+00  0.12095989384E+04  0.12095989384E+04  0.50400001928E-02 0. -1.
       -1   -1    0    0    0  501  0.00000000000E+00  0.00000000000E+00 -0.15080544955E+04  0.15080544955E+04  0.50400001928E-02 0.  1.
    10030    2    1    2    0    0  0.00000000000E+00  0.00000000000E+00 -0.29845555714E+03  0.27176534339E+04  0.27012153685E+04 0.  0.
        3    1    3    3  502    0 -0.46361853277E+03 -0.12472627132E+04 -0.38201143981E+03  0.13843912633E+04  0.10100000352E+00 0. -1.
       -3    1    3    3    0  502  0.46361853277E+03  0.12472627132E+04  0.83555882668E+02  0.13332621705E+04  0.10100000352E+00 0.  1.
</event>
<event>
 5   0  0.1937896E-07  0.2699502E+04  0.7818609E-02  0.8335167E-01
       -1   -1    0    0    0  501  0.00000000000E+00  0.00000000000E+00  0.67054141348E+03  0.67054141350E+03  0.50400001928E-02 0.  1.
        1   -1    0    0  501    0  0.00000000000E+00  0.00000000000E+00 -0.27169497423E+04  0.27169497423E+04  0.50400001928E-02 0. -1.
    10030    2    1    2    0    0  0.00000000000E+00  0.00000000000E+00 -0.20464083288E+04  0.33874911558E+04  0.26995016730E+04 0.  0.
        3    1    3    3  502    0 -0.12009520993E+03 -0.13435760009E+04 -0.10821688818E+04  0.17293665975E+04  0.10100000352E+00 0. -1.
       -3    1    3    3    0  502  0.12009520993E+03  0.13435760009E+04 -0.96423944702E+03  0.16581245583E+04  0.10100000352E+00 0.  1.
</event>
<event>
 5   0  0.1965415E-07  0.2699563E+04  0.7818609E-02  0.8335147E-01
       -1   -1    0    0    0  501  0.00000000000E+00  0.00000000000E+00  0.10906001342E+04  0.10906001342E+04  0.50400001928E-02 0. -1.
        1   -1    0    0  501    0  0.00000000000E+00  0.00000000000E+00 -0.16705571413E+04  0.16705571413E+04  0.50400001928E-02 0.  1.
    10030    2    1    2    0    0  0.00000000000E+00  0.00000000000E+00 -0.57995700713E+03  0.27611572755E+04  0.26995628109E+04 0.  0.
        4    1    3    3  502    0 -0.30802159300E+03  0.10785216011E+04  0.47803481104E+03  0.12192641385E+04  0.12699999809E+01 0. -1.
       -4    1    3    3    0  502  0.30802159300E+03 -0.10785216011E+04 -0.10579918182E+04  0.15418931371E+04  0.12699999809E+01 0.  1.
</event>
<event>
 5   0  0.1937896E-07  0.2701061E+04  0.7818609E-02  0.8334661E-01
       -1   -1    0    0    0  501  0.00000000000E+00  0.00000000000E+00  0.81028854591E+03  0.81028854593E+03  0.50400001928E-02 0. -1.
        1   -1    0    0  501    0  0.00000000000E+00  0.00000000000E+00 -0.22509669747E+04  0.22509669747E+04  0.50400001928E-02 0.  1.
    10030    2    1    2    0    0  0.00000000000E+00  0.00000000000E+00 -0.14406784287E+04  0.30612555206E+04  0.27010610929E+04 0.  0.
        3    1    3    3  502    0 -0.11387122215E+04  0.39929244551E+03 -0.32969519758E+02  0.12071400001E+04  0.10100000352E+00 0. -1.
       -3    1    3    3    0  502  0.11387122215E+04 -0.39929244551E+03 -0.14077089090E+04  0.18541155204E+04  0.10100000352E+00 0.  1.
</event>
<event>
 5   0  0.1888149E-07  0.2699903E+04  0.7818609E-02  0.8335036E-01
        1   -1    0    0  501    0  0.00000000000E+00  0.00000000000E+00  0.27564299825E+04  0.27564299825E+04  0.50400001928E-02 0.  1.
       -1   -1    0    0    0  501  0.00000000000E+00  0.00000000000E+00 -0.66113394890E+03  0.66113394892E+03  0.50400001928E-02 0. -1.
    10030    2    1    2    0    0  0.00000000000E+00  0.00000000000E+00  0.20952960336E+04  0.34175639314E+04  0.26999032866E+04 0.  0.
        1    1    3    3  502    0  0.84789926528E+02 -0.89241308013E+03  0.23252878181E+04  0.24920982874E+04  0.50400001928E-02 0.  1.
       -1    1    3    3    0  502 -0.84789926528E+02  0.89241308013E+03 -0.22999178450E+03  0.92546564398E+03  0.50400001928E-02 0. -1.
</event>
<event>
 5   0  0.1971600E-07  0.2700103E+04  0.7818609E-02  0.8334972E-01
       -1   -1    0    0    0  501  0.00000000000E+00  0.00000000000E+00  0.11604905562E+04  0.11604905562E+04  0.50400001928E-02 0. -1.
        1   -1    0    0  501    0  0.00000000000E+00  0.00000000000E+00 -0.15705761720E+04  0.15705761720E+04  0.50400001928E-02 0.  1.
    10030    2    1    2    0    0  0.00000000000E+00  0.00000000000E+00 -0.41008561581E+03  0.27310667282E+04  0.27001028243E+04 0.  0.
        5    1    3    3  502    0 -0.14545174323E+02  0.44357083850E+03  0.10845884247E+04  0.11718877044E+04  0.46999998093E+01 0. -1.
       -5    1    3    3    0  502  0.14545174323E+02 -0.44357083850E+03 -0.14946740405E+04  0.15591790238E+04  0.46999998093E+01 0.  1.
</event>
<event>
 5   0  0.5043890E-07  0.2699919E+04  0.7818609E-02  0.8335031E-01
        2   -1    0    0  501    0  0.00000000000E+00  0.00000000000E+00  0.16103135550E+04  0.16103135550E+04  0.25500000920E-02 0. -1.
       -2   -1    0    0    0  501  0.00000000000E+00  0.00000000000E+00 -0.11316991734E+04  0.11316991734E+04  0.25500000920E-02 0.  1.
    10030    2    1    2    0    0  0.00000000000E+00  0.00000000000E+00  0.47861438161E+03  0.27420127284E+04  0.26999189018E+04 0.  0.
        3    1    3    3  502    0 -0.10072049664E+04  0.27996764126E+03  0.11067589277E+04  0.15224188184E+04  0.10100000352E+00 0. -1.
       -3    1    3    3    0  502  0.10072049664E+04 -0.27996764126E+03 -0.62814454606E+03  0.12195939100E+04  0.10100000352E+00 0.  1.
</event>
<event>
 5   0  0.4735120E-07  0.2701796E+04  0.7818609E-02  0.8334423E-01
       -2   -1    0    0    0  501  0.00000000000E+00  0.00000000000E+00  0.13921359436E+04  0.13921359436E+04  0.25500000920E-02 0. -1.
        2   -1    0    0  501    0  0.00000000000E+00  0.00000000000E+00 -0.13108814588E+04  0.13108814588E+04  0.25500000920E-02 0.  1.
    10030    2    1    2    0    0  0.00000000000E+00  0.00000000000E+00  0.81254484863E+02  0.27030174024E+04  0.27017958447E+04 0.  0.
        2    1    3    3  502    0 -0.40557101222E+03  0.11763963890E+04 -0.48547065357E+03  0.13356938517E+04  0.25500000920E-02 0.  1.
       -2    1    3    3    0  502  0.40557101222E+03 -0.11763963890E+04  0.56672513843E+03  0.13673235507E+04  0.25500000920E-02 0. -1.
</event>
<event>
 5   0  0.1971600E-07  0.2699814E+04  0.7818609E-02  0.8335065E-01
        1   -1    0    0  501    0  0.00000000000E+00  0.00000000000E+00  0.10962665696E+04  0.10962665696E+04  0.50400001928E-02 0.  1.
       -1   -1    0    0    0  501  0.00000000000E+00  0.00000000000E+00 -0.16622320651E+04  0.16622320651E+04  0.50400001928E-02 0. -1.
    10030    2    1    2    0    0  0.00000000000E+00  0.00000000000E+00 -0.56596549554E+03  0.27584986347E+04  0.26998143965E+04 0.  0.
        5    1    3    3  502    0 -0.33087456024E+03 -0.10953644439E+03 -0.16154583037E+04  0.16526354191E+04  0.46999998093E+01 0. -1.
       -5    1    3    3    0  502  0.33087456024E+03  0.10953644439E+03  0.10494928082E+04  0.11058632156E+04  0.46999998093E+01 0.  1.
</event>
<event>
 5   0  0.5043890E-07  0.2694640E+04  0.7818609E-02  0.8336746E-01
       -2   -1    0    0    0  501  0.00000000000E+00  0.00000000000E+00  0.84734600187E+03  0.84734600188E+03  0.25500000920E-02 0. -1.
        2   -1    0    0  501    0  0.00000000000E+00  0.00000000000E+00 -0.21423028316E+04  0.21423028316E+04  0.25500000920E-02 0.  1.
    10030    2    1    2    0    0  0.00000000000E+00  0.00000000000E+00 -0.12949568297E+04  0.29896488335E+04  0.26946404132E+04 0.  0.
        3    1    3    3  502    0 -0.45186189109E+03  0.12398119510E+04 -0.34575116001E+03  0.13641322214E+04  0.10100000352E+00 0.  1.
       -3    1    3    3    0  502  0.45186189109E+03 -0.12398119510E+04 -0.94920566968E+03  0.16255166121E+04  0.10100000352E+00 0. -1.
</event>
<event>
 5   0  0.4992668E-07  0.2699194E+04  0.7818609E-02  0.8335267E-01
        2   -1    0    0  501    0  0.00000000000E+00  0.00000000000E+00  0.16843521943E+04  0.16843521943E+04  0.25500000920E-02 0.  1.
       -2   -1    0    0    0  501  0.00000000000E+00  0.00000000000E+00 -0.10813723165E+04  0.10813723165E+04  0.25500000920E-02 0. -1.
    10030    2    1    2    0    0  0.00000000000E+00  0.00000000000E+00  0.60297987782E+03  0.27657245108E+04  0.26991938309E+04 0.  0.
        1    1    3    3  502    0 -0.13127188028E+04 -0.25377692385E+03  0.48980918886E+03  0.14239193881E+04  0.50400001928E-02 0.  1.
       -1    1    3    3    0  502  0.13127188028E+04  0.25377692385E+03  0.11317068896E+03  0.13418051227E+04  0.50400001928E-02 0. -1.
</event>
<event>
 5   0  0.4983208E-07  0.2701403E+04  0.7818609E-02  0.8334550E-01
       -2   -1    0    0    0  501  0.00000000000E+00  0.00000000000E+00  0.82099417209E+03  0.82099417209E+03  0.25500000920E-02 0. -1.
        2   -1    0    0  501    0  0.00000000000E+00  0.00000000000E+00 -0.22221771931E+04  0.22221771931E+04  0.25500000920E-02 0.  1.
    10030    2    1    2    0    0  0.00000000000E+00  0.00000000000E+00 -0.14011830210E+04  0.30431713652E+04  0.27014029873E+04 0.  0.
        4    1    3    3  502    0  0.79269544754E+03 -0.93793476698E+03 -0.13341550952E+04  0.18133006178E+04  0.12699999809E+01 0.  1.
       -4    1    3    3    0  502 -0.79269544754E+03  0.93793476698E+03 -0.67027925898E+02  0.12298707474E+04  0.12699999809E+01 0. -1.
</event>
<event>
 5   0  0.4735120E-07  0.2697565E+04  0.7818609E-02  0.8335796E-01
       -2   -1    0    0    0  501  0.00000000000E+00  0.00000000000E+00  0.11919436180E+04  0.11919436181E+04  0.25500000920E-02 0. -1.
        2   -1    0    0  501    0  0.00000000000E+00  0.00000000000E+00 -0.15262581135E+04  0.15262581135E+04  0.25500000920E-02 0.  1.
    10030    2    1    2    0    0  0.00000000000E+00  0.00000000000E+00 -0.33431449545E+03  0.27182017316E+04  0.26975645445E+04 0.  0.
        2    1    3    3  502    0  0.11271299105E+04 -0.68200845580E+03  0.12428937961E+03  0.13232555379E+04  0.25500000920E-02 0.  1.
       -2    1    3    3    0  502 -0.11271299105E+04  0.68200845580E+03 -0.45860387506E+03  0.13949461936E+04  0.25500000920E-02 0. -1.
</event>
<event>
 5   0  0.1971600E-07  0.2698228E+04  0.7818609E-02  0.8335580E-01
        1   -1    0    0  501    0  0.00000000000E+00  0.00000000000E+00  0.93403677148E+03  0.93403677149E+03  0.50400001928E-02 0.  1.
       -1   -1    0    0    0  501  0.00000000000E+00  0.00000000000E+00 -0.19486474867E+04  0.19486474867E+04  0.50400001928E-02 0. -1.
    10030    2    1    2    0    0  0.00000000000E+00  0.00000000000E+00 -0.10146107152E+04  0.28826842582E+04  0.26982278682E+04 0.  0.
        5    1    3    3  502    0  0.39396786288E+03 -0.12901943964E+04 -0.52499182388E+03  0.14475671876E+04  0.46999998093E+01 0. -1.
       -5    1    3    3    0  502 -0.39396786288E+03  0.12901943964E+04 -0.48961889130E+03  0.14351170706E+04  0.46999998093E+01 0.  1.
</event>
<event>
 5   0  0.4735120E-07  0.2699096E+04  0.7818609E-02  0.8335298E-01
        2   -1    0    0  501    0  0.00000000000E+00  0.00000000000E+00  0.26593159825E+04  0.26593159825E+04  0.25500000920E-02 0. -1.
       -2   -1    0    0    0  501  0.00000000000E+00  0.00000000000E+00 -0.68486780980E+03  0.68486780980E+03  0.25500000920E-02 0.  1.
    10030    2    1    2    0    0  0.00000000000E+00  0.00000000000E+00  0.19744481727E+04  0.33441837923E+04  0.26990960802E+04 0.  0.
        2    1    3    3  502    0 -0.10614064303E+04 -0.57218860978E+03  0.17381207704E+04  0.21154307429E+04  0.25500000920E-02 0. -1.
       -2    1    3    3    0  502  0.10614064303E+04  0.57218860978E+03  0.23632740229E+03  0.12287530494E+04  0.25500000920E-02 0.  1.
</event>
<event>
 5   0  0.1971600E-07  0.2699319E+04  0.7818609E-02  0.8335226E-01
       -1   -1    0    0    0  501  0.00000000000E+00  0.00000000000E+00  0.10904103608E+04  0.10904103608E+04  0.50400001928E-02 0.  1.
        1   -1    0    0  501    0  0.00000000000E+00  0.00000000000E+00 -0.16705464154E+04  0.16705464154E+04  0.50400001928E-02 0. -1.
    10030    2    1    2    0    0  0.00000000000E+00  0.00000000000E+00 -0.58013605465E+03  0.27609567762E+04  0.26993192620E+04 0.  0.
        5    1    3    3  502    0 -0.11935966670E+04 -0.55273156105E+03 -0.59925152784E+03  0.14454444527E+04  0.46999998093E+01 0. -1.
       -5    1    3    3    0  502  0.11935966670E+04  0.55273156105E+03  0.19115473194E+02  0.13155123235E+04  0.46999998093E+01 0.  1.
</event>
<event>
 5   0  0.1965415E-07  0.2701826E+04  0.7818609E-02  0.8334413E-01
       -1   -1    0    0    0  501  0.00000000000E+00  0.00000000000E+00  0.11085152060E+04  0.11085152060E+04  0.50400001928E-02 0. -1.
        1   -1    0    0  501    0  0.00000000000E+00  0.00000000000E+00 -0.16463160476E+04  0.16463160476E+04  0.50400001928E-02 0.  1.
    10030    2    1    2    0    0  0.00000000000E+00  0.00000000000E+00 -0.53780084160E+03  0.27548312537E+04  0.27018263251E+04 0.  0.
        4    1    3    3  502    0  0.23260871622E+03 -0.13011934056E+04 -0.55321426686E+03  0.14329196529E+04  0.12699999809E+01 0.  1.
       -4    1    3    3    0  502 -0.23260871622E+03  0.13011934056E+04  0.15413425257E+02  0.13219116008E+04  0.12699999809E+01 0. -1.
</event>
<event>
 5   0  0.1964242E-07  0.2699207E+04  0.7818609E-02  0.8335262E-01
        1   -1    0    0  501    0  0.00000000000E+00  0.00000000000E+00  0.19406579151E+04  0.19406579151E+04  0.50400001928E-02 0. -1.
       -1   -1    0    0    0  501  0.00000000000E+00  0.00000000000E+00 -0.93856320753E+03  0.93856320754E+03  0.50400001928E-02 0.  1.
    10030    2    1    2    0    0  0.00000000000E+00  0.00000000000E+00  0.10020947076E+04  0.28792211227E+04  0.26992073782E+04 0.  0.
        2    1    3    3  502    0  0.12034636527E+04 -0.30538659286E+03  0.10653304811E+04  0.16360057361E+04  0.25500000920E-02 0.  1.
       -2    1    3    3    0  502 -0.12034636527E+04  0.30538659286E+03 -0.63235773476E+02  0.12432153866E+04  0.25500000920E-02 0. -1.
</event>
<event>
 5   0  0.1965415E-07  0.2697025E+04  0.7818609E-02  0.8335971E-01
        1   -1    0    0  501    0  0.00000000000E+00  0.00000000000E+00  0.22541992021E+04  0.22541992021E+04  0.50400001928E-02 0. -1.
       -1   -1    0    0    0  501  0.00000000000E+00  0.00000000000E+00 -0.80671017809E+03  0.80671017810E+03  0.50400001928E-02 0.  1.
    10030    2    1    2    0    0  0.00000000000E+00  0.00000000000E+00  0.14474890240E+04  0.30609093802E+04  0.26970246123E+04 0.  0.
        4    1    3    3  502    0  0.67935145496E+03 -0.40084593510E+03 -0.51757456312E+03  0.94344099144E+03  0.12699999809E+01 0.  1.
       -4    1    3    3    0  502 -0.67935145496E+03  0.40084593510E+03  0.19650635871E+04  0.21174683888E+04  0.12699999809E+01 0. -1.
</event>
<event>
 5   0  0.4992668E-07  0.2700606E+04  0.7818609E-02  0.8334808E-01
        2   -1    0    0  501    0  0.00000000000E+00  0.00000000000E+00  0.10837668399E+04  0.10837668399E+04  0.25500000920E-02 0. -1.
       -2   -1    0    0    0  501  0.00000000000E+00  0.00000000000E+00 -0.16823900167E+04  0.16823900167E+04  0.25500000920E-02 0.  1.
    10030    2    1    2    0    0  0.00000000000E+00  0.00000000000E+00 -0.59862317677E+03  0.27661568566E+04  0.27006062370E+04 0.  0.
        1    1    3    3  502    0  0.31015894426E+03  0.13298388737E+03  0.10398773757E+04  0.10932649457E+04  0.50400001928E-02 0. -1.
       -1    1    3    3    0  502 -0.31015894426E+03 -0.13298388737E+03 -0.16385005525E+04  0.16728919109E+04  0.50400001928E-02 0.  1.
</event>
<event>
 5   0  0.4983208E-07  0.2699419E+04  0.7818609E-02  0.8335194E-01
        2   -1    0    0  501    0  0.00000000000E+00  0.00000000000E+00  0.96440657495E+03  0.96440657496E+03  0.25500000920E-02 0.  1.
       -2   -1    0    0    0  501  0.00000000000E+00  0.00000000000E+00 -0.18889499047E+04  0.18889499047E+04  0.25500000920E-02 0. -1.
    10030    2    1    2    0    0  0.00000000000E+00  0.00000000000E+00 -0.92454332978E+03  0.28533564797E+04  0.26994189804E+04 0.  0.
        4    1    3    3  502    0 -0.43191592744E+03  0.97375445332E+03  0.41382704019E+03  0.11428051172E+04  0.12699999809E+01 0.  1.
       -4    1    3    3    0  502  0.43191592744E+03 -0.97375445332E+03 -0.13383703700E+04  0.17105513625E+04  0.12699999809E+01 0. -1.
</event>
<event>
 5   0  0.1937896E-07  0.2698950E+04  0.7818609E-02  0.8335346E-01
       -1   -1    0    0    0  501  0.00000000000E+00  0.00000000000E+00  0.16112103268E+04  0.16112103268E+04  0.50400001928E-02 0.  1.
        1   -1    0    0  501    0  0.00000000000E+00  0.00000000000E+00 -0.11302574624E+04  0.11302574624E+04  0.50400001928E-02 0. -1.
    10030    2    1    2    0    0  0.00000000000E+00  0.00000000000E+00  0.48095286443E+03  0.27414677892E+04  0.26989497923E+04 0.  0.
        3    1    3    3  502    0 -0.25201254549E+03  0.64853602071E+03  0.14149674277E+04  0.15767822059E+04  0.10100000352E+00 0.  1.
       -3    1    3    3    0  502  0.25201254549E+03 -0.64853602071E+03 -0.93401456330E+03  0.11646855833E+04  0.10100000352E+00 0. -1.
</event>
<event>
 5   0  0.5043890E-07  0.2703011E+04  0.7818609E-02  0.8334029E-01
       -2   -1    0    0    0  501  0.00000000000E+00  0.00000000000E+00  0.72597516338E+03  0.72597516338E+03  0.25500000920E-02 0. -1.
        2   -1    0    0  501    0  0.00000000000E+00  0.00000000000E+00 -0.25160190692E+04  0.25160190692E+04  0.25500000920E-02 0.  1.
    10030    2    1    2    0    0  0.00000000000E+00  0.00000000000E+00 -0.17900439058E+04  0.32419942325E+04  0.27030111763E+04 0.  0.
        3    1    3    3  502    0  0.25553275728E+03 -0.67199478738E+03  0.47759452887E+03  0.86311675254E+03  0.10100000352E+00 0. -1.
       -3    1    3    3    0  502 -0.25553275728E+03  0.67199478738E+03 -0.22676384347E+04  0.23788774800E+04  0.10100000352E+00 0.  1.
</event>
<event>
 5   0  0.1937896E-07  0.2698501E+04  0.7818609E-02  0.8335491E-01
       -1   -1    0    0    0  501  0.00000000000E+00  0.00000000000E+00  0.15420684581E+04  0.15420684581E+04  0.50400001928E-02 0. -1.
        1   -1    0    0  501    0  0.00000000000E+00  0.00000000000E+00 -0.11805424567E+04  0.11805424567E+04  0.50400001928E-02 0.  1.
    10030    2    1    2    0    0  0.00000000000E+00  0.00000000000E+00  0.36152600148E+03  0.27226109148E+04  0.26985012773E+04 0.  0.
        3    1    3    3  502    0 -0.58352439426E+03  0.11670154962E+04 -0.16589282500E+03  0.13152742401E+04  0.10100000352E+00 0.  1.
       -3    1    3    3    0  502  0.58352439426E+03 -0.11670154962E+04  0.52741882648E+03  0.14073366747E+04  0.10100000352E+00 0. -1.
</event>
<event>
 5   0  0.1964242E-07  0.2700533E+04  0.7818609E-02  0.8334832E-01
       -1   -1    0    0    0  501  0.00000000000E+00  0.00000000000E+00  0.12017490283E+04  0.12017490283E+04  0.50400001928E-02 0. -1.
        1   -1    0    0  501    0  0.00000000000E+00  0.00000000000E+00 -0.15171388075E+04  0.15171388075E+04  0.50400001928E-02 0.  1.
    10030    2    1    2    0    0  0.00000000000E+00  0.00000000000E+00 -0.31538977928E+03  0.27188878358E+04  0.27005333456E+04 0.  0.
        2    1    3    3  502    0 -0.12187191757E+04  0.51262601589E+03 -0.43370818935E+03  0.13914613379E+04  0.25500000920E-02 0. -1.
       -2    1    3    3    0  502  0.12187191757E+04 -0.51262601589E+03  0.11831841007E+03  0.13274264979E+04  0.25500000920E-02 0.  1.
</event>
<event>
 5   0  0.4735120E-07  0.2699886E+04  0.7818609E-02  0.8335042E-01
        2   -1    0    0  501    0  0.00000000000E+00  0.00000000000E+00  0.17399854584E+04  0.17399854584E+04  0.25500000920E-02 0. -1.
       -2   -1    0    0    0  501  0.00000000000E+00  0.00000000000E+00 -0.10473338985E+04  0.10473338985E+04  0.25500000920E-02 0.  1.
    10030    2    1    2    0    0  0.00000000000E+00  0.00000000000E+00  0.69265155991E+03  0.27873193569E+04  0.26998857409E+04 0.  0.
        2    1    3    3  502    0 -0.81119260872E+02  0.99290026444E+03  0.12868240860E+04  0.16273744184E+04  0.25500000920E-02 0. -1.
       -2    1    3    3    0  502  0.81119260872E+02 -0.99290026444E+03 -0.59417252604E+03  0.11599449385E+04  0.25500000920E-02 0.  1.
</event>
<event>
 5   0  0.1641625E-07  0.2696949E+04  0.7818609E-02  0.8335996E-01
       -3   -1    0    0    0  501  0.00000000000E+00  0.00000000000E+00  0.17108449832E+04  0.17108449862E+04  0.10100000352E+00 0. -1.
        3   -1    0    0  501    0  0.00000000000E+00  0.00000000000E+00 -0.10628565499E+04  0.10628565547E+04  0.10100000352E+00 0.  1.
    10030    2    1    2    0    0  0.00000000000E+00  0.00000000000E+00  0.64798843334E+03  0.27737015408E+04  0.26969485030E+04 0.  0.
        4    1    3    3  502    0 -0.11110935405E+04  0.73583332734E+03  0.53577105812E+03  0.14363257920E+04  0.12699999809E+01 0. -1.
       -4    1    3    3    0  502  0.11110935405E+04 -0.73583332734E+03  0.11221737521E+03  0.13373757488E+04  0.12699999809E+01 0.  1.
</event>
<event>
 5   0  0.1888149E-07  0.2699531E+04  0.7818609E-02  0.8335157E-01
       -1   -1    0    0    0  501  0.00000000000E+00  0.00000000000E+00  0.18815868623E+04  0.18815868623E+04  0.50400001928E-02 0.  1.
        1   -1    0    0  501    0  0.00000000000E+00  0.00000000000E+00 -0.96826103074E+03  0.96826103076E+03  0.50400001928E-02 0. -1.
    10030    2    1    2    0    0  0.00000000000E+00  0.00000000000E+00  0.91332583154E+03  0.28498478930E+04  0.26995312443E+04 0.  0.
        1    1    3    3  502    0  0.73960176465E+03  0.61166048468E+03 -0.54525036595E+03  0.11038284651E+04  0.50400001928E-02 0. -1.
       -1    1    3    3    0  502 -0.73960176465E+03 -0.61166048468E+03  0.14585761975E+04  0.17460194279E+04  0.50400001928E-02 0.  1.
</event>
<event>
 5   0  0.4983208E-07  0.2699664E+04  0.7818609E-02  0.8335114E-01
        2   -1    0    0  501    0  0.00000000000E+00  0.00000000000E+00  0.96408692592E+03  0.96408692592E+03  0.25500000920E-02 0. -1.
       -2   -1    0    0    0  501  0.00000000000E+00  0.00000000000E+00 -0.18899194983E+04  0.18899194983E+04  0.25500000920E-02 0.  1.
    10030    2    1    2    0    0  0.00000000000E+00  0.00000000000E+00 -0.92583257241E+03  0.28540064243E+04  0.26996641861E+04 0.  0.
        4    1    3    3  502    0  0.85119397311E+03 -0.23892486821E+03  0.61541295597E+03  0.10771958929E+04  0.12699999809E+01 0. -1.
       -4    1    3    3    0  502 -0.85119397311E+03  0.23892486821E+03 -0.15412455284E+04  0.17768105313E+04  0.12699999809E+01 0.  1.
</event>
<event>
 5   0  0.1888149E-07  0.2699455E+04  0.7818609E-02  0.8335182E-01
        1   -1    0    0  501    0  0.00000000000E+00  0.00000000000E+00  0.69844078348E+03  0.69844078350E+03  0.50400001928E-02 0.  1.
       -1   -1    0    0    0  501  0.00000000000E+00  0.00000000000E+00 -0.26083308666E+04  0.26083308666E+04  0.50400001928E-02 0. -1.
    10030    2    1    2    0    0  0.00000000000E+00  0.00000000000E+00 -0.19098900831E+04  0.33067716501E+04  0.26994552444E+04 0.  0.
        1    1    3    3  502    0 -0.10408741713E+04  0.17025786316E+03  0.76772396288E+02  0.10574974144E+04  0.50400001928E-02 0.  1.
       -1    1    3    3    0  502  0.10408741713E+04 -0.17025786316E+03 -0.19866624794E+04  0.22492742357E+04  0.50400001928E-02 0. -1.
</event>
<event>
 5   0  0.4983208E-07  0.2699327E+04  0.7818609E-02  0.8335223E-01
       -2   -1    0    0    0  501  0.00000000000E+00  0.00000000000E+00  0.21227487766E+04  0.21227487766E+04  0.25500000920E-02 0.  1.
        2   -1    0    0  501    0  0.00000000000E+00  0.00000000000E+00 -0.85812844515E+03  0.85812844515E+03  0.25500000920E-02 0. -1.
    10030    2    1    2    0    0  0.00000000000E+00  0.00000000000E+00  0.12646203315E+04  0.29808772218E+04  0.26993266621E+04 0.  0.
        4    1    3    3  502    0  0.10571152955E+04  0.20858503979E+03  0.15298512183E+04  0.18712153350E+04  0.12699999809E+01 0.  1.
       -4    1    3    3    0  502 -0.10571152955E+04 -0.20858503979E+03 -0.26523088683E+03  0.11096618868E+04  0.12699999809E+01 0. -1.
</event>
<event>
 5   0  0.4843887E-07  0.2701115E+04  0.7818609E-02  0.8334643E-01
       -2   -1    0    0    0  501  0.00000000000E+00  0.00000000000E+00  0.10504894510E+04  0.10504894511E+04  0.25500000920E-02 0.  1.
        2   -1    0    0  501    0  0.00000000000E+00  0.00000000000E+00 -0.17363389263E+04  0.17363389263E+04  0.25500000920E-02 0. -1.
    10030    2    1    2    0    0  0.00000000000E+00  0.00000000000E+00 -0.68584947521E+03  0.27868283773E+04  0.27011151219E+04 0.  0.
        5    1    3    3  502    0 -0.11041598419E+04 -0.73502692310E+03 -0.60505405330E+03  0.14579252490E+04  0.46999998093E+01 0. -1.
       -5    1    3    3    0  502  0.11041598419E+04  0.73502692310E+03 -0.80795421910E+02  0.13289031283E+04  0.46999998093E+01 0.  1.
</event>
<event>
 5   0  0.1965415E-07  0.2699359E+04  0.7818609E-02  0.8335213E-01
        1   -1    0    0  501    0  0.00000000000E+00  0.00000000000E+00  0.19014150030E+04  0.19014150030E+04  0.50400001928E-02 0.  1.
       -1   -1    0    0    0  501  0.00000000000E+00  0.00000000000E+00 -0.95804191622E+03  0.95804191623E+03  0.50400001928E-02 0. -1.
    10030    2    1    2    0    0  0.00000000000E+00  0.00000000000E+00  0.94337308673E+03  0.28594569192E+04  0.26993593855E+04 0.  0.
        4    1    3    3  502    0  0.51842742444E+03 -0.19731321580E+03  0.17750824204E+04  0.18597361941E+04  0.12699999809E+01 0.  1.
       -4    1    3    3    0  502 -0.51842742444E+03  0.19731321580E+03 -0.83170933367E+03  0.99972072508E+03  0.12699999809E+01 0. -1.
</event>
<event>
 5   0  0.4843887E-07  0.2699725E+04  0.7818609E-02  0.8335094E-01
        2   -1    0    0  501    0  0.00000000000E+00  0.00000000000E+00  0.13113715402E+04  0.13113715402E+04  0.25500000920E-02 0. -1.
       -2   -1    0    0    0  501  0.00000000000E+00  0.00000000000E+00 -0.13894834521E+04  0.13894834521E+04  0.25500000920E-02 0.  1.
    10030    2    1    2    0    0  0.00000000000E+00  0.00000000000E+00 -0.78111911836E+02  0.27008549923E+04  0.26997252117E+04 0.  0.
        5    1    3    3  502    0  0.72833002093E+02  0.90574732689E+03 -0.10376841348E+04  0.13793090009E+04  0.46999998093E+01 0.  1.
       -5    1    3    3    0  502 -0.72833002093E+02 -0.90574732689E+03  0.95957222295E+03  0.13215459914E+04  0.46999998093E+01 0. -1.
</event>
<event>
 5   0  0.1964242E-07  0.2700997E+04  0.7818609E-02  0.8334682E-01
        1   -1    0    0  501    0  0.00000000000E+00  0.00000000000E+00  0.13611052645E+04  0.13611052645E+04  0.50400001928E-02 0.  1.
       -1   -1    0    0    0  501  0.00000000000E+00  0.00000000000E+00 -0.13399741317E+04  0.13399741317E+04  0.50400001928E-02 0. -1.
    10030    2    1    2    0    0  0.00000000000E+00  0.00000000000E+00  0.21131132780E+02  0.27010793962E+04  0.27009967382E+04 0.  0.
        2    1    3    3  502    0 -0.96451115399E+03  0.59834329721E+03  0.74240035411E+03  0.13562650011E+04  0.25500000920E-02 0.  1.
       -2    1    3    3    0  502  0.96451115399E+03 -0.59834329721E+03 -0.72126922133E+03  0.13448143950E+04  0.25500000920E-02 0. -1.
</event>
<event>
 5   0  0.4735120E-07  0.2701988E+04  0.7818609E-02  0.8334360E-01
       -2   -1    0    0    0  501  0.00000000000E+00  0.00000000000E+00  0.92398549216E+03  0.92398549216E+03  0.25500000920E-02 0.  1.
        2   -1    0    0  501    0  0.00000000000E+00  0.00000000000E+00 -0.19753395713E+04  0.19753395714E+04  0.25500000920E-02 0. -1.
    10030    2    1    2    0    0  0.00000000000E+00  0.00000000000E+00 -0.10513540792E+04  0.28993250635E+04  0.27019882354E+04 0.  0.
        2    1    3    3  502    0 -0.76174200521E+03 -0.74068862092E+03  0.36972113317E+03  0.11249729917E+04  0.25500000920E-02 0.  1.
       -2    1    3    3    0  502  0.76174200521E+03  0.74068862092E+03 -0.14210752124E+04  0.17743520718E+04  0.25500000920E-02 0. -1.
</event>
<event>
 5   0  0.1971600E-07  0.2699630E+04  0.7818609E-02  0.8335125E-01
        1   -1    0    0  501    0  0.00000000000E+00  0.00000000000E+00  0.17885761961E+04  0.17885761961E+04  0.50400001928E-02 0.  1.
       -1   -1    0    0    0  501  0.00000000000E+00  0.00000000000E+00 -0.10186873561E+04  0.10186873561E+04  0.50400001928E-02 0. -1.
    10030    2    1    2    0    0  0.00000000000E+00  0.00000000000E+00  0.76988883997E+03  0.28072635522E+04  0.26996295719E+04 0.  0.
        5    1    3    3  502    0  0.31236772599E+03 -0.86232393220E+03  0.14147840889E+04  0.16860641353E+04  0.46999998093E+01 0.  1.
       -5    1    3    3    0  502 -0.31236772599E+03  0.86232393220E+03 -0.64489524891E+03  0.11211994168E+04  0.46999998093E+01 0. -1.
</event>
</LesHouchesEvents>
