<LesHouchesEvents version="3.0">
<header>
<!--
#*********************************************************************
#                                                                    *
#                        MadGraph5_aMC@NLO                           *
#                                                                    *
#                           Going Beyond                             *
#                                                                    *
#                   http://madgraph.hep.uiuc.edu                     *
#                   http://madgraph.phys.ucl.ac.be                   *
#                   http://amcatnlo.cern.ch                          *
#                                                                    *
#                     The MadGraph5_aMC@NLO team                     *
#                                                                    *
#....................................................................*
#                                                                    *
# This file contains all the information necessary to reproduce      *
# the events generated:                                              *
#                                                                    *
# 1. software version                                                *
# 2. proc_card          : code generation info including model       *
# 3. param_card         : model primary parameters in the LH format  *
# 4. run_card           : running parameters (collider and cuts)     *
# 5. pythia_card        : present only if pythia has been run        *
# 6. pgs_card           : present only if pgs has been run           *
# 7. delphes_cards      : present only if delphes has been run       *
#                                                                    *
#                                                                    *
#*********************************************************************
-->
<MGVersion>
#5.2.2.3
</MGVersion>
<MG5ProcCard>
#************************************************************
#*                     MadGraph5_aMC@NLO                    *
#*                                                          *
#*                *                       *                 *
#*                  *        * *        *                   *
#*                    * * * * 5 * * * *                     *
#*                  *        * *        *                   *
#*                *                       *                 *
#*                                                          *
#*                                                          *
#*         VERSION 2.2.3                 2015-02-10         *
#*                                                          *
#*    The MadGraph5_aMC@NLO Development Team - Find us at   *
#*    https://server06.fynu.ucl.ac.be/projects/madgraph     *
#*                                                          *
#************************************************************
#*                                                          *
#*               Command File for MadGraph5_aMC@NLO         *
#*                                                          *
#*     run as ./bin/mg5_aMC  filename                       *
#*                                                          *
#************************************************************
set group_subprocesses Auto
set ignore_six_quark_processes False
set loop_optimized_output True
set gauge unitary
set complex_mass_scheme False
import model sm
define p = g u c d s u~ c~ d~ s~
define j = g u c d s u~ c~ d~ s~
define l+ = e+ mu+
define l- = e- mu-
define vl = ve vm vt
define vl~ = ve~ vm~ vt~
import model Zprime_UFO
generate p p > zph, zph > j j
add process p p > zph, zph > b b~
output Dijet_signal
</MG5ProcCard>
<MGProcCard>
#*********************************************************************
#                        MadGraph/MadEvent                           *
#                   http://madgraph.hep.uiuc.edu                     *
#                                                                    *
#                          proc_card.dat                             *
#*********************************************************************
#                                                                    *
#            This Files is generated by MADGRAPH 5                   *
#                                                                    *
# WARNING: This Files is generated for MADEVENT (compatibility issue)*
#          This files is NOT a valid MG4 proc_card.dat               *
#          Running this in MG4 will NEVER reproduce the result of MG5*
#                                                                    *
#*********************************************************************
#*********************************************************************
# Process(es) requested : mg2 input                                  *
#*********************************************************************
# Begin PROCESS # This is TAG. Do not modify this line
p p > zph , zph > j j           #Process
# Be carefull the coupling are here in MG5 convention
          
end_coup           # End the couplings input

done               # this tells MG there are no more procs
# End PROCESS  # This is TAG. Do not modify this line
#*********************************************************************
# Model information                                                  *
#*********************************************************************
# Begin MODEL  # This is TAG. Do not modify this line
Zprime_UFO
# End   MODEL  # This is TAG. Do not modify this line
#*********************************************************************
# Start multiparticle definitions                                    *
#*********************************************************************
# Begin MULTIPARTICLES # This is TAG. Do not modify this line

# End  MULTIPARTICLES # This is TAG. Do not modify this line
</MGProcCard>
<MGRunCard>
#*********************************************************************
#                       MadGraph5_aMC@NLO                            *
#                                                                    *
#                     run_card.dat MadEvent                          *
#                                                                    *
#  This file is used to set the parameters of the run.               *
#                                                                    *
#  Some notation/conventions:                                        *
#                                                                    *
#   Lines starting with a '# ' are info or comments                  *
#                                                                    *
#   mind the format:   value    = variable     ! comment             *
#*********************************************************************
#
#*******************                                                 
# Running parameters
#*******************                                                 
#                                                                    
#*********************************************************************
# Tag name for the run (one word)                                    *
#*********************************************************************
  tag_1     = run_tag ! name of the run 
#*********************************************************************
# Run to generate the grid pack                                      *
#*********************************************************************
  .false.     = gridpack  !True = setting up the grid pack
#*********************************************************************
# Number of events and rnd seed                                      *
# Warning: Do not generate more than 1M events in a single run       *
# If you want to run Pythia, avoid more than 50k events in a run.    *
#*********************************************************************
  2000 = nevents ! Number of unweighted events requested 
 2874 = iseed   ! rnd seed (0=assigned automatically=default))
#*********************************************************************
# Collider type and energy                                           *
# lpp: 0=No PDF, 1=proton, -1=antiproton, 2=photon from proton,      *
#                                         3=photon from electron     *
#*********************************************************************
        1     = lpp1    ! beam 1 type 
        1     = lpp2    ! beam 2 type
     4000     = ebeam1  ! beam 1 total energy in GeV
     4000     = ebeam2  ! beam 2 total energy in GeV
#*********************************************************************
# Beam polarization from -100 (left-handed) to 100 (right-handed)    *
#*********************************************************************
        0     = polbeam1 ! beam polarization for beam 1
        0     = polbeam2 ! beam polarization for beam 2
#*********************************************************************
# PDF CHOICE: this automatically fixes also alpha_s and its evol.    *
#*********************************************************************
 'nn23lo1'    = pdlabel     ! PDF set                                     
 230000    = lhaid     ! if pdlabel=lhapdf, this is the lhapdf number
#*********************************************************************
# Renormalization and factorization scales                           *
#*********************************************************************
 F        = fixed_ren_scale  ! if .true. use fixed ren scale
 F        = fixed_fac_scale  ! if .true. use fixed fac scale
 91.1880  = scale            ! fixed ren scale
 91.1880  = dsqrt_q2fact1    ! fixed fact scale for pdf1
 91.1880  = dsqrt_q2fact2    ! fixed fact scale for pdf2
 1        = scalefact        ! scale factor for event-by-event scales
#*********************************************************************
# Matching - Warning! ickkw > 1 is still beta
#*********************************************************************
 0        = ickkw            ! 0 no matching, 1 MLM, 2 CKKW matching
 1        = highestmult      ! for ickkw=2, highest mult group
 1        = ktscheme         ! for ickkw=1, 1 Durham kT, 2 Pythia pTE
 1        = alpsfact         ! scale factor for QCD emission vx
 F        = chcluster        ! cluster only according to channel diag
 T        = pdfwgt           ! for ickkw=1, perform pdf reweighting
 5        = asrwgtflavor     ! highest quark flavor for a_s reweight
 T        = clusinfo         ! include clustering tag in output
 3.0      = lhe_version       ! Change the way clustering information pass to shower.        
#*********************************************************************
#**********************************************************
#
#**********************************************************
# Automatic ptj and mjj cuts if xqcut > 0
# (turn off for VBF and single top processes)
#**********************************************************
   T  = auto_ptj_mjj  ! Automatic setting of ptj and mjj
#**********************************************************
#                                                                    
#**********************************
# BW cutoff (M+/-bwcutoff*Gamma)
#**********************************
  15  = bwcutoff      ! (M+/-bwcutoff*Gamma)
#**********************************************************
# Apply pt/E/eta/dr/mij cuts on decay products or not
# (note that etmiss/ptll/ptheavy/ht/sorted cuts always apply)
#**********************************************************
   T  = cut_decays    ! Cut decay products 
#*************************************************************
# Number of helicities to sum per event (0 = all helicities)
# 0 gives more stable result, but longer run time (needed for
# long decay chains e.g.).
# Use >=2 if most helicities contribute, e.g. pure QCD.
#*************************************************************
   0  = nhel          ! Number of helicities used per event
#*******************                                                 
# Standard Cuts
#*******************                                                 
#                                                                    
#*********************************************************************
# Minimum and maximum pt's (for max, -1 means no cut)                *
#*********************************************************************
 20  = ptj       ! minimum pt for the jets 
  0  = ptb       ! minimum pt for the b 
 10  = pta       ! minimum pt for the photons 
 10  = ptl       ! minimum pt for the charged leptons 
  0  = misset    ! minimum missing Et (sum of neutrino's momenta)
  0  = ptheavy   ! minimum pt for one heavy final state
 1.0 = ptonium   ! minimum pt for the quarkonium states
 -1  = ptjmax    ! maximum pt for the jets
 -1  = ptbmax    ! maximum pt for the b
 -1  = ptamax    ! maximum pt for the photons
 -1  = ptlmax    ! maximum pt for the charged leptons
 -1  = missetmax ! maximum missing Et (sum of neutrino's momenta)
#*********************************************************************
# Minimum and maximum E's (in the center of mass frame)              *
#*********************************************************************
  0  = ej     ! minimum E for the jets 
  0  = eb     ! minimum E for the b 
  0  = ea     ! minimum E for the photons 
  0  = el     ! minimum E for the charged leptons 
 -1   = ejmax ! maximum E for the jets
 -1   = ebmax ! maximum E for the b
 -1   = eamax ! maximum E for the photons
 -1   = elmax ! maximum E for the charged leptons
#*********************************************************************
# Maximum and minimum absolute rapidity (for max, -1 means no cut)   *
#*********************************************************************
   5  = etaj    ! max rap for the jets 
  -1  = etab    ! max rap for the b
 2.5  = etaa    ! max rap for the photons 
 2.5  = etal    ! max rap for the charged leptons 
 0.6  = etaonium ! max rap for the quarkonium states
   0  = etajmin ! min rap for the jets
   0  = etabmin ! min rap for the b
   0  = etaamin ! min rap for the photons
   0  = etalmin ! main rap for the charged leptons
#*********************************************************************
# Minimum and maximum DeltaR distance                                *
#*********************************************************************
 0.4 = drjj    ! min distance between jets 
 0   = drbb    ! min distance between b's 
 0.4 = drll    ! min distance between leptons 
 0.4 = draa    ! min distance between gammas 
 0   = drbj    ! min distance between b and jet 
 0.4 = draj    ! min distance between gamma and jet 
 0.4 = drjl    ! min distance between jet and lepton 
 0   = drab    ! min distance between gamma and b 
 0   = drbl    ! min distance between b and lepton 
 0.4 = dral    ! min distance between gamma and lepton 
 -1  = drjjmax ! max distance between jets
 -1  = drbbmax ! max distance between b's
 -1  = drllmax ! max distance between leptons
 -1  = draamax ! max distance between gammas
 -1  = drbjmax ! max distance between b and jet
 -1  = drajmax ! max distance between gamma and jet
 -1  = drjlmax ! max distance between jet and lepton
 -1  = drabmax ! max distance between gamma and b
 -1  = drblmax ! max distance between b and lepton
 -1  = dralmax ! maxdistance between gamma and lepton
#*********************************************************************
# Minimum and maximum invariant mass for pairs                       *
# WARNING: for four lepton final state mmll cut require to have      *
#          different lepton masses for each flavor!                  *           
#*********************************************************************
 0   = mmjj    ! min invariant mass of a jet pair 
 0   = mmbb    ! min invariant mass of a b pair 
 0   = mmaa    ! min invariant mass of gamma gamma pair
 0   = mmll    ! min invariant mass of l+l- (same flavour) lepton pair
 -1  = mmjjmax ! max invariant mass of a jet pair
 -1  = mmbbmax ! max invariant mass of a b pair
 -1  = mmaamax ! max invariant mass of gamma gamma pair
 -1  = mmllmax ! max invariant mass of l+l- (same flavour) lepton pair
#*********************************************************************
# Minimum and maximum invariant mass for all letpons                 *
#*********************************************************************
 0   = mmnl    ! min invariant mass for all letpons (l+- and vl) 
 -1  = mmnlmax ! max invariant mass for all letpons (l+- and vl) 
#*********************************************************************
# Minimum and maximum pt for 4-momenta sum of leptons                *
#*********************************************************************
 0   = ptllmin  ! Minimum pt for 4-momenta sum of leptons(l and vl)
 -1  = ptllmax  ! Maximum pt for 4-momenta sum of leptons(l and vl)
#*********************************************************************
# Inclusive cuts                                                     *
#*********************************************************************
 0  = xptj ! minimum pt for at least one jet  
 0  = xptb ! minimum pt for at least one b 
 0  = xpta ! minimum pt for at least one photon 
 0  = xptl ! minimum pt for at least one charged lepton 
#*********************************************************************
# Control the pt's of the jets sorted by pt                          *
#*********************************************************************
 0   = ptj1min ! minimum pt for the leading jet in pt
 0   = ptj2min ! minimum pt for the second jet in pt
 0   = ptj3min ! minimum pt for the third jet in pt
 0   = ptj4min ! minimum pt for the fourth jet in pt
 -1  = ptj1max ! maximum pt for the leading jet in pt 
 -1  = ptj2max ! maximum pt for the second jet in pt
 -1  = ptj3max ! maximum pt for the third jet in pt
 -1  = ptj4max ! maximum pt for the fourth jet in pt
 0   = cutuse  ! reject event if fails any (0) / all (1) jet pt cuts
#*********************************************************************
# Control the pt's of leptons sorted by pt                           *
#*********************************************************************
 0   = ptl1min ! minimum pt for the leading lepton in pt
 0   = ptl2min ! minimum pt for the second lepton in pt
 0   = ptl3min ! minimum pt for the third lepton in pt
 0   = ptl4min ! minimum pt for the fourth lepton in pt
 -1  = ptl1max ! maximum pt for the leading lepton in pt 
 -1  = ptl2max ! maximum pt for the second lepton in pt
 -1  = ptl3max ! maximum pt for the third lepton in pt
 -1  = ptl4max ! maximum pt for the fourth lepton in pt
#*********************************************************************
# Control the Ht(k)=Sum of k leading jets                            *
#*********************************************************************
 0   = htjmin ! minimum jet HT=Sum(jet pt)
 -1  = htjmax ! maximum jet HT=Sum(jet pt)
 0   = ihtmin  !inclusive Ht for all partons (including b)
 -1  = ihtmax  !inclusive Ht for all partons (including b)
 0   = ht2min ! minimum Ht for the two leading jets
 0   = ht3min ! minimum Ht for the three leading jets
 0   = ht4min ! minimum Ht for the four leading jets
 -1  = ht2max ! maximum Ht for the two leading jets
 -1  = ht3max ! maximum Ht for the three leading jets
 -1  = ht4max ! maximum Ht for the four leading jets
#***********************************************************************
# Photon-isolation cuts, according to hep-ph/9801442                   *
# When ptgmin=0, all the other parameters are ignored                  *
# When ptgmin>0, pta and draj are not going to be used                 *
#***********************************************************************
   0 = ptgmin ! Min photon transverse momentum
 0.4 = R0gamma ! Radius of isolation code
 1.0 = xn ! n parameter of eq.(3.4) in hep-ph/9801442
 1.0 = epsgamma ! epsilon_gamma parameter of eq.(3.4) in hep-ph/9801442
 .true. = isoEM ! isolate photons from EM energy (photons and leptons)
#*********************************************************************
# WBF cuts                                                           *
#*********************************************************************
 0   = xetamin ! minimum rapidity for two jets in the WBF case  
 0   = deltaeta ! minimum rapidity for two jets in the WBF case 
#*********************************************************************
# KT DURHAM CUT                                                      *
#*********************************************************************
 -1    =  ktdurham        
 0.4  =  dparameter 
#*********************************************************************
# maximal pdg code for quark to be considered as a light jet         *
# (otherwise b cuts are applied)                                     *
#*********************************************************************
 4 = maxjetflavor    ! Maximum jet pdg code
#*********************************************************************
# Jet measure cuts                                                   *
#*********************************************************************
 0   = xqcut   ! minimum kt jet measure between partons
#*********************************************************************
#
#*********************************************************************
# Store info for systematics studies                                 *
# WARNING: If use_syst is T, matched Pythia output is                *
#          meaningful ONLY if plotted taking matchscale              *
#          reweighting into account!                                 *
#*********************************************************************
   F  = use_syst      ! Enable systematics studies
#
#**************************************
# Parameter of the systematics study
#  will be used by SysCalc (if installed)
#**************************************                                  
#
0.5 1 2 = sys_scalefact  # factorization/renormalization scale factor
0.5 1 2 = sys_alpsfact  # \alpha_s emission scale factors
30 50 = sys_matchscale # variation of merging scale
# PDF sets and number of members (0 or none for all members).
CT10nlo.LHgrid = sys_pdf # matching scales
# MSTW2008nlo68cl.LHgrid 1  = sys_pdf
</MGRunCard>
<slha>
######################################################################
## PARAM_CARD AUTOMATICALY GENERATED BY MG5 FOLLOWING UFO MODEL   ####
######################################################################
##                                                                  ##
##  Width set on Auto will be computed following the information    ##
##        present in the decay.py files of the model.               ##
##        See  arXiv:1402.1178 for more details.                    ##
##                                                                  ##
######################################################################

###################################
## INFORMATION FOR CKMBLOCK
###################################
Block ckmblock 
    1 2.277360e-01 # cabi 

###################################
## INFORMATION FOR FRBLOCK
###################################
Block frblock 
    1 1.600000e+00 # gz 

###################################
## INFORMATION FOR MASS
###################################
Block mass 
    1 5.040000e-03 # MD 
    2 2.550000e-03 # MU 
    3 1.010000e-01 # MS 
    4 1.270000e+00 # MC 
    5 4.700000e+00 # MB 
    6 1.720000e+02 # MT 
   11 5.110000e-04 # Me 
   13 1.056600e-01 # MM 
   15 1.777000e+00 # MTA 
   23 9.118760e+01 # MZ 
   25 1.200000e+02 # MH 
  10030 1.700000e+03 # MZph 
  10031 3.000000e+02 # MZpl 
## Dependent parameters, given by model restrictions.
## Those values should be edited following the 
## analytical expression. MG5 ignores those values 
## but they are important for interfacing the output of MG5
## to external program such as Pythia.
  12 0.000000 # ve : 0.0 
  14 0.000000 # vm : 0.0 
  16 0.000000 # vt : 0.0 
  21 0.000000 # g : 0.0 
  22 0.000000 # a : 0.0 
  24 79.824360 # w+ : cmath.sqrt(MZ__exp__2/2. + cmath.sqrt(MZ__exp__4/4. - (aEW*cmath.pi*MZ__exp__2)/(Gf*sqrt__2))) 

###################################
## INFORMATION FOR SMINPUTS
###################################
Block sminputs 
    1 1.279000e+02 # aEWM1 
    2 1.166370e-05 # Gf 
    3 1.184000e-01 # aS 

###################################
## INFORMATION FOR YUKAWA
###################################
Block yukawa 
    1 5.040000e-03 # ymdo 
    2 2.550000e-03 # ymup 
    3 1.010000e-01 # yms 
    4 1.270000e+00 # ymc 
    5 4.700000e+00 # ymb 
    6 1.720000e+02 # ymt 
   11 5.110000e-04 # yme 
   13 1.056600e-01 # ymm 
   15 1.777000e+00 # ymtau 

###################################
## INFORMATION FOR DECAY
###################################
DECAY   6 1.508336e+00 # WT 
DECAY  23 2.495200e+00 # WZ 
DECAY  24 2.085000e+00 # WW 
DECAY  25 5.753088e-03 # WH 
## Dependent parameters, given by model restrictions.
## Those values should be edited following the 
## analytical expression. MG5 ignores those values 
## but they are important for interfacing the output of MG5
## to external program such as Pythia.
DECAY  1 0.000000 # d : 0.0 
DECAY  2 0.000000 # u : 0.0 
DECAY  3 0.000000 # s : 0.0 
DECAY  4 0.000000 # c : 0.0 
DECAY  5 0.000000 # b : 0.0 
DECAY  11 0.000000 # e- : 0.0 
DECAY  12 0.000000 # ve : 0.0 
DECAY  13 0.000000 # mu- : 0.0 
DECAY  14 0.000000 # vm : 0.0 
DECAY  15 0.000000 # ta- : 0.0 
DECAY  16 0.000000 # vt : 0.0 
DECAY  21 0.000000 # g : 0.0 
DECAY  22 0.000000 # a : 0.0 
DECAY  10030 0.308725 # zph : (gz__exp__2*MZph*(5 + cmath.sqrt(1 - (4*MT__exp__2)/MZph__exp__2)))/(144.*cmath.pi) 
DECAY  10031 0.132629 # zpl : (5*gz__exp__2*MZpl)/(144.*cmath.pi) 
#===========================================================
# QUANTUM NUMBERS OF NEW STATE(S) (NON SM PDG CODE)
#===========================================================

Block QNUMBERS 10030  # zph 
        1 0  # 3 times electric charge
        2 3  # number of spin states (2S+1)
        3 1  # colour rep (1: singlet, 3: triplet, 8: octet)
        4 0  # Particle/Antiparticle distinction (0=own anti)
Block QNUMBERS 10031  # zpl 
        1 0  # 3 times electric charge
        2 3  # number of spin states (2S+1)
        3 1  # colour rep (1: singlet, 3: triplet, 8: octet)
        4 0  # Particle/Antiparticle distinction (0=own anti)
</slha>
## END BANNER##
<MGGenerationInfo>
#  Number of Events        :         3943
#  Integrated weight (pb)  :  0.28185E+00
#  Max wgt                 :  0.10072E-03
#  Average wgt             :  0.71481E-04
</MGGenerationInfo>
</header>
<init>
     2212     2212  0.40000000000E+04  0.40000000000E+04 0 0  247000  247000 2   1
  0.28210859347E+00  0.61722577701E-03  0.10071870000E-03   0
</init>
<event>
 5   0  0.9625225E-04  0.1178438E+04  0.7818609E-02  0.9131942E-01
       -2   -1    0    0    0  501  0.00000000000E+00  0.00000000000E+00  0.44622724046E+03  0.44622724047E+03  0.25500000920E-02 0.  1.
        2   -1    0    0  501    0  0.00000000000E+00  0.00000000000E+00 -0.77803200983E+03  0.77803200983E+03  0.25500000920E-02 0. -1.
    10030    2    1    2    0    0  0.00000000000E+00  0.00000000000E+00 -0.33180476937E+03  0.12242592503E+04  0.11784380794E+04 0.  0.
        1    1    3    3  502    0 -0.26970855918E+03  0.13257246017E+03 -0.69242331160E+03  0.75482991897E+03  0.50400001928E-02 0. -1.
       -1    1    3    3    0  502  0.26970855918E+03 -0.13257246017E+03  0.36061854224E+03  0.46942933134E+03  0.50400001928E-02 0.  1.
</event>
<event>
 5   0  0.9625225E-04  0.1686262E+04  0.7818609E-02  0.8769238E-01
       -2   -1    0    0    0  501  0.00000000000E+00  0.00000000000E+00  0.11066114634E+04  0.11066114634E+04  0.25500000920E-02 0.  1.
        2   -1    0    0  501    0  0.00000000000E+00  0.00000000000E+00 -0.64238455652E+03  0.64238455653E+03  0.25500000920E-02 0. -1.
    10030    2    1    2    0    0  0.00000000000E+00  0.00000000000E+00  0.46422690685E+03  0.17489960199E+04  0.16862622740E+04 0.  0.
        1    1    3    3  502    0  0.41700103199E+03 -0.30336208401E+03 -0.45974958892E+03  0.69086040503E+03  0.50400001928E-02 0. -1.
       -1    1    3    3    0  502 -0.41700103199E+03  0.30336208401E+03  0.92397649577E+03  0.10581356149E+04  0.50400001928E-02 0.  1.
</event>
<event>
 5   0  0.9312096E-04  0.1735015E+04  0.7818609E-02  0.8741642E-01
       -2   -1    0    0    0  501  0.00000000000E+00  0.00000000000E+00  0.74440787011E+03  0.74440787012E+03  0.25500000920E-02 0. -1.
        2   -1    0    0  501    0  0.00000000000E+00  0.00000000000E+00 -0.10109630947E+04  0.10109630947E+04  0.25500000920E-02 0.  1.
    10030    2    1    2    0    0  0.00000000000E+00  0.00000000000E+00 -0.26655522457E+03  0.17553709648E+04  0.17350145637E+04 0.  0.
        3    1    3    3  502    0  0.56673409460E+03 -0.24776817549E+03  0.48212893436E+03  0.78423524679E+03  0.10100000352E+00 0. -1.
       -3    1    3    3    0  502 -0.56673409460E+03  0.24776817549E+03 -0.74868415893E+03  0.97113571801E+03  0.10100000352E+00 0.  1.
</event>
<event>
 5   0  0.9625225E-04  0.1684312E+04  0.7818609E-02  0.8770362E-01
        2   -1    0    0  501    0  0.00000000000E+00  0.00000000000E+00  0.81166245978E+03  0.81166245978E+03  0.25500000920E-02 0.  1.
       -2   -1    0    0    0  501  0.00000000000E+00  0.00000000000E+00 -0.87379553658E+03  0.87379553658E+03  0.25500000920E-02 0. -1.
    10030    2    1    2    0    0  0.00000000000E+00  0.00000000000E+00 -0.62133076798E+02  0.16854579964E+04  0.16843123636E+04 0.  0.
        1    1    3    3  502    0 -0.31328085901E+03  0.43520394675E+03  0.61874381275E+03  0.81877425322E+03  0.50400001928E-02 0.  1.
       -1    1    3    3    0  502  0.31328085901E+03 -0.43520394675E+03 -0.68087688955E+03  0.86668374315E+03  0.50400001928E-02 0. -1.
</event>
<event>
 5   0  0.9312096E-04  0.1735677E+04  0.7818609E-02  0.8741274E-01
        2   -1    0    0  501    0  0.00000000000E+00  0.00000000000E+00  0.17145052260E+04  0.17145052260E+04  0.25500000920E-02 0. -1.
       -2   -1    0    0    0  501  0.00000000000E+00  0.00000000000E+00 -0.43927753832E+03  0.43927753833E+03  0.25500000920E-02 0.  1.
    10030    2    1    2    0    0  0.00000000000E+00  0.00000000000E+00  0.12752276877E+04  0.21537827643E+04  0.17356769689E+04 0.  0.
        3    1    3    3  502    0  0.11030478870E+03 -0.61680385170E+03 -0.10746698972E+03  0.63573839113E+03  0.10100000352E+00 0.  1.
       -3    1    3    3    0  502 -0.11030478870E+03  0.61680385170E+03  0.13826946774E+04  0.15180443732E+04  0.10100000352E+00 0. -1.
</event>
<event>
 5   0  0.5074133E-04  0.1745753E+04  0.7818609E-02  0.8735691E-01
       -1   -1    0    0    0  501  0.00000000000E+00  0.00000000000E+00  0.70179026347E+03  0.70179026349E+03  0.50400001928E-02 0. -1.
        1   -1    0    0  501    0  0.00000000000E+00  0.00000000000E+00 -0.10856711515E+04  0.10856711515E+04  0.50400001928E-02 0.  1.
    10030    2    1    2    0    0  0.00000000000E+00  0.00000000000E+00 -0.38388088803E+03  0.17874614150E+04  0.17457530679E+04 0.  0.
        1    1    3    3  502    0 -0.14081195437E+03  0.20182896756E+03  0.66553446092E+03  0.70957667474E+03  0.50400001928E-02 0. -1.
       -1    1    3    3    0  502  0.14081195437E+03 -0.20182896756E+03 -0.10494153490E+04  0.10778847403E+04  0.50400001928E-02 0.  1.
</event>
<event>
 5   0  0.5009762E-04  0.1711313E+04  0.7818609E-02  0.8754938E-01
       -1   -1    0    0    0  501  0.00000000000E+00  0.00000000000E+00  0.53744311285E+03  0.53744311287E+03  0.50400001928E-02 0.  1.
        1   -1    0    0  501    0  0.00000000000E+00  0.00000000000E+00 -0.13622805469E+04  0.13622805469E+04  0.50400001928E-02 0. -1.
    10030    2    1    2    0    0  0.00000000000E+00  0.00000000000E+00 -0.82483743409E+03  0.18997236598E+04  0.17113132942E+04 0.  0.
        3    1    3    3  502    0  0.92168477017E+02  0.50826010107E+03  0.34483090870E+03  0.62107304263E+03  0.10100000352E+00 0.  1.
       -3    1    3    3    0  502 -0.92168477017E+02 -0.50826010107E+03 -0.11696683428E+04  0.12786506172E+04  0.10100000352E+00 0. -1.
</event>
<event>
 5   0  0.9625225E-04  0.1133928E+04  0.7818609E-02  0.9172740E-01
        2   -1    0    0  501    0  0.00000000000E+00  0.00000000000E+00  0.22232077731E+04  0.22232077731E+04  0.25500000920E-02 0. -1.
       -2   -1    0    0    0  501  0.00000000000E+00  0.00000000000E+00 -0.14458755956E+03  0.14458755958E+03  0.25500000920E-02 0.  1.
    10030    2    1    2    0    0  0.00000000000E+00  0.00000000000E+00  0.20786202136E+04  0.23677953327E+04  0.11339280160E+04 0.  0.
        1    1    3    3  502    0  0.49299620914E+00 -0.70014129262E+02  0.22141456188E+04  0.22152523655E+04  0.50400001928E-02 0. -1.
       -1    1    3    3    0  502 -0.49299620914E+00  0.70014129262E+02 -0.13552540529E+03  0.15254296721E+03  0.50400001928E-02 0.  1.
</event>
<event>
 5   0  0.4947006E-04  0.1646301E+04  0.7818609E-02  0.8792598E-01
       -1   -1    0    0    0  501  0.00000000000E+00  0.00000000000E+00  0.76815969643E+03  0.76815969645E+03  0.50400001928E-02 0.  1.
        1   -1    0    0  501    0  0.00000000000E+00  0.00000000000E+00 -0.88207784198E+03  0.88207784199E+03  0.50400001928E-02 0. -1.
    10030    2    1    2    0    0  0.00000000000E+00  0.00000000000E+00 -0.11391814555E+03  0.16502375384E+04  0.16463008806E+04 0.  0.
        2    1    3    3  502    0 -0.51552631370E+03  0.25721690120E+03  0.53236575242E+03  0.78443687365E+03  0.25500000920E-02 0.  1.
       -2    1    3    3    0  502  0.51552631370E+03 -0.25721690120E+03 -0.64628389797E+03  0.86580066479E+03  0.25500000920E-02 0. -1.
</event>
<event>
 5   0  0.9625225E-04  0.1667940E+04  0.7818609E-02  0.8779864E-01
       -2   -1    0    0    0  501  0.00000000000E+00  0.00000000000E+00  0.14749426753E+04  0.14749426753E+04  0.25500000920E-02 0.  1.
        2   -1    0    0  501    0  0.00000000000E+00  0.00000000000E+00 -0.47154768394E+03  0.47154768395E+03  0.25500000920E-02 0. -1.
    10030    2    1    2    0    0  0.00000000000E+00  0.00000000000E+00  0.10033949913E+04  0.19464903592E+04  0.16679398100E+04 0.  0.
        1    1    3    3  502    0 -0.54382961510E+02  0.91986382793E+02  0.14669201094E+04  0.14708071283E+04  0.50400001928E-02 0.  1.
       -1    1    3    3    0  502  0.54382961510E+02 -0.91986382793E+02 -0.46352511807E+03  0.47568323097E+03  0.50400001928E-02 0. -1.
</event>
<event>
 5   0  0.3523125E-04  0.1658590E+04  0.7818609E-02  0.8785341E-01
        4   -1    0    0  501    0  0.00000000000E+00  0.00000000000E+00  0.48054971393E+03  0.48055139211E+03  0.12699999809E+01 0.  1.
       -4   -1    0    0    0  501  0.00000000000E+00  0.00000000000E+00 -0.14311269686E+04  0.14311275322E+04  0.12699999809E+01 0. -1.
    10030    2    1    2    0    0  0.00000000000E+00  0.00000000000E+00 -0.95057725472E+03  0.19116789243E+04  0.16585895189E+04 0.  0.
        1    1    3    3  502    0 -0.53118902404E+03  0.57351378840E+03 -0.15618482227E+03  0.79716594475E+03  0.50400001928E-02 0.  1.
       -1    1    3    3    0  502  0.53118902404E+03 -0.57351378840E+03 -0.79439243245E+03  0.11145129795E+04  0.50400001928E-02 0. -1.
</event>
<event>
 5   0  0.1007187E-03  0.1736310E+04  0.7818609E-02  0.8740922E-01
        2   -1    0    0  501    0  0.00000000000E+00  0.00000000000E+00  0.53123404981E+03  0.53123404982E+03  0.25500000920E-02 0. -1.
       -2   -1    0    0    0  501  0.00000000000E+00  0.00000000000E+00 -0.14187585908E+04  0.14187585908E+04  0.25500000920E-02 0.  1.
    10030    2    1    2    0    0  0.00000000000E+00  0.00000000000E+00 -0.88752454101E+03  0.19499926406E+04  0.17363097326E+04 0.  0.
        5    1    3    3  502    0 -0.40672348438E+03  0.76687258834E+03 -0.42986060146E+03  0.96866907981E+03  0.46999998093E+01 0.  1.
       -5    1    3    3    0  502  0.40672348438E+03 -0.76687258834E+03 -0.45766393956E+03  0.98132356084E+03  0.46999998093E+01 0. -1.
</event>
<event>
 5   0  0.5059689E-04  0.1724966E+04  0.7818609E-02  0.8747252E-01
        1   -1    0    0  501    0  0.00000000000E+00  0.00000000000E+00  0.78033947635E+03  0.78033947637E+03  0.50400001928E-02 0. -1.
       -1   -1    0    0    0  501  0.00000000000E+00  0.00000000000E+00 -0.95327387347E+03  0.95327387348E+03  0.50400001928E-02 0.  1.
    10030    2    1    2    0    0  0.00000000000E+00  0.00000000000E+00 -0.17293439712E+03  0.17336133498E+04  0.17249663594E+04 0.  0.
        5    1    3    3  502    0 -0.30398881901E+03 -0.80077517661E+03  0.15059295181E+02  0.85667902853E+03  0.46999998093E+01 0.  1.
       -5    1    3    3    0  502  0.30398881901E+03  0.80077517661E+03 -0.18799369230E+03  0.87693432132E+03  0.46999998093E+01 0. -1.
</event>
<event>
 5   0  0.5074133E-04  0.1624671E+04  0.7818609E-02  0.8805534E-01
       -1   -1    0    0    0  501  0.00000000000E+00  0.00000000000E+00  0.57575059698E+03  0.57575059700E+03  0.50400001928E-02 0. -1.
        1   -1    0    0  501    0  0.00000000000E+00  0.00000000000E+00 -0.11461362930E+04  0.11461362930E+04  0.50400001928E-02 0.  1.
    10030    2    1    2    0    0  0.00000000000E+00  0.00000000000E+00 -0.57038569604E+03  0.17218868900E+04  0.16246706189E+04 0.  0.
        1    1    3    3  502    0 -0.69082290283E+03 -0.40116857425E+03 -0.12901095653E+03  0.80920722622E+03  0.50400001928E-02 0. -1.
       -1    1    3    3    0  502  0.69082290283E+03  0.40116857425E+03 -0.44137473951E+03  0.91267966381E+03  0.50400001928E-02 0.  1.
</event>
<event>
 5   0  0.5009762E-04  0.1693714E+04  0.7818609E-02  0.8764957E-01
        1   -1    0    0  501    0  0.00000000000E+00  0.00000000000E+00  0.93158412213E+03  0.93158412214E+03  0.50400001928E-02 0. -1.
       -1   -1    0    0    0  501  0.00000000000E+00  0.00000000000E+00 -0.76983600944E+03  0.76983600946E+03  0.50400001928E-02 0.  1.
    10030    2    1    2    0    0  0.00000000000E+00  0.00000000000E+00  0.16174811269E+03  0.17014201316E+04  0.16937142652E+04 0.  0.
        3    1    3    3  502    0 -0.38381418622E+03  0.78823385772E+02 -0.67330163812E+03  0.77901319743E+03  0.10100000352E+00 0.  1.
       -3    1    3    3    0  502  0.38381418622E+03 -0.78823385772E+02  0.83504975080E+03  0.92240693417E+03  0.10100000352E+00 0. -1.
</event>
<event>
 5   0  0.5009762E-04  0.1673629E+04  0.7818609E-02  0.8776549E-01
        1   -1    0    0  501    0  0.00000000000E+00  0.00000000000E+00  0.59618365794E+03  0.59618365796E+03  0.50400001928E-02 0. -1.
       -1   -1    0    0    0  501  0.00000000000E+00  0.00000000000E+00 -0.11745681293E+04  0.11745681293E+04  0.50400001928E-02 0.  1.
    10030    2    1    2    0    0  0.00000000000E+00  0.00000000000E+00 -0.57838447136E+03  0.17707517873E+04  0.16736287806E+04 0.  0.
        3    1    3    3  502    0 -0.78127722419E+03 -0.28943899131E+03 -0.20662996480E+03  0.85840840122E+03  0.10100000352E+00 0.  1.
       -3    1    3    3    0  502  0.78127722419E+03  0.28943899131E+03 -0.37175450656E+03  0.91234338605E+03  0.10100000352E+00 0. -1.
</event>
<event>
 5   0  0.9625225E-04  0.1704655E+04  0.7818609E-02  0.8758714E-01
       -2   -1    0    0    0  501  0.00000000000E+00  0.00000000000E+00  0.73120435130E+03  0.73120435130E+03  0.25500000920E-02 0. -1.
        2   -1    0    0  501    0  0.00000000000E+00  0.00000000000E+00 -0.99351485379E+03  0.99351485379E+03  0.25500000920E-02 0.  1.
    10030    2    1    2    0    0  0.00000000000E+00  0.00000000000E+00 -0.26231050249E+03  0.17247192051E+04  0.17046552545E+04 0.  0.
        1    1    3    3  502    0 -0.33390966506E+03 -0.11455078216E+03 -0.91607292457E+03  0.98173680244E+03  0.50400001928E-02 0.  1.
       -1    1    3    3    0  502  0.33390966506E+03  0.11455078216E+03  0.65376242207E+03  0.74298240265E+03  0.50400001928E-02 0. -1.
</event>
<event>
 5   0  0.5035495E-04  0.1712908E+04  0.7818609E-02  0.8754037E-01
       -1   -1    0    0    0  501  0.00000000000E+00  0.00000000000E+00  0.59382976008E+03  0.59382976011E+03  0.50400001928E-02 0.  1.
        1   -1    0    0  501    0  0.00000000000E+00  0.00000000000E+00 -0.12352248188E+04  0.12352248188E+04  0.50400001928E-02 0. -1.
    10030    2    1    2    0    0  0.00000000000E+00  0.00000000000E+00 -0.64139505872E+03  0.18290545789E+04  0.17129077708E+04 0.  0.
        4    1    3    3  502    0 -0.35816475521E+03  0.77750783270E+03 -0.34917462070E+03  0.92451335870E+03  0.12699999809E+01 0. -1.
       -4    1    3    3    0  502  0.35816475521E+03 -0.77750783270E+03 -0.29222043802E+03  0.90454122022E+03  0.12699999809E+01 0.  1.
</event>
<event>
 5   0  0.5074133E-04  0.1709095E+04  0.7818609E-02  0.8756194E-01
        1   -1    0    0  501    0  0.00000000000E+00  0.00000000000E+00  0.19306361685E+04  0.19306361685E+04  0.50400001928E-02 0.  1.
       -1   -1    0    0    0  501  0.00000000000E+00  0.00000000000E+00 -0.37824411373E+03  0.37824411377E+03  0.50400001928E-02 0. -1.
    10030    2    1    2    0    0  0.00000000000E+00  0.00000000000E+00  0.15523920547E+04  0.23088802823E+04  0.17090953941E+04 0.  0.
        1    1    3    3  502    0 -0.81353041146E+03  0.34713956137E+02  0.11264379591E+04  0.13899277912E+04  0.50400001928E-02 0. -1.
       -1    1    3    3    0  502  0.81353041146E+03 -0.34713956137E+02  0.42595409565E+03  0.91895249102E+03  0.50400001928E-02 0.  1.
</event>
<event>
 5   0  0.9610114E-04  0.1748889E+04  0.7818609E-02  0.8733962E-01
        2   -1    0    0  501    0  0.00000000000E+00  0.00000000000E+00  0.15741985097E+04  0.15741985097E+04  0.25500000920E-02 0. -1.
       -2   -1    0    0    0  501  0.00000000000E+00  0.00000000000E+00 -0.48574119326E+03  0.48574119327E+03  0.25500000920E-02 0.  1.
    10030    2    1    2    0    0  0.00000000000E+00  0.00000000000E+00  0.10884573164E+04  0.20599397029E+04  0.17488888616E+04 0.  0.
        2    1    3    3  502    0 -0.90606078576E+02 -0.72318876519E+03 -0.24861968018E+02  0.72926645956E+03  0.25500000920E-02 0.  1.
       -2    1    3    3    0  502  0.90606078576E+02  0.72318876519E+03  0.11133192844E+04  0.13306732434E+04  0.25500000920E-02 0. -1.
</event>
<event>
 5   0  0.5009762E-04  0.1649221E+04  0.7818609E-02  0.8790867E-01
       -1   -1    0    0    0  501  0.00000000000E+00  0.00000000000E+00  0.76780825711E+03  0.76780825712E+03  0.50400001928E-02 0. -1.
        1   -1    0    0  501    0  0.00000000000E+00  0.00000000000E+00 -0.88561535381E+03  0.88561535383E+03  0.50400001928E-02 0.  1.
    10030    2    1    2    0    0  0.00000000000E+00  0.00000000000E+00 -0.11780709671E+03  0.16534236109E+04  0.16492213694E+04 0.  0.
        3    1    3    3  502    0  0.57172391366E+03  0.35774467776E+03  0.41678756047E+03  0.79281862281E+03  0.10100000352E+00 0. -1.
       -3    1    3    3    0  502 -0.57172391366E+03 -0.35774467776E+03 -0.53459465717E+03  0.86060498813E+03  0.10100000352E+00 0.  1.
</event>
<event>
 5   0  0.9312096E-04  0.1717948E+04  0.7818609E-02  0.8751194E-01
       -2   -1    0    0    0  501  0.00000000000E+00  0.00000000000E+00  0.73036326659E+03  0.73036326659E+03  0.25500000920E-02 0. -1.
        2   -1    0    0  501    0  0.00000000000E+00  0.00000000000E+00 -0.10102317073E+04  0.10102317073E+04  0.25500000920E-02 0.  1.
    10030    2    1    2    0    0  0.00000000000E+00  0.00000000000E+00 -0.27986844074E+03  0.17405949739E+04  0.17179477638E+04 0.  0.
        3    1    3    3  502    0 -0.71637269777E+03  0.26727195324E+03 -0.53651725707E+03  0.93406365759E+03  0.10100000352E+00 0.  1.
       -3    1    3    3    0  502  0.71637269777E+03 -0.26727195324E+03  0.25664881633E+03  0.80653131633E+03  0.10100000352E+00 0. -1.
</event>
<event>
 5   0  0.5074133E-04  0.1472699E+04  0.7818609E-02  0.8902814E-01
       -1   -1    0    0    0  501  0.00000000000E+00  0.00000000000E+00  0.44495267547E+03  0.44495267550E+03  0.50400001928E-02 0.  1.
        1   -1    0    0  501    0  0.00000000000E+00  0.00000000000E+00 -0.12185800908E+04  0.12185800908E+04  0.50400001928E-02 0. -1.
    10030    2    1    2    0    0  0.00000000000E+00  0.00000000000E+00 -0.77362741536E+03  0.16635327663E+04  0.14726988446E+04 0.  0.
        1    1    3    3  502    0 -0.39375859960E+03 -0.44355038714E+03 -0.87974054531E+03  0.10610024542E+04  0.50400001928E-02 0. -1.
       -1    1    3    3    0  502  0.39375859960E+03  0.44355038714E+03  0.10611312995E+03  0.60253031215E+03  0.50400001928E-02 0.  1.
</event>
<event>
 5   0  0.9610114E-04  0.1705441E+04  0.7818609E-02  0.8758267E-01
        2   -1    0    0  501    0  0.00000000000E+00  0.00000000000E+00  0.79560456928E+03  0.79560456929E+03  0.25500000920E-02 0.  1.
       -2   -1    0    0    0  501  0.00000000000E+00  0.00000000000E+00 -0.91393695672E+03  0.91393695672E+03  0.25500000920E-02 0. -1.
    10030    2    1    2    0    0  0.00000000000E+00  0.00000000000E+00 -0.11833238744E+03  0.17095415260E+04  0.17054411966E+04 0.  0.
        2    1    3    3  502    0  0.71361615977E+02 -0.63983685377E+03  0.50132816490E+03  0.81597402447E+03  0.25500000920E-02 0.  1.
       -2    1    3    3    0  502 -0.71361615977E+02  0.63983685377E+03 -0.61966055233E+03  0.89356750154E+03  0.25500000920E-02 0. -1.
</event>
<event>
 5   0  0.4947006E-04  0.1643577E+04  0.7818609E-02  0.8794215E-01
        1   -1    0    0  501    0  0.00000000000E+00  0.00000000000E+00  0.11306684827E+04  0.11306684827E+04  0.50400001928E-02 0.  1.
       -1   -1    0    0    0  501  0.00000000000E+00  0.00000000000E+00 -0.59728935578E+03  0.59728935580E+03  0.50400001928E-02 0. -1.
    10030    2    1    2    0    0  0.00000000000E+00  0.00000000000E+00  0.53337912693E+03  0.17279578385E+04  0.16435768916E+04 0.  0.
        2    1    3    3  502    0  0.35133291204E+02  0.27896575362E+03 -0.54514631384E+03  0.61338466181E+03  0.25500000920E-02 0. -1.
       -2    1    3    3    0  502 -0.35133291204E+02 -0.27896575362E+03  0.10785254408E+04  0.11145731767E+04  0.25500000920E-02 0.  1.
</event>
<event>
 5   0  0.9312096E-04  0.1698366E+04  0.7818609E-02  0.8762297E-01
        2   -1    0    0  501    0  0.00000000000E+00  0.00000000000E+00  0.55683099522E+03  0.55683099523E+03  0.25500000920E-02 0.  1.
       -2   -1    0    0    0  501  0.00000000000E+00  0.00000000000E+00 -0.12950275680E+04  0.12950275680E+04  0.25500000920E-02 0. -1.
    10030    2    1    2    0    0  0.00000000000E+00  0.00000000000E+00 -0.73819657281E+03  0.18518585633E+04  0.16983656727E+04 0.  0.
        3    1    3    3  502    0 -0.20386405065E+03 -0.18839788114E+02 -0.12677143290E+04  0.12841398362E+04  0.10100000352E+00 0. -1.
       -3    1    3    3    0  502  0.20386405065E+03  0.18839788114E+02  0.52951775618E+03  0.56771872707E+03  0.10100000352E+00 0.  1.
</event>
<event>
 5   0  0.1007187E-03  0.1700817E+04  0.7818609E-02  0.8760899E-01
        2   -1    0    0  501    0  0.00000000000E+00  0.00000000000E+00  0.13595789102E+04  0.13595789102E+04  0.25500000920E-02 0. -1.
       -2   -1    0    0    0  501  0.00000000000E+00  0.00000000000E+00 -0.53192536659E+03  0.53192536660E+03  0.25500000920E-02 0.  1.
    10030    2    1    2    0    0  0.00000000000E+00  0.00000000000E+00  0.82765354362E+03  0.18915042768E+04  0.17008168746E+04 0.  0.
        5    1    3    3  502    0 -0.38704824806E+03 -0.63399998530E+03 -0.46607843463E+02  0.74428268068E+03  0.46999998093E+01 0.  1.
       -5    1    3    3    0  502  0.38704824806E+03  0.63399998530E+03  0.87426138708E+03  0.11472215961E+04  0.46999998093E+01 0. -1.
</event>
<event>
 5   0  0.4947006E-04  0.1706403E+04  0.7818609E-02  0.8757721E-01
        1   -1    0    0  501    0  0.00000000000E+00  0.00000000000E+00  0.19246494558E+04  0.19246494558E+04  0.50400001928E-02 0.  1.
       -1   -1    0    0    0  501  0.00000000000E+00  0.00000000000E+00 -0.37822597740E+03  0.37822597744E+03  0.50400001928E-02 0. -1.
    10030    2    1    2    0    0  0.00000000000E+00  0.00000000000E+00  0.15464234784E+04  0.23028754332E+04  0.17064025570E+04 0.  0.
        2    1    3    3  502    0  0.12225649103E+03 -0.83393988783E+03  0.59442802588E+03  0.10313811439E+04  0.25500000920E-02 0. -1.
       -2    1    3    3    0  502 -0.12225649103E+03  0.83393988783E+03  0.95199545251E+03  0.12714942893E+04  0.25500000920E-02 0.  1.
</event>
<event>
 5   0  0.9312096E-04  0.1740888E+04  0.7818609E-02  0.8738382E-01
       -2   -1    0    0    0  501  0.00000000000E+00  0.00000000000E+00  0.36118756595E+03  0.36118756595E+03  0.25500000920E-02 0. -1.
        2   -1    0    0  501    0  0.00000000000E+00  0.00000000000E+00 -0.20977254117E+04  0.20977254117E+04  0.25500000920E-02 0.  1.
    10030    2    1    2    0    0  0.00000000000E+00  0.00000000000E+00 -0.17365378457E+04  0.24589129776E+04  0.17408875156E+04 0.  0.
        3    1    3    3  502    0 -0.53033294974E+03 -0.46048894890E+03 -0.15945051170E+04  0.17423402906E+04  0.10100000352E+00 0.  1.
       -3    1    3    3    0  502  0.53033294974E+03  0.46048894890E+03 -0.14203272869E+03  0.71657268707E+03  0.10100000352E+00 0. -1.
</event>
<event>
 5   0  0.9625225E-04  0.1544302E+04  0.7818609E-02  0.8855515E-01
       -2   -1    0    0    0  501  0.00000000000E+00  0.00000000000E+00  0.21236820047E+03  0.21236820049E+03  0.25500000920E-02 0. -1.
        2   -1    0    0  501    0  0.00000000000E+00  0.00000000000E+00 -0.28074703999E+04  0.28074703999E+04  0.25500000920E-02 0.  1.
    10030    2    1    2    0    0  0.00000000000E+00  0.00000000000E+00 -0.25951021994E+04  0.30198386003E+04  0.15443023496E+04 0.  0.
        1    1    3    3  502    0 -0.57047120811E+03 -0.32262447588E+03 -0.49916914372E+03  0.82382873571E+03  0.50400001928E-02 0. -1.
       -1    1    3    3    0  502  0.57047120811E+03  0.32262447588E+03 -0.20959330557E+04  0.21960098646E+04  0.50400001928E-02 0.  1.
</event>
<event>
 5   0  0.5059689E-04  0.1632504E+04  0.7818609E-02  0.8800825E-01
       -1   -1    0    0    0  501  0.00000000000E+00  0.00000000000E+00  0.10427177892E+04  0.10427177892E+04  0.50400001928E-02 0.  1.
        1   -1    0    0  501    0  0.00000000000E+00  0.00000000000E+00 -0.63897162352E+03  0.63897162354E+03  0.50400001928E-02 0. -1.
    10030    2    1    2    0    0  0.00000000000E+00  0.00000000000E+00  0.40374616570E+03  0.16816894128E+04  0.16325036952E+04 0.  0.
        5    1    3    3  502    0 -0.42765776934E+03  0.46894384212E+03  0.73060679796E+03  0.96778503706E+03  0.46999998093E+01 0.  1.
       -5    1    3    3    0  502  0.42765776934E+03 -0.46894384212E+03 -0.32686063226E+03  0.71390437571E+03  0.46999998093E+01 0. -1.
</event>
<event>
 5   0  0.9312096E-04  0.1506288E+04  0.7818609E-02  0.8880282E-01
       -2   -1    0    0    0  501  0.00000000000E+00  0.00000000000E+00  0.40096540537E+03  0.40096540538E+03  0.25500000920E-02 0.  1.
        2   -1    0    0  501    0  0.00000000000E+00  0.00000000000E+00 -0.14146498634E+04  0.14146498634E+04  0.25500000920E-02 0. -1.
    10030    2    1    2    0    0  0.00000000000E+00  0.00000000000E+00 -0.10136844580E+04  0.18156152688E+04  0.15062876962E+04 0.  0.
        3    1    3    3  502    0  0.53856846778E+03  0.49993402329E+03 -0.70576502710E+03  0.10188691309E+04  0.10100000352E+00 0. -1.
       -3    1    3    3    0  502 -0.53856846778E+03 -0.49993402329E+03 -0.30791943091E+03  0.79674613790E+03  0.10100000352E+00 0.  1.
</event>
<event>
 5   0  0.5035495E-04  0.1693557E+04  0.7818609E-02  0.8765048E-01
       -1   -1    0    0    0  501  0.00000000000E+00  0.00000000000E+00  0.84894653512E+03  0.84894653513E+03  0.50400001928E-02 0. -1.
        1   -1    0    0  501    0  0.00000000000E+00  0.00000000000E+00 -0.84461600866E+03  0.84461600868E+03  0.50400001928E-02 0.  1.
    10030    2    1    2    0    0  0.00000000000E+00  0.00000000000E+00  0.43305264546E+01  0.16935625438E+04  0.16935570071E+04 0.  0.
        4    1    3    3  502    0  0.56567713236E+03  0.20476744826E+03 -0.59374934237E+03  0.84525748764E+03  0.12699999809E+01 0.  1.
       -4    1    3    3    0  502 -0.56567713236E+03 -0.20476744826E+03  0.59807986883E+03  0.84830505618E+03  0.12699999809E+01 0. -1.
</event>
<event>
 5   0  0.5074133E-04  0.1705434E+04  0.7818609E-02  0.8758271E-01
       -1   -1    0    0    0  501  0.00000000000E+00  0.00000000000E+00  0.57546855783E+03  0.57546855785E+03  0.50400001928E-02 0. -1.
        1   -1    0    0  501    0  0.00000000000E+00  0.00000000000E+00 -0.12635374942E+04  0.12635374942E+04  0.50400001928E-02 0.  1.
    10030    2    1    2    0    0  0.00000000000E+00  0.00000000000E+00 -0.68806893636E+03  0.18390060520E+04  0.17054337860E+04 0.  0.
        1    1    3    3  502    0  0.28146707161E+03  0.80450004665E+03 -0.37219625783E+03  0.93003983346E+03  0.50400001928E-02 0. -1.
       -1    1    3    3    0  502 -0.28146707161E+03 -0.80450004665E+03 -0.31587267853E+03  0.90896621858E+03  0.50400001928E-02 0.  1.
</event>
<event>
 5   0  0.5009762E-04  0.1674695E+04  0.7818609E-02  0.8775930E-01
       -1   -1    0    0    0  501  0.00000000000E+00  0.00000000000E+00  0.19577012635E+04  0.19577012635E+04  0.50400001928E-02 0.  1.
        1   -1    0    0  501    0  0.00000000000E+00  0.00000000000E+00 -0.35814992129E+03  0.35814992133E+03  0.50400001928E-02 0. -1.
    10030    2    1    2    0    0  0.00000000000E+00  0.00000000000E+00  0.15995513422E+04  0.23158511849E+04  0.16746946629E+04 0.  0.
        3    1    3    3  502    0  0.61012440382E+03  0.28746069580E+03  0.14860163364E+04  0.16319099246E+04  0.10100000352E+00 0.  1.
       -3    1    3    3    0  502 -0.61012440382E+03 -0.28746069580E+03  0.11353500587E+03  0.68394126029E+03  0.10100000352E+00 0. -1.
</event>
<event>
 5   0  0.9284971E-04  0.1656855E+04  0.7818609E-02  0.8786362E-01
        2   -1    0    0  501    0  0.00000000000E+00  0.00000000000E+00  0.66452308283E+03  0.66452308284E+03  0.25500000920E-02 0.  1.
       -2   -1    0    0    0  501  0.00000000000E+00  0.00000000000E+00 -0.10327583371E+04  0.10327583371E+04  0.25500000920E-02 0. -1.
    10030    2    1    2    0    0  0.00000000000E+00  0.00000000000E+00 -0.36823525430E+03  0.16972814200E+04  0.16568545549E+04 0.  0.
        4    1    3    3  502    0  0.39627140399E+02  0.49903392064E+03  0.49205216307E+03  0.70194167014E+03  0.12699999809E+01 0.  1.
       -4    1    3    3    0  502 -0.39627140399E+02 -0.49903392064E+03 -0.86028741736E+03  0.99533974982E+03  0.12699999809E+01 0. -1.
</event>
<event>
 5   0  0.9284971E-04  0.1644295E+04  0.7818609E-02  0.8793788E-01
       -2   -1    0    0    0  501  0.00000000000E+00  0.00000000000E+00  0.66885811259E+03  0.66885811259E+03  0.25500000920E-02 0. -1.
        2   -1    0    0  501    0  0.00000000000E+00  0.00000000000E+00 -0.10105683764E+04  0.10105683764E+04  0.25500000920E-02 0.  1.
    10030    2    1    2    0    0  0.00000000000E+00  0.00000000000E+00 -0.34171026386E+03  0.16794264890E+04  0.16442954198E+04 0.  0.
        4    1    3    3  502    0  0.17253143844E+02 -0.73609547151E+03 -0.54444462214E+03  0.91572690996E+03  0.12699999809E+01 0.  1.
       -4    1    3    3    0  502 -0.17253143844E+02  0.73609547151E+03  0.20273435828E+03  0.76369957908E+03  0.12699999809E+01 0. -1.
</event>
<event>
 5   0  0.3523125E-04  0.9114903E+03  0.7818609E-02  0.9411331E-01
        4   -1    0    0  501    0  0.00000000000E+00  0.00000000000E+00  0.22854027441E+03  0.22854380308E+03  0.12699999809E+01 0. -1.
       -4   -1    0    0    0  501  0.00000000000E+00  0.00000000000E+00 -0.90881631156E+03  0.90881719893E+03  0.12699999809E+01 0.  1.
    10030    2    1    2    0    0  0.00000000000E+00  0.00000000000E+00 -0.68027603716E+03  0.11373610020E+04  0.91149029734E+03 0.  0.
        5    1    3    3  502    0 -0.18985698632E+02 -0.38375824440E+03 -0.34360653970E+02  0.38578956885E+03  0.46999998093E+01 0. -1.
       -5    1    3    3    0  502  0.18985698632E+02  0.38375824440E+03 -0.64591538319E+03  0.75157143315E+03  0.46999998093E+01 0.  1.
</event>
<event>
 5   0  0.5059689E-04  0.1681475E+04  0.7818609E-02  0.8772001E-01
       -1   -1    0    0    0  501  0.00000000000E+00  0.00000000000E+00  0.51764561999E+03  0.51764562002E+03  0.50400001928E-02 0. -1.
        1   -1    0    0  501    0  0.00000000000E+00  0.00000000000E+00 -0.13654887804E+04  0.13654887804E+04  0.50400001928E-02 0.  1.
    10030    2    1    2    0    0  0.00000000000E+00  0.00000000000E+00 -0.84784316042E+03  0.18831344004E+04  0.16814746937E+04 0.  0.
        5    1    3    3  502    0 -0.19335914299E+03 -0.58251940009E+03 -0.10673705792E+04  0.12312670924E+04  0.46999998093E+01 0.  1.
       -5    1    3    3    0  502  0.19335914299E+03  0.58251940009E+03  0.21952741874E+03  0.65186730800E+03  0.46999998093E+01 0. -1.
</event>
<event>
 5   0  0.5059689E-04  0.1699066E+04  0.7818609E-02  0.8761897E-01
       -1   -1    0    0    0  501  0.00000000000E+00  0.00000000000E+00  0.30150479004E+03  0.30150479009E+03  0.50400001928E-02 0.  1.
        1   -1    0    0  501    0  0.00000000000E+00  0.00000000000E+00 -0.23936806453E+04  0.23936806453E+04  0.50400001928E-02 0. -1.
    10030    2    1    2    0    0  0.00000000000E+00  0.00000000000E+00 -0.20921758553E+04  0.26951854354E+04  0.16990658380E+04 0.  0.
        5    1    3    3  502    0 -0.48446599673E+03  0.11103651204E+03 -0.21389469073E+04  0.21959399744E+04  0.46999998093E+01 0. -1.
       -5    1    3    3    0  502  0.48446599673E+03 -0.11103651204E+03  0.46771052047E+02  0.49924546097E+03  0.46999998093E+01 0.  1.
</event>
<event>
 5   0  0.9610114E-04  0.1679098E+04  0.7818609E-02  0.8773376E-01
       -2   -1    0    0    0  501  0.00000000000E+00  0.00000000000E+00  0.60549040321E+03  0.60549040321E+03  0.25500000920E-02 0.  1.
        2   -1    0    0  501    0  0.00000000000E+00  0.00000000000E+00 -0.11640851545E+04  0.11640851545E+04  0.25500000920E-02 0. -1.
    10030    2    1    2    0    0  0.00000000000E+00  0.00000000000E+00 -0.55859475134E+03  0.17695755578E+04  0.16790978406E+04 0.  0.
        2    1    3    3  502    0  0.95033487085E+02  0.40154404920E+03  0.49124545012E+03  0.64155364498E+03  0.25500000920E-02 0.  1.
       -2    1    3    3    0  502 -0.95033487085E+02 -0.40154404920E+03 -0.10498402015E+04  0.11280219128E+04  0.25500000920E-02 0. -1.
</event>
<event>
 5   0  0.9312096E-04  0.1705055E+04  0.7818609E-02  0.8758487E-01
       -2   -1    0    0    0  501  0.00000000000E+00  0.00000000000E+00  0.60533932084E+03  0.60533932085E+03  0.25500000920E-02 0. -1.
        2   -1    0    0  501    0  0.00000000000E+00  0.00000000000E+00 -0.12006536888E+04  0.12006536888E+04  0.25500000920E-02 0.  1.
    10030    2    1    2    0    0  0.00000000000E+00  0.00000000000E+00 -0.59531436799E+03  0.18059930097E+04  0.17050547071E+04 0.  0.
        3    1    3    3  502    0 -0.22787823061E+03 -0.35721399522E+03  0.48591602825E+03  0.64470514429E+03  0.10100000352E+00 0. -1.
       -3    1    3    3    0  502  0.22787823061E+03  0.35721399522E+03 -0.10812303962E+04  0.11612878654E+04  0.10100000352E+00 0.  1.
</event>
<event>
 5   0  0.9625225E-04  0.1768449E+04  0.7818609E-02  0.8723260E-01
        2   -1    0    0  501    0  0.00000000000E+00  0.00000000000E+00  0.11846293713E+04  0.11846293714E+04  0.25500000920E-02 0. -1.
       -2   -1    0    0    0  501  0.00000000000E+00  0.00000000000E+00 -0.65999783096E+03  0.65999783097E+03  0.25500000920E-02 0.  1.
    10030    2    1    2    0    0  0.00000000000E+00  0.00000000000E+00  0.52463154039E+03  0.18446272023E+04  0.17684488294E+04 0.  0.
        1    1    3    3  502    0 -0.12514397172E+03  0.71555430660E+03 -0.26355802831E+03  0.77274951547E+03  0.50400001928E-02 0.  1.
       -1    1    3    3    0  502  0.12514397172E+03 -0.71555430660E+03  0.78818956869E+03  0.10718776869E+04  0.50400001928E-02 0. -1.
</event>
<event>
 5   0  0.9610114E-04  0.1732225E+04  0.7818609E-02  0.8743196E-01
       -2   -1    0    0    0  501  0.00000000000E+00  0.00000000000E+00  0.12308553136E+04  0.12308553136E+04  0.25500000920E-02 0.  1.
        2   -1    0    0  501    0  0.00000000000E+00  0.00000000000E+00 -0.60945483079E+03  0.60945483080E+03  0.25500000920E-02 0. -1.
    10030    2    1    2    0    0  0.00000000000E+00  0.00000000000E+00  0.62140048283E+03  0.18403101444E+04  0.17322248317E+04 0.  0.
        2    1    3    3  502    0  0.13550792767E+03 -0.21347604781E+03  0.11907703562E+04  0.12173201973E+04  0.25500000920E-02 0.  1.
       -2    1    3    3    0  502 -0.13550792767E+03  0.21347604781E+03 -0.56936987341E+03  0.62298994712E+03  0.25500000920E-02 0. -1.
</event>
<event>
 5   0  0.9312096E-04  0.1722151E+04  0.7818609E-02  0.8748831E-01
       -2   -1    0    0    0  501  0.00000000000E+00  0.00000000000E+00  0.57750282477E+03  0.57750282477E+03  0.25500000920E-02 0.  1.
        2   -1    0    0  501    0  0.00000000000E+00  0.00000000000E+00 -0.12838909025E+04  0.12838909025E+04  0.25500000920E-02 0. -1.
    10030    2    1    2    0    0  0.00000000000E+00  0.00000000000E+00 -0.70638807771E+03  0.18613937272E+04  0.17221505426E+04 0.  0.
        3    1    3    3  502    0  0.83469791886E+02  0.32381069473E+03 -0.12108435680E+04  0.12561698645E+04  0.10100000352E+00 0. -1.
       -3    1    3    3    0  502 -0.83469791886E+02 -0.32381069473E+03  0.50445549027E+03  0.60522386275E+03  0.10100000352E+00 0.  1.
</event>
<event>
 5   0  0.5009762E-04  0.1673742E+04  0.7818609E-02  0.8776484E-01
       -1   -1    0    0    0  501  0.00000000000E+00  0.00000000000E+00  0.69569335598E+03  0.69569335600E+03  0.50400001928E-02 0. -1.
        1   -1    0    0  501    0  0.00000000000E+00  0.00000000000E+00 -0.10066973475E+04  0.10066973475E+04  0.50400001928E-02 0.  1.
    10030    2    1    2    0    0  0.00000000000E+00  0.00000000000E+00 -0.31100399148E+03  0.17023907035E+04  0.16737415047E+04 0.  0.
        3    1    3    3  502    0  0.63479939946E+02  0.12377776183E+03 -0.99485577419E+03  0.10045340506E+04  0.10100000352E+00 0.  1.
       -3    1    3    3    0  502 -0.63479939946E+02 -0.12377776183E+03  0.68385178271E+03  0.69785665291E+03  0.10100000352E+00 0. -1.
</event>
<event>
 5   0  0.1007187E-03  0.1084199E+04  0.7818609E-02  0.9220731E-01
       -2   -1    0    0    0  501  0.00000000000E+00  0.00000000000E+00  0.17318601918E+03  0.17318601919E+03  0.25500000920E-02 0. -1.
        2   -1    0    0  501    0  0.00000000000E+00  0.00000000000E+00 -0.16968566963E+04  0.16968566963E+04  0.25500000920E-02 0.  1.
    10030    2    1    2    0    0  0.00000000000E+00  0.00000000000E+00 -0.15236706771E+04  0.18700427155E+04  0.10841989787E+04 0.  0.
        5    1    3    3  502    0 -0.27252230124E+03 -0.56614350278E+02  0.40483989570E+02  0.28130878539E+03  0.46999998093E+01 0. -1.
       -5    1    3    3    0  502  0.27252230124E+03  0.56614350278E+02 -0.15641546667E+04  0.15887339301E+04  0.46999998093E+01 0.  1.
</event>
<event>
 5   0  0.5059689E-04  0.1714132E+04  0.7818609E-02  0.8753345E-01
       -1   -1    0    0    0  501  0.00000000000E+00  0.00000000000E+00  0.36953482864E+03  0.36953482868E+03  0.50400001928E-02 0.  1.
        1   -1    0    0  501    0  0.00000000000E+00  0.00000000000E+00 -0.19878028353E+04  0.19878028353E+04  0.50400001928E-02 0. -1.
    10030    2    1    2    0    0  0.00000000000E+00  0.00000000000E+00 -0.16182680066E+04  0.23573376640E+04  0.17141322938E+04 0.  0.
        5    1    3    3  502    0 -0.27784824919E+03 -0.35586867908E+03 -0.18109806163E+04  0.18664177048E+04  0.46999998093E+01 0. -1.
       -5    1    3    3    0  502  0.27784824919E+03  0.35586867908E+03  0.19271260967E+03  0.49091995911E+03  0.46999998093E+01 0.  1.
</event>
<event>
 5   0  0.5009762E-04  0.1645213E+04  0.7818609E-02  0.8793244E-01
       -1   -1    0    0    0  501  0.00000000000E+00  0.00000000000E+00  0.15267909479E+04  0.15267909479E+04  0.50400001928E-02 0.  1.
        1   -1    0    0  501    0  0.00000000000E+00  0.00000000000E+00 -0.44320492424E+03  0.44320492427E+03  0.50400001928E-02 0. -1.
    10030    2    1    2    0    0  0.00000000000E+00  0.00000000000E+00  0.10835860236E+04  0.19699958722E+04  0.16452127722E+04 0.  0.
        3    1    3    3  502    0  0.36672179820E+03 -0.37678822598E+03 -0.21573106689E+03  0.56832574104E+03  0.10100000352E+00 0. -1.
       -3    1    3    3    0  502 -0.36672179820E+03  0.37678822598E+03  0.12993170905E+04  0.14016701311E+04  0.10100000352E+00 0.  1.
</event>
<event>
 5   0  0.9312096E-04  0.1699376E+04  0.7818609E-02  0.8761720E-01
       -2   -1    0    0    0  501  0.00000000000E+00  0.00000000000E+00  0.51848019106E+03  0.51848019106E+03  0.25500000920E-02 0.  1.
        2   -1    0    0  501    0  0.00000000000E+00  0.00000000000E+00 -0.13924734054E+04  0.13924734054E+04  0.25500000920E-02 0. -1.
    10030    2    1    2    0    0  0.00000000000E+00  0.00000000000E+00 -0.87399321429E+03  0.19109535964E+04  0.16993762117E+04 0.  0.
        3    1    3    3  502    0  0.45438758797E+03  0.62556195046E+01  0.37034848485E+03  0.58622966771E+03  0.10100000352E+00 0.  1.
       -3    1    3    3    0  502 -0.45438758797E+03 -0.62556195046E+01 -0.12443416991E+04  0.13247239287E+04  0.10100000352E+00 0. -1.
</event>
<event>
 5   0  0.5074133E-04  0.1688937E+04  0.7818609E-02  0.8767699E-01
        1   -1    0    0  501    0  0.00000000000E+00  0.00000000000E+00  0.50693107349E+03  0.50693107351E+03  0.50400001928E-02 0.  1.
       -1   -1    0    0    0  501  0.00000000000E+00  0.00000000000E+00 -0.14067531538E+04  0.14067531539E+04  0.50400001928E-02 0. -1.
    10030    2    1    2    0    0  0.00000000000E+00  0.00000000000E+00 -0.89982208036E+03  0.19136842274E+04  0.16889368093E+04 0.  0.
        1    1    3    3  502    0  0.29862374136E+03 -0.53637753816E+02 -0.13428637500E+04  0.13767120972E+04  0.50400001928E-02 0. -1.
       -1    1    3    3    0  502 -0.29862374136E+03  0.53637753816E+02  0.44304166962E+03  0.53697213017E+03  0.50400001928E-02 0.  1.
</event>
<event>
 5   0  0.5009762E-04  0.1720262E+04  0.7818609E-02  0.8749892E-01
        1   -1    0    0  501    0  0.00000000000E+00  0.00000000000E+00  0.97279667589E+03  0.97279667590E+03  0.50400001928E-02 0.  1.
       -1   -1    0    0    0  501  0.00000000000E+00  0.00000000000E+00 -0.76051343447E+03  0.76051343449E+03  0.50400001928E-02 0. -1.
    10030    2    1    2    0    0  0.00000000000E+00  0.00000000000E+00  0.21228324141E+03  0.17333101104E+04  0.17202615395E+04 0.  0.
        3    1    3    3  502    0  0.43691238832E+02  0.65715759588E+03 -0.45128153676E+03  0.79838591282E+03  0.10100000352E+00 0. -1.
       -3    1    3    3    0  502 -0.43691238832E+02 -0.65715759588E+03  0.66356477817E+03  0.93492419757E+03  0.10100000352E+00 0.  1.
</event>
<event>
 5   0  0.4947006E-04  0.1677152E+04  0.7818609E-02  0.8774504E-01
       -1   -1    0    0    0  501  0.00000000000E+00  0.00000000000E+00  0.14187917206E+04  0.14187917206E+04  0.50400001928E-02 0.  1.
        1   -1    0    0  501    0  0.00000000000E+00  0.00000000000E+00 -0.49564000118E+03  0.49564000121E+03  0.50400001928E-02 0. -1.
    10030    2    1    2    0    0  0.00000000000E+00  0.00000000000E+00  0.92315171944E+03  0.19144317218E+04  0.16771522651E+04 0.  0.
        2    1    3    3  502    0 -0.22651983352E+03 -0.26829189521E+03 -0.40768623277E+03  0.53805189379E+03  0.25500000920E-02 0. -1.
       -2    1    3    3    0  502  0.22651983352E+03  0.26829189521E+03  0.13308379522E+04  0.13763798281E+04  0.25500000920E-02 0.  1.
</event>
<event>
 5   0  0.5059689E-04  0.1746670E+04  0.7818609E-02  0.8735185E-01
        1   -1    0    0  501    0  0.00000000000E+00  0.00000000000E+00  0.64500221939E+03  0.64500221941E+03  0.50400001928E-02 0.  1.
       -1   -1    0    0    0  501  0.00000000000E+00  0.00000000000E+00 -0.11824981864E+04  0.11824981864E+04  0.50400001928E-02 0. -1.
    10030    2    1    2    0    0  0.00000000000E+00  0.00000000000E+00 -0.53749596697E+03  0.18275004058E+04  0.17466699226E+04 0.  0.
        5    1    3    3  502    0 -0.37822328418E+03 -0.11875268297E+03 -0.10829213947E+04  0.11532111210E+04  0.46999998093E+01 0. -1.
       -5    1    3    3    0  502  0.37822328418E+03  0.11875268297E+03  0.54542542773E+03  0.67428928482E+03  0.46999998093E+01 0.  1.
</event>
<event>
 5   0  0.9284971E-04  0.2001643E+04  0.7818609E-02  0.8605853E-01
        2   -1    0    0  501    0  0.00000000000E+00  0.00000000000E+00  0.21264621561E+04  0.21264621561E+04  0.25500000920E-02 0.  1.
       -2   -1    0    0    0  501  0.00000000000E+00  0.00000000000E+00 -0.47103745492E+03  0.47103745492E+03  0.25500000920E-02 0. -1.
    10030    2    1    2    0    0  0.00000000000E+00  0.00000000000E+00  0.16554247012E+04  0.25974996110E+04  0.20016426474E+04 0.  0.
        4    1    3    3  502    0 -0.55814387276E+03  0.81097045015E+03  0.10614542197E+04  0.14477169361E+04  0.12699999809E+01 0.  1.
       -4    1    3    3    0  502  0.55814387276E+03 -0.81097045015E+03  0.59397048147E+03  0.11497826749E+04  0.12699999809E+01 0. -1.
</event>
<event>
 5   0  0.9625225E-04  0.1717412E+04  0.7818609E-02  0.8751496E-01
       -2   -1    0    0    0  501  0.00000000000E+00  0.00000000000E+00  0.13927619411E+04  0.13927619411E+04  0.25500000920E-02 0.  1.
        2   -1    0    0  501    0  0.00000000000E+00  0.00000000000E+00 -0.52943408035E+03  0.52943408036E+03  0.25500000920E-02 0. -1.
    10030    2    1    2    0    0  0.00000000000E+00  0.00000000000E+00  0.86332786074E+03  0.19221960214E+04  0.17174115843E+04 0.  0.
        1    1    3    3  502    0 -0.57570071271E+03  0.22844715953E+03 -0.23403112278E+03  0.66211024895E+03  0.50400001928E-02 0. -1.
       -1    1    3    3    0  502  0.57570071271E+03 -0.22844715953E+03  0.10973589835E+04  0.12600857725E+04  0.50400001928E-02 0.  1.
</event>
<event>
 5   0  0.5035495E-04  0.1518452E+04  0.7818609E-02  0.8872275E-01
        1   -1    0    0  501    0  0.00000000000E+00  0.00000000000E+00  0.75162911459E+03  0.75162911461E+03  0.50400001928E-02 0.  1.
       -1   -1    0    0    0  501  0.00000000000E+00  0.00000000000E+00 -0.76689958024E+03  0.76689958026E+03  0.50400001928E-02 0. -1.
    10030    2    1    2    0    0  0.00000000000E+00  0.00000000000E+00 -0.15270465651E+02  0.15185286949E+04  0.15184519123E+04 0.  0.
        4    1    3    3  502    0 -0.49272977980E+03 -0.55983304704E+03 -0.14986324969E+03  0.76069460558E+03  0.12699999809E+01 0. -1.
       -4    1    3    3    0  502  0.49272977980E+03  0.55983304704E+03  0.13459278404E+03  0.75783408928E+03  0.12699999809E+01 0.  1.
</event>
<event>
 5   0  0.9610114E-04  0.1723439E+04  0.7818609E-02  0.8748108E-01
       -2   -1    0    0    0  501  0.00000000000E+00  0.00000000000E+00  0.15735329783E+04  0.15735329783E+04  0.25500000920E-02 0.  1.
        2   -1    0    0  501    0  0.00000000000E+00  0.00000000000E+00 -0.47190678840E+03  0.47190678841E+03  0.25500000920E-02 0. -1.
    10030    2    1    2    0    0  0.00000000000E+00  0.00000000000E+00  0.11016261899E+04  0.20454397667E+04  0.17234394614E+04 0.  0.
        2    1    3    3  502    0 -0.71710908517E+03 -0.38793130119E+03  0.21972043208E+03  0.84440109117E+03  0.25500000920E-02 0.  1.
       -2    1    3    3    0  502  0.71710908517E+03  0.38793130119E+03  0.88190575779E+03  0.12010386755E+04  0.25500000920E-02 0. -1.
</event>
<event>
 5   0  0.5059689E-04  0.1502500E+04  0.7818609E-02  0.8882792E-01
        1   -1    0    0  501    0  0.00000000000E+00  0.00000000000E+00  0.10405794627E+04  0.10405794627E+04  0.50400001928E-02 0.  1.
       -1   -1    0    0    0  501  0.00000000000E+00  0.00000000000E+00 -0.54236790397E+03  0.54236790399E+03  0.50400001928E-02 0. -1.
    10030    2    1    2    0    0  0.00000000000E+00  0.00000000000E+00  0.49821155870E+03  0.15829473667E+04  0.15025004521E+04 0.  0.
        5    1    3    3  502    0  0.46135631005E+03 -0.28583453339E+03  0.79634332171E+03  0.96370939673E+03  0.46999998093E+01 0.  1.
       -5    1    3    3    0  502 -0.46135631005E+03  0.28583453339E+03 -0.29813176302E+03  0.61923796994E+03  0.46999998093E+01 0. -1.
</event>
<event>
 5   0  0.9610114E-04  0.1673724E+04  0.7818609E-02  0.8776494E-01
        2   -1    0    0  501    0  0.00000000000E+00  0.00000000000E+00  0.87967950601E+03  0.87967950602E+03  0.25500000920E-02 0. -1.
       -2   -1    0    0    0  501  0.00000000000E+00  0.00000000000E+00 -0.79612904229E+03  0.79612904229E+03  0.25500000920E-02 0.  1.
    10030    2    1    2    0    0  0.00000000000E+00  0.00000000000E+00  0.83550463727E+02  0.16758085483E+04  0.16737244727E+04 0.  0.
        2    1    3    3  502    0  0.15945989419E+02  0.63100461693E+03  0.59192943551E+03  0.86533320622E+03  0.25500000920E-02 0. -1.
       -2    1    3    3    0  502 -0.15945989419E+02 -0.63100461693E+03 -0.50837897178E+03  0.81047534208E+03  0.25500000920E-02 0.  1.
</event>
<event>
 5   0  0.5035495E-04  0.1724997E+04  0.7818609E-02  0.8747235E-01
       -1   -1    0    0    0  501  0.00000000000E+00  0.00000000000E+00  0.50088899834E+03  0.50088899836E+03  0.50400001928E-02 0. -1.
        1   -1    0    0  501    0  0.00000000000E+00  0.00000000000E+00 -0.14851658792E+04  0.14851658792E+04  0.50400001928E-02 0.  1.
    10030    2    1    2    0    0  0.00000000000E+00  0.00000000000E+00 -0.98427688082E+03  0.19860548775E+04  0.17249965213E+04 0.  0.
        4    1    3    3  502    0 -0.50212601744E+03  0.45471224386E+03 -0.11067934855E+04  0.12976467911E+04  0.12699999809E+01 0.  1.
       -4    1    3    3    0  502  0.50212601744E+03 -0.45471224386E+03  0.12251660467E+03  0.68840808640E+03  0.12699999809E+01 0. -1.
</event>
<event>
 5   0  0.4947006E-04  0.1617332E+04  0.7818609E-02  0.8809970E-01
        1   -1    0    0  501    0  0.00000000000E+00  0.00000000000E+00  0.55606472603E+03  0.55606472605E+03  0.50400001928E-02 0.  1.
       -1   -1    0    0    0  501  0.00000000000E+00  0.00000000000E+00 -0.11760155827E+04  0.11760155827E+04  0.50400001928E-02 0. -1.
    10030    2    1    2    0    0  0.00000000000E+00  0.00000000000E+00 -0.61995085667E+03  0.17320803088E+04  0.16173321030E+04 0.  0.
        2    1    3    3  502    0  0.66413319987E+03 -0.38141497934E+03 -0.58799036007E+03  0.96554800874E+03  0.25500000920E-02 0. -1.
       -2    1    3    3    0  502 -0.66413319987E+03  0.38141497934E+03 -0.31960496592E+02  0.76653230002E+03  0.25500000920E-02 0.  1.
</event>
<event>
 5   0  0.4947006E-04  0.1733690E+04  0.7818609E-02  0.8742379E-01
       -1   -1    0    0    0  501  0.00000000000E+00  0.00000000000E+00  0.12942220209E+04  0.12942220209E+04  0.50400001928E-02 0.  1.
        1   -1    0    0  501    0  0.00000000000E+00  0.00000000000E+00 -0.58059630570E+03  0.58059630573E+03  0.50400001928E-02 0. -1.
    10030    2    1    2    0    0  0.00000000000E+00  0.00000000000E+00  0.71362571520E+03  0.18748183266E+04  0.17336903116E+04 0.  0.
        2    1    3    3  502    0  0.45073461028E+03 -0.16977176853E+03  0.11362011008E+04  0.12340733705E+04  0.25500000920E-02 0.  1.
       -2    1    3    3    0  502 -0.45073461028E+03  0.16977176853E+03 -0.42257538561E+03  0.64074495614E+03  0.25500000920E-02 0. -1.
</event>
<event>
 5   0  0.9610114E-04  0.1757691E+04  0.7818609E-02  0.8729128E-01
        2   -1    0    0  501    0  0.00000000000E+00  0.00000000000E+00  0.18264690383E+04  0.18264690383E+04  0.25500000920E-02 0. -1.
       -2   -1    0    0    0  501  0.00000000000E+00  0.00000000000E+00 -0.42287587120E+03  0.42287587121E+03  0.25500000920E-02 0.  1.
    10030    2    1    2    0    0  0.00000000000E+00  0.00000000000E+00  0.14035931671E+04  0.22493449095E+04  0.17576913106E+04 0.  0.
        2    1    3    3  502    0  0.63151311354E+03  0.98670736922E+02 -0.70101020763E+02  0.64300768270E+03  0.25500000920E-02 0.  1.
       -2    1    3    3    0  502 -0.63151311354E+03 -0.98670736922E+02  0.14736941879E+04  0.16063372268E+04  0.25500000920E-02 0. -1.
</event>
<event>
 5   0  0.3523125E-04  0.1692868E+04  0.7818609E-02  0.8765443E-01
        3   -1    0    0  501    0  0.00000000000E+00  0.00000000000E+00  0.52507897172E+03  0.52507898144E+03  0.10100000352E+00 0.  1.
       -3   -1    0    0    0  501  0.00000000000E+00  0.00000000000E+00 -0.13644617063E+04  0.13644617101E+04  0.10100000352E+00 0. -1.
    10030    2    1    2    0    0  0.00000000000E+00  0.00000000000E+00 -0.83938273460E+03  0.18895406915E+04  0.16928675819E+04 0.  0.
        4    1    3    3  502    0 -0.87902641550E+02  0.19416828076E+03 -0.13340174468E+04  0.13509375844E+04  0.12699999809E+01 0. -1.
       -4    1    3    3    0  502  0.87902641550E+02 -0.19416828076E+03  0.49463471217E+03  0.53860310714E+03  0.12699999809E+01 0.  1.
</event>
<event>
 5   0  0.1007187E-03  0.1974091E+04  0.7818609E-02  0.8618831E-01
        2   -1    0    0  501    0  0.00000000000E+00  0.00000000000E+00  0.12621157262E+04  0.12621157262E+04  0.25500000920E-02 0.  1.
       -2   -1    0    0    0  501  0.00000000000E+00  0.00000000000E+00 -0.77192507966E+03  0.77192507966E+03  0.25500000920E-02 0. -1.
    10030    2    1    2    0    0  0.00000000000E+00  0.00000000000E+00  0.49019064649E+03  0.20340408058E+04  0.19740909629E+04 0.  0.
        5    1    3    3  502    0  0.19432837764E+03  0.95925236065E+03  0.11351408974E+03  0.98531017874E+03  0.46999998093E+01 0.  1.
       -5    1    3    3    0  502 -0.19432837764E+03 -0.95925236065E+03  0.37667655675E+03  0.10487306271E+04  0.46999998093E+01 0. -1.
</event>
<event>
 5   0  0.1007187E-03  0.1697398E+04  0.7818609E-02  0.8762850E-01
       -2   -1    0    0    0  501  0.00000000000E+00  0.00000000000E+00  0.35548075669E+03  0.35548075670E+03  0.25500000920E-02 0.  1.
        2   -1    0    0  501    0  0.00000000000E+00  0.00000000000E+00 -0.20262425373E+04  0.20262425373E+04  0.25500000920E-02 0. -1.
    10030    2    1    2    0    0  0.00000000000E+00  0.00000000000E+00 -0.16707617806E+04  0.23817232940E+04  0.16973982802E+04 0.  0.
        5    1    3    3  502    0  0.21032901279E+03 -0.70020805298E+03 -0.14401067598E+04  0.16150725002E+04  0.46999998093E+01 0. -1.
       -5    1    3    3    0  502 -0.21032901279E+03  0.70020805298E+03 -0.23065502078E+03  0.76665079383E+03  0.46999998093E+01 0.  1.
</event>
<event>
 5   0  0.9284971E-04  0.1682258E+04  0.7818609E-02  0.8771549E-01
        2   -1    0    0  501    0  0.00000000000E+00  0.00000000000E+00  0.16322889624E+04  0.16322889624E+04  0.25500000920E-02 0.  1.
       -2   -1    0    0    0  501  0.00000000000E+00  0.00000000000E+00 -0.43343902409E+03  0.43343902410E+03  0.25500000920E-02 0. -1.
    10030    2    1    2    0    0  0.00000000000E+00  0.00000000000E+00  0.11988499383E+04  0.20657279865E+04  0.16822576912E+04 0.  0.
        4    1    3    3  502    0  0.52551672563E+03 -0.41551367352E+03 -0.25113580206E+02  0.67041162476E+03  0.12699999809E+01 0.  1.
       -4    1    3    3    0  502 -0.52551672563E+03  0.41551367352E+03  0.12239635185E+04  0.13953163618E+04  0.12699999809E+01 0. -1.
</event>
<event>
 5   0  0.5035495E-04  0.1698578E+04  0.7818609E-02  0.8762176E-01
       -1   -1    0    0    0  501  0.00000000000E+00  0.00000000000E+00  0.46696954617E+03  0.46696954620E+03  0.50400001928E-02 0.  1.
        1   -1    0    0  501    0  0.00000000000E+00  0.00000000000E+00 -0.15446222786E+04  0.15446222786E+04  0.50400001928E-02 0. -1.
    10030    2    1    2    0    0  0.00000000000E+00  0.00000000000E+00 -0.10776527324E+04  0.20115918248E+04  0.16985777162E+04 0.  0.
        4    1    3    3  502    0  0.32521740301E+03 -0.12469668480E+03 -0.14561461798E+04  0.14972237416E+04  0.12699999809E+01 0. -1.
       -4    1    3    3    0  502 -0.32521740301E+03  0.12469668480E+03  0.37849344740E+03  0.51436808323E+03  0.12699999809E+01 0.  1.
</event>
<event>
 5   0  0.4947006E-04  0.1694684E+04  0.7818609E-02  0.8764402E-01
       -1   -1    0    0    0  501  0.00000000000E+00  0.00000000000E+00  0.53769795950E+03  0.53769795952E+03  0.50400001928E-02 0.  1.
        1   -1    0    0  501    0  0.00000000000E+00  0.00000000000E+00 -0.13353010424E+04  0.13353010424E+04  0.50400001928E-02 0. -1.
    10030    2    1    2    0    0  0.00000000000E+00  0.00000000000E+00 -0.79760308288E+03  0.18729990019E+04  0.16946842135E+04 0.  0.
        2    1    3    3  502    0  0.37644367600E+03 -0.24025311723E+03  0.39707758567E+03  0.59758012901E+03  0.25500000920E-02 0.  1.
       -2    1    3    3    0  502 -0.37644367600E+03  0.24025311723E+03 -0.11946806686E+04  0.12754188729E+04  0.25500000920E-02 0. -1.
</event>
<event>
 5   0  0.9610114E-04  0.2362335E+04  0.7818609E-02  0.8453741E-01
       -2   -1    0    0    0  501  0.00000000000E+00  0.00000000000E+00  0.14089234895E+04  0.14089234895E+04  0.25500000920E-02 0.  1.
        2   -1    0    0  501    0  0.00000000000E+00  0.00000000000E+00 -0.99022867362E+03  0.99022867362E+03  0.25500000920E-02 0. -1.
    10030    2    1    2    0    0  0.00000000000E+00  0.00000000000E+00  0.41869481591E+03  0.23991521631E+04  0.23623348097E+04 0.  0.
        2    1    3    3  502    0 -0.13719851655E+03  0.11001321415E+04  0.62318094562E+03  0.12717974102E+04  0.25500000920E-02 0.  1.
       -2    1    3    3    0  502  0.13719851655E+03 -0.11001321415E+04 -0.20448612971E+03  0.11273547529E+04  0.25500000920E-02 0. -1.
</event>
<event>
 5   0  0.4947006E-04  0.1684325E+04  0.7818609E-02  0.8770355E-01
        1   -1    0    0  501    0  0.00000000000E+00  0.00000000000E+00  0.27517097437E+04  0.27517097437E+04  0.50400001928E-02 0.  1.
       -1   -1    0    0    0  501  0.00000000000E+00  0.00000000000E+00 -0.25774450128E+03  0.25774450133E+03  0.50400001928E-02 0. -1.
    10030    2    1    2    0    0  0.00000000000E+00  0.00000000000E+00  0.24939652425E+04  0.30094542451E+04  0.16843254503E+04 0.  0.
        2    1    3    3  502    0 -0.49887384535E+03  0.23948324264E+02  0.35432959559E+02  0.50070363534E+03  0.25500000920E-02 0. -1.
       -2    1    3    3    0  502  0.49887384535E+03 -0.23948324264E+02  0.24585322829E+04  0.25087506097E+04  0.25500000920E-02 0.  1.
</event>
<event>
 5   0  0.9312096E-04  0.1706314E+04  0.7818609E-02  0.8757771E-01
        2   -1    0    0  501    0  0.00000000000E+00  0.00000000000E+00  0.23338009565E+04  0.23338009565E+04  0.25500000920E-02 0. -1.
       -2   -1    0    0    0  501  0.00000000000E+00  0.00000000000E+00 -0.31188479034E+03  0.31188479035E+03  0.25500000920E-02 0.  1.
    10030    2    1    2    0    0  0.00000000000E+00  0.00000000000E+00  0.20219161662E+04  0.26456857469E+04  0.17063141821E+04 0.  0.
        3    1    3    3  502    0 -0.95075781432E+02 -0.53405686495E+03  0.20319783123E+04  0.21031386096E+04  0.10100000352E+00 0. -1.
       -3    1    3    3    0  502  0.95075781432E+02  0.53405686495E+03 -0.10062146104E+02  0.54254713731E+03  0.10100000352E+00 0.  1.
</event>
<event>
 5   0  0.1007187E-03  0.1543005E+04  0.7818609E-02  0.8856348E-01
       -2   -1    0    0    0  501  0.00000000000E+00  0.00000000000E+00  0.53018967897E+03  0.53018967897E+03  0.25500000920E-02 0. -1.
        2   -1    0    0  501    0  0.00000000000E+00  0.00000000000E+00 -0.11226477956E+04  0.11226477956E+04  0.25500000920E-02 0.  1.
    10030    2    1    2    0    0  0.00000000000E+00  0.00000000000E+00 -0.59245811662E+03  0.16528374746E+04  0.15430052162E+04 0.  0.
        5    1    3    3  502    0  0.31827127390E+03  0.68510241593E+03 -0.46400571593E+03  0.88655813037E+03  0.46999998093E+01 0.  1.
       -5    1    3    3    0  502 -0.31827127390E+03 -0.68510241593E+03 -0.12845240069E+03  0.76627934420E+03  0.46999998093E+01 0. -1.
</event>
<event>
 5   0  0.5059689E-04  0.1695282E+04  0.7818609E-02  0.8764060E-01
       -1   -1    0    0    0  501  0.00000000000E+00  0.00000000000E+00  0.42842616054E+03  0.42842616057E+03  0.50400001928E-02 0.  1.
        1   -1    0    0  501    0  0.00000000000E+00  0.00000000000E+00 -0.16770564462E+04  0.16770564462E+04  0.50400001928E-02 0. -1.
    10030    2    1    2    0    0  0.00000000000E+00  0.00000000000E+00 -0.12486302856E+04  0.21054826068E+04  0.16952815156E+04 0.  0.
        5    1    3    3  502    0  0.59096988348E+03  0.26694987811E+03 -0.13022571552E+04  0.14547863860E+04  0.46999998093E+01 0. -1.
       -5    1    3    3    0  502 -0.59096988348E+03 -0.26694987811E+03  0.53626869545E+02  0.65069622078E+03  0.46999998093E+01 0.  1.
</event>
<event>
 5   0  0.5009762E-04  0.1700749E+04  0.7818609E-02  0.8760937E-01
       -1   -1    0    0    0  501  0.00000000000E+00  0.00000000000E+00  0.43050978589E+03  0.43050978592E+03  0.50400001928E-02 0.  1.
        1   -1    0    0  501    0  0.00000000000E+00  0.00000000000E+00 -0.16797221841E+04  0.16797221841E+04  0.50400001928E-02 0. -1.
    10030    2    1    2    0    0  0.00000000000E+00  0.00000000000E+00 -0.12492123982E+04  0.21102319700E+04  0.17007490560E+04 0.  0.
        3    1    3    3  502    0 -0.12214677666E+03  0.74444100546E+03 -0.11115568819E+04  0.13433804218E+04  0.10100000352E+00 0. -1.
       -3    1    3    3    0  502  0.12214677666E+03 -0.74444100546E+03 -0.13765551626E+03  0.76685154823E+03  0.10100000352E+00 0.  1.
</event>
<event>
 5   0  0.9312096E-04  0.1800968E+04  0.7818609E-02  0.8705785E-01
        2   -1    0    0  501    0  0.00000000000E+00  0.00000000000E+00  0.13293884135E+04  0.13293884136E+04  0.25500000920E-02 0.  1.
       -2   -1    0    0    0  501  0.00000000000E+00  0.00000000000E+00 -0.60995801917E+03  0.60995801918E+03  0.25500000920E-02 0. -1.
    10030    2    1    2    0    0  0.00000000000E+00  0.00000000000E+00  0.71943039438E+03  0.19393464327E+04  0.18009676548E+04 0.  0.
        3    1    3    3  502    0  0.59356941951E+03  0.29946324710E+03 -0.29429587871E+03  0.72705774637E+03  0.10100000352E+00 0. -1.
       -3    1    3    3    0  502 -0.59356941951E+03 -0.29946324710E+03  0.10137262731E+04  0.12122886864E+04  0.10100000352E+00 0.  1.
</event>
<event>
 5   0  0.9625225E-04  0.1619340E+04  0.7818609E-02  0.8808754E-01
        2   -1    0    0  501    0  0.00000000000E+00  0.00000000000E+00  0.19027092846E+04  0.19027092846E+04  0.25500000920E-02 0.  1.
       -2   -1    0    0    0  501  0.00000000000E+00  0.00000000000E+00 -0.34454338555E+03  0.34454338556E+03  0.25500000920E-02 0. -1.
    10030    2    1    2    0    0  0.00000000000E+00  0.00000000000E+00  0.15581658990E+04  0.22472526701E+04  0.16193404814E+04 0.  0.
        1    1    3    3  502    0 -0.20112827681E+03  0.11738496005E+03  0.18552300587E+04  0.18697888606E+04  0.50400001928E-02 0.  1.
       -1    1    3    3    0  502  0.20112827681E+03 -0.11738496005E+03 -0.29706415963E+03  0.37746380957E+03  0.50400001928E-02 0. -1.
</event>
<event>
 5   0  0.9625225E-04  0.1622398E+04  0.7818609E-02  0.8806905E-01
       -2   -1    0    0    0  501  0.00000000000E+00  0.00000000000E+00  0.66778498545E+03  0.66778498546E+03  0.25500000920E-02 0.  1.
        2   -1    0    0  501    0  0.00000000000E+00  0.00000000000E+00 -0.98541313024E+03  0.98541313025E+03  0.25500000920E-02 0. -1.
    10030    2    1    2    0    0  0.00000000000E+00  0.00000000000E+00 -0.31762814479E+03  0.16531981157E+04  0.16223983393E+04 0.  0.
        1    1    3    3  502    0  0.54649494802E+03 -0.50033141630E+03  0.17769119684E+03  0.76194646518E+03  0.50400001928E-02 0.  1.
       -1    1    3    3    0  502 -0.54649494802E+03  0.50033141630E+03 -0.49531934163E+03  0.89125165052E+03  0.50400001928E-02 0. -1.
</event>
<event>
 5   0  0.9610114E-04  0.1762655E+04  0.7818609E-02  0.8726415E-01
       -2   -1    0    0    0  501  0.00000000000E+00  0.00000000000E+00  0.53631912072E+03  0.53631912073E+03  0.25500000920E-02 0.  1.
        2   -1    0    0  501    0  0.00000000000E+00  0.00000000000E+00 -0.14482761449E+04  0.14482761449E+04  0.25500000920E-02 0. -1.
    10030    2    1    2    0    0  0.00000000000E+00  0.00000000000E+00 -0.91195702415E+03  0.19845952656E+04  0.17626550299E+04 0.  0.
        2    1    3    3  502    0  0.67722365228E+03  0.49197874108E+03 -0.14545677067E+03  0.84960733814E+03  0.25500000920E-02 0.  1.
       -2    1    3    3    0  502 -0.67722365228E+03 -0.49197874108E+03 -0.76650025347E+03  0.11349879275E+04  0.25500000920E-02 0. -1.
</event>
<event>
 5   0  0.5074133E-04  0.1672819E+04  0.7818609E-02  0.8777020E-01
        1   -1    0    0  501    0  0.00000000000E+00  0.00000000000E+00  0.54411387074E+03  0.54411387076E+03  0.50400001928E-02 0.  1.
       -1   -1    0    0    0  501  0.00000000000E+00  0.00000000000E+00 -0.12857254390E+04  0.12857254391E+04  0.50400001928E-02 0. -1.
    10030    2    1    2    0    0  0.00000000000E+00  0.00000000000E+00 -0.74161156830E+03  0.18298393098E+04  0.16728192316E+04 0.  0.
        1    1    3    3  502    0  0.51545170880E+03  0.65309788484E+03 -0.46460903735E+03  0.95293697006E+03  0.50400001928E-02 0.  1.
       -1    1    3    3    0  502 -0.51545170880E+03 -0.65309788484E+03 -0.27700253095E+03  0.87690233975E+03  0.50400001928E-02 0. -1.
</event>
<event>
 5   0  0.9625225E-04  0.1650402E+04  0.7818609E-02  0.8790169E-01
       -2   -1    0    0    0  501  0.00000000000E+00  0.00000000000E+00  0.93596348361E+03  0.93596348361E+03  0.25500000920E-02 0. -1.
        2   -1    0    0  501    0  0.00000000000E+00  0.00000000000E+00 -0.72754621115E+03  0.72754621115E+03  0.25500000920E-02 0.  1.
    10030    2    1    2    0    0  0.00000000000E+00  0.00000000000E+00  0.20841727246E+03  0.16635096948E+04  0.16504019950E+04 0.  0.
        1    1    3    3  502    0  0.29240147375E+03 -0.23322001007E+03 -0.63720559097E+03  0.73886477798E+03  0.50400001928E-02 0.  1.
       -1    1    3    3    0  502 -0.29240147375E+03  0.23322001007E+03  0.84562286343E+03  0.92464491678E+03  0.50400001928E-02 0. -1.
</event>
<event>
 5   0  0.9284971E-04  0.1643990E+04  0.7818609E-02  0.8793970E-01
       -2   -1    0    0    0  501  0.00000000000E+00  0.00000000000E+00  0.80294006597E+03  0.80294006597E+03  0.25500000920E-02 0. -1.
        2   -1    0    0  501    0  0.00000000000E+00  0.00000000000E+00 -0.84150189789E+03  0.84150189790E+03  0.25500000920E-02 0.  1.
    10030    2    1    2    0    0  0.00000000000E+00  0.00000000000E+00 -0.38561831927E+02  0.16444419639E+04  0.16439897681E+04 0.  0.
        4    1    3    3  502    0 -0.58880065127E+03  0.34522431125E+03 -0.47745487845E+03  0.83296506882E+03  0.12699999809E+01 0. -1.
       -4    1    3    3    0  502  0.58880065127E+03 -0.34522431125E+03  0.43889304652E+03  0.81147689505E+03  0.12699999809E+01 0.  1.
</event>
<event>
 5   0  0.9312096E-04  0.1770939E+04  0.7818609E-02  0.8721908E-01
        2   -1    0    0  501    0  0.00000000000E+00  0.00000000000E+00  0.18142999007E+04  0.18142999007E+04  0.25500000920E-02 0.  1.
       -2   -1    0    0    0  501  0.00000000000E+00  0.00000000000E+00 -0.43215358457E+03  0.43215358458E+03  0.25500000920E-02 0. -1.
    10030    2    1    2    0    0  0.00000000000E+00  0.00000000000E+00  0.13821463161E+04  0.22464534853E+04  0.17709389663E+04 0.  0.
        3    1    3    3  502    0  0.36462474596E+03  0.31120380083E+01 -0.33249347169E+03  0.49347017039E+03  0.10100000352E+00 0. -1.
       -3    1    3    3    0  502 -0.36462474596E+03 -0.31120380083E+01  0.17146397878E+04  0.17529833149E+04  0.10100000352E+00 0.  1.
</event>
<event>
 5   0  0.5059689E-04  0.1713521E+04  0.7818609E-02  0.8753690E-01
       -1   -1    0    0    0  501  0.00000000000E+00  0.00000000000E+00  0.34497103931E+03  0.34497103935E+03  0.50400001928E-02 0.  1.
        1   -1    0    0  501    0  0.00000000000E+00  0.00000000000E+00 -0.21278256393E+04  0.21278256393E+04  0.50400001928E-02 0. -1.
    10030    2    1    2    0    0  0.00000000000E+00  0.00000000000E+00 -0.17828546000E+04  0.24727966786E+04  0.17135206124E+04 0.  0.
        5    1    3    3  502    0 -0.14387008762E+03  0.10183856942E+03 -0.21013571530E+04  0.21087422011E+04  0.46999998093E+01 0. -1.
       -5    1    3    3    0  502  0.14387008762E+03 -0.10183856942E+03  0.31850255302E+03  0.36405447753E+03  0.46999998093E+01 0.  1.
</event>
<event>
 5   0  0.4947006E-04  0.1730397E+04  0.7818609E-02  0.8744215E-01
        1   -1    0    0  501    0  0.00000000000E+00  0.00000000000E+00  0.14344395611E+04  0.14344395611E+04  0.50400001928E-02 0. -1.
       -1   -1    0    0    0  501  0.00000000000E+00  0.00000000000E+00 -0.52185431570E+03  0.52185431572E+03  0.50400001928E-02 0.  1.
    10030    2    1    2    0    0  0.00000000000E+00  0.00000000000E+00  0.91258524541E+03  0.19562938768E+04  0.17303970361E+04 0.  0.
        2    1    3    3  502    0  0.65071333322E+03  0.56018170847E+03  0.57666839150E+03  0.10343006441E+04  0.25500000920E-02 0. -1.
       -2    1    3    3    0  502 -0.65071333322E+03 -0.56018170847E+03  0.33591685391E+03  0.92199323277E+03  0.25500000920E-02 0.  1.
</event>
<event>
 5   0  0.9625225E-04  0.1713245E+04  0.7818609E-02  0.8753846E-01
        2   -1    0    0  501    0  0.00000000000E+00  0.00000000000E+00  0.72601709659E+03  0.72601709660E+03  0.25500000920E-02 0.  1.
       -2   -1    0    0    0  501  0.00000000000E+00  0.00000000000E+00 -0.10107234252E+04  0.10107234252E+04  0.25500000920E-02 0. -1.
    10030    2    1    2    0    0  0.00000000000E+00  0.00000000000E+00 -0.28470632859E+03  0.17367405218E+04  0.17132454426E+04 0.  0.
        1    1    3    3  502    0 -0.24801660052E+03 -0.15804381420E+03  0.67323763379E+03  0.73466930854E+03  0.50400001928E-02 0.  1.
       -1    1    3    3    0  502  0.24801660052E+03  0.15804381420E+03 -0.95794396238E+03  0.10020712132E+04  0.50400001928E-02 0. -1.
</event>
<event>
 5   0  0.9284971E-04  0.1696937E+04  0.7818609E-02  0.8763113E-01
       -2   -1    0    0    0  501  0.00000000000E+00  0.00000000000E+00  0.70602118050E+03  0.70602118051E+03  0.25500000920E-02 0. -1.
        2   -1    0    0  501    0  0.00000000000E+00  0.00000000000E+00 -0.10196566357E+04  0.10196566357E+04  0.25500000920E-02 0.  1.
    10030    2    1    2    0    0  0.00000000000E+00  0.00000000000E+00 -0.31363545518E+03  0.17256778162E+04  0.16969374551E+04 0.  0.
        4    1    3    3  502    0  0.68990422941E+03  0.15394904048E+03  0.32041645614E+03  0.77610338943E+03  0.12699999809E+01 0. -1.
       -4    1    3    3    0  502 -0.68990422941E+03 -0.15394904048E+03 -0.63405191132E+03  0.94957442676E+03  0.12699999809E+01 0.  1.
</event>
<event>
 5   0  0.9312096E-04  0.1670562E+04  0.7818609E-02  0.8778334E-01
       -2   -1    0    0    0  501  0.00000000000E+00  0.00000000000E+00  0.10438418614E+04  0.10438418614E+04  0.25500000920E-02 0. -1.
        2   -1    0    0  501    0  0.00000000000E+00  0.00000000000E+00 -0.66839123969E+03  0.66839123970E+03  0.25500000920E-02 0.  1.
    10030    2    1    2    0    0  0.00000000000E+00  0.00000000000E+00  0.37545062171E+03  0.17122331011E+04  0.16705624871E+04 0.  0.
        3    1    3    3  502    0 -0.38716762583E+03 -0.56349505692E+03  0.67955889455E+03  0.96396356312E+03  0.10100000352E+00 0. -1.
       -3    1    3    3    0  502  0.38716762583E+03  0.56349505692E+03 -0.30410827284E+03  0.74826953798E+03  0.10100000352E+00 0.  1.
</event>
<event>
 5   0  0.5074133E-04  0.1697337E+04  0.7818609E-02  0.8762885E-01
       -1   -1    0    0    0  501  0.00000000000E+00  0.00000000000E+00  0.83664743706E+03  0.83664743708E+03  0.50400001928E-02 0. -1.
        1   -1    0    0  501    0  0.00000000000E+00  0.00000000000E+00 -0.86086223607E+03  0.86086223609E+03  0.50400001928E-02 0.  1.
    10030    2    1    2    0    0  0.00000000000E+00  0.00000000000E+00 -0.24214799010E+02  0.16975096732E+04  0.16973369536E+04 0.  0.
        1    1    3    3  502    0 -0.47559947455E+03  0.28238527964E+03 -0.65583575793E+03  0.85793755469E+03  0.50400001928E-02 0.  1.
       -1    1    3    3    0  502  0.47559947455E+03 -0.28238527964E+03  0.63162095892E+03  0.83957211847E+03  0.50400001928E-02 0. -1.
</event>
<event>
 5   0  0.9610114E-04  0.1740100E+04  0.7818609E-02  0.8738819E-01
        2   -1    0    0  501    0  0.00000000000E+00  0.00000000000E+00  0.72917480096E+03  0.72917480097E+03  0.25500000920E-02 0. -1.
       -2   -1    0    0    0  501  0.00000000000E+00  0.00000000000E+00 -0.10381416115E+04  0.10381416115E+04  0.25500000920E-02 0.  1.
    10030    2    1    2    0    0  0.00000000000E+00  0.00000000000E+00 -0.30896681050E+03  0.17673164124E+04  0.17400996557E+04 0.  0.
        2    1    3    3  502    0  0.16616313374E+03  0.19072984486E+03 -0.99996932865E+03  0.10314682346E+04  0.25500000920E-02 0.  1.
       -2    1    3    3    0  502 -0.16616313374E+03 -0.19072984486E+03  0.69100251815E+03  0.73584817784E+03  0.25500000920E-02 0. -1.
</event>
<event>
 5   0  0.5074133E-04  0.1677373E+04  0.7818609E-02  0.8774376E-01
       -1   -1    0    0    0  501  0.00000000000E+00  0.00000000000E+00  0.65527836195E+03  0.65527836197E+03  0.50400001928E-02 0.  1.
        1   -1    0    0  501    0  0.00000000000E+00  0.00000000000E+00 -0.10734289685E+04  0.10734289685E+04  0.50400001928E-02 0. -1.
    10030    2    1    2    0    0  0.00000000000E+00  0.00000000000E+00 -0.41815060657E+03  0.17287073305E+04  0.16773726791E+04 0.  0.
        1    1    3    3  502    0  0.74156863386E+03  0.21777986944E+03  0.12653263686E+03  0.78317470496E+03  0.50400001928E-02 0.  1.
       -1    1    3    3    0  502 -0.74156863386E+03 -0.21777986944E+03 -0.54468324343E+03  0.94553262554E+03  0.50400001928E-02 0. -1.
</event>
<event>
 5   0  0.4947006E-04  0.1606255E+04  0.7818609E-02  0.8816714E-01
        1   -1    0    0  501    0  0.00000000000E+00  0.00000000000E+00  0.10357239913E+04  0.10357239913E+04  0.50400001928E-02 0. -1.
       -1   -1    0    0    0  501  0.00000000000E+00  0.00000000000E+00 -0.62276643920E+03  0.62276643922E+03  0.50400001928E-02 0.  1.
    10030    2    1    2    0    0  0.00000000000E+00  0.00000000000E+00  0.41295755211E+03  0.16584904305E+04  0.16062554493E+04 0.  0.
        2    1    3    3  502    0  0.19418240535E+03  0.49435376691E+03 -0.41554189499E+03  0.67436453043E+03  0.25500000920E-02 0.  1.
       -2    1    3    3    0  502 -0.19418240535E+03 -0.49435376691E+03  0.82849944710E+03  0.98412590011E+03  0.25500000920E-02 0. -1.
</event>
<event>
 5   0  0.1007187E-03  0.1699313E+04  0.7818609E-02  0.8761756E-01
       -2   -1    0    0    0  501  0.00000000000E+00  0.00000000000E+00  0.80478698515E+03  0.80478698516E+03  0.25500000920E-02 0. -1.
        2   -1    0    0  501    0  0.00000000000E+00  0.00000000000E+00 -0.89702781373E+03  0.89702781373E+03  0.25500000920E-02 0.  1.
    10030    2    1    2    0    0  0.00000000000E+00  0.00000000000E+00 -0.92240828574E+02  0.17018147989E+04  0.16993131669E+04 0.  0.
        5    1    3    3  502    0 -0.64416287168E+03 -0.51091653536E+03  0.16846753529E+03  0.83927642157E+03  0.46999998093E+01 0. -1.
       -5    1    3    3    0  502  0.64416287168E+03  0.51091653536E+03 -0.26070836386E+03  0.86253837732E+03  0.46999998093E+01 0.  1.
</event>
<event>
 5   0  0.5074133E-04  0.1717201E+04  0.7818609E-02  0.8751614E-01
       -1   -1    0    0    0  501  0.00000000000E+00  0.00000000000E+00  0.91514765800E+03  0.91514765802E+03  0.50400001928E-02 0. -1.
        1   -1    0    0  501    0  0.00000000000E+00  0.00000000000E+00 -0.80554776166E+03  0.80554776167E+03  0.50400001928E-02 0.  1.
    10030    2    1    2    0    0  0.00000000000E+00  0.00000000000E+00  0.10959989634E+03  0.17206954197E+04  0.17172013831E+04 0.  0.
        1    1    3    3  502    0  0.78466809849E+03 -0.18344914737E+03 -0.24217706701E+03  0.84143172407E+03  0.50400001928E-02 0.  1.
       -1    1    3    3    0  502 -0.78466809849E+03  0.18344914737E+03  0.35177696335E+03  0.87926369562E+03  0.50400001928E-02 0. -1.
</event>
<event>
 5   0  0.9284971E-04  0.1661735E+04  0.7818609E-02  0.8783494E-01
        2   -1    0    0  501    0  0.00000000000E+00  0.00000000000E+00  0.60333548144E+03  0.60333548145E+03  0.25500000920E-02 0. -1.
       -2   -1    0    0    0  501  0.00000000000E+00  0.00000000000E+00 -0.11442075892E+04  0.11442075892E+04  0.25500000920E-02 0.  1.
    10030    2    1    2    0    0  0.00000000000E+00  0.00000000000E+00 -0.54087210779E+03  0.17475430707E+04  0.16617352818E+04 0.  0.
        4    1    3    3  502    0 -0.26723988902E+01 -0.14557311197E+03  0.58981415600E+03  0.60752038991E+03  0.12699999809E+01 0. -1.
       -4    1    3    3    0  502  0.26723988902E+01  0.14557311197E+03 -0.11306862638E+04  0.11400226808E+04  0.12699999809E+01 0.  1.
</event>
<event>
 5   0  0.3523125E-04  0.1469116E+04  0.7818609E-02  0.8905254E-01
        3   -1    0    0  501    0  0.00000000000E+00  0.00000000000E+00  0.55268720323E+03  0.55268721245E+03  0.10100000352E+00 0.  1.
       -3   -1    0    0    0  501  0.00000000000E+00  0.00000000000E+00 -0.97627600565E+03  0.97627601087E+03  0.10100000352E+00 0. -1.
    10030    2    1    2    0    0  0.00000000000E+00  0.00000000000E+00 -0.42358880242E+03  0.15289632233E+04  0.14691157425E+04 0.  0.
        4    1    3    3  502    0 -0.37186612798E+03  0.63326162588E+03 -0.22886215084E+03  0.76921011495E+03  0.12699999809E+01 0. -1.
       -4    1    3    3    0  502  0.37186612798E+03 -0.63326162588E+03 -0.19472665159E+03  0.75975310838E+03  0.12699999809E+01 0.  1.
</event>
<event>
 5   0  0.9312096E-04  0.1714809E+04  0.7818609E-02  0.8752963E-01
       -2   -1    0    0    0  501  0.00000000000E+00  0.00000000000E+00  0.50169906675E+03  0.50169906676E+03  0.25500000920E-02 0. -1.
        2   -1    0    0  501    0  0.00000000000E+00  0.00000000000E+00 -0.14653058035E+04  0.14653058035E+04  0.25500000920E-02 0.  1.
    10030    2    1    2    0    0  0.00000000000E+00  0.00000000000E+00 -0.96360673679E+03  0.19670048703E+04  0.17148090904E+04 0.  0.
        3    1    3    3  502    0 -0.92526804156E+02 -0.85163982712E+03 -0.52301716036E+03  0.10036924653E+04  0.10100000352E+00 0.  1.
       -3    1    3    3    0  502  0.92526804156E+02  0.85163982712E+03 -0.44058957643E+03  0.96331240503E+03  0.10100000352E+00 0. -1.
</event>
<event>
 5   0  0.9312096E-04  0.1718303E+04  0.7818609E-02  0.8750994E-01
        2   -1    0    0  501    0  0.00000000000E+00  0.00000000000E+00  0.99926759468E+03  0.99926759469E+03  0.25500000920E-02 0.  1.
       -2   -1    0    0    0  501  0.00000000000E+00  0.00000000000E+00 -0.73868228792E+03  0.73868228792E+03  0.25500000920E-02 0. -1.
    10030    2    1    2    0    0  0.00000000000E+00  0.00000000000E+00  0.26058530676E+03  0.17379498826E+04  0.17183029687E+04 0.  0.
        3    1    3    3  502    0 -0.35820513969E+03  0.78089745806E+03  0.13578621823E+03  0.86979863726E+03  0.10100000352E+00 0.  1.
       -3    1    3    3    0  502  0.35820513969E+03 -0.78089745806E+03  0.12479908854E+03  0.86815124535E+03  0.10100000352E+00 0. -1.
</event>
<event>
 5   0  0.5009762E-04  0.2285558E+04  0.7818609E-02  0.8483637E-01
       -1   -1    0    0    0  501  0.00000000000E+00  0.00000000000E+00  0.14558688184E+04  0.14558688184E+04  0.50400001928E-02 0.  1.
        1   -1    0    0  501    0  0.00000000000E+00  0.00000000000E+00 -0.89702009906E+03  0.89702009907E+03  0.50400001928E-02 0. -1.
    10030    2    1    2    0    0  0.00000000000E+00  0.00000000000E+00  0.55884871938E+03  0.23528889175E+04  0.22855577803E+04 0.  0.
        3    1    3    3  502    0 -0.28894922158E+03 -0.70433565839E+03  0.11568011438E+04  0.13848354663E+04  0.10100000352E+00 0.  1.
       -3    1    3    3    0  502  0.28894922158E+03  0.70433565839E+03 -0.59795242440E+03  0.96805345120E+03  0.10100000352E+00 0. -1.
</event>
<event>
 5   0  0.9610114E-04  0.1700291E+04  0.7818609E-02  0.8761198E-01
        2   -1    0    0  501    0  0.00000000000E+00  0.00000000000E+00  0.73260220556E+03  0.73260220556E+03  0.25500000920E-02 0.  1.
       -2   -1    0    0    0  501  0.00000000000E+00  0.00000000000E+00 -0.98654860527E+03  0.98654860527E+03  0.25500000920E-02 0. -1.
    10030    2    1    2    0    0  0.00000000000E+00  0.00000000000E+00 -0.25394639971E+03  0.17191508108E+04  0.17002913681E+04 0.  0.
        2    1    3    3  502    0  0.26262940606E+03 -0.54800098242E+03  0.47415337090E+03  0.77077928151E+03  0.25500000920E-02 0.  1.
       -2    1    3    3    0  502 -0.26262940606E+03  0.54800098242E+03 -0.72809977061E+03  0.94837152933E+03  0.25500000920E-02 0. -1.
</event>
<event>
 5   0  0.9284971E-04  0.1768413E+04  0.7818609E-02  0.8723280E-01
        2   -1    0    0  501    0  0.00000000000E+00  0.00000000000E+00  0.24119727675E+04  0.24119727675E+04  0.25500000920E-02 0. -1.
       -2   -1    0    0    0  501  0.00000000000E+00  0.00000000000E+00 -0.32414179096E+03  0.32414179097E+03  0.25500000920E-02 0.  1.
    10030    2    1    2    0    0  0.00000000000E+00  0.00000000000E+00  0.20878309766E+04  0.27361145585E+04  0.17684130430E+04 0.  0.
        4    1    3    3  502    0  0.24788461168E+02  0.74497809057E+03  0.17797990374E+04  0.19295836467E+04  0.12699999809E+01 0. -1.
       -4    1    3    3    0  502 -0.24788461168E+02 -0.74497809057E+03  0.30803193918E+03  0.80653091180E+03  0.12699999809E+01 0.  1.
</event>
<event>
 5   0  0.9284971E-04  0.1691074E+04  0.7818609E-02  0.8766472E-01
        2   -1    0    0  501    0  0.00000000000E+00  0.00000000000E+00  0.14105405392E+04  0.14105405392E+04  0.25500000920E-02 0.  1.
       -2   -1    0    0    0  501  0.00000000000E+00  0.00000000000E+00 -0.50684999109E+03  0.50684999110E+03  0.25500000920E-02 0. -1.
    10030    2    1    2    0    0  0.00000000000E+00  0.00000000000E+00  0.90369054809E+03  0.19173905303E+04  0.16910735758E+04 0.  0.
        4    1    3    3  502    0 -0.54922992887E+02 -0.19913647144E+03 -0.47779810365E+03  0.52054251522E+03  0.12699999809E+01 0. -1.
       -4    1    3    3    0  502  0.54922992887E+02  0.19913647144E+03  0.13814886517E+04  0.13968480151E+04  0.12699999809E+01 0.  1.
</event>
<event>
 5   0  0.5035495E-04  0.1676543E+04  0.7818609E-02  0.8774857E-01
       -1   -1    0    0    0  501  0.00000000000E+00  0.00000000000E+00  0.70155803286E+03  0.70155803288E+03  0.50400001928E-02 0. -1.
        1   -1    0    0  501    0  0.00000000000E+00  0.00000000000E+00 -0.10016267367E+04  0.10016267367E+04  0.50400001928E-02 0.  1.
    10030    2    1    2    0    0  0.00000000000E+00  0.00000000000E+00 -0.30006870384E+03  0.17031847696E+04  0.16765432092E+04 0.  0.
        4    1    3    3  502    0 -0.39808968457E+03  0.19257916905E+03 -0.87348520998E+03  0.97905064132E+03  0.12699999809E+01 0.  1.
       -4    1    3    3    0  502  0.39808968457E+03 -0.19257916905E+03  0.57341650614E+03  0.72413412828E+03  0.12699999809E+01 0. -1.
</event>
<event>
 5   0  0.5009762E-04  0.1694515E+04  0.7818609E-02  0.8764499E-01
        1   -1    0    0  501    0  0.00000000000E+00  0.00000000000E+00  0.31025058510E+04  0.31025058510E+04  0.50400001928E-02 0. -1.
       -1   -1    0    0    0  501  0.00000000000E+00  0.00000000000E+00 -0.23137582453E+03  0.23137582459E+03  0.50400001928E-02 0.  1.
    10030    2    1    2    0    0  0.00000000000E+00  0.00000000000E+00  0.28711300265E+04  0.33338816756E+04  0.16945145021E+04 0.  0.
        3    1    3    3  502    0 -0.82434798458E+03 -0.18850674716E+03  0.13321950145E+04  0.15779188700E+04  0.10100000352E+00 0.  1.
       -3    1    3    3    0  502  0.82434798458E+03  0.18850674716E+03  0.15389350119E+04  0.17559628056E+04  0.10100000352E+00 0. -1.
</event>
<event>
 5   0  0.5074133E-04  0.1692496E+04  0.7818609E-02  0.8765656E-01
       -1   -1    0    0    0  501  0.00000000000E+00  0.00000000000E+00  0.35962916456E+03  0.35962916460E+03  0.50400001928E-02 0.  1.
        1   -1    0    0  501    0  0.00000000000E+00  0.00000000000E+00 -0.19913159403E+04  0.19913159403E+04  0.50400001928E-02 0. -1.
    10030    2    1    2    0    0  0.00000000000E+00  0.00000000000E+00 -0.16316867757E+04  0.23509451049E+04  0.16924955398E+04 0.  0.
        1    1    3    3  502    0  0.35982540375E+03 -0.65883972728E+03 -0.13584432413E+04  0.15520670563E+04  0.50400001928E-02 0. -1.
       -1    1    3    3    0  502 -0.35982540375E+03  0.65883972728E+03 -0.27324353448E+03  0.79887804863E+03  0.50400001928E-02 0.  1.
</event>
<event>
 5   0  0.5035495E-04  0.1712921E+04  0.7818609E-02  0.8754029E-01
       -1   -1    0    0    0  501  0.00000000000E+00  0.00000000000E+00  0.62944744127E+03  0.62944744129E+03  0.50400001928E-02 0. -1.
        1   -1    0    0  501    0  0.00000000000E+00  0.00000000000E+00 -0.11653475089E+04  0.11653475089E+04  0.50400001928E-02 0.  1.
    10030    2    1    2    0    0  0.00000000000E+00  0.00000000000E+00 -0.53590006760E+03  0.17947949502E+04  0.17129214899E+04 0.  0.
        4    1    3    3  502    0  0.42918216478E+03 -0.50788383735E+03  0.29764723558E+03  0.72851823077E+03  0.12699999809E+01 0. -1.
       -4    1    3    3    0  502 -0.42918216478E+03  0.50788383735E+03 -0.83354730318E+03  0.10662767194E+04  0.12699999809E+01 0.  1.
</event>
<event>
 5   0  0.5074133E-04  0.1718977E+04  0.7818609E-02  0.8750615E-01
       -1   -1    0    0    0  501  0.00000000000E+00  0.00000000000E+00  0.15019161486E+04  0.15019161486E+04  0.50400001928E-02 0.  1.
        1   -1    0    0  501    0  0.00000000000E+00  0.00000000000E+00 -0.49185174852E+03  0.49185174855E+03  0.50400001928E-02 0. -1.
    10030    2    1    2    0    0  0.00000000000E+00  0.00000000000E+00  0.10100644000E+04  0.19937678971E+04  0.17189765372E+04 0.  0.
        1    1    3    3  502    0  0.43539649628E+02  0.55278767102E+03 -0.25664208113E+03  0.61101151229E+03  0.50400001928E-02 0. -1.
       -1    1    3    3    0  502 -0.43539649628E+02 -0.55278767102E+03  0.12667064812E+04  0.13827563848E+04  0.50400001928E-02 0.  1.
</event>
<event>
 5   0  0.9610114E-04  0.1716248E+04  0.7818609E-02  0.8752152E-01
       -2   -1    0    0    0  501  0.00000000000E+00  0.00000000000E+00  0.53070112342E+03  0.53070112343E+03  0.25500000920E-02 0.  1.
        2   -1    0    0  501    0  0.00000000000E+00  0.00000000000E+00 -0.13875543529E+04  0.13875543529E+04  0.25500000920E-02 0. -1.
    10030    2    1    2    0    0  0.00000000000E+00  0.00000000000E+00 -0.85685322951E+03  0.19182554764E+04  0.17162478305E+04 0.  0.
        2    1    3    3  502    0  0.83209988537E+03  0.18786473095E+03 -0.53263873163E+03  0.10056775799E+04  0.25500000920E-02 0. -1.
       -2    1    3    3    0  502 -0.83209988537E+03 -0.18786473095E+03 -0.32421449788E+03  0.91257789641E+03  0.25500000920E-02 0.  1.
</event>
<event>
 5   0  0.5035495E-04  0.1697422E+04  0.7818609E-02  0.8762836E-01
       -1   -1    0    0    0  501  0.00000000000E+00  0.00000000000E+00  0.63887378285E+03  0.63887378287E+03  0.50400001928E-02 0.  1.
        1   -1    0    0  501    0  0.00000000000E+00  0.00000000000E+00 -0.11274683487E+04  0.11274683487E+04  0.50400001928E-02 0. -1.
    10030    2    1    2    0    0  0.00000000000E+00  0.00000000000E+00 -0.48859456580E+03  0.17663421315E+04  0.16974215375E+04 0.  0.
        4    1    3    3  502    0 -0.54629397658E+03 -0.60962302577E+03 -0.47752012900E+03  0.94768371776E+03  0.12699999809E+01 0. -1.
       -4    1    3    3    0  502  0.54629397658E+03  0.60962302577E+03 -0.11074436800E+02  0.81865841378E+03  0.12699999809E+01 0.  1.
</event>
<event>
 5   0  0.9610114E-04  0.1630796E+04  0.7818609E-02  0.8801849E-01
        2   -1    0    0  501    0  0.00000000000E+00  0.00000000000E+00  0.17580600794E+04  0.17580600794E+04  0.25500000920E-02 0.  1.
       -2   -1    0    0    0  501  0.00000000000E+00  0.00000000000E+00 -0.37818629716E+03  0.37818629717E+03  0.25500000920E-02 0. -1.
    10030    2    1    2    0    0  0.00000000000E+00  0.00000000000E+00  0.13798737822E+04  0.21362463766E+04  0.16307964087E+04 0.  0.
        2    1    3    3  502    0  0.62568369497E+03  0.32366622379E+03  0.12278654192E+04  0.14155894172E+04  0.25500000920E-02 0.  1.
       -2    1    3    3    0  502 -0.62568369497E+03 -0.32366622379E+03  0.15200836304E+03  0.72065695932E+03  0.25500000920E-02 0. -1.
</event>
<event>
 5   0  0.5074133E-04  0.1671210E+04  0.7818609E-02  0.8777957E-01
       -1   -1    0    0    0  501  0.00000000000E+00  0.00000000000E+00  0.65693779762E+03  0.65693779764E+03  0.50400001928E-02 0. -1.
        1   -1    0    0  501    0  0.00000000000E+00  0.00000000000E+00 -0.10628644169E+04  0.10628644169E+04  0.50400001928E-02 0.  1.
    10030    2    1    2    0    0  0.00000000000E+00  0.00000000000E+00 -0.40592661932E+03  0.17198022146E+04  0.16712101116E+04 0.  0.
        1    1    3    3  502    0  0.66718236739E+03  0.28807749473E+02 -0.71983573241E+03  0.98189901694E+03  0.50400001928E-02 0.  1.
       -1    1    3    3    0  502 -0.66718236739E+03 -0.28807749473E+02  0.31390911310E+03  0.73790319764E+03  0.50400001928E-02 0. -1.
</event>
<event>
 5   0  0.5009762E-04  0.1574039E+04  0.7818609E-02  0.8836657E-01
       -1   -1    0    0    0  501  0.00000000000E+00  0.00000000000E+00  0.49685657284E+03  0.49685657287E+03  0.50400001928E-02 0. -1.
        1   -1    0    0  501    0  0.00000000000E+00  0.00000000000E+00 -0.12466370853E+04  0.12466370853E+04  0.50400001928E-02 0.  1.
    10030    2    1    2    0    0  0.00000000000E+00  0.00000000000E+00 -0.74978051245E+03  0.17434936582E+04  0.15740391733E+04 0.  0.
        3    1    3    3  502    0 -0.83468431467E+02 -0.75385175699E+03 -0.60760441926E+03  0.97182436226E+03  0.10100000352E+00 0.  1.
       -3    1    3    3    0  502  0.83468431467E+02  0.75385175699E+03 -0.14217609318E+03  0.77166929591E+03  0.10100000352E+00 0. -1.
</event>
<event>
 5   0  0.9610114E-04  0.1626953E+04  0.7818609E-02  0.8804159E-01
        2   -1    0    0  501    0  0.00000000000E+00  0.00000000000E+00  0.14510005712E+04  0.14510005712E+04  0.25500000920E-02 0. -1.
       -2   -1    0    0    0  501  0.00000000000E+00  0.00000000000E+00 -0.45606060433E+03  0.45606060434E+03  0.25500000920E-02 0.  1.
    10030    2    1    2    0    0  0.00000000000E+00  0.00000000000E+00  0.99493996683E+03  0.19070611755E+04  0.16269532229E+04 0.  0.
        2    1    3    3  502    0  0.25774412839E+03  0.37135570847E+03  0.12902286686E+04  0.13671236649E+04  0.25500000920E-02 0. -1.
       -2    1    3    3    0  502 -0.25774412839E+03 -0.37135570847E+03 -0.29528870176E+03  0.53993751058E+03  0.25500000920E-02 0.  1.
</event>
<event>
 5   0  0.9625225E-04  0.1699971E+04  0.7818609E-02  0.8761381E-01
       -2   -1    0    0    0  501  0.00000000000E+00  0.00000000000E+00  0.41044108163E+03  0.41044108164E+03  0.25500000920E-02 0. -1.
        2   -1    0    0  501    0  0.00000000000E+00  0.00000000000E+00 -0.17602408072E+04  0.17602408072E+04  0.25500000920E-02 0.  1.
    10030    2    1    2    0    0  0.00000000000E+00  0.00000000000E+00 -0.13497997255E+04  0.21706818888E+04  0.16999707537E+04 0.  0.
        1    1    3    3  502    0  0.12167297849E+03 -0.34053041644E+03  0.30732096033E+03  0.47456448550E+03  0.50400001928E-02 0. -1.
       -1    1    3    3    0  502 -0.12167297849E+03  0.34053041644E+03 -0.16571206859E+04  0.16961174033E+04  0.50400001928E-02 0.  1.
</event>
<event>
 5   0  0.1007187E-03  0.1643952E+04  0.7818609E-02  0.8793993E-01
        2   -1    0    0  501    0  0.00000000000E+00  0.00000000000E+00  0.12704147179E+04  0.12704147179E+04  0.25500000920E-02 0. -1.
       -2   -1    0    0    0  501  0.00000000000E+00  0.00000000000E+00 -0.53182965259E+03  0.53182965260E+03  0.25500000920E-02 0.  1.
    10030    2    1    2    0    0  0.00000000000E+00  0.00000000000E+00  0.73858506532E+03  0.18022443705E+04  0.16439516028E+04 0.  0.
        5    1    3    3  502    0  0.58987405984E+03 -0.33337895490E+03  0.87942489936E+03  0.11101815967E+04  0.46999998093E+01 0. -1.
       -5    1    3    3    0  502 -0.58987405984E+03  0.33337895490E+03 -0.14083983405E+03  0.69206277381E+03  0.46999998093E+01 0.  1.
</event>
<event>
 5   0  0.5035495E-04  0.1677385E+04  0.7818609E-02  0.8774368E-01
        1   -1    0    0  501    0  0.00000000000E+00  0.00000000000E+00  0.59280729369E+03  0.59280729371E+03  0.50400001928E-02 0. -1.
       -1   -1    0    0    0  501  0.00000000000E+00  0.00000000000E+00 -0.11865668164E+04  0.11865668164E+04  0.50400001928E-02 0.  1.
    10030    2    1    2    0    0  0.00000000000E+00  0.00000000000E+00 -0.59375952270E+03  0.17793741101E+04  0.16773854217E+04 0.  0.
        4    1    3    3  502    0  0.92668700112E+02  0.19316837284E+03  0.56328778962E+03  0.60265765994E+03  0.12699999809E+01 0. -1.
       -4    1    3    3    0  502 -0.92668700112E+02 -0.19316837284E+03 -0.11570473123E+04  0.11767164502E+04  0.12699999809E+01 0.  1.
</event>
<event>
 5   0  0.5074133E-04  0.1712345E+04  0.7818609E-02  0.8754355E-01
        1   -1    0    0  501    0  0.00000000000E+00  0.00000000000E+00  0.90116950897E+03  0.90116950898E+03  0.50400001928E-02 0. -1.
       -1   -1    0    0    0  501  0.00000000000E+00  0.00000000000E+00 -0.81342222945E+03  0.81342222947E+03  0.50400001928E-02 0.  1.
    10030    2    1    2    0    0  0.00000000000E+00  0.00000000000E+00  0.87747279518E+02  0.17145917384E+04  0.17123449549E+04 0.  0.
        1    1    3    3  502    0  0.52543982757E+03  0.66700751331E+03  0.15376861717E+03  0.86291994001E+03  0.50400001928E-02 0.  1.
       -1    1    3    3    0  502 -0.52543982757E+03 -0.66700751331E+03 -0.66021337647E+02  0.85167179844E+03  0.50400001928E-02 0. -1.
</event>
<event>
 5   0  0.5009762E-04  0.1721756E+04  0.7818609E-02  0.8749053E-01
       -1   -1    0    0    0  501  0.00000000000E+00  0.00000000000E+00  0.50498363198E+03  0.50498363200E+03  0.50400001928E-02 0.  1.
        1   -1    0    0  501    0  0.00000000000E+00  0.00000000000E+00 -0.14675937128E+04  0.14675937128E+04  0.50400001928E-02 0. -1.
    10030    2    1    2    0    0  0.00000000000E+00  0.00000000000E+00 -0.96261008081E+03  0.19725773448E+04  0.17217558519E+04 0.  0.
        3    1    3    3  502    0  0.27671710424E+02 -0.79823377905E+03 -0.11331609193E+03  0.80671149518E+03  0.10100000352E+00 0.  1.
       -3    1    3    3    0  502 -0.27671710424E+02  0.79823377905E+03 -0.84929398888E+03  0.11658658496E+04  0.10100000352E+00 0. -1.
</event>
<event>
 5   0  0.9312096E-04  0.1809804E+04  0.7818609E-02  0.8701103E-01
        2   -1    0    0  501    0  0.00000000000E+00  0.00000000000E+00  0.25995092123E+04  0.25995092123E+04  0.25500000920E-02 0. -1.
       -2   -1    0    0    0  501  0.00000000000E+00  0.00000000000E+00 -0.31500080404E+03  0.31500080405E+03  0.25500000920E-02 0.  1.
    10030    2    1    2    0    0  0.00000000000E+00  0.00000000000E+00  0.22845084083E+04  0.29145100164E+04  0.18098038480E+04 0.  0.
        3    1    3    3  502    0 -0.89934211731E+03  0.83033434219E+02  0.10520618729E+04  0.13865586860E+04  0.10100000352E+00 0.  1.
       -3    1    3    3    0  502  0.89934211731E+03 -0.83033434219E+02  0.12324465354E+04  0.15279513304E+04  0.10100000352E+00 0. -1.
</event>
<event>
 5   0  0.9610114E-04  0.1373292E+04  0.7818609E-02  0.8973382E-01
       -2   -1    0    0    0  501  0.00000000000E+00  0.00000000000E+00  0.12194854068E+04  0.12194854068E+04  0.25500000920E-02 0. -1.
        2   -1    0    0  501    0  0.00000000000E+00  0.00000000000E+00 -0.38662410905E+03  0.38662410906E+03  0.25500000920E-02 0.  1.
    10030    2    1    2    0    0  0.00000000000E+00  0.00000000000E+00  0.83286129776E+03  0.16061095159E+04  0.13732916062E+04 0.  0.
        2    1    3    3  502    0 -0.32100247619E+01 -0.64000186640E+03  0.70733594314E+03  0.95390609062E+03  0.25500000920E-02 0. -1.
       -2    1    3    3    0  502  0.32100247619E+01  0.64000186640E+03  0.12552535462E+03  0.65220342525E+03  0.25500000920E-02 0.  1.
</event>
<event>
 5   0  0.4947006E-04  0.1633757E+04  0.7818609E-02  0.8800074E-01
        1   -1    0    0  501    0  0.00000000000E+00  0.00000000000E+00  0.18550465507E+04  0.18550465507E+04  0.50400001928E-02 0. -1.
       -1   -1    0    0    0  501  0.00000000000E+00  0.00000000000E+00 -0.35971631632E+03  0.35971631635E+03  0.50400001928E-02 0.  1.
    10030    2    1    2    0    0  0.00000000000E+00  0.00000000000E+00  0.14953302344E+04  0.22147628670E+04  0.16337570344E+04 0.  0.
        2    1    3    3  502    0  0.41001894611E+03 -0.22813333537E+03  0.16541420228E+04  0.17194028575E+04  0.25500000920E-02 0. -1.
       -2    1    3    3    0  502 -0.41001894611E+03  0.22813333537E+03 -0.15881178843E+03  0.49536000952E+03  0.25500000920E-02 0.  1.
</event>
<event>
 5   0  0.4947006E-04  0.1647144E+04  0.7818609E-02  0.8792098E-01
       -1   -1    0    0    0  501  0.00000000000E+00  0.00000000000E+00  0.88765751182E+03  0.88765751183E+03  0.50400001928E-02 0. -1.
        1   -1    0    0  501    0  0.00000000000E+00  0.00000000000E+00 -0.76411276823E+03  0.76411276825E+03  0.50400001928E-02 0.  1.
    10030    2    1    2    0    0  0.00000000000E+00  0.00000000000E+00  0.12354474358E+03  0.16517702801E+04  0.16471435136E+04 0.  0.
        2    1    3    3  502    0  0.71591582733E+03  0.21575166446E+03  0.40797564422E+03  0.85177953652E+03  0.25500000920E-02 0. -1.
       -2    1    3    3    0  502 -0.71591582733E+03 -0.21575166446E+03 -0.28443090064E+03  0.79999074356E+03  0.25500000920E-02 0.  1.
</event>
<event>
 5   0  0.9284971E-04  0.1706541E+04  0.7818609E-02  0.8757643E-01
       -2   -1    0    0    0  501  0.00000000000E+00  0.00000000000E+00  0.61849434235E+03  0.61849434236E+03  0.25500000920E-02 0. -1.
        2   -1    0    0  501    0  0.00000000000E+00  0.00000000000E+00 -0.11771659800E+04  0.11771659800E+04  0.25500000920E-02 0.  1.
    10030    2    1    2    0    0  0.00000000000E+00  0.00000000000E+00 -0.55867163762E+03  0.17956603223E+04  0.17065409443E+04 0.  0.
        4    1    3    3  502    0 -0.27912621072E+03  0.40027188082E+03  0.45717454636E+03  0.66868467818E+03  0.12699999809E+01 0. -1.
       -4    1    3    3    0  502  0.27912621072E+03 -0.40027188082E+03 -0.10158461840E+04  0.11269756442E+04  0.12699999809E+01 0.  1.
</event>
<event>
 5   0  0.5009762E-04  0.1690319E+04  0.7818609E-02  0.8766905E-01
        1   -1    0    0  501    0  0.00000000000E+00  0.00000000000E+00  0.78769332661E+03  0.78769332663E+03  0.50400001928E-02 0. -1.
       -1   -1    0    0    0  501  0.00000000000E+00  0.00000000000E+00 -0.90681810189E+03  0.90681810190E+03  0.50400001928E-02 0.  1.
    10030    2    1    2    0    0  0.00000000000E+00  0.00000000000E+00 -0.11912477527E+03  0.16945114285E+04  0.16903189845E+04 0.  0.
        3    1    3    3  502    0 -0.49902400098E+03  0.63502620040E+03  0.19007598940E+03  0.82970604475E+03  0.10100000352E+00 0. -1.
       -3    1    3    3    0  502  0.49902400098E+03 -0.63502620040E+03 -0.30920076468E+03  0.86480538378E+03  0.10100000352E+00 0.  1.
</event>
<event>
 5   0  0.9625225E-04  0.1575341E+04  0.7818609E-02  0.8835842E-01
       -2   -1    0    0    0  501  0.00000000000E+00  0.00000000000E+00  0.14923269362E+04  0.14923269362E+04  0.25500000920E-02 0. -1.
        2   -1    0    0  501    0  0.00000000000E+00  0.00000000000E+00 -0.41574334264E+03  0.41574334265E+03  0.25500000920E-02 0.  1.
    10030    2    1    2    0    0  0.00000000000E+00  0.00000000000E+00  0.10765835936E+04  0.19080702789E+04  0.15753412186E+04 0.  0.
        1    1    3    3  502    0 -0.57579916865E+03 -0.50764728755E+03  0.32443663339E+03  0.83337241392E+03  0.50400001928E-02 0. -1.
       -1    1    3    3    0  502  0.57579916865E+03  0.50764728755E+03  0.75214696016E+03  0.10746978649E+04  0.50400001928E-02 0.  1.
</event>
<event>
 5   0  0.4947006E-04  0.1655687E+04  0.7818609E-02  0.8787049E-01
        1   -1    0    0  501    0  0.00000000000E+00  0.00000000000E+00  0.84580360275E+03  0.84580360277E+03  0.50400001928E-02 0. -1.
       -1   -1    0    0    0  501  0.00000000000E+00  0.00000000000E+00 -0.81026477271E+03  0.81026477273E+03  0.50400001928E-02 0.  1.
    10030    2    1    2    0    0  0.00000000000E+00  0.00000000000E+00  0.35538830043E+02  0.16560683755E+04  0.16556870042E+04 0.  0.
        2    1    3    3  502    0 -0.54493464603E+03 -0.38327832882E+03 -0.47373854112E+03  0.81748654492E+03  0.25500000920E-02 0.  1.
       -2    1    3    3    0  502  0.54493464603E+03  0.38327832882E+03  0.50927737116E+03  0.83858183057E+03  0.25500000920E-02 0. -1.
</event>
<event>
 5   0  0.5035495E-04  0.1739604E+04  0.7818609E-02  0.8739094E-01
        1   -1    0    0  501    0  0.00000000000E+00  0.00000000000E+00  0.78244481837E+03  0.78244481838E+03  0.50400001928E-02 0.  1.
       -1   -1    0    0    0  501  0.00000000000E+00  0.00000000000E+00 -0.96691189324E+03  0.96691189326E+03  0.50400001928E-02 0. -1.
    10030    2    1    2    0    0  0.00000000000E+00  0.00000000000E+00 -0.18446707488E+03  0.17493567116E+04  0.17396036338E+04 0.  0.
        4    1    3    3  502    0  0.77226609016E+03  0.24233014449E+03 -0.41250740496E+03  0.90845076090E+03  0.12699999809E+01 0. -1.
       -4    1    3    3    0  502 -0.77226609016E+03 -0.24233014449E+03  0.22804033008E+03  0.84090595074E+03  0.12699999809E+01 0.  1.
</event>
<event>
 5   0  0.9284971E-04  0.1715314E+04  0.7818609E-02  0.8752678E-01
        2   -1    0    0  501    0  0.00000000000E+00  0.00000000000E+00  0.17307477775E+04  0.17307477775E+04  0.25500000920E-02 0. -1.
       -2   -1    0    0    0  501  0.00000000000E+00  0.00000000000E+00 -0.42500463289E+03  0.42500463290E+03  0.25500000920E-02 0.  1.
    10030    2    1    2    0    0  0.00000000000E+00  0.00000000000E+00  0.13057431446E+04  0.21557524104E+04  0.17153143430E+04 0.  0.
        4    1    3    3  502    0 -0.55033149879E+03  0.72472903986E+02 -0.16880602131E+03  0.58018459657E+03  0.12699999809E+01 0.  1.
       -4    1    3    3    0  502  0.55033149879E+03 -0.72472903986E+02  0.14745491659E+04  0.15755678138E+04  0.12699999809E+01 0. -1.
</event>
<event>
 5   0  0.9610114E-04  0.1660403E+04  0.7818609E-02  0.8784276E-01
        2   -1    0    0  501    0  0.00000000000E+00  0.00000000000E+00  0.82889551962E+03  0.82889551963E+03  0.25500000920E-02 0.  1.
       -2   -1    0    0    0  501  0.00000000000E+00  0.00000000000E+00 -0.83150990962E+03  0.83150990963E+03  0.25500000920E-02 0. -1.
    10030    2    1    2    0    0  0.00000000000E+00  0.00000000000E+00 -0.26143899974E+01  0.16604054293E+04  0.16604033710E+04 0.  0.
        2    1    3    3  502    0 -0.32827001869E+02  0.84857518063E+02 -0.82650905904E+03  0.83150203554E+03  0.25500000920E-02 0. -1.
       -2    1    3    3    0  502  0.32827001869E+02 -0.84857518063E+02  0.82389466904E+03  0.82890339371E+03  0.25500000920E-02 0.  1.
</event>
<event>
 5   0  0.5059689E-04  0.1674501E+04  0.7818609E-02  0.8776043E-01
        1   -1    0    0  501    0  0.00000000000E+00  0.00000000000E+00  0.10653391929E+04  0.10653391929E+04  0.50400001928E-02 0. -1.
       -1   -1    0    0    0  501  0.00000000000E+00  0.00000000000E+00 -0.65799516051E+03  0.65799516053E+03  0.50400001928E-02 0.  1.
    10030    2    1    2    0    0  0.00000000000E+00  0.00000000000E+00  0.40734403241E+03  0.17233343535E+04  0.16745005623E+04 0.  0.
        5    1    3    3  502    0  0.10039514244E+03  0.13918860548E+03 -0.63968517823E+03  0.66232308563E+03  0.46999998093E+01 0.  1.
       -5    1    3    3    0  502 -0.10039514244E+03 -0.13918860548E+03  0.10470292106E+04  0.10610112678E+04  0.46999998093E+01 0. -1.
</event>
<event>
 5   0  0.1007187E-03  0.1455826E+04  0.7818609E-02  0.8914372E-01
       -2   -1    0    0    0  501  0.00000000000E+00  0.00000000000E+00  0.53759784117E+03  0.53759784118E+03  0.25500000920E-02 0.  1.
        2   -1    0    0  501    0  0.00000000000E+00  0.00000000000E+00 -0.98560132352E+03  0.98560132352E+03  0.25500000920E-02 0. -1.
    10030    2    1    2    0    0  0.00000000000E+00  0.00000000000E+00 -0.44800348235E+03  0.15231991647E+04  0.14558257365E+04 0.  0.
        5    1    3    3  502    0 -0.63903140455E+03  0.14061842660E+03  0.10966166522E+03  0.66346246972E+03  0.46999998093E+01 0.  1.
       -5    1    3    3    0  502  0.63903140455E+03 -0.14061842660E+03 -0.55766514757E+03  0.85973669499E+03  0.46999998093E+01 0. -1.
</event>
<event>
 5   0  0.9610114E-04  0.1768931E+04  0.7818609E-02  0.8722998E-01
       -2   -1    0    0    0  501  0.00000000000E+00  0.00000000000E+00  0.98760100310E+03  0.98760100310E+03  0.25500000920E-02 0.  1.
        2   -1    0    0  501    0  0.00000000000E+00  0.00000000000E+00 -0.79210042757E+03  0.79210042757E+03  0.25500000920E-02 0. -1.
    10030    2    1    2    0    0  0.00000000000E+00  0.00000000000E+00  0.19550057553E+03  0.17797014307E+04  0.17689309504E+04 0.  0.
        2    1    3    3  502    0 -0.61554069386E+03 -0.62800059731E+03  0.22826973911E+01  0.87936358051E+03  0.25500000920E-02 0. -1.
       -2    1    3    3    0  502  0.61554069386E+03  0.62800059731E+03  0.19321787814E+03  0.90033785017E+03  0.25500000920E-02 0.  1.
</event>
<event>
 5   0  0.3523125E-04  0.1680386E+04  0.7818609E-02  0.8772631E-01
        4   -1    0    0  501    0  0.00000000000E+00  0.00000000000E+00  0.10185694484E+04  0.10185702402E+04  0.12699999809E+01 0.  1.
       -4   -1    0    0    0  501  0.00000000000E+00  0.00000000000E+00 -0.69305278547E+03  0.69305394909E+03  0.12699999809E+01 0. -1.
    10030    2    1    2    0    0  0.00000000000E+00  0.00000000000E+00  0.32551666296E+03  0.17116241893E+04  0.16803857496E+04 0.  0.
        4    1    3    3  502    0 -0.62337742344E+03 -0.39279174585E+03 -0.24852719573E+03  0.77759381916E+03  0.12699999809E+01 0. -1.
       -4    1    3    3    0  502  0.62337742344E+03  0.39279174585E+03  0.57404385869E+03  0.93403037010E+03  0.12699999809E+01 0.  1.
</event>
<event>
 5   0  0.5009762E-04  0.1652820E+04  0.7818609E-02  0.8788740E-01
       -1   -1    0    0    0  501  0.00000000000E+00  0.00000000000E+00  0.12450029550E+04  0.12450029550E+04  0.50400001928E-02 0. -1.
        1   -1    0    0  501    0  0.00000000000E+00  0.00000000000E+00 -0.54855568610E+03  0.54855568612E+03  0.50400001928E-02 0.  1.
    10030    2    1    2    0    0  0.00000000000E+00  0.00000000000E+00  0.69644726887E+03  0.17935586411E+04  0.16528199541E+04 0.  0.
        3    1    3    3  502    0 -0.46171748207E+03 -0.68090061059E+03  0.43328702340E+03  0.92980983518E+03  0.10100000352E+00 0. -1.
       -3    1    3    3    0  502  0.46171748207E+03  0.68090061059E+03  0.26316024547E+03  0.86374880593E+03  0.10100000352E+00 0.  1.
</event>
<event>
 5   0  0.9625225E-04  0.1697706E+04  0.7818609E-02  0.8762674E-01
        2   -1    0    0  501    0  0.00000000000E+00  0.00000000000E+00  0.12259444923E+04  0.12259444923E+04  0.25500000920E-02 0. -1.
       -2   -1    0    0    0  501  0.00000000000E+00  0.00000000000E+00 -0.58775187654E+03  0.58775187654E+03  0.25500000920E-02 0.  1.
    10030    2    1    2    0    0  0.00000000000E+00  0.00000000000E+00  0.63819261574E+03  0.18136963688E+04  0.16977057176E+04 0.  0.
        1    1    3    3  502    0  0.61170328434E+03 -0.47184219215E+03 -0.56696815077E+02  0.77461635099E+03  0.50400001928E-02 0.  1.
       -1    1    3    3    0  502 -0.61170328434E+03  0.47184219215E+03  0.69488943081E+03  0.10390800178E+04  0.50400001928E-02 0. -1.
</event>
<event>
 5   0  0.5009762E-04  0.1675360E+04  0.7818609E-02  0.8775544E-01
        1   -1    0    0  501    0  0.00000000000E+00  0.00000000000E+00  0.14737746736E+04  0.14737746736E+04  0.50400001928E-02 0. -1.
       -1   -1    0    0    0  501  0.00000000000E+00  0.00000000000E+00 -0.47612959437E+03  0.47612959440E+03  0.50400001928E-02 0.  1.
    10030    2    1    2    0    0  0.00000000000E+00  0.00000000000E+00  0.99764507919E+03  0.19499042680E+04  0.16753599465E+04 0.  0.
        3    1    3    3  502    0  0.10188727266E+03 -0.22540617064E+03  0.14302973003E+04  0.14515299982E+04  0.10100000352E+00 0. -1.
       -3    1    3    3    0  502 -0.10188727266E+03  0.22540617064E+03 -0.43265222116E+03  0.49837426977E+03  0.10100000352E+00 0.  1.
</event>
<event>
 5   0  0.9610114E-04  0.1677380E+04  0.7818609E-02  0.8774372E-01
        2   -1    0    0  501    0  0.00000000000E+00  0.00000000000E+00  0.10548087110E+04  0.10548087110E+04  0.25500000920E-02 0. -1.
       -2   -1    0    0    0  501  0.00000000000E+00  0.00000000000E+00 -0.66685153293E+03  0.66685153293E+03  0.25500000920E-02 0.  1.
    10030    2    1    2    0    0  0.00000000000E+00  0.00000000000E+00  0.38795717808E+03  0.17216602440E+04  0.16773798686E+04 0.  0.
        2    1    3    3  502    0 -0.20097670119E+03  0.76045242021E+03 -0.10477442779E+03  0.79350941932E+03  0.25500000920E-02 0. -1.
       -2    1    3    3    0  502  0.20097670119E+03 -0.76045242021E+03  0.49273160587E+03  0.92815082463E+03  0.25500000920E-02 0.  1.
</event>
<event>
 5   0  0.9312096E-04  0.1761433E+04  0.7818609E-02  0.8727082E-01
        2   -1    0    0  501    0  0.00000000000E+00  0.00000000000E+00  0.74665282406E+03  0.74665282406E+03  0.25500000920E-02 0. -1.
       -2   -1    0    0    0  501  0.00000000000E+00  0.00000000000E+00 -0.10388521916E+04  0.10388521916E+04  0.25500000920E-02 0.  1.
    10030    2    1    2    0    0  0.00000000000E+00  0.00000000000E+00 -0.29219936753E+03  0.17855050157E+04  0.17614334193E+04 0.  0.
        3    1    3    3  502    0  0.79933028116E+03  0.23433128008E+03  0.14385460072E+03  0.84530125017E+03  0.10100000352E+00 0. -1.
       -3    1    3    3    0  502 -0.79933028116E+03 -0.23433128008E+03 -0.43605396825E+03  0.94020376548E+03  0.10100000352E+00 0.  1.
</event>
<event>
 5   0  0.9625225E-04  0.1651689E+04  0.7818609E-02  0.8789408E-01
        2   -1    0    0  501    0  0.00000000000E+00  0.00000000000E+00  0.16770033580E+04  0.16770033580E+04  0.25500000920E-02 0. -1.
       -2   -1    0    0    0  501  0.00000000000E+00  0.00000000000E+00 -0.40668937180E+03  0.40668937181E+03  0.25500000920E-02 0.  1.
    10030    2    1    2    0    0  0.00000000000E+00  0.00000000000E+00  0.12703139862E+04  0.20836927298E+04  0.16516893681E+04 0.  0.
        1    1    3    3  502    0 -0.68687282787E+03  0.45419932015E+03  0.71422461446E+03  0.10900495879E+04  0.50400001928E-02 0. -1.
       -1    1    3    3    0  502  0.68687282787E+03 -0.45419932015E+03  0.55608937169E+03  0.99364314189E+03  0.50400001928E-02 0.  1.
</event>
<event>
 5   0  0.1007187E-03  0.1616159E+04  0.7818609E-02  0.8810682E-01
       -2   -1    0    0    0  501  0.00000000000E+00  0.00000000000E+00  0.44424904814E+03  0.44424904815E+03  0.25500000920E-02 0. -1.
        2   -1    0    0  501    0  0.00000000000E+00  0.00000000000E+00 -0.14698792099E+04  0.14698792099E+04  0.25500000920E-02 0.  1.
    10030    2    1    2    0    0  0.00000000000E+00  0.00000000000E+00 -0.10256301618E+04  0.19141282581E+04  0.16161589525E+04 0.  0.
        5    1    3    3  502    0  0.56428306100E+02  0.79740271372E+03 -0.65262633683E+03  0.10319779393E+04  0.46999998093E+01 0.  1.
       -5    1    3    3    0  502 -0.56428306100E+02 -0.79740271372E+03 -0.37300382497E+03  0.88215031883E+03  0.46999998093E+01 0. -1.
</event>
<event>
 5   0  0.5035495E-04  0.1643929E+04  0.7818609E-02  0.8794006E-01
        1   -1    0    0  501    0  0.00000000000E+00  0.00000000000E+00  0.16117063576E+04  0.16117063576E+04  0.50400001928E-02 0. -1.
       -1   -1    0    0    0  501  0.00000000000E+00  0.00000000000E+00 -0.41919889426E+03  0.41919889429E+03  0.50400001928E-02 0.  1.
    10030    2    1    2    0    0  0.00000000000E+00  0.00000000000E+00  0.11925074634E+04  0.20309052519E+04  0.16439288586E+04 0.  0.
        4    1    3    3  502    0 -0.33745444837E+03  0.41256964739E+03  0.13692755775E+04  0.14693557904E+04  0.12699999809E+01 0. -1.
       -4    1    3    3    0  502  0.33745444837E+03 -0.41256964739E+03 -0.17676811415E+03  0.56154946154E+03  0.12699999809E+01 0.  1.
</event>
<event>
 5   0  0.5059689E-04  0.1724992E+04  0.7818609E-02  0.8747238E-01
       -1   -1    0    0    0  501  0.00000000000E+00  0.00000000000E+00  0.47946514108E+03  0.47946514110E+03  0.50400001928E-02 0.  1.
        1   -1    0    0  501    0  0.00000000000E+00  0.00000000000E+00 -0.15515188472E+04  0.15515188472E+04  0.50400001928E-02 0. -1.
    10030    2    1    2    0    0  0.00000000000E+00  0.00000000000E+00 -0.10720537061E+04  0.20309839883E+04  0.17249918295E+04 0.  0.
        5    1    3    3  502    0  0.58516606469E+03 -0.21264917364E+02 -0.12816075784E+04  0.14090463424E+04  0.46999998093E+01 0. -1.
       -5    1    3    3    0  502 -0.58516606469E+03  0.21264917364E+02  0.20955387231E+03  0.62193764589E+03  0.46999998093E+01 0.  1.
</event>
<event>
 5   0  0.9284971E-04  0.1699156E+04  0.7818609E-02  0.8761846E-01
       -2   -1    0    0    0  501  0.00000000000E+00  0.00000000000E+00  0.56724426228E+03  0.56724426229E+03  0.25500000920E-02 0. -1.
        2   -1    0    0  501    0  0.00000000000E+00  0.00000000000E+00 -0.12724367332E+04  0.12724367332E+04  0.25500000920E-02 0.  1.
    10030    2    1    2    0    0  0.00000000000E+00  0.00000000000E+00 -0.70519247091E+03  0.18396809955E+04  0.16991555974E+04 0.  0.
        4    1    3    3  502    0 -0.39344899784E+03  0.21935703448E+03 -0.11324891408E+04  0.12187915693E+04  0.12699999809E+01 0.  1.
       -4    1    3    3    0  502  0.39344899784E+03 -0.21935703448E+03  0.42729666992E+03  0.62088942615E+03  0.12699999809E+01 0. -1.
</event>
<event>
 5   0  0.5035495E-04  0.1579800E+04  0.7818609E-02  0.8833054E-01
       -1   -1    0    0    0  501  0.00000000000E+00  0.00000000000E+00  0.13658777114E+04  0.13658777114E+04  0.50400001928E-02 0. -1.
        1   -1    0    0  501    0  0.00000000000E+00  0.00000000000E+00 -0.45680686328E+03  0.45680686331E+03  0.50400001928E-02 0.  1.
    10030    2    1    2    0    0  0.00000000000E+00  0.00000000000E+00  0.90907084814E+03  0.18226845747E+04  0.15798003836E+04 0.  0.
        4    1    3    3  502    0 -0.23725839170E+03 -0.27962391718E+03 -0.35263964189E+03  0.50876066026E+03  0.12699999809E+01 0.  1.
       -4    1    3    3    0  502  0.23725839170E+03  0.27962391718E+03  0.12617104900E+04  0.13139239145E+04  0.12699999809E+01 0. -1.
</event>
<event>
 5   0  0.5074133E-04  0.1046769E+04  0.7818609E-02  0.9258686E-01
        1   -1    0    0  501    0  0.00000000000E+00  0.00000000000E+00  0.10362696710E+04  0.10362696710E+04  0.50400001928E-02 0. -1.
       -1   -1    0    0    0  501  0.00000000000E+00  0.00000000000E+00 -0.26434359565E+03  0.26434359570E+03  0.50400001928E-02 0.  1.
    10030    2    1    2    0    0  0.00000000000E+00  0.00000000000E+00  0.77192607534E+03  0.13006132667E+04  0.10467688397E+04 0.  0.
        1    1    3    3  502    0 -0.23377213218E+03 -0.42638659952E+03  0.14542941155E+03  0.50754768821E+03  0.50400001928E-02 0.  1.
       -1    1    3    3    0  502  0.23377213218E+03  0.42638659952E+03  0.62649666379E+03  0.79306557850E+03  0.50400001928E-02 0. -1.
</event>
<event>
 5   0  0.9625225E-04  0.1650484E+04  0.7818609E-02  0.8790120E-01
        2   -1    0    0  501    0  0.00000000000E+00  0.00000000000E+00  0.38817219698E+03  0.38817219699E+03  0.25500000920E-02 0.  1.
       -2   -1    0    0    0  501  0.00000000000E+00  0.00000000000E+00 -0.17544388480E+04  0.17544388480E+04  0.25500000920E-02 0. -1.
    10030    2    1    2    0    0  0.00000000000E+00  0.00000000000E+00 -0.13662666511E+04  0.21426110450E+04  0.16504840286E+04 0.  0.
        1    1    3    3  502    0 -0.11617981192E+03  0.81621437231E+03 -0.63595534602E+03  0.10412218075E+04  0.50400001928E-02 0.  1.
       -1    1    3    3    0  502  0.11617981192E+03 -0.81621437231E+03 -0.73031130504E+03  0.11013892375E+04  0.50400001928E-02 0. -1.
</event>
<event>
 5   0  0.5059689E-04  0.1708733E+04  0.7818609E-02  0.8756399E-01
        1   -1    0    0  501    0  0.00000000000E+00  0.00000000000E+00  0.17243322176E+04  0.17243322176E+04  0.50400001928E-02 0.  1.
       -1   -1    0    0    0  501  0.00000000000E+00  0.00000000000E+00 -0.42331881133E+03  0.42331881136E+03  0.50400001928E-02 0. -1.
    10030    2    1    2    0    0  0.00000000000E+00  0.00000000000E+00  0.13010134063E+04  0.21476510290E+04  0.17087331737E+04 0.  0.
        5    1    3    3  502    0  0.24435118706E+02  0.18399304556E+03 -0.39765565062E+03  0.43886515277E+03  0.46999998093E+01 0. -1.
       -5    1    3    3    0  502 -0.24435118706E+02 -0.18399304556E+03  0.16986690569E+04  0.17087858762E+04  0.46999998093E+01 0.  1.
</event>
<event>
 5   0  0.9284971E-04  0.1164833E+04  0.7818609E-02  0.9144207E-01
        2   -1    0    0  501    0  0.00000000000E+00  0.00000000000E+00  0.63969151924E+03  0.63969151924E+03  0.25500000920E-02 0.  1.
       -2   -1    0    0    0  501  0.00000000000E+00  0.00000000000E+00 -0.53026980544E+03  0.53026980545E+03  0.25500000920E-02 0. -1.
    10030    2    1    2    0    0  0.00000000000E+00  0.00000000000E+00  0.10942171380E+03  0.11699613247E+04  0.11648332026E+04 0.  0.
        4    1    3    3  502    0 -0.51623421211E+03 -0.10117092814E+03  0.30575956924E+03  0.60846022511E+03  0.12699999809E+01 0.  1.
       -4    1    3    3    0  502  0.51623421211E+03  0.10117092814E+03 -0.19633785545E+03  0.56150109958E+03  0.12699999809E+01 0. -1.
</event>
<event>
 5   0  0.9625225E-04  0.1868736E+04  0.7818609E-02  0.8670577E-01
        2   -1    0    0  501    0  0.00000000000E+00  0.00000000000E+00  0.20129346737E+04  0.20129346737E+04  0.25500000920E-02 0. -1.
       -2   -1    0    0    0  501  0.00000000000E+00  0.00000000000E+00 -0.43371671759E+03  0.43371671759E+03  0.25500000920E-02 0.  1.
    10030    2    1    2    0    0  0.00000000000E+00  0.00000000000E+00  0.15792179561E+04  0.24466513913E+04  0.18687358501E+04 0.  0.
        1    1    3    3  502    0 -0.53191281621E+03  0.62604536296E+03  0.13724544246E+04  0.15995296772E+04  0.50400001928E-02 0. -1.
       -1    1    3    3    0  502  0.53191281621E+03 -0.62604536296E+03  0.20676353150E+03  0.84712171411E+03  0.50400001928E-02 0.  1.
</event>
<event>
 5   0  0.9312096E-04  0.1348284E+04  0.7818609E-02  0.8992128E-01
       -2   -1    0    0    0  501  0.00000000000E+00  0.00000000000E+00  0.37618657262E+03  0.37618657263E+03  0.25500000920E-02 0. -1.
        2   -1    0    0  501    0  0.00000000000E+00  0.00000000000E+00 -0.12080913720E+04  0.12080913720E+04  0.25500000920E-02 0.  1.
    10030    2    1    2    0    0  0.00000000000E+00  0.00000000000E+00 -0.83190479936E+03  0.15842779446E+04  0.13482844694E+04 0.  0.
        3    1    3    3  502    0  0.98492529904E+02 -0.35319548901E+03  0.24876698504E+03  0.44309463431E+03  0.10100000352E+00 0. -1.
       -3    1    3    3    0  502 -0.98492529904E+02  0.35319548901E+03 -0.10806717844E+04  0.11411833103E+04  0.10100000352E+00 0.  1.
</event>
<event>
 5   0  0.9610114E-04  0.1718814E+04  0.7818609E-02  0.8750706E-01
       -2   -1    0    0    0  501  0.00000000000E+00  0.00000000000E+00  0.86974664302E+03  0.86974664303E+03  0.25500000920E-02 0. -1.
        2   -1    0    0  501    0  0.00000000000E+00  0.00000000000E+00 -0.84919063383E+03  0.84919063383E+03  0.25500000920E-02 0.  1.
    10030    2    1    2    0    0  0.00000000000E+00  0.00000000000E+00  0.20556009195E+02  0.17189372769E+04  0.17188143624E+04 0.  0.
        2    1    3    3  502    0  0.51920333803E+03  0.39340789432E+03  0.57088818140E+03  0.86617272711E+03  0.25500000920E-02 0. -1.
       -2    1    3    3    0  502 -0.51920333803E+03 -0.39340789432E+03 -0.55033217220E+03  0.85276454974E+03  0.25500000920E-02 0.  1.
</event>
<event>
 5   0  0.9625225E-04  0.1668137E+04  0.7818609E-02  0.8779749E-01
        2   -1    0    0  501    0  0.00000000000E+00  0.00000000000E+00  0.21421734415E+04  0.21421734415E+04  0.25500000920E-02 0.  1.
       -2   -1    0    0    0  501  0.00000000000E+00  0.00000000000E+00 -0.32474966085E+03  0.32474966086E+03  0.25500000920E-02 0. -1.
    10030    2    1    2    0    0  0.00000000000E+00  0.00000000000E+00  0.18174237807E+04  0.24669231024E+04  0.16681368033E+04 0.  0.
        1    1    3    3  502    0 -0.42941854333E+03 -0.61109011989E+03  0.14577588596E+04  0.16379536968E+04  0.50400001928E-02 0.  1.
       -1    1    3    3    0  502  0.42941854333E+03  0.61109011989E+03  0.35966492109E+03  0.82896940563E+03  0.50400001928E-02 0. -1.
</event>
<event>
 5   0  0.1007187E-03  0.1695337E+04  0.7818609E-02  0.8764028E-01
       -2   -1    0    0    0  501  0.00000000000E+00  0.00000000000E+00  0.31352802060E+03  0.31352802061E+03  0.25500000920E-02 0.  1.
        2   -1    0    0  501    0  0.00000000000E+00  0.00000000000E+00 -0.22917958214E+04  0.22917958214E+04  0.25500000920E-02 0. -1.
    10030    2    1    2    0    0  0.00000000000E+00  0.00000000000E+00 -0.19782678008E+04  0.26053238420E+04  0.16953373794E+04 0.  0.
        5    1    3    3  502    0  0.30077064502E+03 -0.76315091887E+02  0.22308805711E+03  0.38220066114E+03  0.46999998093E+01 0.  1.
       -5    1    3    3    0  502 -0.30077064502E+03  0.76315091887E+02 -0.22013558579E+04  0.22231231809E+04  0.46999998093E+01 0. -1.
</event>
<event>
 5   0  0.9610114E-04  0.1711626E+04  0.7818609E-02  0.8754761E-01
        2   -1    0    0  501    0  0.00000000000E+00  0.00000000000E+00  0.10453123605E+04  0.10453123605E+04  0.25500000920E-02 0. -1.
       -2   -1    0    0    0  501  0.00000000000E+00  0.00000000000E+00 -0.70066718775E+03  0.70066718776E+03  0.25500000920E-02 0.  1.
    10030    2    1    2    0    0  0.00000000000E+00  0.00000000000E+00  0.34464517276E+03  0.17459795483E+04  0.17116262115E+04 0.  0.
        2    1    3    3  502    0 -0.30893482387E+03  0.79351967419E+03  0.25948863687E+03  0.89019579385E+03  0.25500000920E-02 0. -1.
       -2    1    3    3    0  502  0.30893482387E+03 -0.79351967419E+03  0.85156535887E+02  0.85578375442E+03  0.25500000920E-02 0.  1.
</event>
<event>
 5   0  0.5009762E-04  0.1337941E+04  0.7818609E-02  0.9000007E-01
        1   -1    0    0  501    0  0.00000000000E+00  0.00000000000E+00  0.64582336194E+03  0.64582336196E+03  0.50400001928E-02 0.  1.
       -1   -1    0    0    0  501  0.00000000000E+00  0.00000000000E+00 -0.69294702195E+03  0.69294702197E+03  0.50400001928E-02 0. -1.
    10030    2    1    2    0    0  0.00000000000E+00  0.00000000000E+00 -0.47123660017E+02  0.13387703839E+04  0.13379407691E+04 0.  0.
        3    1    3    3  502    0  0.14769900873E+02 -0.66758346643E+03 -0.64028600052E+02  0.67080959031E+03  0.10100000352E+00 0. -1.
       -3    1    3    3    0  502 -0.14769900873E+02  0.66758346643E+03  0.16904940035E+02  0.66796079362E+03  0.10100000352E+00 0.  1.
</event>
<event>
 5   0  0.5074133E-04  0.1760859E+04  0.7818609E-02  0.8727396E-01
       -1   -1    0    0    0  501  0.00000000000E+00  0.00000000000E+00  0.39868139750E+03  0.39868139753E+03  0.50400001928E-02 0.  1.
        1   -1    0    0  501    0  0.00000000000E+00  0.00000000000E+00 -0.19443001097E+04  0.19443001097E+04  0.50400001928E-02 0. -1.
    10030    2    1    2    0    0  0.00000000000E+00  0.00000000000E+00 -0.15456187122E+04  0.23429815072E+04  0.17608592050E+04 0.  0.
        1    1    3    3  502    0  0.44122852122E+03  0.49031362796E+03  0.31267800648E+01  0.65962098093E+03  0.50400001928E-02 0.  1.
       -1    1    3    3    0  502 -0.44122852122E+03 -0.49031362796E+03 -0.15487454922E+04  0.16833605263E+04  0.50400001928E-02 0. -1.
</event>
<event>
 5   0  0.9610114E-04  0.1734268E+04  0.7818609E-02  0.8742058E-01
        2   -1    0    0  501    0  0.00000000000E+00  0.00000000000E+00  0.17365237426E+04  0.17365237426E+04  0.25500000920E-02 0. -1.
       -2   -1    0    0    0  501  0.00000000000E+00  0.00000000000E+00 -0.43300382619E+03  0.43300382619E+03  0.25500000920E-02 0.  1.
    10030    2    1    2    0    0  0.00000000000E+00  0.00000000000E+00  0.13035199164E+04  0.21695275688E+04  0.17342680587E+04 0.  0.
        2    1    3    3  502    0  0.24082286871E+03  0.40406787395E+02  0.16926238371E+04  0.17101473084E+04  0.25500000920E-02 0. -1.
       -2    1    3    3    0  502 -0.24082286871E+03 -0.40406787395E+02 -0.38910392066E+03  0.45938026040E+03  0.25500000920E-02 0.  1.
</event>
<event>
 5   0  0.1007187E-03  0.1726315E+04  0.7818609E-02  0.8746496E-01
       -2   -1    0    0    0  501  0.00000000000E+00  0.00000000000E+00  0.26493087200E+03  0.26493087201E+03  0.25500000920E-02 0. -1.
        2   -1    0    0  501    0  0.00000000000E+00  0.00000000000E+00 -0.28122099658E+04  0.28122099658E+04  0.25500000920E-02 0.  1.
    10030    2    1    2    0    0  0.00000000000E+00  0.00000000000E+00 -0.25472790938E+04  0.30771408378E+04  0.17263154271E+04 0.  0.
        5    1    3    3  502    0 -0.57071202795E+03  0.64227837433E+03 -0.11268092848E+04  0.14170232826E+04  0.46999998093E+01 0. -1.
       -5    1    3    3    0  502  0.57071202795E+03 -0.64227837433E+03 -0.14204698089E+04  0.16601175552E+04  0.46999998093E+01 0.  1.
</event>
<event>
 5   0  0.1007187E-03  0.1637673E+04  0.7818609E-02  0.8797733E-01
       -2   -1    0    0    0  501  0.00000000000E+00  0.00000000000E+00  0.37139537529E+03  0.37139537530E+03  0.25500000920E-02 0. -1.
        2   -1    0    0  501    0  0.00000000000E+00  0.00000000000E+00 -0.18053343557E+04  0.18053343557E+04  0.25500000920E-02 0.  1.
    10030    2    1    2    0    0  0.00000000000E+00  0.00000000000E+00 -0.14339389804E+04  0.21767297310E+04  0.16376725321E+04 0.  0.
        5    1    3    3  502    0  0.27574188429E+03 -0.37165021939E+03  0.18089127215E+03  0.49689155222E+03  0.46999998093E+01 0. -1.
       -5    1    3    3    0  502 -0.27574188429E+03  0.37165021939E+03 -0.16148302526E+04  0.16798381788E+04  0.46999998093E+01 0.  1.
</event>
<event>
 5   0  0.5035495E-04  0.1658676E+04  0.7818609E-02  0.8785290E-01
       -1   -1    0    0    0  501  0.00000000000E+00  0.00000000000E+00  0.31540735503E+03  0.31540735507E+03  0.50400001928E-02 0. -1.
        1   -1    0    0  501    0  0.00000000000E+00  0.00000000000E+00 -0.21806778168E+04  0.21806778168E+04  0.50400001928E-02 0.  1.
    10030    2    1    2    0    0  0.00000000000E+00  0.00000000000E+00 -0.18652704617E+04  0.24960851718E+04  0.16586763668E+04 0.  0.
        4    1    3    3  502    0  0.15438695250E+03 -0.25712024550E+03 -0.20962127830E+04  0.21175589239E+04  0.12699999809E+01 0.  1.
       -4    1    3    3    0  502 -0.15438695250E+03  0.25712024550E+03  0.23094232124E+03  0.37852624795E+03  0.12699999809E+01 0. -1.
</event>
<event>
 5   0  0.5059689E-04  0.1722221E+04  0.7818609E-02  0.8748791E-01
       -1   -1    0    0    0  501  0.00000000000E+00  0.00000000000E+00  0.79878409578E+03  0.79878409580E+03  0.50400001928E-02 0. -1.
        1   -1    0    0  501    0  0.00000000000E+00  0.00000000000E+00 -0.92829997204E+03  0.92829997205E+03  0.50400001928E-02 0.  1.
    10030    2    1    2    0    0  0.00000000000E+00  0.00000000000E+00 -0.12951587626E+03  0.17270840678E+04  0.17222209542E+04 0.  0.
        5    1    3    3  502    0  0.71794269823E+03  0.43663904429E+03 -0.25342155197E+03  0.87769011954E+03  0.46999998093E+01 0. -1.
       -5    1    3    3    0  502 -0.71794269823E+03 -0.43663904429E+03  0.12390567571E+03  0.84939394830E+03  0.46999998093E+01 0.  1.
</event>
<event>
 5   0  0.9625225E-04  0.1739464E+04  0.7818609E-02  0.8739171E-01
        2   -1    0    0  501    0  0.00000000000E+00  0.00000000000E+00  0.18076658915E+04  0.18076658915E+04  0.25500000920E-02 0. -1.
       -2   -1    0    0    0  501  0.00000000000E+00  0.00000000000E+00 -0.41845871958E+03  0.41845871958E+03  0.25500000920E-02 0.  1.
    10030    2    1    2    0    0  0.00000000000E+00  0.00000000000E+00  0.13892071720E+04  0.22261246111E+04  0.17394637730E+04 0.  0.
        1    1    3    3  502    0  0.39431382798E+03 -0.40753519364E+03 -0.14933612496E+03  0.58640396250E+03  0.50400001928E-02 0.  1.
       -1    1    3    3    0  502 -0.39431382798E+03  0.40753519364E+03  0.15385432969E+04  0.16397206486E+04  0.50400001928E-02 0. -1.
</event>
<event>
 5   0  0.9284971E-04  0.1680420E+04  0.7818609E-02  0.8772611E-01
        2   -1    0    0  501    0  0.00000000000E+00  0.00000000000E+00  0.81307091721E+03  0.81307091721E+03  0.25500000920E-02 0. -1.
       -2   -1    0    0    0  501  0.00000000000E+00  0.00000000000E+00 -0.86825468416E+03  0.86825468416E+03  0.25500000920E-02 0.  1.
    10030    2    1    2    0    0  0.00000000000E+00  0.00000000000E+00 -0.55183766949E+02  0.16813256014E+04  0.16804197481E+04 0.  0.
        4    1    3    3  502    0  0.87876908250E+02 -0.59566769921E+03  0.55873481618E+03  0.82141863054E+03  0.12699999809E+01 0. -1.
       -4    1    3    3    0  502 -0.87876908250E+02  0.59566769921E+03 -0.61391858313E+03  0.85990697084E+03  0.12699999809E+01 0.  1.
</event>
<event>
 5   0  0.9610114E-04  0.1239700E+04  0.7818609E-02  0.9078799E-01
       -2   -1    0    0    0  501  0.00000000000E+00  0.00000000000E+00  0.73745891881E+03  0.73745891881E+03  0.25500000920E-02 0. -1.
        2   -1    0    0  501    0  0.00000000000E+00  0.00000000000E+00 -0.52099746931E+03  0.52099746932E+03  0.25500000920E-02 0.  1.
    10030    2    1    2    0    0  0.00000000000E+00  0.00000000000E+00  0.21646144950E+03  0.12584563881E+04  0.12397003354E+04 0.  0.
        2    1    3    3  502    0  0.42780715378E+03  0.12331792575E+03 -0.32955728716E+03  0.55392623801E+03  0.25500000920E-02 0.  1.
       -2    1    3    3    0  502 -0.42780715378E+03 -0.12331792575E+03  0.54601873666E+03  0.70453015012E+03  0.25500000920E-02 0. -1.
</event>
<event>
 5   0  0.9610114E-04  0.1698005E+04  0.7818609E-02  0.8762503E-01
        2   -1    0    0  501    0  0.00000000000E+00  0.00000000000E+00  0.19971685238E+04  0.19971685238E+04  0.25500000920E-02 0. -1.
       -2   -1    0    0    0  501  0.00000000000E+00  0.00000000000E+00 -0.36091349066E+03  0.36091349067E+03  0.25500000920E-02 0.  1.
    10030    2    1    2    0    0  0.00000000000E+00  0.00000000000E+00  0.16362550331E+04  0.23580820145E+04  0.16980047861E+04 0.  0.
        2    1    3    3  502    0  0.57958537788E+03  0.51985056150E+02  0.16766583749E+04  0.17747689884E+04  0.25500000920E-02 0. -1.
       -2    1    3    3    0  502 -0.57958537788E+03 -0.51985056150E+02 -0.40403341714E+02  0.58331302604E+03  0.25500000920E-02 0.  1.
</event>
<event>
 5   0  0.3523125E-04  0.1747581E+04  0.7818609E-02  0.8734683E-01
       -4   -1    0    0    0  501  0.00000000000E+00  0.00000000000E+00  0.53370894400E+03  0.53371045503E+03  0.12699999809E+01 0. -1.
        4   -1    0    0  501    0  0.00000000000E+00  0.00000000000E+00 -0.14305699495E+04  0.14305705132E+04  0.12699999809E+01 0.  1.
    10030    2    1    2    0    0  0.00000000000E+00  0.00000000000E+00 -0.89686100552E+03  0.19642809683E+04  0.17475812024E+04 0.  0.
        5    1    3    3  502    0  0.25325339541E+03  0.75651390858E+03 -0.47811122567E+02  0.79922372938E+03  0.46999998093E+01 0. -1.
       -5    1    3    3    0  502 -0.25325339541E+03 -0.75651390858E+03 -0.84904988295E+03  0.11650572389E+04  0.46999998093E+01 0.  1.
</event>
<event>
 5   0  0.5009762E-04  0.1728436E+04  0.7818609E-02  0.8745310E-01
       -1   -1    0    0    0  501  0.00000000000E+00  0.00000000000E+00  0.45212102026E+03  0.45212102029E+03  0.50400001928E-02 0. -1.
        1   -1    0    0  501    0  0.00000000000E+00  0.00000000000E+00 -0.16519309885E+04  0.16519309885E+04  0.50400001928E-02 0.  1.
    10030    2    1    2    0    0  0.00000000000E+00  0.00000000000E+00 -0.11998099682E+04  0.21040520088E+04  0.17284359681E+04 0.  0.
        3    1    3    3  502    0  0.23221163764E+03  0.58044073447E+03 -0.13262650773E+04  0.14662239789E+04  0.10100000352E+00 0.  1.
       -3    1    3    3    0  502 -0.23221163764E+03 -0.58044073447E+03  0.12645510907E+03  0.63782802987E+03  0.10100000352E+00 0. -1.
</event>
<event>
 5   0  0.1007187E-03  0.1661566E+04  0.7818609E-02  0.8783593E-01
       -2   -1    0    0    0  501  0.00000000000E+00  0.00000000000E+00  0.31768287036E+03  0.31768287037E+03  0.25500000920E-02 0.  1.
        2   -1    0    0  501    0  0.00000000000E+00  0.00000000000E+00 -0.21726093727E+04  0.21726093727E+04  0.25500000920E-02 0. -1.
    10030    2    1    2    0    0  0.00000000000E+00  0.00000000000E+00 -0.18549265024E+04  0.24902922431E+04  0.16615664678E+04 0.  0.
        5    1    3    3  502    0  0.46626682051E+03 -0.52728719488E+03 -0.15888608072E+04  0.17377966764E+04  0.46999998093E+01 0. -1.
       -5    1    3    3    0  502 -0.46626682051E+03  0.52728719488E+03 -0.26606569520E+03  0.75249556673E+03  0.46999998093E+01 0.  1.
</event>
<event>
 5   0  0.9625225E-04  0.1715207E+04  0.7818609E-02  0.8752738E-01
        2   -1    0    0  501    0  0.00000000000E+00  0.00000000000E+00  0.21956201575E+04  0.21956201575E+04  0.25500000920E-02 0.  1.
       -2   -1    0    0    0  501  0.00000000000E+00  0.00000000000E+00 -0.33497781752E+03  0.33497781753E+03  0.25500000920E-02 0. -1.
    10030    2    1    2    0    0  0.00000000000E+00  0.00000000000E+00  0.18606423400E+04  0.25305979751E+04  0.17152073326E+04 0.  0.
        1    1    3    3  502    0 -0.36642091493E+03 -0.50019313723E+02 -0.21128846985E+03  0.42592139669E+03  0.50400001928E-02 0. -1.
       -1    1    3    3    0  502  0.36642091493E+03  0.50019313723E+02  0.20719308099E+04  0.21046765784E+04  0.50400001928E-02 0.  1.
</event>
<event>
 5   0  0.5035495E-04  0.1429861E+04  0.7818609E-02  0.8932483E-01
       -1   -1    0    0    0  501  0.00000000000E+00  0.00000000000E+00  0.26439728621E+03  0.26439728626E+03  0.50400001928E-02 0.  1.
        1   -1    0    0  501    0  0.00000000000E+00  0.00000000000E+00 -0.19331714378E+04  0.19331714378E+04  0.50400001928E-02 0. -1.
    10030    2    1    2    0    0  0.00000000000E+00  0.00000000000E+00 -0.16687741516E+04  0.21975687240E+04  0.14298605275E+04 0.  0.
        4    1    3    3  502    0  0.49639903016E+02  0.60132675021E+03 -0.24499476100E+03  0.65121580625E+03  0.12699999809E+01 0.  1.
       -4    1    3    3    0  502 -0.49639903016E+02 -0.60132675021E+03 -0.14237793906E+04  0.15463529178E+04  0.12699999809E+01 0. -1.
</event>
<event>
 5   0  0.5009762E-04  0.1740663E+04  0.7818609E-02  0.8738507E-01
       -1   -1    0    0    0  501  0.00000000000E+00  0.00000000000E+00  0.80504060436E+03  0.80504060438E+03  0.50400001928E-02 0. -1.
        1   -1    0    0  501    0  0.00000000000E+00  0.00000000000E+00 -0.94091752881E+03  0.94091752882E+03  0.50400001928E-02 0.  1.
    10030    2    1    2    0    0  0.00000000000E+00  0.00000000000E+00 -0.13587692445E+03  0.17459581332E+04  0.17406628807E+04 0.  0.
        3    1    3    3  502    0  0.57816563737E+03  0.11568427482E+03  0.57417963571E+03  0.82300705947E+03  0.10100000352E+00 0. -1.
       -3    1    3    3    0  502 -0.57816563737E+03 -0.11568427482E+03 -0.71005656016E+03  0.92295107373E+03  0.10100000352E+00 0.  1.
</event>
<event>
 5   0  0.1007187E-03  0.1702091E+04  0.7818609E-02  0.8760173E-01
       -2   -1    0    0    0  501  0.00000000000E+00  0.00000000000E+00  0.70808011013E+03  0.70808011014E+03  0.25500000920E-02 0.  1.
        2   -1    0    0  501    0  0.00000000000E+00  0.00000000000E+00 -0.10228763416E+04  0.10228763416E+04  0.25500000920E-02 0. -1.
    10030    2    1    2    0    0  0.00000000000E+00  0.00000000000E+00 -0.31479623144E+03  0.17309564517E+04  0.17020909407E+04 0.  0.
        5    1    3    3  502    0  0.38727650025E+03  0.70913517509E+03 -0.42913842421E+03  0.91489762341E+03  0.46999998093E+01 0.  1.
       -5    1    3    3    0  502 -0.38727650025E+03 -0.70913517509E+03  0.11434219277E+03  0.81605882830E+03  0.46999998093E+01 0. -1.
</event>
<event>
 5   0  0.1007187E-03  0.1737984E+04  0.7818609E-02  0.8739992E-01
        2   -1    0    0  501    0  0.00000000000E+00  0.00000000000E+00  0.16998750014E+04  0.16998750014E+04  0.25500000920E-02 0. -1.
       -2   -1    0    0    0  501  0.00000000000E+00  0.00000000000E+00 -0.44423701123E+03  0.44423701123E+03  0.25500000920E-02 0.  1.
    10030    2    1    2    0    0  0.00000000000E+00  0.00000000000E+00  0.12556379902E+04  0.21441120127E+04  0.17379843384E+04 0.  0.
        5    1    3    3  502    0  0.60665505292E+03 -0.44492675301E+03  0.91296773581E+02  0.75785708391E+03  0.46999998093E+01 0.  1.
       -5    1    3    3    0  502 -0.60665505292E+03  0.44492675301E+03  0.11643412166E+04  0.13862549288E+04  0.46999998093E+01 0. -1.
</event>
<event>
 5   0  0.9610114E-04  0.1706195E+04  0.7818609E-02  0.8757839E-01
        2   -1    0    0  501    0  0.00000000000E+00  0.00000000000E+00  0.19976447512E+04  0.19976447512E+04  0.25500000920E-02 0.  1.
       -2   -1    0    0    0  501  0.00000000000E+00  0.00000000000E+00 -0.36431683322E+03  0.36431683322E+03  0.25500000920E-02 0. -1.
    10030    2    1    2    0    0  0.00000000000E+00  0.00000000000E+00  0.16333279180E+04  0.23619615844E+04  0.17061953108E+04 0.  0.
        2    1    3    3  502    0 -0.37760489207E+03  0.75277746288E+03  0.10050377868E+04  0.13112438050E+04  0.25500000920E-02 0. -1.
       -2    1    3    3    0  502  0.37760489207E+03 -0.75277746288E+03  0.62829013116E+03  0.10507177795E+04  0.25500000920E-02 0.  1.
</event>
<event>
 5   0  0.9284971E-04  0.1610959E+04  0.7818609E-02  0.8813844E-01
       -2   -1    0    0    0  501  0.00000000000E+00  0.00000000000E+00  0.80091683479E+03  0.80091683480E+03  0.25500000920E-02 0.  1.
        2   -1    0    0  501    0  0.00000000000E+00  0.00000000000E+00 -0.81006818800E+03  0.81006818800E+03  0.25500000920E-02 0. -1.
    10030    2    1    2    0    0  0.00000000000E+00  0.00000000000E+00 -0.91513532075E+01  0.16109850228E+04  0.16109590300E+04 0.  0.
        4    1    3    3  502    0 -0.76561715336E+02 -0.18969220865E+03  0.77450736926E+03  0.80106685627E+03  0.12699999809E+01 0.  1.
       -4    1    3    3    0  502  0.76561715336E+02  0.18969220865E+03 -0.78365872247E+03  0.80991816653E+03  0.12699999809E+01 0. -1.
</event>
<event>
 5   0  0.5074133E-04  0.1706202E+04  0.7818609E-02  0.8757835E-01
       -1   -1    0    0    0  501  0.00000000000E+00  0.00000000000E+00  0.51722694863E+03  0.51722694865E+03  0.50400001928E-02 0.  1.
        1   -1    0    0  501    0  0.00000000000E+00  0.00000000000E+00 -0.14070839510E+04  0.14070839510E+04  0.50400001928E-02 0. -1.
    10030    2    1    2    0    0  0.00000000000E+00  0.00000000000E+00 -0.88985700237E+03  0.19243108997E+04  0.17062024950E+04 0.  0.
        1    1    3    3  502    0  0.67105576902E+03  0.50029793587E+03 -0.25903147099E+03  0.87619128777E+03  0.50400001928E-02 0.  1.
       -1    1    3    3    0  502 -0.67105576902E+03 -0.50029793587E+03 -0.63082553138E+03  0.10481196119E+04  0.50400001928E-02 0. -1.
</event>
<event>
 5   0  0.5074133E-04  0.1437148E+04  0.7818609E-02  0.8927359E-01
        1   -1    0    0  501    0  0.00000000000E+00  0.00000000000E+00  0.17305884860E+04  0.17305884860E+04  0.50400001928E-02 0.  1.
       -1   -1    0    0    0  501  0.00000000000E+00  0.00000000000E+00 -0.29836592755E+03  0.29836592759E+03  0.50400001928E-02 0. -1.
    10030    2    1    2    0    0  0.00000000000E+00  0.00000000000E+00  0.14322225585E+04  0.20289544136E+04  0.14371480632E+04 0.  0.
        1    1    3    3  502    0 -0.12312431565E+03  0.67901897592E+03  0.43332161325E+03  0.81485826209E+03  0.50400001928E-02 0. -1.
       -1    1    3    3    0  502  0.12312431565E+03 -0.67901897592E+03  0.99890094521E+03  0.12140961515E+04  0.50400001928E-02 0.  1.
</event>
<event>
 5   0  0.5059689E-04  0.1699995E+04  0.7818609E-02  0.8761367E-01
        1   -1    0    0  501    0  0.00000000000E+00  0.00000000000E+00  0.88994986100E+03  0.88994986101E+03  0.50400001928E-02 0. -1.
       -1   -1    0    0    0  501  0.00000000000E+00  0.00000000000E+00 -0.81183907491E+03  0.81183907493E+03  0.50400001928E-02 0.  1.
    10030    2    1    2    0    0  0.00000000000E+00  0.00000000000E+00  0.78110786082E+02  0.17017889359E+04  0.16999953787E+04 0.  0.
        5    1    3    3  502    0 -0.44849787016E+03  0.70238019163E+03 -0.12841039991E+03  0.84320791857E+03  0.46999998093E+01 0.  1.
       -5    1    3    3    0  502  0.44849787016E+03 -0.70238019163E+03  0.20652118600E+03  0.85858101737E+03  0.46999998093E+01 0. -1.
</event>
<event>
 5   0  0.9625225E-04  0.1726242E+04  0.7818609E-02  0.8746538E-01
       -2   -1    0    0    0  501  0.00000000000E+00  0.00000000000E+00  0.39621150815E+03  0.39621150815E+03  0.25500000920E-02 0. -1.
        2   -1    0    0  501    0  0.00000000000E+00  0.00000000000E+00 -0.18802520962E+04  0.18802520962E+04  0.25500000920E-02 0.  1.
    10030    2    1    2    0    0  0.00000000000E+00  0.00000000000E+00 -0.14840405880E+04  0.22764636043E+04  0.17262416039E+04 0.  0.
        1    1    3    3  502    0  0.95071484444E+02 -0.11682499763E+03 -0.18627869173E+04  0.18688664390E+04  0.50400001928E-02 0.  1.
       -1    1    3    3    0  502 -0.95071484444E+02  0.11682499763E+03  0.37874632931E+03  0.40759716537E+03  0.50400001928E-02 0. -1.
</event>
<event>
 5   0  0.9284971E-04  0.1540281E+04  0.7818609E-02  0.8858100E-01
       -2   -1    0    0    0  501  0.00000000000E+00  0.00000000000E+00  0.32378192350E+03  0.32378192351E+03  0.25500000920E-02 0.  1.
        2   -1    0    0  501    0  0.00000000000E+00  0.00000000000E+00 -0.18318391704E+04  0.18318391704E+04  0.25500000920E-02 0. -1.
    10030    2    1    2    0    0  0.00000000000E+00  0.00000000000E+00 -0.15080572469E+04  0.21556210939E+04  0.15402810265E+04 0.  0.
        4    1    3    3  502    0 -0.35276203918E+03 -0.48426035311E+03 -0.14312552960E+04  0.15515935296E+04  0.12699999809E+01 0. -1.
       -4    1    3    3    0  502  0.35276203918E+03  0.48426035311E+03 -0.76801950914E+02  0.60402756431E+03  0.12699999809E+01 0.  1.
</event>
<event>
 5   0  0.5035495E-04  0.1694327E+04  0.7818609E-02  0.8764606E-01
       -1   -1    0    0    0  501  0.00000000000E+00  0.00000000000E+00  0.46408714686E+03  0.46408714689E+03  0.50400001928E-02 0. -1.
        1   -1    0    0  501    0  0.00000000000E+00  0.00000000000E+00 -0.15464474240E+04  0.15464474240E+04  0.50400001928E-02 0.  1.
    10030    2    1    2    0    0  0.00000000000E+00  0.00000000000E+00 -0.10823602772E+04  0.20105345709E+04  0.16943274451E+04 0.  0.
        4    1    3    3  502    0 -0.56189175877E+03 -0.47888459262E+03 -0.48148490353E+02  0.73984639733E+03  0.12699999809E+01 0. -1.
       -4    1    3    3    0  502  0.56189175877E+03  0.47888459262E+03 -0.10342117868E+04  0.12706881736E+04  0.12699999809E+01 0.  1.
</event>
<event>
 5   0  0.5059689E-04  0.1717371E+04  0.7818609E-02  0.8751519E-01
       -1   -1    0    0    0  501  0.00000000000E+00  0.00000000000E+00  0.48370445817E+03  0.48370445819E+03  0.50400001928E-02 0.  1.
        1   -1    0    0  501    0  0.00000000000E+00  0.00000000000E+00 -0.15243625128E+04  0.15243625128E+04  0.50400001928E-02 0. -1.
    10030    2    1    2    0    0  0.00000000000E+00  0.00000000000E+00 -0.10406580546E+04  0.20080669710E+04  0.17173711810E+04 0.  0.
        5    1    3    3  502    0 -0.10796847175E+03 -0.59442942075E+03  0.19313072568E+03  0.63429101708E+03  0.46999998093E+01 0.  1.
       -5    1    3    3    0  502  0.10796847175E+03  0.59442942075E+03 -0.12337887803E+04  0.13737759539E+04  0.46999998093E+01 0. -1.
</event>
<event>
 5   0  0.9625225E-04  0.1708879E+04  0.7818609E-02  0.8756317E-01
       -2   -1    0    0    0  501  0.00000000000E+00  0.00000000000E+00  0.58468092760E+03  0.58468092760E+03  0.25500000920E-02 0.  1.
        2   -1    0    0  501    0  0.00000000000E+00  0.00000000000E+00 -0.12486579367E+04  0.12486579367E+04  0.25500000920E-02 0. -1.
    10030    2    1    2    0    0  0.00000000000E+00  0.00000000000E+00 -0.66397700910E+03  0.18333388643E+04  0.17088785571E+04 0.  0.
        1    1    3    3  502    0 -0.43742497983E+03 -0.49721727987E+03 -0.91121904608E+03  0.11264483061E+04  0.50400001928E-02 0. -1.
       -1    1    3    3    0  502  0.43742497983E+03  0.49721727987E+03  0.24724203698E+03  0.70689055819E+03  0.50400001928E-02 0.  1.
</event>
<event>
 5   0  0.5009762E-04  0.1723175E+04  0.7818609E-02  0.8748256E-01
       -1   -1    0    0    0  501  0.00000000000E+00  0.00000000000E+00  0.44753470442E+03  0.44753470445E+03  0.50400001928E-02 0.  1.
        1   -1    0    0  501    0  0.00000000000E+00  0.00000000000E+00 -0.16587162076E+04  0.16587162076E+04  0.50400001928E-02 0. -1.
    10030    2    1    2    0    0  0.00000000000E+00  0.00000000000E+00 -0.12111815032E+04  0.21062509120E+04  0.17231750552E+04 0.  0.
        3    1    3    3  502    0  0.30397793919E+03 -0.55486642103E+02 -0.15886576433E+04  0.16184296317E+04  0.10100000352E+00 0. -1.
       -3    1    3    3    0  502 -0.30397793919E+03  0.55486642103E+02  0.37747614014E+03  0.48782128033E+03  0.10100000352E+00 0.  1.
</event>
<event>
 5   0  0.9610114E-04  0.1681549E+04  0.7818609E-02  0.8771958E-01
       -2   -1    0    0    0  501  0.00000000000E+00  0.00000000000E+00  0.46428979360E+03  0.46428979360E+03  0.25500000920E-02 0. -1.
        2   -1    0    0  501    0  0.00000000000E+00  0.00000000000E+00 -0.15225448070E+04  0.15225448070E+04  0.25500000920E-02 0.  1.
    10030    2    1    2    0    0  0.00000000000E+00  0.00000000000E+00 -0.10582550134E+04  0.19868346006E+04  0.16815493025E+04 0.  0.
        2    1    3    3  502    0 -0.15481035851E+03 -0.66121356245E+03  0.56583402907E+02  0.68144794648E+03  0.25500000920E-02 0. -1.
       -2    1    3    3    0  502  0.15481035851E+03  0.66121356245E+03 -0.11148384163E+04  0.13053866541E+04  0.25500000920E-02 0.  1.
</event>
<event>
 5   0  0.9610114E-04  0.1668430E+04  0.7818609E-02  0.8779577E-01
        2   -1    0    0  501    0  0.00000000000E+00  0.00000000000E+00  0.90463514601E+03  0.90463514601E+03  0.25500000920E-02 0.  1.
       -2   -1    0    0    0  501  0.00000000000E+00  0.00000000000E+00 -0.76927678815E+03  0.76927678815E+03  0.25500000920E-02 0. -1.
    10030    2    1    2    0    0  0.00000000000E+00  0.00000000000E+00  0.13535835786E+03  0.16739119342E+04  0.16684301838E+04 0.  0.
        2    1    3    3  502    0 -0.48112593812E+03  0.26244695540E+03 -0.56331825538E+03  0.78593131353E+03  0.25500000920E-02 0. -1.
       -2    1    3    3    0  502  0.48112593812E+03 -0.26244695540E+03  0.69867661324E+03  0.88798062064E+03  0.25500000920E-02 0.  1.
</event>
<event>
 5   0  0.9284971E-04  0.1416795E+04  0.7818609E-02  0.8941750E-01
       -2   -1    0    0    0  501  0.00000000000E+00  0.00000000000E+00  0.60575611496E+03  0.60575611496E+03  0.25500000920E-02 0. -1.
        2   -1    0    0  501    0  0.00000000000E+00  0.00000000000E+00 -0.82843096596E+03  0.82843096597E+03  0.25500000920E-02 0.  1.
    10030    2    1    2    0    0  0.00000000000E+00  0.00000000000E+00 -0.22267485101E+03  0.14341870809E+04  0.14167951489E+04 0.  0.
        4    1    3    3  502    0 -0.24882855592E+03  0.97776152516E+02 -0.77540074085E+03  0.82019738359E+03  0.12699999809E+01 0.  1.
       -4    1    3    3    0  502  0.24882855592E+03 -0.97776152516E+02  0.55272588984E+03  0.61398969734E+03  0.12699999809E+01 0. -1.
</event>
<event>
 5   0  0.9312096E-04  0.1767593E+04  0.7818609E-02  0.8723726E-01
       -2   -1    0    0    0  501  0.00000000000E+00  0.00000000000E+00  0.56826807819E+03  0.56826807819E+03  0.25500000920E-02 0.  1.
        2   -1    0    0  501    0  0.00000000000E+00  0.00000000000E+00 -0.13745205765E+04  0.13745205765E+04  0.25500000920E-02 0. -1.
    10030    2    1    2    0    0  0.00000000000E+00  0.00000000000E+00 -0.80625249827E+03  0.19427886547E+04  0.17675929016E+04 0.  0.
        3    1    3    3  502    0 -0.88282592337E+03  0.28651921602E+02 -0.43598249653E+03  0.98502958893E+03  0.10100000352E+00 0. -1.
       -3    1    3    3    0  502  0.88282592337E+03 -0.28651921602E+02 -0.37027000174E+03  0.95775906572E+03  0.10100000352E+00 0.  1.
</event>
<event>
 5   0  0.9625225E-04  0.1721967E+04  0.7818609E-02  0.8748934E-01
        2   -1    0    0  501    0  0.00000000000E+00  0.00000000000E+00  0.19849901638E+04  0.19849901638E+04  0.25500000920E-02 0.  1.
       -2   -1    0    0    0  501  0.00000000000E+00  0.00000000000E+00 -0.37344880529E+03  0.37344880530E+03  0.25500000920E-02 0. -1.
    10030    2    1    2    0    0  0.00000000000E+00  0.00000000000E+00  0.16115413585E+04  0.23584389691E+04  0.17219665562E+04 0.  0.
        1    1    3    3  502    0 -0.19802198058E+03 -0.44192471108E+03 -0.16924262513E+03  0.51298462086E+03  0.50400001928E-02 0. -1.
       -1    1    3    3    0  502  0.19802198058E+03  0.44192471108E+03  0.17807839836E+04  0.18454543483E+04  0.50400001928E-02 0.  1.
</event>
<event>
 5   0  0.1007187E-03  0.1608816E+04  0.7818609E-02  0.8815151E-01
        2   -1    0    0  501    0  0.00000000000E+00  0.00000000000E+00  0.91525278529E+03  0.91525278529E+03  0.25500000920E-02 0. -1.
       -2   -1    0    0    0  501  0.00000000000E+00  0.00000000000E+00 -0.70698705494E+03  0.70698705494E+03  0.25500000920E-02 0.  1.
    10030    2    1    2    0    0  0.00000000000E+00  0.00000000000E+00  0.20826573035E+03  0.16222398402E+04  0.16088155534E+04 0.  0.
        5    1    3    3  502    0 -0.18733892508E+03  0.70896168255E+03 -0.22927281991E+03  0.76831676809E+03  0.46999998093E+01 0.  1.
       -5    1    3    3    0  502  0.18733892508E+03 -0.70896168255E+03  0.43753855027E+03  0.85392307215E+03  0.46999998093E+01 0. -1.
</event>
<event>
 5   0  0.5035495E-04  0.1994641E+04  0.7818609E-02  0.8609130E-01
       -1   -1    0    0    0  501  0.00000000000E+00  0.00000000000E+00  0.17305174456E+04  0.17305174456E+04  0.50400001928E-02 0. -1.
        1   -1    0    0  501    0  0.00000000000E+00  0.00000000000E+00 -0.57476936425E+03  0.57476936428E+03  0.50400001928E-02 0.  1.
    10030    2    1    2    0    0  0.00000000000E+00  0.00000000000E+00  0.11557480813E+04  0.23052868098E+04  0.19946412330E+04 0.  0.
        4    1    3    3  502    0 -0.43558933430E+03 -0.57491439703E+03  0.13738947202E+04  0.15517257964E+04  0.12699999809E+01 0. -1.
       -4    1    3    3    0  502  0.43558933430E+03  0.57491439703E+03 -0.21814663888E+03  0.75356101347E+03  0.12699999809E+01 0.  1.
</event>
<event>
 5   0  0.5059689E-04  0.1723123E+04  0.7818609E-02  0.8748285E-01
        1   -1    0    0  501    0  0.00000000000E+00  0.00000000000E+00  0.12228256269E+04  0.12228256269E+04  0.50400001928E-02 0. -1.
       -1   -1    0    0    0  501  0.00000000000E+00  0.00000000000E+00 -0.60702683078E+03  0.60702683080E+03  0.50400001928E-02 0.  1.
    10030    2    1    2    0    0  0.00000000000E+00  0.00000000000E+00  0.61579879611E+03  0.18298524577E+04  0.17231227059E+04 0.  0.
        5    1    3    3  502    0 -0.66950130765E+03 -0.70132017979E+02  0.87889854787E+03  0.11070841198E+04  0.46999998093E+01 0. -1.
       -5    1    3    3    0  502  0.66950130765E+03  0.70132017979E+02 -0.26309975176E+03  0.72276833789E+03  0.46999998093E+01 0.  1.
</event>
<event>
 5   0  0.9284971E-04  0.1683964E+04  0.7818609E-02  0.8770564E-01
       -2   -1    0    0    0  501  0.00000000000E+00  0.00000000000E+00  0.90653192733E+03  0.90653192733E+03  0.25500000920E-02 0. -1.
        2   -1    0    0  501    0  0.00000000000E+00  0.00000000000E+00 -0.78202822848E+03  0.78202822848E+03  0.25500000920E-02 0.  1.
    10030    2    1    2    0    0  0.00000000000E+00  0.00000000000E+00  0.12450369885E+03  0.16885601558E+04  0.16839638443E+04 0.  0.
        4    1    3    3  502    0  0.33046149167E+03 -0.33241489632E+03 -0.63910525056E+03  0.79256646092E+03  0.12699999809E+01 0.  1.
       -4    1    3    3    0  502 -0.33046149167E+03  0.33241489632E+03  0.76360894941E+03  0.89599369490E+03  0.12699999809E+01 0. -1.
</event>
<event>
 5   0  0.9610114E-04  0.1687462E+04  0.7818609E-02  0.8768548E-01
        2   -1    0    0  501    0  0.00000000000E+00  0.00000000000E+00  0.16670103874E+04  0.16670103874E+04  0.25500000920E-02 0.  1.
       -2   -1    0    0    0  501  0.00000000000E+00  0.00000000000E+00 -0.42704092517E+03  0.42704092518E+03  0.25500000920E-02 0. -1.
    10030    2    1    2    0    0  0.00000000000E+00  0.00000000000E+00  0.12399694623E+04  0.20940513126E+04  0.16874615944E+04 0.  0.
        2    1    3    3  502    0  0.72339299650E+03  0.34892595637E+03  0.94080005064E+03  0.12369929206E+04  0.25500000920E-02 0.  1.
       -2    1    3    3    0  502 -0.72339299650E+03 -0.34892595637E+03  0.29916941163E+03  0.85705839199E+03  0.25500000920E-02 0. -1.
</event>
<event>
 5   0  0.5059689E-04  0.9745132E+03  0.7818609E-02  0.9336949E-01
        1   -1    0    0  501    0  0.00000000000E+00  0.00000000000E+00  0.20674421122E+04  0.20674421122E+04  0.50400001928E-02 0.  1.
       -1   -1    0    0    0  501  0.00000000000E+00  0.00000000000E+00 -0.11483707868E+03  0.11483707879E+03  0.50400001928E-02 0. -1.
    10030    2    1    2    0    0  0.00000000000E+00  0.00000000000E+00  0.19526050335E+04  0.21822791910E+04  0.97451323776E+03 0.  0.
        5    1    3    3  502    0  0.12124897244E+03 -0.45962609874E+03  0.73679160416E+03  0.87683602909E+03  0.46999998093E+01 0.  1.
       -5    1    3    3    0  502 -0.12124897244E+03  0.45962609874E+03  0.12158134294E+04  0.13054431619E+04  0.46999998093E+01 0. -1.
</event>
<event>
 5   0  0.4947006E-04  0.1722954E+04  0.7818609E-02  0.8748380E-01
        1   -1    0    0  501    0  0.00000000000E+00  0.00000000000E+00  0.23647213846E+03  0.23647213852E+03  0.50400001928E-02 0. -1.
       -1   -1    0    0    0  501  0.00000000000E+00  0.00000000000E+00 -0.31383942049E+04  0.31383942050E+04  0.50400001928E-02 0.  1.
    10030    2    1    2    0    0  0.00000000000E+00  0.00000000000E+00 -0.29019220665E+04  0.33748663435E+04  0.17229541945E+04 0.  0.
        2    1    3    3  502    0  0.63405739531E+03 -0.22144787901E+03 -0.25077424896E+04  0.25961202471E+04  0.25500000920E-02 0.  1.
       -2    1    3    3    0  502 -0.63405739531E+03  0.22144787901E+03 -0.39417957692E+03  0.77874609632E+03  0.25500000920E-02 0. -1.
</event>
<event>
 5   0  0.1007187E-03  0.1703354E+04  0.7818609E-02  0.8759454E-01
       -2   -1    0    0    0  501  0.00000000000E+00  0.00000000000E+00  0.52677289593E+03  0.52677289593E+03  0.25500000920E-02 0.  1.
        2   -1    0    0  501    0  0.00000000000E+00  0.00000000000E+00 -0.13769759351E+04  0.13769759351E+04  0.25500000920E-02 0. -1.
    10030    2    1    2    0    0  0.00000000000E+00  0.00000000000E+00 -0.85020303917E+03  0.19037488310E+04  0.17033538692E+04 0.  0.
        5    1    3    3  502    0 -0.69628638255E+03 -0.31249460495E+03 -0.84754248721E+03  0.11405340689E+04  0.46999998093E+01 0. -1.
       -5    1    3    3    0  502  0.69628638255E+03  0.31249460495E+03 -0.26605519667E+01  0.76321476216E+03  0.46999998093E+01 0.  1.
</event>
<event>
 5   0  0.4947006E-04  0.1363772E+04  0.7818609E-02  0.8980468E-01
       -1   -1    0    0    0  501  0.00000000000E+00  0.00000000000E+00  0.54953863156E+03  0.54953863158E+03  0.50400001928E-02 0.  1.
        1   -1    0    0  501    0  0.00000000000E+00  0.00000000000E+00 -0.84610701720E+03  0.84610701721E+03  0.50400001928E-02 0. -1.
    10030    2    1    2    0    0  0.00000000000E+00  0.00000000000E+00 -0.29656838564E+03  0.13956456488E+04  0.13637719639E+04 0.  0.
        2    1    3    3  502    0 -0.58811253684E+03  0.81068844757E+01  0.20478114603E+03  0.62279803737E+03  0.25500000920E-02 0.  1.
       -2    1    3    3    0  502  0.58811253684E+03 -0.81068844757E+01 -0.50134953168E+03  0.77284761143E+03  0.25500000920E-02 0. -1.
</event>
<event>
 5   0  0.5009762E-04  0.1713484E+04  0.7818609E-02  0.8753711E-01
       -1   -1    0    0    0  501  0.00000000000E+00  0.00000000000E+00  0.68109376269E+03  0.68109376270E+03  0.50400001928E-02 0.  1.
        1   -1    0    0  501    0  0.00000000000E+00  0.00000000000E+00 -0.10776884924E+04  0.10776884924E+04  0.50400001928E-02 0. -1.
    10030    2    1    2    0    0  0.00000000000E+00  0.00000000000E+00 -0.39659472969E+03  0.17587822551E+04  0.17134840651E+04 0.  0.
        3    1    3    3  502    0  0.35368170496E+03 -0.72234397314E+03  0.10469323907E+03  0.81106858431E+03  0.10100000352E+00 0.  1.
       -3    1    3    3    0  502 -0.35368170496E+03  0.72234397314E+03 -0.50128796876E+03  0.94771367077E+03  0.10100000352E+00 0. -1.
</event>
<event>
 5   0  0.5074133E-04  0.1583181E+04  0.7818609E-02  0.8830947E-01
       -1   -1    0    0    0  501  0.00000000000E+00  0.00000000000E+00  0.44856491308E+03  0.44856491311E+03  0.50400001928E-02 0. -1.
        1   -1    0    0  501    0  0.00000000000E+00  0.00000000000E+00 -0.13969346058E+04  0.13969346058E+04  0.50400001928E-02 0.  1.
    10030    2    1    2    0    0  0.00000000000E+00  0.00000000000E+00 -0.94836969270E+03  0.18454995189E+04  0.15831814173E+04 0.  0.
        1    1    3    3  502    0  0.78729986836E+03  0.53897296181E+02 -0.54670024672E+03  0.96001414628E+03  0.50400001928E-02 0. -1.
       -1    1    3    3    0  502 -0.78729986836E+03 -0.53897296181E+02 -0.40166944598E+03  0.88548537262E+03  0.50400001928E-02 0.  1.
</event>
<event>
 5   0  0.9625225E-04  0.1656938E+04  0.7818609E-02  0.8786312E-01
        2   -1    0    0  501    0  0.00000000000E+00  0.00000000000E+00  0.69504408576E+03  0.69504408576E+03  0.25500000920E-02 0.  1.
       -2   -1    0    0    0  501  0.00000000000E+00  0.00000000000E+00 -0.98750751590E+03  0.98750751590E+03  0.25500000920E-02 0. -1.
    10030    2    1    2    0    0  0.00000000000E+00  0.00000000000E+00 -0.29246343014E+03  0.16825516017E+04  0.16569384522E+04 0.  0.
        1    1    3    3  502    0 -0.59019841179E+03 -0.49309443365E+03  0.16656395626E+03  0.78690522766E+03  0.50400001928E-02 0.  1.
       -1    1    3    3    0  502  0.59019841179E+03  0.49309443365E+03 -0.45902738640E+03  0.89564637400E+03  0.50400001928E-02 0. -1.
</event>
<event>
 5   0  0.9312096E-04  0.1609424E+04  0.7818609E-02  0.8814779E-01
        2   -1    0    0  501    0  0.00000000000E+00  0.00000000000E+00  0.68429126770E+03  0.68429126770E+03  0.25500000920E-02 0.  1.
       -2   -1    0    0    0  501  0.00000000000E+00  0.00000000000E+00 -0.94632420018E+03  0.94632420018E+03  0.25500000920E-02 0. -1.
    10030    2    1    2    0    0  0.00000000000E+00  0.00000000000E+00 -0.26203293248E+03  0.16306154679E+04  0.16094239797E+04 0.  0.
        3    1    3    3  502    0 -0.73824970802E+03 -0.32003554995E+03 -0.14238886753E+03  0.81713523020E+03  0.10100000352E+00 0. -1.
       -3    1    3    3    0  502  0.73824970802E+03  0.32003554995E+03 -0.11964406495E+03  0.81348023769E+03  0.10100000352E+00 0.  1.
</event>
<event>
 5   0  0.1007187E-03  0.1732552E+04  0.7818609E-02  0.8743014E-01
        2   -1    0    0  501    0  0.00000000000E+00  0.00000000000E+00  0.66672399933E+03  0.66672399933E+03  0.25500000920E-02 0. -1.
       -2   -1    0    0    0  501  0.00000000000E+00  0.00000000000E+00 -0.11255539535E+04  0.11255539535E+04  0.25500000920E-02 0.  1.
    10030    2    1    2    0    0  0.00000000000E+00  0.00000000000E+00 -0.45882995421E+03  0.17922779529E+04  0.17325516828E+04 0.  0.
        5    1    3    3  502    0  0.55762827969E+03 -0.48861658217E+03 -0.69287306362E+03  0.10147860045E+04  0.46999998093E+01 0.  1.
       -5    1    3    3    0  502 -0.55762827969E+03  0.48861658217E+03  0.23404310941E+03  0.77749194835E+03  0.46999998093E+01 0. -1.
</event>
<event>
 5   0  0.9284971E-04  0.1848353E+04  0.7818609E-02  0.8681000E-01
        2   -1    0    0  501    0  0.00000000000E+00  0.00000000000E+00  0.65208398951E+03  0.65208398951E+03  0.25500000920E-02 0. -1.
       -2   -1    0    0    0  501  0.00000000000E+00  0.00000000000E+00 -0.13098042857E+04  0.13098042857E+04  0.25500000920E-02 0.  1.
    10030    2    1    2    0    0  0.00000000000E+00  0.00000000000E+00 -0.65772029624E+03  0.19618882753E+04  0.18483532175E+04 0.  0.
        4    1    3    3  502    0  0.35723073926E+03  0.36542938223E+03  0.48847041439E+03  0.70693521139E+03  0.12699999809E+01 0. -1.
       -4    1    3    3    0  502 -0.35723073926E+03 -0.36542938223E+03 -0.11461907106E+04  0.12549530639E+04  0.12699999809E+01 0.  1.
</event>
<event>
 5   0  0.9625225E-04  0.1693786E+04  0.7818609E-02  0.8764916E-01
        2   -1    0    0  501    0  0.00000000000E+00  0.00000000000E+00  0.15385332233E+04  0.15385332233E+04  0.25500000920E-02 0.  1.
       -2   -1    0    0    0  501  0.00000000000E+00  0.00000000000E+00 -0.46617651542E+03  0.46617651543E+03  0.25500000920E-02 0. -1.
    10030    2    1    2    0    0  0.00000000000E+00  0.00000000000E+00  0.10723567079E+04  0.20047097387E+04  0.16937863583E+04 0.  0.
        1    1    3    3  502    0 -0.53502279462E+03 -0.94269195872E+02 -0.23276867291E+03  0.59103073285E+03  0.50400001928E-02 0. -1.
       -1    1    3    3    0  502  0.53502279462E+03  0.94269195872E+02  0.13051253808E+04  0.14136790059E+04  0.50400001928E-02 0.  1.
</event>
<event>
 5   0  0.4947006E-04  0.1653898E+04  0.7818609E-02  0.8788104E-01
       -1   -1    0    0    0  501  0.00000000000E+00  0.00000000000E+00  0.11694895532E+04  0.11694895532E+04  0.50400001928E-02 0.  1.
        1   -1    0    0  501    0  0.00000000000E+00  0.00000000000E+00 -0.58473749088E+03  0.58473749090E+03  0.50400001928E-02 0. -1.
    10030    2    1    2    0    0  0.00000000000E+00  0.00000000000E+00  0.58475206235E+03  0.17542270441E+04  0.16538976836E+04 0.  0.
        2    1    3    3  502    0  0.59295779659E+03 -0.15002205040E+03 -0.29792696131E+03  0.68034258901E+03  0.25500000920E-02 0. -1.
       -2    1    3    3    0  502 -0.59295779659E+03  0.15002205040E+03  0.88267902367E+03  0.10738844551E+04  0.25500000920E-02 0.  1.
</event>
<event>
 5   0  0.5009762E-04  0.1657317E+04  0.7818609E-02  0.8786090E-01
       -1   -1    0    0    0  501  0.00000000000E+00  0.00000000000E+00  0.75708978189E+03  0.75708978191E+03  0.50400001928E-02 0. -1.
        1   -1    0    0  501    0  0.00000000000E+00  0.00000000000E+00 -0.90699234009E+03  0.90699234010E+03  0.50400001928E-02 0.  1.
    10030    2    1    2    0    0  0.00000000000E+00  0.00000000000E+00 -0.14990255819E+03  0.16640821220E+04  0.16573166661E+04 0.  0.
        3    1    3    3  502    0 -0.51853122948E+03 -0.61658127322E+03 -0.26972127568E+03  0.84958618114E+03  0.10100000352E+00 0.  1.
       -3    1    3    3    0  502  0.51853122948E+03  0.61658127322E+03  0.11981871748E+03  0.81449594087E+03  0.10100000352E+00 0. -1.
</event>
<event>
 5   0  0.9312096E-04  0.1449453E+04  0.7818609E-02  0.8918780E-01
       -2   -1    0    0    0  501  0.00000000000E+00  0.00000000000E+00  0.53562978269E+03  0.53562978270E+03  0.25500000920E-02 0. -1.
        2   -1    0    0  501    0  0.00000000000E+00  0.00000000000E+00 -0.98058170592E+03  0.98058170593E+03  0.25500000920E-02 0.  1.
    10030    2    1    2    0    0  0.00000000000E+00  0.00000000000E+00 -0.44495192323E+03  0.15162114886E+04  0.14494533674E+04 0.  0.
        3    1    3    3  502    0 -0.27811618090E+03  0.63259039999E+03 -0.45096118154E+03  0.82515769504E+03  0.10100000352E+00 0.  1.
       -3    1    3    3    0  502  0.27811618090E+03 -0.63259039999E+03  0.60092583035E+01  0.69105379358E+03  0.10100000352E+00 0. -1.
</event>
<event>
 5   0  0.9312096E-04  0.1705249E+04  0.7818609E-02  0.8758377E-01
       -2   -1    0    0    0  501  0.00000000000E+00  0.00000000000E+00  0.83466300737E+03  0.83466300737E+03  0.25500000920E-02 0.  1.
        2   -1    0    0  501    0  0.00000000000E+00  0.00000000000E+00 -0.87097201600E+03  0.87097201600E+03  0.25500000920E-02 0. -1.
    10030    2    1    2    0    0  0.00000000000E+00  0.00000000000E+00 -0.36309008630E+02  0.17056350234E+04  0.17052485123E+04 0.  0.
        3    1    3    3  502    0  0.73897684593E+03 -0.13334188761E+03  0.38579502166E+03  0.84421836438E+03  0.10100000352E+00 0.  1.
       -3    1    3    3    0  502 -0.73897684593E+03  0.13334188761E+03 -0.42210403029E+03  0.86141665900E+03  0.10100000352E+00 0. -1.
</event>
<event>
 5   0  0.4947006E-04  0.1704415E+04  0.7818609E-02  0.8758850E-01
        1   -1    0    0  501    0  0.00000000000E+00  0.00000000000E+00  0.83315339112E+03  0.83315339114E+03  0.50400001928E-02 0. -1.
       -1   -1    0    0    0  501  0.00000000000E+00  0.00000000000E+00 -0.87169744536E+03  0.87169744537E+03  0.50400001928E-02 0.  1.
    10030    2    1    2    0    0  0.00000000000E+00  0.00000000000E+00 -0.38544054239E+02  0.17048508365E+04  0.17044150699E+04 0.  0.
        2    1    3    3  502    0  0.40845930319E+03  0.52526370045E+02  0.72701500792E+03  0.83555301667E+03  0.25500000920E-02 0. -1.
       -2    1    3    3    0  502 -0.40845930319E+03 -0.52526370045E+02 -0.76555906216E+03  0.86929781984E+03  0.25500000920E-02 0.  1.
</event>
<event>
 5   0  0.5074133E-04  0.1665269E+04  0.7818609E-02  0.8781424E-01
       -1   -1    0    0    0  501  0.00000000000E+00  0.00000000000E+00  0.71034446355E+03  0.71034446357E+03  0.50400001928E-02 0. -1.
        1   -1    0    0  501    0  0.00000000000E+00  0.00000000000E+00 -0.97597755782E+03  0.97597755784E+03  0.50400001928E-02 0.  1.
    10030    2    1    2    0    0  0.00000000000E+00  0.00000000000E+00 -0.26563309427E+03  0.16863220214E+04  0.16652690531E+04 0.  0.
        1    1    3    3  502    0  0.61870008067E+03 -0.47517734859E+03 -0.42752323513E+03  0.88958384599E+03  0.50400001928E-02 0.  1.
       -1    1    3    3    0  502 -0.61870008067E+03  0.47517734859E+03  0.16189014086E+03  0.79673817542E+03  0.50400001928E-02 0. -1.
</event>
<event>
 5   0  0.1007187E-03  0.1741529E+04  0.7818609E-02  0.8738027E-01
        2   -1    0    0  501    0  0.00000000000E+00  0.00000000000E+00  0.90188165506E+03  0.90188165506E+03  0.25500000920E-02 0. -1.
       -2   -1    0    0    0  501  0.00000000000E+00  0.00000000000E+00 -0.84072064947E+03  0.84072064947E+03  0.25500000920E-02 0.  1.
    10030    2    1    2    0    0  0.00000000000E+00  0.00000000000E+00  0.61161005589E+02  0.17426023045E+04  0.17415286742E+04 0.  0.
        5    1    3    3  502    0 -0.23403307819E+03  0.49864949932E+03 -0.64421320487E+03  0.84761757190E+03  0.46999998093E+01 0.  1.
       -5    1    3    3    0  502  0.23403307819E+03 -0.49864949932E+03  0.70537421046E+03  0.89498473263E+03  0.46999998093E+01 0. -1.
</event>
<event>
 5   0  0.5035495E-04  0.1765911E+04  0.7818609E-02  0.8724641E-01
        1   -1    0    0  501    0  0.00000000000E+00  0.00000000000E+00  0.10108287392E+04  0.10108287392E+04  0.50400001928E-02 0.  1.
       -1   -1    0    0    0  501  0.00000000000E+00  0.00000000000E+00 -0.77125855547E+03  0.77125855549E+03  0.50400001928E-02 0. -1.
    10030    2    1    2    0    0  0.00000000000E+00  0.00000000000E+00  0.23957018369E+03  0.17820872947E+04  0.17659108848E+04 0.  0.
        4    1    3    3  502    0 -0.62178196216E+03  0.46215634484E+03  0.54723022086E+03  0.94850610070E+03  0.12699999809E+01 0.  1.
       -4    1    3    3    0  502  0.62178196216E+03 -0.46215634484E+03 -0.30766003717E+03  0.83358119396E+03  0.12699999809E+01 0. -1.
</event>
<event>
 5   0  0.5074133E-04  0.1761832E+04  0.7818609E-02  0.8726864E-01
       -1   -1    0    0    0  501  0.00000000000E+00  0.00000000000E+00  0.68454634407E+03  0.68454634409E+03  0.50400001928E-02 0.  1.
        1   -1    0    0  501    0  0.00000000000E+00  0.00000000000E+00 -0.11336161955E+04  0.11336161955E+04  0.50400001928E-02 0. -1.
    10030    2    1    2    0    0  0.00000000000E+00  0.00000000000E+00 -0.44906985142E+03  0.18181625396E+04  0.17618317993E+04 0.  0.
        1    1    3    3  502    0  0.15190992446E+03  0.42315347891E+03  0.55723290576E+03  0.71599162227E+03  0.50400001928E-02 0.  1.
       -1    1    3    3    0  502 -0.15190992446E+03 -0.42315347891E+03 -0.10063027572E+04  0.11021709173E+04  0.50400001928E-02 0. -1.
</event>
<event>
 5   0  0.9284971E-04  0.1716016E+04  0.7818609E-02  0.8752282E-01
        2   -1    0    0  501    0  0.00000000000E+00  0.00000000000E+00  0.89293735310E+03  0.89293735310E+03  0.25500000920E-02 0. -1.
       -2   -1    0    0    0  501  0.00000000000E+00  0.00000000000E+00 -0.82444456659E+03  0.82444456660E+03  0.25500000920E-02 0.  1.
    10030    2    1    2    0    0  0.00000000000E+00  0.00000000000E+00  0.68492786508E+02  0.17173819197E+04  0.17160155583E+04 0.  0.
        4    1    3    3  502    0 -0.31565271136E+03 -0.49519665354E+03  0.66029974020E+03  0.88365927805E+03  0.12699999809E+01 0. -1.
       -4    1    3    3    0  502  0.31565271136E+03  0.49519665354E+03 -0.59180695369E+03  0.83372264165E+03  0.12699999809E+01 0.  1.
</event>
<event>
 5   0  0.5009762E-04  0.1711409E+04  0.7818609E-02  0.8754884E-01
        1   -1    0    0  501    0  0.00000000000E+00  0.00000000000E+00  0.19301644228E+04  0.19301644229E+04  0.50400001928E-02 0.  1.
       -1   -1    0    0    0  501  0.00000000000E+00  0.00000000000E+00 -0.37936137038E+03  0.37936137042E+03  0.50400001928E-02 0. -1.
    10030    2    1    2    0    0  0.00000000000E+00  0.00000000000E+00  0.15508030525E+04  0.23095257933E+04  0.17114085667E+04 0.  0.
        3    1    3    3  502    0  0.88607432781E+02  0.34072307853E+03 -0.27710098085E+03  0.44802729512E+03  0.10100000352E+00 0. -1.
       -3    1    3    3    0  502 -0.88607432781E+02 -0.34072307853E+03  0.18279040333E+04  0.18614984981E+04  0.10100000352E+00 0.  1.
</event>
<event>
 5   0  0.5074133E-04  0.1898589E+04  0.7818609E-02  0.8655559E-01
       -1   -1    0    0    0  501  0.00000000000E+00  0.00000000000E+00  0.65617057650E+03  0.65617057652E+03  0.50400001928E-02 0. -1.
        1   -1    0    0  501    0  0.00000000000E+00  0.00000000000E+00 -0.13733618842E+04  0.13733618843E+04  0.50400001928E-02 0.  1.
    10030    2    1    2    0    0  0.00000000000E+00  0.00000000000E+00 -0.71719130774E+03  0.20295324608E+04  0.18985885909E+04 0.  0.
        1    1    3    3  502    0 -0.21129891303E+03 -0.22390792338E+03 -0.13185141982E+04  0.13539799407E+04  0.50400001928E-02 0.  1.
       -1    1    3    3    0  502  0.21129891303E+03  0.22390792338E+03  0.60132289047E+03  0.67555252012E+03  0.50400001928E-02 0. -1.
</event>
<event>
 5   0  0.5074133E-04  0.1674286E+04  0.7818609E-02  0.8776167E-01
        1   -1    0    0  501    0  0.00000000000E+00  0.00000000000E+00  0.11179063106E+04  0.11179063106E+04  0.50400001928E-02 0.  1.
       -1   -1    0    0    0  501  0.00000000000E+00  0.00000000000E+00 -0.62689364419E+03  0.62689364421E+03  0.50400001928E-02 0. -1.
    10030    2    1    2    0    0  0.00000000000E+00  0.00000000000E+00  0.49101266638E+03  0.17447999548E+04  0.16742859504E+04 0.  0.
        1    1    3    3  502    0  0.60857001909E+03  0.19371204678E+03  0.80952745254E+03  0.10311239119E+04  0.50400001928E-02 0.  1.
       -1    1    3    3    0  502 -0.60857001909E+03 -0.19371204678E+03 -0.31851478616E+03  0.71367604292E+03  0.50400001928E-02 0. -1.
</event>
<event>
 5   0  0.5059689E-04  0.1700083E+04  0.7818609E-02  0.8761317E-01
       -1   -1    0    0    0  501  0.00000000000E+00  0.00000000000E+00  0.38758375902E+03  0.38758375905E+03  0.50400001928E-02 0.  1.
        1   -1    0    0  501    0  0.00000000000E+00  0.00000000000E+00 -0.18642955381E+04  0.18642955381E+04  0.50400001928E-02 0. -1.
    10030    2    1    2    0    0  0.00000000000E+00  0.00000000000E+00 -0.14767117791E+04  0.22518792971E+04  0.17000831422E+04 0.  0.
        5    1    3    3  502    0  0.32505084880E+03  0.75202933083E+03 -0.10384884332E+04  0.13227571525E+04  0.46999998093E+01 0. -1.
       -5    1    3    3    0  502 -0.32505084880E+03 -0.75202933083E+03 -0.43822334590E+03  0.92912214462E+03  0.46999998093E+01 0.  1.
</event>
<event>
 5   0  0.5059689E-04  0.1395365E+04  0.7818609E-02  0.8957181E-01
        1   -1    0    0  501    0  0.00000000000E+00  0.00000000000E+00  0.86633032000E+03  0.86633032001E+03  0.50400001928E-02 0.  1.
       -1   -1    0    0    0  501  0.00000000000E+00  0.00000000000E+00 -0.56186505449E+03  0.56186505451E+03  0.50400001928E-02 0. -1.
    10030    2    1    2    0    0  0.00000000000E+00  0.00000000000E+00  0.30446526551E+03  0.14281953745E+04  0.13953648017E+04 0.  0.
        5    1    3    3  502    0 -0.98787229200E+01 -0.65228582529E+03 -0.10090033172E+03  0.66013434540E+03  0.46999998093E+01 0.  1.
       -5    1    3    3    0  502  0.98787229200E+01  0.65228582529E+03  0.40536559723E+03  0.76806102912E+03  0.46999998093E+01 0. -1.
</event>
<event>
 5   0  0.4947006E-04  0.1745964E+04  0.7818609E-02  0.8735575E-01
        1   -1    0    0  501    0  0.00000000000E+00  0.00000000000E+00  0.64147287386E+03  0.64147287388E+03  0.50400001928E-02 0. -1.
       -1   -1    0    0    0  501  0.00000000000E+00  0.00000000000E+00 -0.11880428413E+04  0.11880428413E+04  0.50400001928E-02 0.  1.
    10030    2    1    2    0    0  0.00000000000E+00  0.00000000000E+00 -0.54656996740E+03  0.18295157151E+04  0.17459636373E+04 0.  0.
        2    1    3    3  502    0  0.12519348138E+03  0.42480533368E+03 -0.10615921225E+04  0.11502655406E+04  0.25500000920E-02 0.  1.
       -2    1    3    3    0  502 -0.12519348138E+03 -0.42480533368E+03  0.51502215513E+03  0.67925017453E+03  0.25500000920E-02 0. -1.
</event>
<event>
 5   0  0.4947006E-04  0.1706821E+04  0.7818609E-02  0.8757484E-01
       -1   -1    0    0    0  501  0.00000000000E+00  0.00000000000E+00  0.88916906700E+03  0.88916906702E+03  0.50400001928E-02 0.  1.
        1   -1    0    0  501    0  0.00000000000E+00  0.00000000000E+00 -0.81908979482E+03  0.81908979484E+03  0.50400001928E-02 0. -1.
    10030    2    1    2    0    0  0.00000000000E+00  0.00000000000E+00  0.70079272180E+02  0.17082588619E+04  0.17068207975E+04 0.  0.
        2    1    3    3  502    0  0.59522033092E+03 -0.15619656746E+03 -0.55674925554E+03  0.82985200101E+03  0.25500000920E-02 0. -1.
       -2    1    3    3    0  502 -0.59522033092E+03  0.15619656746E+03  0.62682852772E+03  0.87840686085E+03  0.25500000920E-02 0.  1.
</event>
<event>
 5   0  0.4947006E-04  0.1695259E+04  0.7818609E-02  0.8764073E-01
        1   -1    0    0  501    0  0.00000000000E+00  0.00000000000E+00  0.19413646632E+04  0.19413646632E+04  0.50400001928E-02 0. -1.
       -1   -1    0    0    0  501  0.00000000000E+00  0.00000000000E+00 -0.37008811158E+03  0.37008811161E+03  0.50400001928E-02 0.  1.
    10030    2    1    2    0    0  0.00000000000E+00  0.00000000000E+00  0.15712765516E+04  0.23114527748E+04  0.16952592511E+04 0.  0.
        2    1    3    3  502    0 -0.57680487908E+03 -0.55902178720E+03  0.11547028673E+04  0.14066086658E+04  0.25500000920E-02 0. -1.
       -2    1    3    3    0  502  0.57680487908E+03  0.55902178720E+03  0.41657368438E+03  0.90484410901E+03  0.25500000920E-02 0.  1.
</event>
<event>
 5   0  0.1007187E-03  0.1714350E+04  0.7818609E-02  0.8753222E-01
        2   -1    0    0  501    0  0.00000000000E+00  0.00000000000E+00  0.56654010594E+03  0.56654010595E+03  0.25500000920E-02 0. -1.
       -2   -1    0    0    0  501  0.00000000000E+00  0.00000000000E+00 -0.12969051073E+04  0.12969051073E+04  0.25500000920E-02 0.  1.
    10030    2    1    2    0    0  0.00000000000E+00  0.00000000000E+00 -0.73036500135E+03  0.18634452132E+04  0.17143497390E+04 0.  0.
        5    1    3    3  502    0 -0.48357543033E+03  0.44587682522E+03 -0.96259572242E+03  0.11658747595E+04  0.46999998093E+01 0.  1.
       -5    1    3    3    0  502  0.48357543033E+03 -0.44587682522E+03  0.23223072107E+03  0.69757045371E+03  0.46999998093E+01 0. -1.
</event>
<event>
 5   0  0.5074133E-04  0.1673849E+04  0.7818609E-02  0.8776421E-01
        1   -1    0    0  501    0  0.00000000000E+00  0.00000000000E+00  0.12639176130E+04  0.12639176130E+04  0.50400001928E-02 0. -1.
       -1   -1    0    0    0  501  0.00000000000E+00  0.00000000000E+00 -0.55418371061E+03  0.55418371063E+03  0.50400001928E-02 0.  1.
    10030    2    1    2    0    0  0.00000000000E+00  0.00000000000E+00  0.70973390243E+03  0.18181013237E+04  0.16738489212E+04 0.  0.
        1    1    3    3  502    0 -0.50298252221E+02  0.83537627950E+03  0.36321784502E+03  0.91231060801E+03  0.50400001928E-02 0.  1.
       -1    1    3    3    0  502  0.50298252221E+02 -0.83537627950E+03  0.34651605741E+03  0.90579071567E+03  0.50400001928E-02 0. -1.
</event>
<event>
 5   0  0.3523125E-04  0.1713764E+04  0.7818609E-02  0.8753553E-01
       -3   -1    0    0    0  501  0.00000000000E+00  0.00000000000E+00  0.39632961442E+03  0.39632962729E+03  0.10100000352E+00 0.  1.
        3   -1    0    0  501    0  0.00000000000E+00  0.00000000000E+00 -0.18526160777E+04  0.18526160804E+04  0.10100000352E+00 0. -1.
    10030    2    1    2    0    0  0.00000000000E+00  0.00000000000E+00 -0.14562864632E+04  0.22489457077E+04  0.17137638499E+04 0.  0.
        1    1    3    3  502    0  0.72925465969E+03  0.25388736881E+03 -0.24069449615E+03  0.80882939810E+03  0.50400001928E-02 0.  1.
       -1    1    3    3    0  502 -0.72925465969E+03 -0.25388736881E+03 -0.12155919671E+04  0.14401163096E+04  0.50400001928E-02 0. -1.
</event>
<event>
 5   0  0.9312096E-04  0.1705815E+04  0.7818609E-02  0.8758055E-01
        2   -1    0    0  501    0  0.00000000000E+00  0.00000000000E+00  0.17344843600E+04  0.17344843600E+04  0.25500000920E-02 0.  1.
       -2   -1    0    0    0  501  0.00000000000E+00  0.00000000000E+00 -0.41940480333E+03  0.41940480334E+03  0.25500000920E-02 0. -1.
    10030    2    1    2    0    0  0.00000000000E+00  0.00000000000E+00  0.13150795567E+04  0.21538891633E+04  0.17058148456E+04 0.  0.
        3    1    3    3  502    0  0.64501523974E+03 -0.53973565622E+03  0.83651839200E+03  0.11862218462E+04  0.10100000352E+00 0. -1.
       -3    1    3    3    0  502 -0.64501523974E+03  0.53973565622E+03  0.47856116467E+03  0.96766731712E+03  0.10100000352E+00 0.  1.
</event>
<event>
 5   0  0.5035495E-04  0.1730264E+04  0.7818609E-02  0.8744290E-01
        1   -1    0    0  501    0  0.00000000000E+00  0.00000000000E+00  0.68370542443E+03  0.68370542445E+03  0.50400001928E-02 0.  1.
       -1   -1    0    0    0  501  0.00000000000E+00  0.00000000000E+00 -0.10947010174E+04  0.10947010174E+04  0.50400001928E-02 0. -1.
    10030    2    1    2    0    0  0.00000000000E+00  0.00000000000E+00 -0.41099559301E+03  0.17784064419E+04  0.17302635912E+04 0.  0.
        4    1    3    3  502    0 -0.31311337611E+03 -0.69792882999E+03  0.20985855107E+03  0.79321299939E+03  0.12699999809E+01 0.  1.
       -4    1    3    3    0  502  0.31311337611E+03  0.69792882999E+03 -0.62085414408E+03  0.98519344251E+03  0.12699999809E+01 0. -1.
</event>
<event>
 5   0  0.9284971E-04  0.1707844E+04  0.7818609E-02  0.8756903E-01
        2   -1    0    0  501    0  0.00000000000E+00  0.00000000000E+00  0.15199597925E+04  0.15199597925E+04  0.25500000920E-02 0.  1.
       -2   -1    0    0    0  501  0.00000000000E+00  0.00000000000E+00 -0.47973826972E+03  0.47973826973E+03  0.25500000920E-02 0. -1.
    10030    2    1    2    0    0  0.00000000000E+00  0.00000000000E+00  0.10402215227E+04  0.19996980622E+04  0.17078441157E+04 0.  0.
        4    1    3    3  502    0  0.69866194292E+03 -0.30256706129E+03  0.67374365914E+02  0.76434040528E+03  0.12699999809E+01 0.  1.
       -4    1    3    3    0  502 -0.69866194292E+03  0.30256706129E+03  0.97284715682E+03  0.12353576569E+04  0.12699999809E+01 0. -1.
</event>
<event>
 5   0  0.9625225E-04  0.1652314E+04  0.7818609E-02  0.8789039E-01
       -2   -1    0    0    0  501  0.00000000000E+00  0.00000000000E+00  0.86757008494E+03  0.86757008495E+03  0.25500000920E-02 0. -1.
        2   -1    0    0  501    0  0.00000000000E+00  0.00000000000E+00 -0.78672100410E+03  0.78672100411E+03  0.25500000920E-02 0.  1.
    10030    2    1    2    0    0  0.00000000000E+00  0.00000000000E+00  0.80849080837E+02  0.16542910891E+04  0.16523142659E+04 0.  0.
        1    1    3    3  502    0 -0.50573609738E+03 -0.10594518237E+03 -0.60497233581E+03  0.79560348729E+03  0.50400001928E-02 0.  1.
       -1    1    3    3    0  502  0.50573609738E+03  0.10594518237E+03  0.68582141665E+03  0.85868760176E+03  0.50400001928E-02 0. -1.
</event>
<event>
 5   0  0.5009762E-04  0.1658608E+04  0.7818609E-02  0.8785330E-01
        1   -1    0    0  501    0  0.00000000000E+00  0.00000000000E+00  0.20088174328E+04  0.20088174328E+04  0.50400001928E-02 0. -1.
       -1   -1    0    0    0  501  0.00000000000E+00  0.00000000000E+00 -0.34236329208E+03  0.34236329212E+03  0.50400001928E-02 0.  1.
    10030    2    1    2    0    0  0.00000000000E+00  0.00000000000E+00  0.16664541407E+04  0.23511807249E+04  0.16586082715E+04 0.  0.
        3    1    3    3  502    0 -0.54343868194E+03  0.42063126897E+03  0.14912708879E+04  0.16419942560E+04  0.10100000352E+00 0. -1.
       -3    1    3    3    0  502  0.54343868194E+03 -0.42063126897E+03  0.17518325287E+03  0.70918646895E+03  0.10100000352E+00 0.  1.
</event>
<event>
 5   0  0.9312096E-04  0.1695318E+04  0.7818609E-02  0.8764039E-01
        2   -1    0    0  501    0  0.00000000000E+00  0.00000000000E+00  0.63322387962E+03  0.63322387962E+03  0.25500000920E-02 0. -1.
       -2   -1    0    0    0  501  0.00000000000E+00  0.00000000000E+00 -0.11347104693E+04  0.11347104693E+04  0.25500000920E-02 0.  1.
    10030    2    1    2    0    0  0.00000000000E+00  0.00000000000E+00 -0.50148658968E+03  0.17679343489E+04  0.16953179827E+04 0.  0.
        3    1    3    3  502    0  0.27224261354E+03 -0.16600614221E+03 -0.10697837233E+04  0.11162935567E+04  0.10100000352E+00 0.  1.
       -3    1    3    3    0  502 -0.27224261354E+03  0.16600614221E+03  0.56829713359E+03  0.65164079226E+03  0.10100000352E+00 0. -1.
</event>
<event>
 5   0  0.5035495E-04  0.1650626E+04  0.7818609E-02  0.8790036E-01
        1   -1    0    0  501    0  0.00000000000E+00  0.00000000000E+00  0.19385790817E+04  0.19385790817E+04  0.50400001928E-02 0.  1.
       -1   -1    0    0    0  501  0.00000000000E+00  0.00000000000E+00 -0.35136125925E+03  0.35136125928E+03  0.50400001928E-02 0. -1.
    10030    2    1    2    0    0  0.00000000000E+00  0.00000000000E+00  0.15872178224E+04  0.22899403410E+04  0.16506260477E+04 0.  0.
        4    1    3    3  502    0  0.75598786537E+03  0.16593457152E+03  0.11910890350E+04  0.14204740887E+04  0.12699999809E+01 0.  1.
       -4    1    3    3    0  502 -0.75598786537E+03 -0.16593457152E+03  0.39612878742E+03  0.86946625221E+03  0.12699999809E+01 0. -1.
</event>
<event>
 5   0  0.9610114E-04  0.1699138E+04  0.7818609E-02  0.8761856E-01
       -2   -1    0    0    0  501  0.00000000000E+00  0.00000000000E+00  0.57330898294E+03  0.57330898295E+03  0.25500000920E-02 0.  1.
        2   -1    0    0  501    0  0.00000000000E+00  0.00000000000E+00 -0.12589503584E+04  0.12589503584E+04  0.25500000920E-02 0. -1.
    10030    2    1    2    0    0  0.00000000000E+00  0.00000000000E+00 -0.68564137545E+03  0.18322593413E+04  0.16991380751E+04 0.  0.
        2    1    3    3  502    0  0.18530269142E+03 -0.56094364061E+03  0.31556490520E+03  0.66975821368E+03  0.25500000920E-02 0.  1.
       -2    1    3    3    0  502 -0.18530269142E+03  0.56094364061E+03 -0.10012062806E+04  0.11625011277E+04  0.25500000920E-02 0. -1.
</event>
<event>
 5   0  0.5035495E-04  0.1463959E+04  0.7818609E-02  0.8908780E-01
       -1   -1    0    0    0  501  0.00000000000E+00  0.00000000000E+00  0.55928952257E+03  0.55928952260E+03  0.50400001928E-02 0.  1.
        1   -1    0    0  501    0  0.00000000000E+00  0.00000000000E+00 -0.95799093746E+03  0.95799093747E+03  0.50400001928E-02 0. -1.
    10030    2    1    2    0    0  0.00000000000E+00  0.00000000000E+00 -0.39870141489E+03  0.15172804601E+04  0.14639594176E+04 0.  0.
        4    1    3    3  502    0 -0.17153730177E+03 -0.34566891047E+03  0.44530127964E+03  0.58924263603E+03  0.12699999809E+01 0.  1.
       -4    1    3    3    0  502  0.17153730177E+03  0.34566891047E+03 -0.84400269453E+03  0.92803782404E+03  0.12699999809E+01 0. -1.
</event>
<event>
 5   0  0.5035495E-04  0.1655168E+04  0.7818609E-02  0.8787355E-01
        1   -1    0    0  501    0  0.00000000000E+00  0.00000000000E+00  0.44821973906E+03  0.44821973909E+03  0.50400001928E-02 0.  1.
       -1   -1    0    0    0  501  0.00000000000E+00  0.00000000000E+00 -0.15280354889E+04  0.15280354890E+04  0.50400001928E-02 0. -1.
    10030    2    1    2    0    0  0.00000000000E+00  0.00000000000E+00 -0.10798157499E+04  0.19762552280E+04  0.16551684726E+04 0.  0.
        4    1    3    3  502    0 -0.12803659664E+03 -0.39688312988E+03  0.31359438522E+03  0.52177834394E+03  0.12699999809E+01 0.  1.
       -4    1    3    3    0  502  0.12803659664E+03  0.39688312988E+03 -0.13934101351E+04  0.14544768841E+04  0.12699999809E+01 0. -1.
</event>
<event>
 5   0  0.4947006E-04  0.1393700E+04  0.7818609E-02  0.8958391E-01
        1   -1    0    0  501    0  0.00000000000E+00  0.00000000000E+00  0.94142333024E+03  0.94142333025E+03  0.50400001928E-02 0. -1.
       -1   -1    0    0    0  501  0.00000000000E+00  0.00000000000E+00 -0.51581484107E+03  0.51581484110E+03  0.50400001928E-02 0.  1.
    10030    2    1    2    0    0  0.00000000000E+00  0.00000000000E+00  0.42560848917E+03  0.14572381713E+04  0.13937002913E+04 0.  0.
        2    1    3    3  502    0  0.57596191080E+03  0.35166356846E+03  0.39451051800E+03  0.78168915618E+03  0.25500000920E-02 0. -1.
       -2    1    3    3    0  502 -0.57596191080E+03 -0.35166356846E+03  0.31097971166E+02  0.67554901517E+03  0.25500000920E-02 0.  1.
</event>
<event>
 5   0  0.9610114E-04  0.1409176E+04  0.7818609E-02  0.8947203E-01
        2   -1    0    0  501    0  0.00000000000E+00  0.00000000000E+00  0.14959223383E+04  0.14959223383E+04  0.25500000920E-02 0.  1.
       -2   -1    0    0    0  501  0.00000000000E+00  0.00000000000E+00 -0.33186478751E+03  0.33186478752E+03  0.25500000920E-02 0. -1.
    10030    2    1    2    0    0  0.00000000000E+00  0.00000000000E+00  0.11640575508E+04  0.18277871259E+04  0.14091755731E+04 0.  0.
        2    1    3    3  502    0 -0.19746709625E+03 -0.37565251514E+03 -0.14748708184E+03  0.44928888874E+03  0.25500000920E-02 0. -1.
       -2    1    3    3    0  502  0.19746709625E+03  0.37565251514E+03  0.13115446327E+04  0.13784982371E+04  0.25500000920E-02 0.  1.
</event>
<event>
 5   0  0.9625225E-04  0.1693602E+04  0.7818609E-02  0.8765022E-01
        2   -1    0    0  501    0  0.00000000000E+00  0.00000000000E+00  0.10501556032E+04  0.10501556032E+04  0.25500000920E-02 0.  1.
       -2   -1    0    0    0  501  0.00000000000E+00  0.00000000000E+00 -0.68282454794E+03  0.68282454795E+03  0.25500000920E-02 0. -1.
    10030    2    1    2    0    0  0.00000000000E+00  0.00000000000E+00  0.36733105527E+03  0.17329801512E+04  0.16936021080E+04 0.  0.
        1    1    3    3  502    0  0.80611292338E+03 -0.28353451869E+02 -0.80107203852E+02  0.81057950110E+03  0.50400001928E-02 0. -1.
       -1    1    3    3    0  502 -0.80611292338E+03  0.28353451869E+02  0.44743825912E+03  0.92240065005E+03  0.50400001928E-02 0.  1.
</event>
<event>
 5   0  0.3523125E-04  0.1737590E+04  0.7818609E-02  0.8740211E-01
        4   -1    0    0  501    0  0.00000000000E+00  0.00000000000E+00  0.92190065346E+03  0.92190152823E+03  0.12699999809E+01 0. -1.
       -4   -1    0    0    0  501  0.00000000000E+00  0.00000000000E+00 -0.81874717306E+03  0.81874815804E+03  0.12699999809E+01 0.  1.
    10030    2    1    2    0    0  0.00000000000E+00  0.00000000000E+00  0.10315348040E+03  0.17406496863E+04  0.17375904839E+04 0.  0.
        2    1    3    3  502    0  0.81708318926E+03 -0.98654214758E+02  0.33036075826E+03  0.88684599726E+03  0.25500000920E-02 0. -1.
       -2    1    3    3    0  502 -0.81708318926E+03  0.98654214758E+02 -0.22720727785E+03  0.85380368901E+03  0.25500000920E-02 0.  1.
</event>
<event>
 5   0  0.9625225E-04  0.1653258E+04  0.7818609E-02  0.8788481E-01
       -2   -1    0    0    0  501  0.00000000000E+00  0.00000000000E+00  0.89000852186E+03  0.89000852187E+03  0.25500000920E-02 0. -1.
        2   -1    0    0  501    0  0.00000000000E+00  0.00000000000E+00 -0.76776287991E+03  0.76776287991E+03  0.25500000920E-02 0.  1.
    10030    2    1    2    0    0  0.00000000000E+00  0.00000000000E+00  0.12224564196E+03  0.16577714018E+04  0.16532580027E+04 0.  0.
        1    1    3    3  502    0 -0.35634671188E+03  0.18173848093E+03 -0.66424935412E+03  0.77539606589E+03  0.50400001928E-02 0.  1.
       -1    1    3    3    0  502  0.35634671188E+03 -0.18173848093E+03  0.78649499608E+03  0.88237533590E+03  0.50400001928E-02 0. -1.
</event>
<event>
 5   0  0.5074133E-04  0.1723008E+04  0.7818609E-02  0.8748350E-01
        1   -1    0    0  501    0  0.00000000000E+00  0.00000000000E+00  0.11450774188E+04  0.11450774188E+04  0.50400001928E-02 0.  1.
       -1   -1    0    0    0  501  0.00000000000E+00  0.00000000000E+00 -0.64815615709E+03  0.64815615711E+03  0.50400001928E-02 0. -1.
    10030    2    1    2    0    0  0.00000000000E+00  0.00000000000E+00  0.49692126171E+03  0.17932335759E+04  0.17230078112E+04 0.  0.
        1    1    3    3  502    0  0.45866766103E+03  0.14871925797E+03 -0.49456711538E+03  0.69071707132E+03  0.50400001928E-02 0. -1.
       -1    1    3    3    0  502 -0.45866766103E+03 -0.14871925797E+03  0.99148837709E+03  0.11025165046E+04  0.50400001928E-02 0.  1.
</event>
<event>
 5   0  0.1007187E-03  0.9114331E+03  0.7818609E-02  0.9411401E-01
        2   -1    0    0  501    0  0.00000000000E+00  0.00000000000E+00  0.61536268480E+03  0.61536268480E+03  0.25500000920E-02 0. -1.
       -2   -1    0    0    0  501  0.00000000000E+00  0.00000000000E+00 -0.33748808827E+03  0.33748808828E+03  0.25500000920E-02 0.  1.
    10030    2    1    2    0    0  0.00000000000E+00  0.00000000000E+00  0.27787459653E+03  0.95285077308E+03  0.91143310471E+03 0.  0.
        5    1    3    3  502    0  0.32746072860E+03  0.32281629936E+02 -0.19063888754E+03  0.38031290781E+03  0.46999998093E+01 0.  1.
       -5    1    3    3    0  502 -0.32746072860E+03 -0.32281629936E+02  0.46851348407E+03  0.57253786526E+03  0.46999998093E+01 0. -1.
</event>
<event>
 5   0  0.3523125E-04  0.1783831E+04  0.7818609E-02  0.8714946E-01
        3   -1    0    0  501    0  0.00000000000E+00  0.00000000000E+00  0.83390718991E+03  0.83390719603E+03  0.10100000352E+00 0. -1.
       -3   -1    0    0    0  501  0.00000000000E+00  0.00000000000E+00 -0.95395882127E+03  0.95395882662E+03  0.10100000352E+00 0.  1.
    10030    2    1    2    0    0  0.00000000000E+00  0.00000000000E+00 -0.12005163136E+03  0.17878660226E+04  0.17838308554E+04 0.  0.
        5    1    3    3  502    0 -0.36965943049E+03  0.72577326138E+03 -0.42429826659E+03  0.91839317861E+03  0.46999998093E+01 0.  1.
       -5    1    3    3    0  502  0.36965943049E+03 -0.72577326138E+03  0.30424663522E+03  0.86947284404E+03  0.46999998093E+01 0. -1.
</event>
<event>
 5   0  0.9284971E-04  0.1753074E+04  0.7818609E-02  0.8731660E-01
        2   -1    0    0  501    0  0.00000000000E+00  0.00000000000E+00  0.11418413624E+04  0.11418413624E+04  0.25500000920E-02 0. -1.
       -2   -1    0    0    0  501  0.00000000000E+00  0.00000000000E+00 -0.67287549794E+03  0.67287549794E+03  0.25500000920E-02 0.  1.
    10030    2    1    2    0    0  0.00000000000E+00  0.00000000000E+00  0.46896586449E+03  0.18147168604E+04  0.17530739577E+04 0.  0.
        4    1    3    3  502    0  0.69936790108E+03 -0.44243610790E+03 -0.64552441818E+02  0.83008059926E+03  0.12699999809E+01 0.  1.
       -4    1    3    3    0  502 -0.69936790108E+03  0.44243610790E+03  0.53351830630E+03  0.98463626111E+03  0.12699999809E+01 0. -1.
</event>
<event>
 5   0  0.9284971E-04  0.1727916E+04  0.7818609E-02  0.8745601E-01
        2   -1    0    0  501    0  0.00000000000E+00  0.00000000000E+00  0.64315418047E+03  0.64315418048E+03  0.25500000920E-02 0. -1.
       -2   -1    0    0    0  501  0.00000000000E+00  0.00000000000E+00 -0.11605672849E+04  0.11605672849E+04  0.25500000920E-02 0.  1.
    10030    2    1    2    0    0  0.00000000000E+00  0.00000000000E+00 -0.51741310447E+03  0.18037214654E+04  0.17279163186E+04 0.  0.
        4    1    3    3  502    0 -0.48966848957E+03 -0.48780374266E+03 -0.79980470152E+03  0.10570794173E+04  0.12699999809E+01 0.  1.
       -4    1    3    3    0  502  0.48966848957E+03  0.48780374266E+03  0.28239159705E+03  0.74664204811E+03  0.12699999809E+01 0. -1.
</event>
<event>
 5   0  0.4947006E-04  0.1472737E+04  0.7818609E-02  0.8902787E-01
       -1   -1    0    0    0  501  0.00000000000E+00  0.00000000000E+00  0.55075232932E+03  0.55075232934E+03  0.50400001928E-02 0. -1.
        1   -1    0    0  501    0  0.00000000000E+00  0.00000000000E+00 -0.98454186403E+03  0.98454186404E+03  0.50400001928E-02 0.  1.
    10030    2    1    2    0    0  0.00000000000E+00  0.00000000000E+00 -0.43378953471E+03  0.15352941934E+04  0.14727372134E+04 0.  0.
        2    1    3    3  502    0  0.47558195877E+03 -0.14120556300E+03 -0.78417980296E+03  0.92793058679E+03  0.25500000920E-02 0.  1.
       -2    1    3    3    0  502 -0.47558195877E+03  0.14120556300E+03  0.35039026825E+03  0.60736360660E+03  0.25500000920E-02 0. -1.
</event>
<event>
 5   0  0.5009762E-04  0.1764122E+04  0.7818609E-02  0.8725615E-01
        1   -1    0    0  501    0  0.00000000000E+00  0.00000000000E+00  0.14295110878E+04  0.14295110878E+04  0.50400001928E-02 0. -1.
       -1   -1    0    0    0  501  0.00000000000E+00  0.00000000000E+00 -0.54426412796E+03  0.54426412798E+03  0.50400001928E-02 0.  1.
    10030    2    1    2    0    0  0.00000000000E+00  0.00000000000E+00  0.88524695980E+03  0.19737752157E+04  0.17641219976E+04 0.  0.
        3    1    3    3  502    0  0.26185542634E+03  0.43577847559E+01 -0.49976124990E+03  0.56422386665E+03  0.10100000352E+00 0.  1.
       -3    1    3    3    0  502 -0.26185542634E+03 -0.43577847559E+01  0.13850082097E+04  0.14095513491E+04  0.10100000352E+00 0. -1.
</event>
<event>
 5   0  0.5059689E-04  0.1673161E+04  0.7818609E-02  0.8776822E-01
       -1   -1    0    0    0  501  0.00000000000E+00  0.00000000000E+00  0.48642067871E+03  0.48642067874E+03  0.50400001928E-02 0.  1.
        1   -1    0    0  501    0  0.00000000000E+00  0.00000000000E+00 -0.14388096282E+04  0.14388096283E+04  0.50400001928E-02 0. -1.
    10030    2    1    2    0    0  0.00000000000E+00  0.00000000000E+00 -0.95238894954E+03  0.19252303070E+04  0.16731607884E+04 0.  0.
        5    1    3    3  502    0  0.53560761905E+03  0.41972104394E+03  0.83742271070E+02  0.68562098441E+03  0.46999998093E+01 0. -1.
       -5    1    3    3    0  502 -0.53560761905E+03 -0.41972104394E+03 -0.10361312206E+04  0.12396093226E+04  0.46999998093E+01 0.  1.
</event>
<event>
 5   0  0.9284971E-04  0.1777182E+04  0.7818609E-02  0.8718529E-01
        2   -1    0    0  501    0  0.00000000000E+00  0.00000000000E+00  0.17124945973E+04  0.17124945973E+04  0.25500000920E-02 0.  1.
       -2   -1    0    0    0  501  0.00000000000E+00  0.00000000000E+00 -0.46107834609E+03  0.46107834610E+03  0.25500000920E-02 0. -1.
    10030    2    1    2    0    0  0.00000000000E+00  0.00000000000E+00  0.12514162512E+04  0.21735729434E+04  0.17771822378E+04 0.  0.
        4    1    3    3  502    0  0.50447285064E+03 -0.72454154709E+03  0.50255505626E+03  0.10158821329E+04  0.12699999809E+01 0.  1.
       -4    1    3    3    0  502 -0.50447285064E+03  0.72454154709E+03  0.74886119496E+03  0.11576908105E+04  0.12699999809E+01 0. -1.
</event>
<event>
 5   0  0.1007187E-03  0.1637402E+04  0.7818609E-02  0.8797894E-01
       -2   -1    0    0    0  501  0.00000000000E+00  0.00000000000E+00  0.33224604623E+03  0.33224604624E+03  0.25500000920E-02 0.  1.
        2   -1    0    0  501    0  0.00000000000E+00  0.00000000000E+00 -0.20173955267E+04  0.20173955267E+04  0.25500000920E-02 0. -1.
    10030    2    1    2    0    0  0.00000000000E+00  0.00000000000E+00 -0.16851494805E+04  0.23496415729E+04  0.16374024398E+04 0.  0.
        5    1    3    3  502    0 -0.69055183571E+03  0.31801768810E+03 -0.12784229630E+04  0.14874086359E+04  0.46999998093E+01 0. -1.
       -5    1    3    3    0  502  0.69055183571E+03 -0.31801768810E+03 -0.40672651744E+03  0.86223293705E+03  0.46999998093E+01 0.  1.
</event>
<event>
 5   0  0.9625225E-04  0.1716731E+04  0.7818609E-02  0.8751879E-01
        2   -1    0    0  501    0  0.00000000000E+00  0.00000000000E+00  0.14683788457E+04  0.14683788457E+04  0.25500000920E-02 0. -1.
       -2   -1    0    0    0  501  0.00000000000E+00  0.00000000000E+00 -0.50177177201E+03  0.50177177201E+03  0.25500000920E-02 0.  1.
    10030    2    1    2    0    0  0.00000000000E+00  0.00000000000E+00  0.96660707373E+03  0.19701506178E+04  0.17167306783E+04 0.  0.
        1    1    3    3  502    0 -0.78701832073E+03  0.16307534606E+03  0.13749210378E+03  0.81541123630E+03  0.50400001928E-02 0.  1.
       -1    1    3    3    0  502  0.78701832073E+03 -0.16307534606E+03  0.82911496995E+03  0.11547393815E+04  0.50400001928E-02 0. -1.
</event>
<event>
 5   0  0.9625225E-04  0.1705281E+04  0.7818609E-02  0.8758358E-01
        2   -1    0    0  501    0  0.00000000000E+00  0.00000000000E+00  0.28254863789E+04  0.28254863789E+04  0.25500000920E-02 0.  1.
       -2   -1    0    0    0  501  0.00000000000E+00  0.00000000000E+00 -0.25729937657E+03  0.25729937658E+03  0.25500000920E-02 0. -1.
    10030    2    1    2    0    0  0.00000000000E+00  0.00000000000E+00  0.25681870024E+04  0.30827857555E+04  0.17052810722E+04 0.  0.
        1    1    3    3  502    0 -0.45872808981E+03  0.41664159095E+03  0.23428061529E+04  0.24233782920E+04  0.50400001928E-02 0.  1.
       -1    1    3    3    0  502  0.45872808981E+03 -0.41664159095E+03  0.22538084943E+03  0.65940746356E+03  0.50400001928E-02 0. -1.
</event>
<event>
 5   0  0.3523125E-04  0.1686342E+04  0.7818609E-02  0.8769193E-01
       -3   -1    0    0    0  501  0.00000000000E+00  0.00000000000E+00  0.61276350330E+03  0.61276351162E+03  0.10100000352E+00 0.  1.
        3   -1    0    0  501    0  0.00000000000E+00  0.00000000000E+00 -0.11602142785E+04  0.11602142829E+04  0.10100000352E+00 0. -1.
    10030    2    1    2    0    0  0.00000000000E+00  0.00000000000E+00 -0.54745077517E+03  0.17729777945E+04  0.16863415753E+04 0.  0.
        2    1    3    3  502    0 -0.70411803942E+03 -0.46226565124E+03 -0.31397028766E+03  0.89891550621E+03  0.25500000920E-02 0. -1.
       -2    1    3    3    0  502  0.70411803942E+03  0.46226565124E+03 -0.23348048751E+03  0.87406228829E+03  0.25500000920E-02 0.  1.
</event>
<event>
 5   0  0.3523125E-04  0.1626742E+04  0.7818609E-02  0.8804285E-01
       -3   -1    0    0    0  501  0.00000000000E+00  0.00000000000E+00  0.64578976225E+03  0.64578977015E+03  0.10100000352E+00 0.  1.
        3   -1    0    0  501    0  0.00000000000E+00  0.00000000000E+00 -0.10244397679E+04  0.10244397729E+04  0.10100000352E+00 0. -1.
    10030    2    1    2    0    0  0.00000000000E+00  0.00000000000E+00 -0.37865000563E+03  0.16702295430E+04  0.16267424195E+04 0.  0.
        2    1    3    3  502    0  0.29423774833E+03  0.75812982000E+03 -0.20509958500E+03  0.83869095398E+03  0.25500000920E-02 0. -1.
       -2    1    3    3    0  502 -0.29423774833E+03 -0.75812982000E+03 -0.17355042063E+03  0.83153858902E+03  0.25500000920E-02 0.  1.
</event>
<event>
 5   0  0.9284971E-04  0.1692748E+04  0.7818609E-02  0.8765511E-01
        2   -1    0    0  501    0  0.00000000000E+00  0.00000000000E+00  0.22258930868E+04  0.22258930868E+04  0.25500000920E-02 0. -1.
       -2   -1    0    0    0  501  0.00000000000E+00  0.00000000000E+00 -0.32182535807E+03  0.32182535808E+03  0.25500000920E-02 0.  1.
    10030    2    1    2    0    0  0.00000000000E+00  0.00000000000E+00  0.19040677287E+04  0.25477184449E+04  0.16927478722E+04 0.  0.
        4    1    3    3  502    0  0.10032873060E+03  0.43888442210E+03 -0.12665899759E+03  0.46768526245E+03  0.12699999809E+01 0.  1.
       -4    1    3    3    0  502 -0.10032873060E+03 -0.43888442210E+03  0.20307267263E+04  0.20800331824E+04  0.12699999809E+01 0. -1.
</event>
<event>
 5   0  0.5035495E-04  0.1669387E+04  0.7818609E-02  0.8779019E-01
        1   -1    0    0  501    0  0.00000000000E+00  0.00000000000E+00  0.11755278770E+04  0.11755278770E+04  0.50400001928E-02 0.  1.
       -1   -1    0    0    0  501  0.00000000000E+00  0.00000000000E+00 -0.59268136043E+03  0.59268136045E+03  0.50400001928E-02 0. -1.
    10030    2    1    2    0    0  0.00000000000E+00  0.00000000000E+00  0.58284651658E+03  0.17682092375E+04  0.16693872665E+04 0.  0.
        4    1    3    3  502    0  0.96436965972E+02  0.71005342801E+03 -0.16197706857E+03  0.73465239582E+03  0.12699999809E+01 0. -1.
       -4    1    3    3    0  502 -0.96436965972E+02 -0.71005342801E+03  0.74482358515E+03  0.10335568417E+04  0.12699999809E+01 0.  1.
</event>
<event>
 5   0  0.9284971E-04  0.1606104E+04  0.7818609E-02  0.8816807E-01
       -2   -1    0    0    0  501  0.00000000000E+00  0.00000000000E+00  0.30898629598E+03  0.30898629599E+03  0.25500000920E-02 0. -1.
        2   -1    0    0  501    0  0.00000000000E+00  0.00000000000E+00 -0.20871239652E+04  0.20871239652E+04  0.25500000920E-02 0.  1.
    10030    2    1    2    0    0  0.00000000000E+00  0.00000000000E+00 -0.17781376692E+04  0.23961102612E+04  0.16061042348E+04 0.  0.
        4    1    3    3  502    0  0.34427601710E+03  0.26067948354E+03  0.12102271812E+03  0.44847283116E+03  0.12699999809E+01 0. -1.
       -4    1    3    3    0  502 -0.34427601710E+03 -0.26067948354E+03 -0.18991603874E+04  0.19476374300E+04  0.12699999809E+01 0.  1.
</event>
<event>
 5   0  0.5009762E-04  0.1698893E+04  0.7818609E-02  0.8761996E-01
       -1   -1    0    0    0  501  0.00000000000E+00  0.00000000000E+00  0.10415769544E+04  0.10415769544E+04  0.50400001928E-02 0. -1.
        1   -1    0    0  501    0  0.00000000000E+00  0.00000000000E+00 -0.69275689746E+03  0.69275689748E+03  0.50400001928E-02 0.  1.
    10030    2    1    2    0    0  0.00000000000E+00  0.00000000000E+00  0.34882005693E+03  0.17343338519E+04  0.16988933097E+04 0.  0.
        3    1    3    3  502    0  0.93269317656E+02 -0.68718777402E+03 -0.32636717991E+03  0.76644748594E+03  0.10100000352E+00 0.  1.
       -3    1    3    3    0  502 -0.93269317656E+02  0.68718777402E+03  0.67518723684E+03  0.96788636594E+03  0.10100000352E+00 0. -1.
</event>
<event>
 5   0  0.5035495E-04  0.1826879E+04  0.7818609E-02  0.8692135E-01
        1   -1    0    0  501    0  0.00000000000E+00  0.00000000000E+00  0.12347608404E+04  0.12347608404E+04  0.50400001928E-02 0. -1.
       -1   -1    0    0    0  501  0.00000000000E+00  0.00000000000E+00 -0.67573570473E+03  0.67573570475E+03  0.50400001928E-02 0.  1.
    10030    2    1    2    0    0  0.00000000000E+00  0.00000000000E+00  0.55902513571E+03  0.19104965452E+04  0.18268792918E+04 0.  0.
        4    1    3    3  502    0  0.55484434188E+03  0.31301107272E+03  0.96410674409E+03  0.11555654903E+04  0.12699999809E+01 0. -1.
       -4    1    3    3    0  502 -0.55484434188E+03 -0.31301107272E+03 -0.40508160839E+03  0.75493105494E+03  0.12699999809E+01 0.  1.
</event>
<event>
 5   0  0.4947006E-04  0.1678633E+04  0.7818609E-02  0.8773645E-01
        1   -1    0    0  501    0  0.00000000000E+00  0.00000000000E+00  0.12120862650E+04  0.12120862650E+04  0.50400001928E-02 0.  1.
       -1   -1    0    0    0  501  0.00000000000E+00  0.00000000000E+00 -0.58118984720E+03  0.58118984722E+03  0.50400001928E-02 0. -1.
    10030    2    1    2    0    0  0.00000000000E+00  0.00000000000E+00  0.63089641784E+03  0.17932761123E+04  0.16786330524E+04 0.  0.
        2    1    3    3  502    0 -0.39610502474E+03 -0.18334215066E+03 -0.45040767362E+03  0.62720061168E+03  0.25500000920E-02 0. -1.
       -2    1    3    3    0  502  0.39610502474E+03  0.18334215066E+03  0.10813040915E+04  0.11660755006E+04  0.25500000920E-02 0.  1.
</event>
<event>
 5   0  0.9625225E-04  0.1698549E+04  0.7818609E-02  0.8762192E-01
       -2   -1    0    0    0  501  0.00000000000E+00  0.00000000000E+00  0.54785135999E+03  0.54785136000E+03  0.25500000920E-02 0.  1.
        2   -1    0    0  501    0  0.00000000000E+00  0.00000000000E+00 -0.13165385373E+04  0.13165385373E+04  0.25500000920E-02 0. -1.
    10030    2    1    2    0    0  0.00000000000E+00  0.00000000000E+00 -0.76868717728E+03  0.18643898973E+04  0.16985492965E+04 0.  0.
        1    1    3    3  502    0 -0.78443510180E+02  0.82645866465E+03 -0.58094044696E+03  0.10132517514E+04  0.50400001928E-02 0. -1.
       -1    1    3    3    0  502  0.78443510180E+02 -0.82645866465E+03 -0.18774673031E+03  0.85113814592E+03  0.50400001928E-02 0.  1.
</event>
<event>
 5   0  0.5074133E-04  0.1669281E+04  0.7818609E-02  0.8779081E-01
        1   -1    0    0  501    0  0.00000000000E+00  0.00000000000E+00  0.85030609140E+03  0.85030609142E+03  0.50400001928E-02 0. -1.
       -1   -1    0    0    0  501  0.00000000000E+00  0.00000000000E+00 -0.81926365686E+03  0.81926365688E+03  0.50400001928E-02 0.  1.
    10030    2    1    2    0    0  0.00000000000E+00  0.00000000000E+00  0.31042434542E+02  0.16695697483E+04  0.16692811362E+04 0.  0.
        1    1    3    3  502    0  0.23356537633E+03  0.67830974445E+02  0.81407710340E+03  0.84963248315E+03  0.50400001928E-02 0. -1.
       -1    1    3    3    0  502 -0.23356537633E+03 -0.67830974445E+02 -0.78303466886E+03  0.81993726515E+03  0.50400001928E-02 0.  1.
</event>
<event>
 5   0  0.9625225E-04  0.9832584E+03  0.7818609E-02  0.9327100E-01
        2   -1    0    0  501    0  0.00000000000E+00  0.00000000000E+00  0.19002004679E+04  0.19002004679E+04  0.25500000920E-02 0. -1.
       -2   -1    0    0    0  501  0.00000000000E+00  0.00000000000E+00 -0.12719671894E+03  0.12719671896E+03  0.25500000920E-02 0.  1.
    10030    2    1    2    0    0  0.00000000000E+00  0.00000000000E+00  0.17730037489E+04  0.20273971868E+04  0.98325838895E+03 0.  0.
        1    1    3    3  502    0  0.13367595922E+03 -0.98914193750E+01 -0.88791759375E+02  0.16078270681E+03  0.50400001928E-02 0.  1.
       -1    1    3    3    0  502 -0.13367595922E+03  0.98914193750E+01  0.18617955083E+04  0.18666144800E+04  0.50400001928E-02 0. -1.
</event>
<event>
 5   0  0.9610114E-04  0.1649097E+04  0.7818609E-02  0.8790941E-01
       -2   -1    0    0    0  501  0.00000000000E+00  0.00000000000E+00  0.63756565422E+03  0.63756565423E+03  0.25500000920E-02 0. -1.
        2   -1    0    0  501    0  0.00000000000E+00  0.00000000000E+00 -0.10663691606E+04  0.10663691606E+04  0.25500000920E-02 0.  1.
    10030    2    1    2    0    0  0.00000000000E+00  0.00000000000E+00 -0.42880350638E+03  0.17039348148E+04  0.16490971488E+04 0.  0.
        2    1    3    3  502    0 -0.60339736029E+03  0.28096053040E+03 -0.71726086626E+03  0.97851435570E+03  0.25500000920E-02 0.  1.
       -2    1    3    3    0  502  0.60339736029E+03 -0.28096053040E+03  0.28845735988E+03  0.72542045913E+03  0.25500000920E-02 0. -1.
</event>
<event>
 5   0  0.9284971E-04  0.1594299E+04  0.7818609E-02  0.8824058E-01
       -2   -1    0    0    0  501  0.00000000000E+00  0.00000000000E+00  0.38269721971E+03  0.38269721972E+03  0.25500000920E-02 0. -1.
        2   -1    0    0  501    0  0.00000000000E+00  0.00000000000E+00 -0.16604443347E+04  0.16604443347E+04  0.25500000920E-02 0.  1.
    10030    2    1    2    0    0  0.00000000000E+00  0.00000000000E+00 -0.12777471150E+04  0.20431415544E+04  0.15942991318E+04 0.  0.
        4    1    3    3  502    0  0.36434075698E+03 -0.46425853037E+03  0.47870468049E+02  0.59209236174E+03  0.12699999809E+01 0. -1.
       -4    1    3    3    0  502 -0.36434075698E+03  0.46425853037E+03 -0.13256175830E+04  0.14510491927E+04  0.12699999809E+01 0.  1.
</event>
<event>
 5   0  0.5035495E-04  0.1623123E+04  0.7818609E-02  0.8806467E-01
       -1   -1    0    0    0  501  0.00000000000E+00  0.00000000000E+00  0.32864368179E+03  0.32864368182E+03  0.50400001928E-02 0.  1.
        1   -1    0    0  501    0  0.00000000000E+00  0.00000000000E+00 -0.20040913854E+04  0.20040913854E+04  0.50400001928E-02 0. -1.
    10030    2    1    2    0    0  0.00000000000E+00  0.00000000000E+00 -0.16754477036E+04  0.23327350672E+04  0.16231228809E+04 0.  0.
        4    1    3    3  502    0 -0.72193434063E+02  0.46720882639E+03 -0.17857617895E+04  0.18472798275E+04  0.12699999809E+01 0. -1.
       -4    1    3    3    0  502  0.72193434063E+02 -0.46720882639E+03  0.11031408584E+03  0.48545523977E+03  0.12699999809E+01 0.  1.
</event>
<event>
 5   0  0.5074133E-04  0.1684957E+04  0.7818609E-02  0.8769991E-01
       -1   -1    0    0    0  501  0.00000000000E+00  0.00000000000E+00  0.85774254059E+03  0.85774254061E+03  0.50400001928E-02 0.  1.
        1   -1    0    0  501    0  0.00000000000E+00  0.00000000000E+00 -0.82748565891E+03  0.82748565892E+03  0.50400001928E-02 0. -1.
    10030    2    1    2    0    0  0.00000000000E+00  0.00000000000E+00  0.30256881685E+02  0.16852281995E+04  0.16849565590E+04 0.  0.
        1    1    3    3  502    0 -0.15845065102E+03 -0.78415340675E+03  0.27930446906E+03  0.84735716236E+03  0.50400001928E-02 0.  1.
       -1    1    3    3    0  502  0.15845065102E+03  0.78415340675E+03 -0.24904758738E+03  0.83787103717E+03  0.50400001928E-02 0. -1.
</event>
<event>
 5   0  0.9284971E-04  0.1709271E+04  0.7818609E-02  0.8756094E-01
       -2   -1    0    0    0  501  0.00000000000E+00  0.00000000000E+00  0.37066491076E+03  0.37066491077E+03  0.25500000920E-02 0. -1.
        2   -1    0    0  501    0  0.00000000000E+00  0.00000000000E+00 -0.19705184234E+04  0.19705184234E+04  0.25500000920E-02 0.  1.
    10030    2    1    2    0    0  0.00000000000E+00  0.00000000000E+00 -0.15998535126E+04  0.23411833342E+04  0.17092712313E+04 0.  0.
        4    1    3    3  502    0  0.64304776458E+03 -0.63542975414E+02 -0.33811507336E+02  0.64706488715E+03  0.12699999809E+01 0. -1.
       -4    1    3    3    0  502 -0.64304776458E+03  0.63542975414E+02 -0.15660420053E+04  0.16941184470E+04  0.12699999809E+01 0.  1.
</event>
<event>
 5   0  0.1007187E-03  0.1709161E+04  0.7818609E-02  0.8756157E-01
       -2   -1    0    0    0  501  0.00000000000E+00  0.00000000000E+00  0.35326031444E+03  0.35326031445E+03  0.25500000920E-02 0. -1.
        2   -1    0    0  501    0  0.00000000000E+00  0.00000000000E+00 -0.20673354235E+04  0.20673354235E+04  0.25500000920E-02 0.  1.
    10030    2    1    2    0    0  0.00000000000E+00  0.00000000000E+00 -0.17140751091E+04  0.24205957380E+04  0.17091606850E+04 0.  0.
        5    1    3    3  502    0  0.40496383517E+03 -0.70329019381E+03 -0.47788310818E+03  0.94181057521E+03  0.46999998093E+01 0. -1.
       -5    1    3    3    0  502 -0.40496383517E+03  0.70329019381E+03 -0.12361920009E+04  0.14787851627E+04  0.46999998093E+01 0.  1.
</event>
<event>
 5   0  0.4947006E-04  0.1698548E+04  0.7818609E-02  0.8762193E-01
        1   -1    0    0  501    0  0.00000000000E+00  0.00000000000E+00  0.68223733015E+03  0.68223733017E+03  0.50400001928E-02 0.  1.
       -1   -1    0    0    0  501  0.00000000000E+00  0.00000000000E+00 -0.10572074731E+04  0.10572074731E+04  0.50400001928E-02 0. -1.
    10030    2    1    2    0    0  0.00000000000E+00  0.00000000000E+00 -0.37497014298E+03  0.17394448033E+04  0.16985480905E+04 0.  0.
        2    1    3    3  502    0  0.84433773267E+03  0.83898483099E+02 -0.15026099530E+03  0.86169804977E+03  0.25500000920E-02 0. -1.
       -2    1    3    3    0  502 -0.84433773267E+03 -0.83898483099E+02 -0.22470914768E+03  0.87774675353E+03  0.25500000920E-02 0.  1.
</event>
<event>
 5   0  0.5009762E-04  0.1699458E+04  0.7818609E-02  0.8761674E-01
        1   -1    0    0  501    0  0.00000000000E+00  0.00000000000E+00  0.25512549613E+03  0.25512549618E+03  0.50400001928E-02 0.  1.
       -1   -1    0    0    0  501  0.00000000000E+00  0.00000000000E+00 -0.28301326176E+04  0.28301326176E+04  0.50400001928E-02 0. -1.
    10030    2    1    2    0    0  0.00000000000E+00  0.00000000000E+00 -0.25750071215E+04  0.30852581138E+04  0.16994575467E+04 0.  0.
        3    1    3    3  502    0 -0.54827337449E+02 -0.35342795963E+03  0.11182230113E+03  0.37472869761E+03  0.10100000352E+00 0.  1.
       -3    1    3    3    0  502  0.54827337449E+02  0.35342795963E+03 -0.26868294226E+04  0.27105294162E+04  0.10100000352E+00 0. -1.
</event>
<event>
 5   0  0.9610114E-04  0.1703173E+04  0.7818609E-02  0.8759557E-01
       -2   -1    0    0    0  501  0.00000000000E+00  0.00000000000E+00  0.78524966723E+03  0.78524966723E+03  0.25500000920E-02 0.  1.
        2   -1    0    0  501    0  0.00000000000E+00  0.00000000000E+00 -0.92352753636E+03  0.92352753636E+03  0.25500000920E-02 0. -1.
    10030    2    1    2    0    0  0.00000000000E+00  0.00000000000E+00 -0.13827786913E+03  0.17087772036E+04  0.17031731452E+04 0.  0.
        2    1    3    3  502    0  0.60437301617E+03 -0.40519087875E+03  0.37475701943E+03  0.81846760138E+03  0.25500000920E-02 0.  1.
       -2    1    3    3    0  502 -0.60437301617E+03  0.40519087875E+03 -0.51303488856E+03  0.89030960221E+03  0.25500000920E-02 0. -1.
</event>
<event>
 5   0  0.9284971E-04  0.1703611E+04  0.7818609E-02  0.8759308E-01
       -2   -1    0    0    0  501  0.00000000000E+00  0.00000000000E+00  0.94145412668E+03  0.94145412668E+03  0.25500000920E-02 0.  1.
        2   -1    0    0  501    0  0.00000000000E+00  0.00000000000E+00 -0.77069351767E+03  0.77069351767E+03  0.25500000920E-02 0. -1.
    10030    2    1    2    0    0  0.00000000000E+00  0.00000000000E+00  0.17076060901E+03  0.17121476444E+04  0.17036109798E+04 0.  0.
        4    1    3    3  502    0 -0.14008315002E+03  0.98305599589E+02 -0.75323714824E+03  0.77243452423E+03  0.12699999809E+01 0. -1.
       -4    1    3    3    0  502  0.14008315002E+03 -0.98305599589E+02  0.92399775725E+03  0.93971312013E+03  0.12699999809E+01 0.  1.
</event>
<event>
 5   0  0.5074133E-04  0.1699983E+04  0.7818609E-02  0.8761374E-01
        1   -1    0    0  501    0  0.00000000000E+00  0.00000000000E+00  0.14680529999E+04  0.14680529999E+04  0.50400001928E-02 0.  1.
       -1   -1    0    0    0  501  0.00000000000E+00  0.00000000000E+00 -0.49213839802E+03  0.49213839804E+03  0.50400001928E-02 0. -1.
    10030    2    1    2    0    0  0.00000000000E+00  0.00000000000E+00  0.97591460184E+03  0.19601913979E+04  0.16999826488E+04 0.  0.
        1    1    3    3  502    0  0.46706236947E+03  0.53841195440E+03 -0.46013592719E+02  0.71424921446E+03  0.50400001928E-02 0. -1.
       -1    1    3    3    0  502 -0.46706236947E+03 -0.53841195440E+03  0.10219281946E+04  0.12459421834E+04  0.50400001928E-02 0.  1.
</event>
<event>
 5   0  0.5074133E-04  0.1701420E+04  0.7818609E-02  0.8760555E-01
       -1   -1    0    0    0  501  0.00000000000E+00  0.00000000000E+00  0.36555143346E+03  0.36555143349E+03  0.50400001928E-02 0.  1.
        1   -1    0    0  501    0  0.00000000000E+00  0.00000000000E+00 -0.19797703907E+04  0.19797703907E+04  0.50400001928E-02 0. -1.
    10030    2    1    2    0    0  0.00000000000E+00  0.00000000000E+00 -0.16142189572E+04  0.23453218242E+04  0.17014204704E+04 0.  0.
        1    1    3    3  502    0  0.25288816996E+03  0.13533135809E+03  0.29689062912E+03  0.41280873134E+03  0.50400001928E-02 0.  1.
       -1    1    3    3    0  502 -0.25288816996E+03 -0.13533135809E+03 -0.19111095863E+04  0.19325130928E+04  0.50400001928E-02 0. -1.
</event>
<event>
 5   0  0.9312096E-04  0.1146637E+04  0.7818609E-02  0.9160892E-01
        2   -1    0    0  501    0  0.00000000000E+00  0.00000000000E+00  0.89770576148E+03  0.89770576149E+03  0.25500000920E-02 0.  1.
       -2   -1    0    0    0  501  0.00000000000E+00  0.00000000000E+00 -0.36614883575E+03  0.36614883575E+03  0.25500000920E-02 0. -1.
    10030    2    1    2    0    0  0.00000000000E+00  0.00000000000E+00  0.53155692574E+03  0.12638545972E+04  0.11466366808E+04 0.  0.
        3    1    3    3  502    0 -0.15950834619E+03  0.46590593937E+03 -0.57801193731E+02  0.49583489696E+03  0.10100000352E+00 0. -1.
       -3    1    3    3    0  502  0.15950834619E+03 -0.46590593937E+03  0.58935811947E+03  0.76801970029E+03  0.10100000352E+00 0.  1.
</event>
<event>
 5   0  0.5035495E-04  0.1680703E+04  0.7818609E-02  0.8772447E-01
       -1   -1    0    0    0  501  0.00000000000E+00  0.00000000000E+00  0.34287820102E+03  0.34287820106E+03  0.50400001928E-02 0. -1.
        1   -1    0    0  501    0  0.00000000000E+00  0.00000000000E+00 -0.20595964246E+04  0.20595964246E+04  0.50400001928E-02 0.  1.
    10030    2    1    2    0    0  0.00000000000E+00  0.00000000000E+00 -0.17167182236E+04  0.24024746257E+04  0.16807030873E+04 0.  0.
        4    1    3    3  502    0  0.49854278005E+03  0.27889463708E+03 -0.17393688858E+04  0.18307738407E+04  0.12699999809E+01 0.  1.
       -4    1    3    3    0  502 -0.49854278005E+03 -0.27889463708E+03  0.22650662187E+02  0.57170078496E+03  0.12699999809E+01 0. -1.
</event>
<event>
 5   0  0.5074133E-04  0.1712988E+04  0.7818609E-02  0.8753991E-01
        1   -1    0    0  501    0  0.00000000000E+00  0.00000000000E+00  0.12923833241E+04  0.12923833241E+04  0.50400001928E-02 0.  1.
       -1   -1    0    0    0  501  0.00000000000E+00  0.00000000000E+00 -0.56761978533E+03  0.56761978535E+03  0.50400001928E-02 0. -1.
    10030    2    1    2    0    0  0.00000000000E+00  0.00000000000E+00  0.72476353872E+03  0.18600031094E+04  0.17129884354E+04 0.  0.
        1    1    3    3  502    0  0.82415864718E+03  0.19844597993E+03  0.49520804421E+03  0.98175826442E+03  0.50400001928E-02 0. -1.
       -1    1    3    3    0  502 -0.82415864718E+03 -0.19844597993E+03  0.22955549451E+03  0.87824484500E+03  0.50400001928E-02 0.  1.
</event>
<event>
 5   0  0.5074133E-04  0.1711791E+04  0.7818609E-02  0.8754668E-01
       -1   -1    0    0    0  501  0.00000000000E+00  0.00000000000E+00  0.67311449358E+03  0.67311449360E+03  0.50400001928E-02 0.  1.
        1   -1    0    0  501    0  0.00000000000E+00  0.00000000000E+00 -0.10883102796E+04  0.10883102796E+04  0.50400001928E-02 0. -1.
    10030    2    1    2    0    0  0.00000000000E+00  0.00000000000E+00 -0.41519578604E+03  0.17614247732E+04  0.17117913690E+04 0.  0.
        1    1    3    3  502    0 -0.30190738221E+03 -0.89498664573E+02  0.61134208509E+03  0.68767523107E+03  0.50400001928E-02 0.  1.
       -1    1    3    3    0  502  0.30190738221E+03  0.89498664573E+02 -0.10265378711E+04  0.10737495422E+04  0.50400001928E-02 0. -1.
</event>
<event>
 5   0  0.5009762E-04  0.1653978E+04  0.7818609E-02  0.8788057E-01
        1   -1    0    0  501    0  0.00000000000E+00  0.00000000000E+00  0.24129151753E+04  0.24129151753E+04  0.50400001928E-02 0. -1.
       -1   -1    0    0    0  501  0.00000000000E+00  0.00000000000E+00 -0.28343743947E+03  0.28343743951E+03  0.50400001928E-02 0.  1.
    10030    2    1    2    0    0  0.00000000000E+00  0.00000000000E+00  0.21294777358E+04  0.26963526148E+04  0.16539776286E+04 0.  0.
        3    1    3    3  502    0 -0.22019733445E+03 -0.76202336700E+02 -0.22881708312E+03  0.32657453965E+03  0.10100000352E+00 0.  1.
       -3    1    3    3    0  502  0.22019733445E+03  0.76202336700E+02  0.23582948190E+04  0.23697780752E+04  0.10100000352E+00 0. -1.
</event>
<event>
 5   0  0.1007187E-03  0.1689025E+04  0.7818609E-02  0.8767649E-01
        2   -1    0    0  501    0  0.00000000000E+00  0.00000000000E+00  0.10246665689E+04  0.10246665689E+04  0.25500000920E-02 0. -1.
       -2   -1    0    0    0  501  0.00000000000E+00  0.00000000000E+00 -0.69603260708E+03  0.69603260708E+03  0.25500000920E-02 0.  1.
    10030    2    1    2    0    0  0.00000000000E+00  0.00000000000E+00  0.32863396186E+03  0.17206991760E+04  0.16890249772E+04 0.  0.
        5    1    3    3  502    0  0.82139093095E+03  0.48799351266E+02 -0.29285793884E+02  0.82337366113E+03  0.46999998093E+01 0.  1.
       -5    1    3    3    0  502 -0.82139093095E+03 -0.48799351266E+02  0.35791975575E+03  0.89732551489E+03  0.46999998093E+01 0. -1.
</event>
<event>
 5   0  0.5035495E-04  0.1852187E+04  0.7818609E-02  0.8679029E-01
       -1   -1    0    0    0  501  0.00000000000E+00  0.00000000000E+00  0.85233311683E+03  0.85233311685E+03  0.50400001928E-02 0.  1.
        1   -1    0    0  501    0  0.00000000000E+00  0.00000000000E+00 -0.10062373527E+04  0.10062373527E+04  0.50400001928E-02 0. -1.
    10030    2    1    2    0    0  0.00000000000E+00  0.00000000000E+00 -0.15390423582E+03  0.18585704695E+04  0.18521872682E+04 0.  0.
        4    1    3    3  502    0 -0.75946533019E+03  0.44317197509E+03  0.21466743503E+03  0.90513684481E+03  0.12699999809E+01 0.  1.
       -4    1    3    3    0  502  0.75946533019E+03 -0.44317197509E+03 -0.36857167085E+03  0.95343362471E+03  0.12699999809E+01 0. -1.
</event>
<event>
 5   0  0.5074133E-04  0.1650209E+04  0.7818609E-02  0.8790283E-01
        1   -1    0    0  501    0  0.00000000000E+00  0.00000000000E+00  0.13413172098E+04  0.13413172098E+04  0.50400001928E-02 0. -1.
       -1   -1    0    0    0  501  0.00000000000E+00  0.00000000000E+00 -0.50755905262E+03  0.50755905264E+03  0.50400001928E-02 0.  1.
    10030    2    1    2    0    0  0.00000000000E+00  0.00000000000E+00  0.83375815719E+03  0.18488762625E+04  0.16502093107E+04 0.  0.
        1    1    3    3  502    0 -0.78002019201E+02 -0.41824112959E+03 -0.37518735762E+03  0.56725259878E+03  0.50400001928E-02 0.  1.
       -1    1    3    3    0  502  0.78002019201E+02  0.41824112959E+03  0.12089455148E+04  0.12816236637E+04  0.50400001928E-02 0. -1.
</event>
<event>
 5   0  0.5074133E-04  0.1726813E+04  0.7818609E-02  0.8746218E-01
       -1   -1    0    0    0  501  0.00000000000E+00  0.00000000000E+00  0.49596943887E+03  0.49596943890E+03  0.50400001928E-02 0.  1.
        1   -1    0    0  501    0  0.00000000000E+00  0.00000000000E+00 -0.15030570656E+04  0.15030570656E+04  0.50400001928E-02 0. -1.
    10030    2    1    2    0    0  0.00000000000E+00  0.00000000000E+00 -0.10070876267E+04  0.19990265045E+04  0.17268125196E+04 0.  0.
        1    1    3    3  502    0  0.20842584233E+03  0.17339831792E+03  0.44541145317E+03  0.52143999755E+03  0.50400001928E-02 0.  1.
       -1    1    3    3    0  502 -0.20842584233E+03 -0.17339831792E+03 -0.14524990799E+04  0.14775865069E+04  0.50400001928E-02 0. -1.
</event>
<event>
 5   0  0.1007187E-03  0.1683641E+04  0.7818609E-02  0.8770750E-01
       -2   -1    0    0    0  501  0.00000000000E+00  0.00000000000E+00  0.83585650543E+03  0.83585650544E+03  0.25500000920E-02 0. -1.
        2   -1    0    0  501    0  0.00000000000E+00  0.00000000000E+00 -0.84782684664E+03  0.84782684664E+03  0.25500000920E-02 0.  1.
    10030    2    1    2    0    0  0.00000000000E+00  0.00000000000E+00 -0.11970341206E+02  0.16836833521E+04  0.16836407993E+04 0.  0.
        5    1    3    3  502    0  0.51448999625E+03  0.42002490673E+03  0.51124992062E+03  0.83816433343E+03  0.46999998093E+01 0. -1.
       -5    1    3    3    0  502 -0.51448999625E+03 -0.42002490673E+03 -0.52322026182E+03  0.84551901865E+03  0.46999998093E+01 0.  1.
</event>
<event>
 5   0  0.9284971E-04  0.1706702E+04  0.7818609E-02  0.8757551E-01
        2   -1    0    0  501    0  0.00000000000E+00  0.00000000000E+00  0.63636793862E+03  0.63636793862E+03  0.25500000920E-02 0. -1.
       -2   -1    0    0    0  501  0.00000000000E+00  0.00000000000E+00 -0.11443193807E+04  0.11443193807E+04  0.25500000920E-02 0.  1.
    10030    2    1    2    0    0  0.00000000000E+00  0.00000000000E+00 -0.50795144204E+03  0.17806873193E+04  0.17067022768E+04 0.  0.
        4    1    3    3  502    0  0.58247403599E+02  0.58989478846E+03  0.38650668392E+03  0.70764231861E+03  0.12699999809E+01 0. -1.
       -4    1    3    3    0  502 -0.58247403599E+02 -0.58989478846E+03 -0.89445812596E+03  0.10730450007E+04  0.12699999809E+01 0.  1.
</event>
<event>
 5   0  0.5059689E-04  0.1740682E+04  0.7818609E-02  0.8738496E-01
       -1   -1    0    0    0  501  0.00000000000E+00  0.00000000000E+00  0.38679070773E+03  0.38679070776E+03  0.50400001928E-02 0.  1.
        1   -1    0    0  501    0  0.00000000000E+00  0.00000000000E+00 -0.19584059751E+04  0.19584059751E+04  0.50400001928E-02 0. -1.
    10030    2    1    2    0    0  0.00000000000E+00  0.00000000000E+00 -0.15716152674E+04  0.23451966828E+04  0.17406817436E+04 0.  0.
        5    1    3    3  502    0  0.14401960110E+03  0.66494134900E+03 -0.15170534066E+04  0.16626369933E+04  0.46999998093E+01 0. -1.
       -5    1    3    3    0  502 -0.14401960110E+03 -0.66494134900E+03 -0.54561860753E+02  0.68255968952E+03  0.46999998093E+01 0.  1.
</event>
<event>
 5   0  0.9284971E-04  0.1487633E+04  0.7818609E-02  0.8892719E-01
        2   -1    0    0  501    0  0.00000000000E+00  0.00000000000E+00  0.46747297298E+03  0.46747297298E+03  0.25500000920E-02 0.  1.
       -2   -1    0    0    0  501  0.00000000000E+00  0.00000000000E+00 -0.11835191362E+04  0.11835191362E+04  0.25500000920E-02 0. -1.
    10030    2    1    2    0    0  0.00000000000E+00  0.00000000000E+00 -0.71604616320E+03  0.16509921092E+04  0.14876333005E+04 0.  0.
        4    1    3    3  502    0 -0.34526339142E+03  0.62926578528E+03 -0.14145526569E+03  0.73156916493E+03  0.12699999809E+01 0.  1.
       -4    1    3    3    0  502  0.34526339142E+03 -0.62926578528E+03 -0.57459089751E+03  0.91942294423E+03  0.12699999809E+01 0. -1.
</event>
<event>
 5   0  0.5009762E-04  0.1735494E+04  0.7818609E-02  0.8741376E-01
        1   -1    0    0  501    0  0.00000000000E+00  0.00000000000E+00  0.94055119803E+03  0.94055119805E+03  0.50400001928E-02 0.  1.
       -1   -1    0    0    0  501  0.00000000000E+00  0.00000000000E+00 -0.80057817938E+03  0.80057817940E+03  0.50400001928E-02 0. -1.
    10030    2    1    2    0    0  0.00000000000E+00  0.00000000000E+00  0.13997301865E+03  0.17411293774E+04  0.17354938960E+04 0.  0.
        3    1    3    3  502    0  0.54019700676E+03  0.57751029761E+03  0.42843341527E+03  0.89938098239E+03  0.10100000352E+00 0.  1.
       -3    1    3    3    0  502 -0.54019700676E+03 -0.57751029761E+03 -0.28846039662E+03  0.84174839506E+03  0.10100000352E+00 0. -1.
</event>
<event>
 5   0  0.9610114E-04  0.2323269E+04  0.7818609E-02  0.8468802E-01
        2   -1    0    0  501    0  0.00000000000E+00  0.00000000000E+00  0.87180390286E+03  0.87180390286E+03  0.25500000920E-02 0. -1.
       -2   -1    0    0    0  501  0.00000000000E+00  0.00000000000E+00 -0.15478196171E+04  0.15478196171E+04  0.25500000920E-02 0.  1.
    10030    2    1    2    0    0  0.00000000000E+00  0.00000000000E+00 -0.67601571425E+03  0.24196235200E+04  0.23232694059E+04 0.  0.
        2    1    3    3  502    0 -0.50637584390E+03 -0.51802209342E+03  0.60774630836E+03  0.94557863760E+03  0.25500000920E-02 0. -1.
       -2    1    3    3    0  502  0.50637584390E+03  0.51802209342E+03 -0.12837620226E+04  0.14740448824E+04  0.25500000920E-02 0.  1.
</event>
<event>
 5   0  0.9625225E-04  0.1634774E+04  0.7818609E-02  0.8799465E-01
       -2   -1    0    0    0  501  0.00000000000E+00  0.00000000000E+00  0.45183265375E+03  0.45183265376E+03  0.25500000920E-02 0. -1.
        2   -1    0    0  501    0  0.00000000000E+00  0.00000000000E+00 -0.14786926184E+04  0.14786926184E+04  0.25500000920E-02 0.  1.
    10030    2    1    2    0    0  0.00000000000E+00  0.00000000000E+00 -0.10268599647E+04  0.19305252722E+04  0.16347741249E+04 0.  0.
        1    1    3    3  502    0 -0.21396583171E+03  0.67546197245E+03 -0.99470271002E+03  0.12212549835E+04  0.50400001928E-02 0.  1.
       -1    1    3    3    0  502  0.21396583171E+03 -0.67546197245E+03 -0.32157254647E+02  0.70927028868E+03  0.50400001928E-02 0. -1.
</event>
<event>
 5   0  0.5035495E-04  0.1666818E+04  0.7818609E-02  0.8780519E-01
        1   -1    0    0  501    0  0.00000000000E+00  0.00000000000E+00  0.14101916779E+04  0.14101916779E+04  0.50400001928E-02 0.  1.
       -1   -1    0    0    0  501  0.00000000000E+00  0.00000000000E+00 -0.49253612322E+03  0.49253612325E+03  0.50400001928E-02 0. -1.
    10030    2    1    2    0    0  0.00000000000E+00  0.00000000000E+00  0.91765555464E+03  0.19027278011E+04  0.16668177369E+04 0.  0.
        4    1    3    3  502    0 -0.64571991713E+03 -0.16946822699E+03 -0.11067607961E+03  0.67670118874E+03  0.12699999809E+01 0. -1.
       -4    1    3    3    0  502  0.64571991713E+03  0.16946822699E+03  0.10283316343E+04  0.12260266124E+04  0.12699999809E+01 0.  1.
</event>
<event>
 5   0  0.9625225E-04  0.1750652E+04  0.7818609E-02  0.8732991E-01
       -2   -1    0    0    0  501  0.00000000000E+00  0.00000000000E+00  0.90967778357E+03  0.90967778357E+03  0.25500000920E-02 0.  1.
        2   -1    0    0  501    0  0.00000000000E+00  0.00000000000E+00 -0.84227164723E+03  0.84227164723E+03  0.25500000920E-02 0. -1.
    10030    2    1    2    0    0  0.00000000000E+00  0.00000000000E+00  0.67406136340E+02  0.17519494308E+04  0.17506522273E+04 0.  0.
        1    1    3    3  502    0 -0.73524491481E+03  0.23727151900E+03 -0.37807837349E+03  0.86013145217E+03  0.50400001928E-02 0.  1.
       -1    1    3    3    0  502  0.73524491481E+03 -0.23727151900E+03  0.44548450983E+03  0.89181797863E+03  0.50400001928E-02 0. -1.
</event>
<event>
 5   0  0.4947006E-04  0.1590155E+04  0.7818609E-02  0.8826619E-01
       -1   -1    0    0    0  501  0.00000000000E+00  0.00000000000E+00  0.60754145160E+03  0.60754145162E+03  0.50400001928E-02 0.  1.
        1   -1    0    0  501    0  0.00000000000E+00  0.00000000000E+00 -0.10405027108E+04  0.10405027109E+04  0.50400001928E-02 0. -1.
    10030    2    1    2    0    0  0.00000000000E+00  0.00000000000E+00 -0.43296125925E+03  0.16480441625E+04  0.15901553728E+04 0.  0.
        2    1    3    3  502    0 -0.29653396567E+03  0.95853138103E+02  0.54160395545E+03  0.62486403436E+03  0.25500000920E-02 0.  1.
       -2    1    3    3    0  502  0.29653396567E+03 -0.95853138103E+02 -0.97456521469E+03  0.10231801281E+04  0.25500000920E-02 0. -1.
</event>
<event>
 5   0  0.9284971E-04  0.1524227E+04  0.7818609E-02  0.8868500E-01
        2   -1    0    0  501    0  0.00000000000E+00  0.00000000000E+00  0.68056687917E+03  0.68056687917E+03  0.25500000920E-02 0. -1.
       -2   -1    0    0    0  501  0.00000000000E+00  0.00000000000E+00 -0.85343162064E+03  0.85343162064E+03  0.25500000920E-02 0.  1.
    10030    2    1    2    0    0  0.00000000000E+00  0.00000000000E+00 -0.17286474147E+03  0.15339984998E+04  0.15242274038E+04 0.  0.
        4    1    3    3  502    0 -0.16112935033E+02 -0.10880041354E+03 -0.84540105501E+03  0.85252666432E+03  0.12699999809E+01 0.  1.
       -4    1    3    3    0  502  0.16112935033E+02  0.10880041354E+03  0.67253631353E+03  0.68147183550E+03  0.12699999809E+01 0. -1.
</event>
<event>
 5   0  0.9312096E-04  0.1612227E+04  0.7818609E-02  0.8813072E-01
       -2   -1    0    0    0  501  0.00000000000E+00  0.00000000000E+00  0.58208026025E+03  0.58208026026E+03  0.25500000920E-02 0. -1.
        2   -1    0    0  501    0  0.00000000000E+00  0.00000000000E+00 -0.11163729420E+04  0.11163729420E+04  0.25500000920E-02 0.  1.
    10030    2    1    2    0    0  0.00000000000E+00  0.00000000000E+00 -0.53429268175E+03  0.16984532023E+04  0.16122266002E+04 0.  0.
        3    1    3    3  502    0 -0.69583295659E+03 -0.32233950131E+03 -0.52889473765E+03  0.93156637515E+03  0.10100000352E+00 0.  1.
       -3    1    3    3    0  502  0.69583295659E+03  0.32233950131E+03 -0.53979440997E+01  0.76688682711E+03  0.10100000352E+00 0. -1.
</event>
<event>
 5   0  0.4947006E-04  0.1701141E+04  0.7818609E-02  0.8760714E-01
       -1   -1    0    0    0  501  0.00000000000E+00  0.00000000000E+00  0.65731867658E+03  0.65731867660E+03  0.50400001928E-02 0. -1.
        1   -1    0    0  501    0  0.00000000000E+00  0.00000000000E+00 -0.11006379190E+04  0.11006379190E+04  0.50400001928E-02 0.  1.
    10030    2    1    2    0    0  0.00000000000E+00  0.00000000000E+00 -0.44331924243E+03  0.17579565956E+04  0.17011406295E+04 0.  0.
        2    1    3    3  502    0  0.41224270742E+02  0.82905327191E+02  0.65209544424E+03  0.65863586463E+03  0.25500000920E-02 0. -1.
       -2    1    3    3    0  502 -0.41224270742E+02 -0.82905327191E+02 -0.10954146867E+04  0.10993207310E+04  0.25500000920E-02 0.  1.
</event>
<event>
 5   0  0.5035495E-04  0.2114259E+04  0.7818609E-02  0.8554988E-01
        1   -1    0    0  501    0  0.00000000000E+00  0.00000000000E+00  0.10239455185E+04  0.10239455185E+04  0.50400001928E-02 0.  1.
       -1   -1    0    0    0  501  0.00000000000E+00  0.00000000000E+00 -0.10913889278E+04  0.10913889278E+04  0.50400001928E-02 0. -1.
    10030    2    1    2    0    0  0.00000000000E+00  0.00000000000E+00 -0.67443409241E+02  0.21153344463E+04  0.21142590207E+04 0.  0.
        4    1    3    3  502    0 -0.39706962811E+03 -0.20048341651E+03  0.92575686057E+03  0.10270760769E+04  0.12699999809E+01 0.  1.
       -4    1    3    3    0  502  0.39706962811E+03  0.20048341651E+03 -0.99320026982E+03  0.10882583695E+04  0.12699999809E+01 0. -1.
</event>
<event>
 5   0  0.5009762E-04  0.1635302E+04  0.7818609E-02  0.8799149E-01
       -1   -1    0    0    0  501  0.00000000000E+00  0.00000000000E+00  0.71569371587E+03  0.71569371589E+03  0.50400001928E-02 0. -1.
        1   -1    0    0  501    0  0.00000000000E+00  0.00000000000E+00 -0.93413338889E+03  0.93413338890E+03  0.50400001928E-02 0.  1.
    10030    2    1    2    0    0  0.00000000000E+00  0.00000000000E+00 -0.21843967302E+03  0.16498271048E+04  0.16353022916E+04 0.  0.
        3    1    3    3  502    0 -0.79462164418E+03 -0.17263548855E+03 -0.19557693723E+03  0.83634736676E+03  0.10100000352E+00 0.  1.
       -3    1    3    3    0  502  0.79462164418E+03  0.17263548855E+03 -0.22862735795E+02  0.81347973803E+03  0.10100000352E+00 0. -1.
</event>
<event>
 5   0  0.5009762E-04  0.1714187E+04  0.7818609E-02  0.8753314E-01
        1   -1    0    0  501    0  0.00000000000E+00  0.00000000000E+00  0.15360843254E+04  0.15360843254E+04  0.50400001928E-02 0. -1.
       -1   -1    0    0    0  501  0.00000000000E+00  0.00000000000E+00 -0.47823500685E+03  0.47823500688E+03  0.50400001928E-02 0.  1.
    10030    2    1    2    0    0  0.00000000000E+00  0.00000000000E+00  0.10578493185E+04  0.20143193323E+04  0.17141870352E+04 0.  0.
        3    1    3    3  502    0  0.74620017847E+03  0.26017322666E+03  0.91884204226E+03  0.12119304943E+04  0.10100000352E+00 0. -1.
       -3    1    3    3    0  502 -0.74620017847E+03 -0.26017322666E+03  0.13900727628E+03  0.80238883796E+03  0.10100000352E+00 0.  1.
</event>
<event>
 5   0  0.9625225E-04  0.1692551E+04  0.7818609E-02  0.8765624E-01
        2   -1    0    0  501    0  0.00000000000E+00  0.00000000000E+00  0.21155160262E+04  0.21155160262E+04  0.25500000920E-02 0.  1.
       -2   -1    0    0    0  501  0.00000000000E+00  0.00000000000E+00 -0.33853776092E+03  0.33853776093E+03  0.25500000920E-02 0. -1.
    10030    2    1    2    0    0  0.00000000000E+00  0.00000000000E+00  0.17769782652E+04  0.24540537871E+04  0.16925508072E+04 0.  0.
        1    1    3    3  502    0  0.50108587473E+03  0.33650902881E+03  0.28436039299E+02  0.60426317833E+03  0.50400001928E-02 0. -1.
       -1    1    3    3    0  502 -0.50108587473E+03 -0.33650902881E+03  0.17485422260E+04  0.18497906088E+04  0.50400001928E-02 0.  1.
</event>
<event>
 5   0  0.1007187E-03  0.1710786E+04  0.7818609E-02  0.8755237E-01
        2   -1    0    0  501    0  0.00000000000E+00  0.00000000000E+00  0.88767587002E+03  0.88767587003E+03  0.25500000920E-02 0. -1.
       -2   -1    0    0    0  501  0.00000000000E+00  0.00000000000E+00 -0.82428384106E+03  0.82428384106E+03  0.25500000920E-02 0.  1.
    10030    2    1    2    0    0  0.00000000000E+00  0.00000000000E+00  0.63392028967E+02  0.17119597111E+04  0.17107856391E+04 0.  0.
        5    1    3    3  502    0  0.60799291780E+03 -0.32833409117E+03 -0.47284849998E+03  0.83729711420E+03  0.46999998093E+01 0.  1.
       -5    1    3    3    0  502 -0.60799291780E+03  0.32833409117E+03  0.53624052895E+03  0.87466259689E+03  0.46999998093E+01 0. -1.
</event>
<event>
 5   0  0.9610114E-04  0.1709032E+04  0.7818609E-02  0.8756230E-01
        2   -1    0    0  501    0  0.00000000000E+00  0.00000000000E+00  0.65369930034E+03  0.65369930034E+03  0.25500000920E-02 0. -1.
       -2   -1    0    0    0  501  0.00000000000E+00  0.00000000000E+00 -0.11170237536E+04  0.11170237536E+04  0.25500000920E-02 0.  1.
    10030    2    1    2    0    0  0.00000000000E+00  0.00000000000E+00 -0.46332445324E+03  0.17707230539E+04  0.17090320608E+04 0.  0.
        2    1    3    3  502    0  0.77283237728E+03 -0.19637814780E+03  0.86612526077E+02  0.80208228380E+03  0.25500000920E-02 0. -1.
       -2    1    3    3    0  502 -0.77283237728E+03  0.19637814780E+03 -0.54993697932E+03  0.96864077012E+03  0.25500000920E-02 0.  1.
</event>
<event>
 5   0  0.5074133E-04  0.1692342E+04  0.7818609E-02  0.8765744E-01
        1   -1    0    0  501    0  0.00000000000E+00  0.00000000000E+00  0.75958836202E+03  0.75958836203E+03  0.50400001928E-02 0.  1.
       -1   -1    0    0    0  501  0.00000000000E+00  0.00000000000E+00 -0.94262270659E+03  0.94262270660E+03  0.50400001928E-02 0. -1.
    10030    2    1    2    0    0  0.00000000000E+00  0.00000000000E+00 -0.18303434457E+03  0.17022110686E+04  0.16923418540E+04 0.  0.
        1    1    3    3  502    0 -0.65602036452E+03 -0.34214800648E+02  0.44495225363E+03  0.79342036732E+03  0.50400001928E-02 0.  1.
       -1    1    3    3    0  502  0.65602036452E+03  0.34214800648E+02 -0.62798659820E+03  0.90879070131E+03  0.50400001928E-02 0. -1.
</event>
<event>
 5   0  0.9610114E-04  0.1670683E+04  0.7818609E-02  0.8778264E-01
        2   -1    0    0  501    0  0.00000000000E+00  0.00000000000E+00  0.49248552671E+03  0.49248552672E+03  0.25500000920E-02 0.  1.
       -2   -1    0    0    0  501  0.00000000000E+00  0.00000000000E+00 -0.14168852296E+04  0.14168852296E+04  0.25500000920E-02 0. -1.
    10030    2    1    2    0    0  0.00000000000E+00  0.00000000000E+00 -0.92439970289E+03  0.19093707563E+04  0.16706830562E+04 0.  0.
        2    1    3    3  502    0 -0.62742985953E+03 -0.60230621001E+02  0.16429583380E+03  0.65137475953E+03  0.25500000920E-02 0.  1.
       -2    1    3    3    0  502  0.62742985953E+03  0.60230621001E+02 -0.10886955367E+04  0.12579959968E+04  0.25500000920E-02 0. -1.
</event>
<event>
 5   0  0.5074133E-04  0.1488385E+04  0.7818609E-02  0.8892214E-01
        1   -1    0    0  501    0  0.00000000000E+00  0.00000000000E+00  0.13754244358E+04  0.13754244358E+04  0.50400001928E-02 0.  1.
       -1   -1    0    0    0  501  0.00000000000E+00  0.00000000000E+00 -0.40265572493E+03  0.40265572496E+03  0.50400001928E-02 0. -1.
    10030    2    1    2    0    0  0.00000000000E+00  0.00000000000E+00  0.97276871090E+03  0.17780801608E+04  0.14883850622E+04 0.  0.
        1    1    3    3  502    0 -0.77017695987E+02  0.50176598228E+03  0.11364708568E+04  0.12446954787E+04  0.50400001928E-02 0.  1.
       -1    1    3    3    0  502  0.77017695987E+02 -0.50176598228E+03 -0.16370214587E+03  0.53338468206E+03  0.50400001928E-02 0. -1.
</event>
<event>
 5   0  0.5059689E-04  0.1735084E+04  0.7818609E-02  0.8741604E-01
        1   -1    0    0  501    0  0.00000000000E+00  0.00000000000E+00  0.64269604980E+03  0.64269604982E+03  0.50400001928E-02 0. -1.
       -1   -1    0    0    0  501  0.00000000000E+00  0.00000000000E+00 -0.11710494976E+04  0.11710494976E+04  0.50400001928E-02 0.  1.
    10030    2    1    2    0    0  0.00000000000E+00  0.00000000000E+00 -0.52835344778E+03  0.18137455474E+04  0.17350837285E+04 0.  0.
        5    1    3    3  502    0  0.40106778981E+02 -0.10244553664E+03 -0.11637144430E+04  0.11689127583E+04  0.46999998093E+01 0.  1.
       -5    1    3    3    0  502 -0.40106778981E+02  0.10244553664E+03  0.63536099521E+03  0.64483278912E+03  0.46999998093E+01 0. -1.
</event>
<event>
 5   0  0.9284971E-04  0.1689671E+04  0.7818609E-02  0.8767277E-01
        2   -1    0    0  501    0  0.00000000000E+00  0.00000000000E+00  0.28432862942E+03  0.28432862943E+03  0.25500000920E-02 0.  1.
       -2   -1    0    0    0  501  0.00000000000E+00  0.00000000000E+00 -0.25102896328E+04  0.25102896328E+04  0.25500000920E-02 0. -1.
    10030    2    1    2    0    0  0.00000000000E+00  0.00000000000E+00 -0.22259610034E+04  0.27946182622E+04  0.16896712233E+04 0.  0.
        4    1    3    3  502    0  0.38681657473E+03  0.46591976789E+03 -0.20873156424E+04  0.21733836514E+04  0.12699999809E+01 0. -1.
       -4    1    3    3    0  502 -0.38681657473E+03 -0.46591976789E+03 -0.13864536100E+03  0.62123461078E+03  0.12699999809E+01 0.  1.
</event>
<event>
 5   0  0.5009762E-04  0.1664917E+04  0.7818609E-02  0.8781630E-01
       -1   -1    0    0    0  501  0.00000000000E+00  0.00000000000E+00  0.22382485469E+04  0.22382485469E+04  0.50400001928E-02 0. -1.
        1   -1    0    0  501    0  0.00000000000E+00  0.00000000000E+00 -0.30961130731E+03  0.30961130735E+03  0.50400001928E-02 0.  1.
    10030    2    1    2    0    0  0.00000000000E+00  0.00000000000E+00  0.19286372396E+04  0.25478598543E+04  0.16649168853E+04 0.  0.
        3    1    3    3  502    0  0.58389282013E+03 -0.59306479486E+03  0.99213398464E+03  0.12949851466E+04  0.10100000352E+00 0.  1.
       -3    1    3    3    0  502 -0.58389282013E+03  0.59306479486E+03  0.93650325498E+03  0.12528747077E+04  0.10100000352E+00 0. -1.
</event>
<event>
 5   0  0.3523125E-04  0.1676517E+04  0.7818609E-02  0.8774872E-01
        3   -1    0    0  501    0  0.00000000000E+00  0.00000000000E+00  0.11101658132E+04  0.11101658177E+04  0.10100000352E+00 0. -1.
       -3   -1    0    0    0  501  0.00000000000E+00  0.00000000000E+00 -0.63294823978E+03  0.63294824784E+03  0.10100000352E+00 0.  1.
    10030    2    1    2    0    0  0.00000000000E+00  0.00000000000E+00  0.47721757337E+03  0.17431140656E+04  0.16765172332E+04 0.  0.
        1    1    3    3  502    0  0.34578822481E+03 -0.74582671562E+03  0.68238382717E+02  0.82491421557E+03  0.50400001928E-02 0. -1.
       -1    1    3    3    0  502 -0.34578822481E+03  0.74582671562E+03  0.40897919065E+03  0.91819985001E+03  0.50400001928E-02 0.  1.
</event>
<event>
 5   0  0.5074133E-04  0.1699604E+04  0.7818609E-02  0.8761590E-01
        1   -1    0    0  501    0  0.00000000000E+00  0.00000000000E+00  0.16274397908E+04  0.16274397908E+04  0.50400001928E-02 0.  1.
       -1   -1    0    0    0  501  0.00000000000E+00  0.00000000000E+00 -0.44374188281E+03  0.44374188284E+03  0.50400001928E-02 0. -1.
    10030    2    1    2    0    0  0.00000000000E+00  0.00000000000E+00  0.11836979080E+04  0.20711816737E+04  0.16996037150E+04 0.  0.
        1    1    3    3  502    0 -0.10551898242E+03 -0.21176261896E+03 -0.40279608794E+03  0.46714275219E+03  0.50400001928E-02 0. -1.
       -1    1    3    3    0  502  0.10551898242E+03  0.21176261896E+03  0.15864939960E+04  0.16040389215E+04  0.50400001928E-02 0.  1.
</event>
<event>
 5   0  0.4947006E-04  0.1691322E+04  0.7818609E-02  0.8766329E-01
        1   -1    0    0  501    0  0.00000000000E+00  0.00000000000E+00  0.75410358298E+03  0.75410358300E+03  0.50400001928E-02 0.  1.
       -1   -1    0    0    0  501  0.00000000000E+00  0.00000000000E+00 -0.94833485047E+03  0.94833485048E+03  0.50400001928E-02 0. -1.
    10030    2    1    2    0    0  0.00000000000E+00  0.00000000000E+00 -0.19423126749E+03  0.17024384335E+04  0.16913222149E+04 0.  0.
        2    1    3    3  502    0 -0.79563834130E+03 -0.20813180775E+03  0.10111396436E+03  0.82860319414E+03  0.25500000920E-02 0.  1.
       -2    1    3    3    0  502  0.79563834130E+03  0.20813180775E+03 -0.29534523185E+03  0.87383523934E+03  0.25500000920E-02 0. -1.
</event>
<event>
 5   0  0.5035495E-04  0.1797160E+04  0.7818609E-02  0.8707811E-01
       -1   -1    0    0    0  501  0.00000000000E+00  0.00000000000E+00  0.75531435803E+03  0.75531435804E+03  0.50400001928E-02 0.  1.
        1   -1    0    0  501    0  0.00000000000E+00  0.00000000000E+00 -0.10690198350E+04  0.10690198350E+04  0.50400001928E-02 0. -1.
    10030    2    1    2    0    0  0.00000000000E+00  0.00000000000E+00 -0.31370547699E+03  0.18243341931E+04  0.17971600156E+04 0.  0.
        4    1    3    3  502    0  0.28005449228E+03  0.80108951278E+03 -0.45673368504E+03  0.96373346838E+03  0.12699999809E+01 0.  1.
       -4    1    3    3    0  502 -0.28005449228E+03 -0.80108951278E+03  0.14302820805E+03  0.86060072469E+03  0.12699999809E+01 0. -1.
</event>
<event>
 5   0  0.3523125E-04  0.1101932E+04  0.7818609E-02  0.9203311E-01
       -3   -1    0    0    0  501  0.00000000000E+00  0.00000000000E+00  0.79306747079E+03  0.79306747722E+03  0.10100000352E+00 0. -1.
        3   -1    0    0  501    0  0.00000000000E+00  0.00000000000E+00 -0.38277146107E+03  0.38277147439E+03  0.10100000352E+00 0.  1.
    10030    2    1    2    0    0  0.00000000000E+00  0.00000000000E+00  0.41029600972E+03  0.11758389516E+04  0.11019321325E+04 0.  0.
        2    1    3    3  502    0  0.18227118253E+03  0.49415635842E+03  0.37770456021E+03  0.64813117913E+03  0.25500000920E-02 0. -1.
       -2    1    3    3    0  502 -0.18227118253E+03 -0.49415635842E+03  0.32591449512E+02  0.52770777248E+03  0.25500000920E-02 0.  1.
</event>
<event>
 5   0  0.9625225E-04  0.1696833E+04  0.7818609E-02  0.8763173E-01
       -2   -1    0    0    0  501  0.00000000000E+00  0.00000000000E+00  0.34205493306E+03  0.34205493307E+03  0.25500000920E-02 0. -1.
        2   -1    0    0  501    0  0.00000000000E+00  0.00000000000E+00 -0.21043715937E+04  0.21043715937E+04  0.25500000920E-02 0.  1.
    10030    2    1    2    0    0  0.00000000000E+00  0.00000000000E+00 -0.17623166607E+04  0.24464265268E+04  0.16968331499E+04 0.  0.
        1    1    3    3  502    0 -0.12319954520E+03  0.23039074912E+03  0.28261338551E+03  0.38487446124E+03  0.50400001928E-02 0. -1.
       -1    1    3    3    0  502  0.12319954520E+03 -0.23039074912E+03 -0.20449300462E+04  0.20615520655E+04  0.50400001928E-02 0.  1.
</event>
<event>
 5   0  0.4947006E-04  0.1690397E+04  0.7818609E-02  0.8766861E-01
        1   -1    0    0  501    0  0.00000000000E+00  0.00000000000E+00  0.15305005347E+04  0.15305005347E+04  0.50400001928E-02 0. -1.
       -1   -1    0    0    0  501  0.00000000000E+00  0.00000000000E+00 -0.46674940699E+03  0.46674940702E+03  0.50400001928E-02 0.  1.
    10030    2    1    2    0    0  0.00000000000E+00  0.00000000000E+00  0.10637511277E+04  0.19972499417E+04  0.16903966599E+04 0.  0.
        2    1    3    3  502    0 -0.49115467055E+03 -0.43693246742E+03 -0.95800586460E+02  0.66431968498E+03  0.25500000920E-02 0.  1.
       -2    1    3    3    0  502  0.49115467055E+03  0.43693246742E+03  0.11595517141E+04  0.13329302567E+04  0.25500000920E-02 0. -1.
</event>
<event>
 5   0  0.9312096E-04  0.1701912E+04  0.7818609E-02  0.8760275E-01
        2   -1    0    0  501    0  0.00000000000E+00  0.00000000000E+00  0.96101414575E+03  0.96101414575E+03  0.25500000920E-02 0.  1.
       -2   -1    0    0    0  501  0.00000000000E+00  0.00000000000E+00 -0.75350181169E+03  0.75350181169E+03  0.25500000920E-02 0. -1.
    10030    2    1    2    0    0  0.00000000000E+00  0.00000000000E+00  0.20751233406E+03  0.17145159574E+04  0.17019117485E+04 0.  0.
        3    1    3    3  502    0  0.61607899096E+02 -0.67752498124E+03  0.61870740042E+03  0.91958386837E+03  0.10100000352E+00 0.  1.
       -3    1    3    3    0  502 -0.61607899096E+02  0.67752498124E+03 -0.41119506636E+03  0.79493208907E+03  0.10100000352E+00 0. -1.
</event>
<event>
 5   0  0.5035495E-04  0.1717837E+04  0.7818609E-02  0.8751256E-01
        1   -1    0    0  501    0  0.00000000000E+00  0.00000000000E+00  0.20296862471E+04  0.20296862471E+04  0.50400001928E-02 0.  1.
       -1   -1    0    0    0  501  0.00000000000E+00  0.00000000000E+00 -0.36347534342E+03  0.36347534345E+03  0.50400001928E-02 0. -1.
    10030    2    1    2    0    0  0.00000000000E+00  0.00000000000E+00  0.16662109037E+04  0.23931615906E+04  0.17178369023E+04 0.  0.
        4    1    3    3  502    0  0.43938984919E+02 -0.58802079210E+03  0.17031566008E+04  0.18023437813E+04  0.12699999809E+01 0.  1.
       -4    1    3    3    0  502 -0.43938984919E+02  0.58802079210E+03 -0.36945697069E+02  0.59081780928E+03  0.12699999809E+01 0. -1.
</event>
<event>
 5   0  0.9625225E-04  0.1728860E+04  0.7818609E-02  0.8745073E-01
       -2   -1    0    0    0  501  0.00000000000E+00  0.00000000000E+00  0.83460861220E+03  0.83460861220E+03  0.25500000920E-02 0.  1.
        2   -1    0    0  501    0  0.00000000000E+00  0.00000000000E+00 -0.89531721891E+03  0.89531721891E+03  0.25500000920E-02 0. -1.
    10030    2    1    2    0    0  0.00000000000E+00  0.00000000000E+00 -0.60708606712E+02  0.17299258311E+04  0.17288602738E+04 0.  0.
        1    1    3    3  502    0 -0.66986973089E+03  0.33142449417E+03 -0.46498570079E+03  0.88021551546E+03  0.50400001928E-02 0. -1.
       -1    1    3    3    0  502  0.66986973089E+03 -0.33142449417E+03  0.40427709408E+03  0.84971031565E+03  0.50400001928E-02 0.  1.
</event>
<event>
 5   0  0.5009762E-04  0.1761524E+04  0.7818609E-02  0.8727032E-01
        1   -1    0    0  501    0  0.00000000000E+00  0.00000000000E+00  0.12963319625E+04  0.12963319625E+04  0.50400001928E-02 0. -1.
       -1   -1    0    0    0  501  0.00000000000E+00  0.00000000000E+00 -0.59841317896E+03  0.59841317898E+03  0.50400001928E-02 0.  1.
    10030    2    1    2    0    0  0.00000000000E+00  0.00000000000E+00  0.69791878357E+03  0.18947451415E+04  0.17615244883E+04 0.  0.
        3    1    3    3  502    0  0.50042358164E+03 -0.58581797978E+03  0.80800897973E+03  0.11164609210E+04  0.10100000352E+00 0. -1.
       -3    1    3    3    0  502 -0.50042358164E+03  0.58581797978E+03 -0.11009019615E+03  0.77828422057E+03  0.10100000352E+00 0.  1.
</event>
<event>
 5   0  0.9284971E-04  0.1751520E+04  0.7818609E-02  0.8732514E-01
        2   -1    0    0  501    0  0.00000000000E+00  0.00000000000E+00  0.15773076449E+04  0.15773076449E+04  0.25500000920E-02 0. -1.
       -2   -1    0    0    0  501  0.00000000000E+00  0.00000000000E+00 -0.48624338920E+03  0.48624338920E+03  0.25500000920E-02 0.  1.
    10030    2    1    2    0    0  0.00000000000E+00  0.00000000000E+00  0.10910642557E+04  0.20635510341E+04  0.17515198144E+04 0.  0.
        4    1    3    3  502    0 -0.46537952705E+03 -0.48138278692E+03  0.12105826004E+04  0.13834085937E+04  0.12699999809E+01 0. -1.
       -4    1    3    3    0  502  0.46537952705E+03  0.48138278692E+03 -0.11951834465E+03  0.68014244048E+03  0.12699999809E+01 0.  1.
</event>
<event>
 5   0  0.9284971E-04  0.1823155E+04  0.7818609E-02  0.8694082E-01
        2   -1    0    0  501    0  0.00000000000E+00  0.00000000000E+00  0.14189318546E+04  0.14189318546E+04  0.25500000920E-02 0.  1.
       -2   -1    0    0    0  501  0.00000000000E+00  0.00000000000E+00 -0.58563331064E+03  0.58563331065E+03  0.25500000920E-02 0. -1.
    10030    2    1    2    0    0  0.00000000000E+00  0.00000000000E+00  0.83329854396E+03  0.20045651652E+04  0.18231552425E+04 0.  0.
        4    1    3    3  502    0 -0.73630615860E+03 -0.51549039377E+03  0.24955717812E+03  0.93282233213E+03  0.12699999809E+01 0. -1.
       -4    1    3    3    0  502  0.73630615860E+03  0.51549039377E+03  0.58374136584E+03  0.10717428331E+04  0.12699999809E+01 0.  1.
</event>
<event>
 5   0  0.1007187E-03  0.1694973E+04  0.7818609E-02  0.8764237E-01
       -2   -1    0    0    0  501  0.00000000000E+00  0.00000000000E+00  0.56491330274E+03  0.56491330275E+03  0.25500000920E-02 0. -1.
        2   -1    0    0  501    0  0.00000000000E+00  0.00000000000E+00 -0.12714039987E+04  0.12714039987E+04  0.25500000920E-02 0.  1.
    10030    2    1    2    0    0  0.00000000000E+00  0.00000000000E+00 -0.70649069594E+03  0.18363173014E+04  0.16949726039E+04 0.  0.
        5    1    3    3  502    0 -0.74765173425E+03 -0.16219088846E+03  0.41742179303E+02  0.76619416571E+03  0.46999998093E+01 0. -1.
       -5    1    3    3    0  502  0.74765173425E+03  0.16219088846E+03 -0.74823287525E+03  0.10701231357E+04  0.46999998093E+01 0.  1.
</event>
<event>
 5   0  0.9610114E-04  0.1470221E+04  0.7818609E-02  0.8904501E-01
        2   -1    0    0  501    0  0.00000000000E+00  0.00000000000E+00  0.42126232744E+03  0.42126232744E+03  0.25500000920E-02 0.  1.
       -2   -1    0    0    0  501  0.00000000000E+00  0.00000000000E+00 -0.12827814548E+04  0.12827814548E+04  0.25500000920E-02 0. -1.
    10030    2    1    2    0    0  0.00000000000E+00  0.00000000000E+00 -0.86151912734E+03  0.17040437822E+04  0.14702210735E+04 0.  0.
        2    1    3    3  502    0 -0.64385703896E+03  0.49279125582E+02 -0.83792258079E+03  0.10578726626E+04  0.25500000920E-02 0. -1.
       -2    1    3    3    0  502  0.64385703896E+03 -0.49279125582E+02 -0.23596546550E+02  0.64617111964E+03  0.25500000920E-02 0.  1.
</event>
<event>
 5   0  0.9312096E-04  0.1568146E+04  0.7818609E-02  0.8840360E-01
        2   -1    0    0  501    0  0.00000000000E+00  0.00000000000E+00  0.60331398693E+03  0.60331398694E+03  0.25500000920E-02 0. -1.
       -2   -1    0    0    0  501  0.00000000000E+00  0.00000000000E+00 -0.10189894778E+04  0.10189894778E+04  0.25500000920E-02 0.  1.
    10030    2    1    2    0    0  0.00000000000E+00  0.00000000000E+00 -0.41567549088E+03  0.16223034648E+04  0.15681461724E+04 0.  0.
        3    1    3    3  502    0 -0.47888932115E+03  0.50566763646E+02 -0.84797943002E+03  0.97517234551E+03  0.10100000352E+00 0.  1.
       -3    1    3    3    0  502  0.47888932115E+03 -0.50566763646E+02  0.43230393914E+03  0.64713111925E+03  0.10100000352E+00 0. -1.
</event>
<event>
 5   0  0.9312096E-04  0.1687619E+04  0.7818609E-02  0.8768457E-01
        2   -1    0    0  501    0  0.00000000000E+00  0.00000000000E+00  0.55449115328E+03  0.55449115329E+03  0.25500000920E-02 0. -1.
       -2   -1    0    0    0  501  0.00000000000E+00  0.00000000000E+00 -0.12840869287E+04  0.12840869287E+04  0.25500000920E-02 0.  1.
    10030    2    1    2    0    0  0.00000000000E+00  0.00000000000E+00 -0.72959577547E+03  0.18385780820E+04  0.16876194382E+04 0.  0.
        3    1    3    3  502    0 -0.19976589020E+02 -0.15045403689E+03  0.53949822183E+03  0.56044073985E+03  0.10100000352E+00 0. -1.
       -3    1    3    3    0  502  0.19976589020E+02  0.15045403689E+03 -0.12690939973E+04  0.12781373422E+04  0.10100000352E+00 0.  1.
</event>
<event>
 5   0  0.9610114E-04  0.1435201E+04  0.7818609E-02  0.8928725E-01
        2   -1    0    0  501    0  0.00000000000E+00  0.00000000000E+00  0.17556882237E+04  0.17556882237E+04  0.25500000920E-02 0. -1.
       -2   -1    0    0    0  501  0.00000000000E+00  0.00000000000E+00 -0.29330422639E+03  0.29330422640E+03  0.25500000920E-02 0.  1.
    10030    2    1    2    0    0  0.00000000000E+00  0.00000000000E+00  0.14623839973E+04  0.20489924501E+04  0.14352014162E+04 0.  0.
        2    1    3    3  502    0  0.19329136928E+03  0.61012063021E+03  0.11945624810E+04  0.13552078283E+04  0.25500000920E-02 0. -1.
       -2    1    3    3    0  502 -0.19329136928E+03 -0.61012063021E+03  0.26782151631E+03  0.69378462180E+03  0.25500000920E-02 0.  1.
</event>
<event>
 5   0  0.3523125E-04  0.1678637E+04  0.7818609E-02  0.8773643E-01
        3   -1    0    0  501    0  0.00000000000E+00  0.00000000000E+00  0.94346539197E+03  0.94346539737E+03  0.10100000352E+00 0. -1.
       -3   -1    0    0    0  501  0.00000000000E+00  0.00000000000E+00 -0.74666813350E+03  0.74666814033E+03  0.10100000352E+00 0.  1.
    10030    2    1    2    0    0  0.00000000000E+00  0.00000000000E+00  0.19679725846E+03  0.16901335377E+04  0.16786370109E+04 0.  0.
        5    1    3    3  502    0  0.17848247898E+03  0.25122756277E+03  0.88442588523E+03  0.93659090325E+03  0.46999998093E+01 0. -1.
       -5    1    3    3    0  502 -0.17848247898E+03 -0.25122756277E+03 -0.68762862676E+03  0.75354263445E+03  0.46999998093E+01 0.  1.
</event>
<event>
 5   0  0.3523125E-04  0.1724344E+04  0.7818609E-02  0.8747601E-01
       -4   -1    0    0    0  501  0.00000000000E+00  0.00000000000E+00  0.67760095605E+03  0.67760214620E+03  0.12699999809E+01 0. -1.
        4   -1    0    0  501    0  0.00000000000E+00  0.00000000000E+00 -0.10970156696E+04  0.10970164047E+04  0.12699999809E+01 0.  1.
    10030    2    1    2    0    0  0.00000000000E+00  0.00000000000E+00 -0.41941471353E+03  0.17746185509E+04  0.17243440200E+04 0.  0.
        2    1    3    3  502    0 -0.54309778618E+02 -0.77132277127E+03  0.18279408554E+03  0.79454518263E+03  0.25500000920E-02 0. -1.
       -2    1    3    3    0  502  0.54309778618E+02  0.77132277127E+03 -0.60220879907E+03  0.98007336828E+03  0.25500000920E-02 0.  1.
</event>
<event>
 5   0  0.9312096E-04  0.1028095E+04  0.7818609E-02  0.9278256E-01
       -2   -1    0    0    0  501  0.00000000000E+00  0.00000000000E+00  0.87817569928E+02  0.87817569965E+02  0.25500000920E-02 0. -1.
        2   -1    0    0  501    0  0.00000000000E+00  0.00000000000E+00 -0.30090222014E+04  0.30090222014E+04  0.25500000920E-02 0.  1.
    10030    2    1    2    0    0  0.00000000000E+00  0.00000000000E+00 -0.29212046315E+04  0.30968397714E+04  0.10280953607E+04 0.  0.
        3    1    3    3  502    0  0.20875674732E+03 -0.36242209048E+03 -0.56038032155E+03  0.69925336339E+03  0.10100000352E+00 0. -1.
       -3    1    3    3    0  502 -0.20875674732E+03  0.36242209048E+03 -0.23608243099E+04  0.23975864080E+04  0.10100000352E+00 0.  1.
</event>
<event>
 5   0  0.5035495E-04  0.1703197E+04  0.7818609E-02  0.8759543E-01
        1   -1    0    0  501    0  0.00000000000E+00  0.00000000000E+00  0.89187649056E+03  0.89187649058E+03  0.50400001928E-02 0. -1.
       -1   -1    0    0    0  501  0.00000000000E+00  0.00000000000E+00 -0.81313983822E+03  0.81313983823E+03  0.50400001928E-02 0.  1.
    10030    2    1    2    0    0  0.00000000000E+00  0.00000000000E+00  0.78736652344E+02  0.17050163288E+04  0.17031973524E+04 0.  0.
        4    1    3    3  502    0 -0.32182072823E+03 -0.63429901791E+03 -0.42944247145E+03  0.83085875720E+03  0.12699999809E+01 0.  1.
       -4    1    3    3    0  502  0.32182072823E+03  0.63429901791E+03  0.50817912379E+03  0.87415757161E+03  0.12699999809E+01 0. -1.
</event>
<event>
 5   0  0.9625225E-04  0.1703687E+04  0.7818609E-02  0.8759265E-01
       -2   -1    0    0    0  501  0.00000000000E+00  0.00000000000E+00  0.10376643566E+04  0.10376643566E+04  0.25500000920E-02 0.  1.
        2   -1    0    0  501    0  0.00000000000E+00  0.00000000000E+00 -0.69929843098E+03  0.69929843098E+03  0.25500000920E-02 0. -1.
    10030    2    1    2    0    0  0.00000000000E+00  0.00000000000E+00  0.33836592566E+03  0.17369627876E+04  0.17036866572E+04 0.  0.
        1    1    3    3  502    0 -0.18365327972E+03 -0.80359546380E+03  0.38818746661E+03  0.91114417402E+03  0.50400001928E-02 0.  1.
       -1    1    3    3    0  502  0.18365327972E+03  0.80359546380E+03 -0.49821540948E+02  0.82581861360E+03  0.50400001928E-02 0. -1.
</event>
<event>
 5   0  0.9610114E-04  0.1651218E+04  0.7818609E-02  0.8789686E-01
       -2   -1    0    0    0  501  0.00000000000E+00  0.00000000000E+00  0.48714111351E+03  0.48714111352E+03  0.25500000920E-02 0. -1.
        2   -1    0    0  501    0  0.00000000000E+00  0.00000000000E+00 -0.13992462986E+04  0.13992462986E+04  0.25500000920E-02 0.  1.
    10030    2    1    2    0    0  0.00000000000E+00  0.00000000000E+00 -0.91210518508E+03  0.18863874121E+04  0.16512182169E+04 0.  0.
        2    1    3    3  502    0  0.59134109752E+03 -0.24901127929E+03  0.13750057810E+03  0.65619914646E+03  0.25500000920E-02 0. -1.
       -2    1    3    3    0  502 -0.59134109752E+03  0.24901127929E+03 -0.10496057632E+04  0.12301882657E+04  0.25500000920E-02 0.  1.
</event>
<event>
 5   0  0.4947006E-04  0.1700150E+04  0.7818609E-02  0.8761279E-01
        1   -1    0    0  501    0  0.00000000000E+00  0.00000000000E+00  0.76319909133E+03  0.76319909135E+03  0.50400001928E-02 0. -1.
       -1   -1    0    0    0  501  0.00000000000E+00  0.00000000000E+00 -0.94684003140E+03  0.94684003141E+03  0.50400001928E-02 0.  1.
    10030    2    1    2    0    0  0.00000000000E+00  0.00000000000E+00 -0.18364094007E+03  0.17100391228E+04  0.17001499365E+04 0.  0.
        2    1    3    3  502    0 -0.47071293260E+03 -0.10229746617E+03 -0.79631732803E+03  0.93067541250E+03  0.25500000920E-02 0.  1.
       -2    1    3    3    0  502  0.47071293260E+03  0.10229746617E+03  0.61267638796E+03  0.77936371026E+03  0.25500000920E-02 0. -1.
</event>
<event>
 5   0  0.1007187E-03  0.1748554E+04  0.7818609E-02  0.8734147E-01
        2   -1    0    0  501    0  0.00000000000E+00  0.00000000000E+00  0.14059683497E+04  0.14059683497E+04  0.25500000920E-02 0.  1.
       -2   -1    0    0    0  501  0.00000000000E+00  0.00000000000E+00 -0.54365391173E+03  0.54365391174E+03  0.25500000920E-02 0. -1.
    10030    2    1    2    0    0  0.00000000000E+00  0.00000000000E+00  0.86231443793E+03  0.19496222614E+04  0.17485539089E+04 0.  0.
        5    1    3    3  502    0  0.55296986293E+03  0.54246785301E+03 -0.20780321220E+02  0.77491996529E+03  0.46999998093E+01 0. -1.
       -5    1    3    3    0  502 -0.55296986293E+03 -0.54246785301E+03  0.88309475915E+03  0.11747022961E+04  0.46999998093E+01 0.  1.
</event>
<event>
 5   0  0.5009762E-04  0.1694196E+04  0.7818609E-02  0.8764682E-01
        1   -1    0    0  501    0  0.00000000000E+00  0.00000000000E+00  0.66222377449E+03  0.66222377451E+03  0.50400001928E-02 0.  1.
       -1   -1    0    0    0  501  0.00000000000E+00  0.00000000000E+00 -0.10835838793E+04  0.10835838794E+04  0.50400001928E-02 0. -1.
    10030    2    1    2    0    0  0.00000000000E+00  0.00000000000E+00 -0.42136010485E+03  0.17458076539E+04  0.16941959823E+04 0.  0.
        3    1    3    3  502    0  0.74562054600E+03  0.27383681406E+03 -0.51399090506E+03  0.94610953914E+03  0.10100000352E+00 0.  1.
       -3    1    3    3    0  502 -0.74562054600E+03 -0.27383681406E+03  0.92630800212E+02  0.79969811473E+03  0.10100000352E+00 0. -1.
</event>
<event>
 5   0  0.5009762E-04  0.1678646E+04  0.7818609E-02  0.8773638E-01
        1   -1    0    0  501    0  0.00000000000E+00  0.00000000000E+00  0.82417627651E+03  0.82417627652E+03  0.50400001928E-02 0. -1.
       -1   -1    0    0    0  501  0.00000000000E+00  0.00000000000E+00 -0.85474846860E+03  0.85474846861E+03  0.50400001928E-02 0.  1.
    10030    2    1    2    0    0  0.00000000000E+00  0.00000000000E+00 -0.30572192090E+02  0.16789247451E+04  0.16786463716E+04 0.  0.
        3    1    3    3  502    0  0.81911342812E+03 -0.13721780214E+03  0.10592751096E+03  0.83725514697E+03  0.10100000352E+00 0. -1.
       -3    1    3    3    0  502 -0.81911342812E+03  0.13721780214E+03 -0.13649970305E+03  0.84166959817E+03  0.10100000352E+00 0.  1.
</event>
<event>
 5   0  0.5035495E-04  0.1186791E+04  0.7818609E-02  0.9124498E-01
       -1   -1    0    0    0  501  0.00000000000E+00  0.00000000000E+00  0.44957835382E+03  0.44957835385E+03  0.50400001928E-02 0. -1.
        1   -1    0    0  501    0  0.00000000000E+00  0.00000000000E+00 -0.78321862269E+03  0.78321862271E+03  0.50400001928E-02 0.  1.
    10030    2    1    2    0    0  0.00000000000E+00  0.00000000000E+00 -0.33364026887E+03  0.12327969766E+04  0.11867908646E+04 0.  0.
        4    1    3    3  502    0 -0.17637612670E+03  0.24683885252E+03 -0.69656852922E+03  0.75976791587E+03  0.12699999809E+01 0.  1.
       -4    1    3    3    0  502  0.17637612670E+03 -0.24683885252E+03  0.36292826036E+03  0.47302906068E+03  0.12699999809E+01 0. -1.
</event>
<event>
 5   0  0.9284971E-04  0.1185650E+04  0.7818609E-02  0.9125511E-01
       -2   -1    0    0    0  501  0.00000000000E+00  0.00000000000E+00  0.26740689335E+03  0.26740689336E+03  0.25500000920E-02 0.  1.
        2   -1    0    0  501    0  0.00000000000E+00  0.00000000000E+00 -0.13142563506E+04  0.13142563506E+04  0.25500000920E-02 0. -1.
    10030    2    1    2    0    0  0.00000000000E+00  0.00000000000E+00 -0.10468494573E+04  0.15816632440E+04  0.11856495398E+04 0.  0.
        4    1    3    3  502    0 -0.26784098665E+03 -0.27729879545E+02  0.18111703526E+03  0.32451923473E+03  0.12699999809E+01 0.  1.
       -4    1    3    3    0  502  0.26784098665E+03  0.27729879545E+02 -0.12279664925E+04  0.12571440093E+04  0.12699999809E+01 0. -1.
</event>
<event>
 5   0  0.9610114E-04  0.1686217E+04  0.7818609E-02  0.8769265E-01
       -2   -1    0    0    0  501  0.00000000000E+00  0.00000000000E+00  0.10970988652E+04  0.10970988652E+04  0.25500000920E-02 0. -1.
        2   -1    0    0  501    0  0.00000000000E+00  0.00000000000E+00 -0.64791965824E+03  0.64791965824E+03  0.25500000920E-02 0.  1.
    10030    2    1    2    0    0  0.00000000000E+00  0.00000000000E+00  0.44917920694E+03  0.17450185234E+04  0.16862169751E+04 0.  0.
        2    1    3    3  502    0  0.77463273727E+03 -0.33269401300E+03  0.21473178499E+03  0.86997179461E+03  0.25500000920E-02 0.  1.
       -2    1    3    3    0  502 -0.77463273727E+03  0.33269401300E+03  0.23444742196E+03  0.87504672881E+03  0.25500000920E-02 0. -1.
</event>
<event>
 5   0  0.9284971E-04  0.1701848E+04  0.7818609E-02  0.8760311E-01
       -2   -1    0    0    0  501  0.00000000000E+00  0.00000000000E+00  0.54336915749E+03  0.54336915749E+03  0.25500000920E-02 0.  1.
        2   -1    0    0  501    0  0.00000000000E+00  0.00000000000E+00 -0.13325595068E+04  0.13325595068E+04  0.25500000920E-02 0. -1.
    10030    2    1    2    0    0  0.00000000000E+00  0.00000000000E+00 -0.78919034927E+03  0.18759286642E+04  0.17018480972E+04 0.  0.
        4    1    3    3  502    0 -0.34738565589E+03  0.70432076791E+03 -0.33478818589E+02  0.78604515279E+03  0.12699999809E+01 0.  1.
       -4    1    3    3    0  502  0.34738565589E+03 -0.70432076791E+03 -0.75571153068E+03  0.10898835115E+04  0.12699999809E+01 0. -1.
</event>
<event>
 5   0  0.9625225E-04  0.1712640E+04  0.7818609E-02  0.8754188E-01
       -2   -1    0    0    0  501  0.00000000000E+00  0.00000000000E+00  0.16164521718E+04  0.16164521718E+04  0.25500000920E-02 0.  1.
        2   -1    0    0  501    0  0.00000000000E+00  0.00000000000E+00 -0.45363762963E+03  0.45363762964E+03  0.25500000920E-02 0. -1.
    10030    2    1    2    0    0  0.00000000000E+00  0.00000000000E+00  0.11628145422E+04  0.20700898015E+04  0.17126395203E+04 0.  0.
        1    1    3    3  502    0 -0.40869577528E+03 -0.59513833680E+03  0.11380214915E+04  0.13477072352E+04  0.50400001928E-02 0.  1.
       -1    1    3    3    0  502  0.40869577528E+03  0.59513833680E+03  0.24793050689E+02  0.72238256627E+03  0.50400001928E-02 0. -1.
</event>
<event>
 5   0  0.9312096E-04  0.9652783E+03  0.7818609E-02  0.9347469E-01
        2   -1    0    0  501    0  0.00000000000E+00  0.00000000000E+00  0.23088495891E+04  0.23088495891E+04  0.25500000920E-02 0. -1.
       -2   -1    0    0    0  501  0.00000000000E+00  0.00000000000E+00 -0.10089031965E+03  0.10089031968E+03  0.25500000920E-02 0.  1.
    10030    2    1    2    0    0  0.00000000000E+00  0.00000000000E+00  0.22079592695E+04  0.24097399088E+04  0.96527834973E+03 0.  0.
        3    1    3    3  502    0  0.20792821551E+03 -0.43554140717E+03  0.10960448080E+04  0.11975995539E+04  0.10100000352E+00 0.  1.
       -3    1    3    3    0  502 -0.20792821551E+03  0.43554140717E+03  0.11119144615E+04  0.12121403549E+04  0.10100000352E+00 0. -1.
</event>
<event>
 5   0  0.5074133E-04  0.1712230E+04  0.7818609E-02  0.8754420E-01
        1   -1    0    0  501    0  0.00000000000E+00  0.00000000000E+00  0.75038399939E+03  0.75038399940E+03  0.50400001928E-02 0.  1.
       -1   -1    0    0    0  501  0.00000000000E+00  0.00000000000E+00 -0.97674354263E+03  0.97674354264E+03  0.50400001928E-02 0. -1.
    10030    2    1    2    0    0  0.00000000000E+00  0.00000000000E+00 -0.22635954324E+03  0.17271275420E+04  0.17122298046E+04 0.  0.
        1    1    3    3  502    0 -0.65403227123E+03 -0.51571328174E+03  0.86569281796E+02  0.83738440477E+03  0.50400001928E-02 0.  1.
       -1    1    3    3    0  502  0.65403227123E+03  0.51571328174E+03 -0.31292882504E+03  0.88974313728E+03  0.50400001928E-02 0. -1.
</event>
<event>
 5   0  0.9610114E-04  0.1699423E+04  0.7818609E-02  0.8761693E-01
        2   -1    0    0  501    0  0.00000000000E+00  0.00000000000E+00  0.39385955792E+03  0.39385955793E+03  0.25500000920E-02 0.  1.
       -2   -1    0    0    0  501  0.00000000000E+00  0.00000000000E+00 -0.18331654328E+04  0.18331654328E+04  0.25500000920E-02 0. -1.
    10030    2    1    2    0    0  0.00000000000E+00  0.00000000000E+00 -0.14393058749E+04  0.22270249907E+04  0.16994231103E+04 0.  0.
        2    1    3    3  502    0  0.53324650336E+03  0.50924861914E+01  0.14726519375E+03  0.55323123923E+03  0.25500000920E-02 0.  1.
       -2    1    3    3    0  502 -0.53324650336E+03 -0.50924861914E+01 -0.15865710686E+04  0.16737937515E+04  0.25500000920E-02 0. -1.
</event>
<event>
 5   0  0.4947006E-04  0.1652028E+04  0.7818609E-02  0.8789208E-01
       -1   -1    0    0    0  501  0.00000000000E+00  0.00000000000E+00  0.68755573169E+03  0.68755573171E+03  0.50400001928E-02 0.  1.
        1   -1    0    0  501    0  0.00000000000E+00  0.00000000000E+00 -0.99235479737E+03  0.99235479738E+03  0.50400001928E-02 0. -1.
    10030    2    1    2    0    0  0.00000000000E+00  0.00000000000E+00 -0.30479906568E+03  0.16799105291E+04  0.16520281218E+04 0.  0.
        2    1    3    3  502    0 -0.29524332018E+02 -0.34619607549E+03 -0.91443101897E+03  0.97821648797E+03  0.25500000920E-02 0. -1.
       -2    1    3    3    0  502  0.29524332018E+02  0.34619607549E+03  0.60963195329E+03  0.70169404113E+03  0.25500000920E-02 0.  1.
</event>
<event>
 5   0  0.9284971E-04  0.1701674E+04  0.7818609E-02  0.8760410E-01
        2   -1    0    0  501    0  0.00000000000E+00  0.00000000000E+00  0.18335804940E+04  0.18335804940E+04  0.25500000920E-02 0.  1.
       -2   -1    0    0    0  501  0.00000000000E+00  0.00000000000E+00 -0.39481403344E+03  0.39481403345E+03  0.25500000920E-02 0. -1.
    10030    2    1    2    0    0  0.00000000000E+00  0.00000000000E+00  0.14387664605E+04  0.22283945274E+04  0.17016736591E+04 0.  0.
        4    1    3    3  502    0 -0.51304308698E+03  0.56682608392E+03  0.12083430515E+04  0.14298949477E+04  0.12699999809E+01 0.  1.
       -4    1    3    3    0  502  0.51304308698E+03 -0.56682608392E+03  0.23042340909E+03  0.79849957975E+03  0.12699999809E+01 0. -1.
</event>
<event>
 5   0  0.9284971E-04  0.1715406E+04  0.7818609E-02  0.8752626E-01
       -2   -1    0    0    0  501  0.00000000000E+00  0.00000000000E+00  0.84424200016E+03  0.84424200017E+03  0.25500000920E-02 0. -1.
        2   -1    0    0  501    0  0.00000000000E+00  0.00000000000E+00 -0.87137911440E+03  0.87137911440E+03  0.25500000920E-02 0.  1.
    10030    2    1    2    0    0  0.00000000000E+00  0.00000000000E+00 -0.27137114234E+02  0.17156211146E+04  0.17154064783E+04 0.  0.
        4    1    3    3  502    0  0.26985134595E+03  0.44161868782E+02  0.79948040039E+03  0.84495002401E+03  0.12699999809E+01 0. -1.
       -4    1    3    3    0  502 -0.26985134595E+03 -0.44161868782E+02 -0.82661751462E+03  0.87067109056E+03  0.12699999809E+01 0.  1.
</event>
<event>
 5   0  0.5074133E-04  0.1695093E+04  0.7818609E-02  0.8764168E-01
        1   -1    0    0  501    0  0.00000000000E+00  0.00000000000E+00  0.11995241423E+04  0.11995241423E+04  0.50400001928E-02 0. -1.
       -1   -1    0    0    0  501  0.00000000000E+00  0.00000000000E+00 -0.59884976397E+03  0.59884976399E+03  0.50400001928E-02 0.  1.
    10030    2    1    2    0    0  0.00000000000E+00  0.00000000000E+00  0.60067437831E+03  0.17983739063E+04  0.16950926223E+04 0.  0.
        1    1    3    3  502    0 -0.62236396727E+03 -0.53046227032E+02  0.90811553222E+03  0.11021908319E+04  0.50400001928E-02 0. -1.
       -1    1    3    3    0  502  0.62236396727E+03  0.53046227032E+02 -0.30744115391E+03  0.69618307442E+03  0.50400001928E-02 0.  1.
</event>
<event>
 5   0  0.5009762E-04  0.1706577E+04  0.7818609E-02  0.8757622E-01
       -1   -1    0    0    0  501  0.00000000000E+00  0.00000000000E+00  0.50938683291E+03  0.50938683294E+03  0.50400001928E-02 0.  1.
        1   -1    0    0  501    0  0.00000000000E+00  0.00000000000E+00 -0.14293688019E+04  0.14293688019E+04  0.50400001928E-02 0. -1.
    10030    2    1    2    0    0  0.00000000000E+00  0.00000000000E+00 -0.91998196903E+03  0.19387556349E+04  0.17065774487E+04 0.  0.
        3    1    3    3  502    0  0.36922129401E+03 -0.70113081830E+03 -0.10039450377E+03  0.79874141930E+03  0.10100000352E+00 0.  1.
       -3    1    3    3    0  502 -0.36922129401E+03  0.70113081830E+03 -0.81958746525E+03  0.11400142156E+04  0.10100000352E+00 0. -1.
</event>
<event>
 5   0  0.9312096E-04  0.1164253E+04  0.7818609E-02  0.9144735E-01
       -2   -1    0    0    0  501  0.00000000000E+00  0.00000000000E+00  0.24845123105E+03  0.24845123106E+03  0.25500000920E-02 0. -1.
        2   -1    0    0  501    0  0.00000000000E+00  0.00000000000E+00 -0.13639342282E+04  0.13639342282E+04  0.25500000920E-02 0.  1.
    10030    2    1    2    0    0  0.00000000000E+00  0.00000000000E+00 -0.11154829971E+04  0.16123854592E+04  0.11642527871E+04 0.  0.
        3    1    3    3  502    0 -0.50614594272E+03  0.21601900994E+03 -0.82059437303E+03  0.98804001094E+03  0.10100000352E+00 0. -1.
       -3    1    3    3    0  502  0.50614594272E+03 -0.21601900994E+03 -0.29488862411E+03  0.62434544830E+03  0.10100000352E+00 0.  1.
</event>
<event>
 5   0  0.5059689E-04  0.1433395E+04  0.7818609E-02  0.8929994E-01
       -1   -1    0    0    0  501  0.00000000000E+00  0.00000000000E+00  0.68394151465E+03  0.68394151467E+03  0.50400001928E-02 0.  1.
        1   -1    0    0  501    0  0.00000000000E+00  0.00000000000E+00 -0.75102209573E+03  0.75102209575E+03  0.50400001928E-02 0. -1.
    10030    2    1    2    0    0  0.00000000000E+00  0.00000000000E+00 -0.67080581078E+02  0.14349636104E+04  0.14333948370E+04 0.  0.
        5    1    3    3  502    0 -0.33453754587E+03 -0.23096745946E+03 -0.62441652826E+03  0.74510363553E+03  0.46999998093E+01 0. -1.
       -5    1    3    3    0  502  0.33453754587E+03  0.23096745946E+03  0.55733594718E+03  0.68985997488E+03  0.46999998093E+01 0.  1.
</event>
<event>
 5   0  0.5035495E-04  0.1341152E+04  0.7818609E-02  0.8997553E-01
        1   -1    0    0  501    0  0.00000000000E+00  0.00000000000E+00  0.33380379036E+03  0.33380379040E+03  0.50400001928E-02 0. -1.
       -1   -1    0    0    0  501  0.00000000000E+00  0.00000000000E+00 -0.13471144689E+04  0.13471144689E+04  0.50400001928E-02 0.  1.
    10030    2    1    2    0    0  0.00000000000E+00  0.00000000000E+00 -0.10133106785E+04  0.16809182593E+04  0.13411516183E+04 0.  0.
        4    1    3    3  502    0 -0.28643951998E+03 -0.31393394453E+03 -0.11567848644E+04  0.12323777650E+04  0.12699999809E+01 0.  1.
       -4    1    3    3    0  502  0.28643951998E+03  0.31393394453E+03  0.14347418588E+03  0.44854049433E+03  0.12699999809E+01 0. -1.
</event>
<event>
 5   0  0.9284971E-04  0.1654619E+04  0.7818609E-02  0.8787678E-01
        2   -1    0    0  501    0  0.00000000000E+00  0.00000000000E+00  0.14068889544E+04  0.14068889545E+04  0.25500000920E-02 0.  1.
       -2   -1    0    0    0  501  0.00000000000E+00  0.00000000000E+00 -0.48649283556E+03  0.48649283557E+03  0.25500000920E-02 0. -1.
    10030    2    1    2    0    0  0.00000000000E+00  0.00000000000E+00  0.92039611889E+03  0.18933817900E+04  0.16546194690E+04 0.  0.
        4    1    3    3  502    0  0.33903937483E+03  0.22097395151E+03  0.12858904015E+04  0.13480700733E+04  0.12699999809E+01 0.  1.
       -4    1    3    3    0  502 -0.33903937483E+03 -0.22097395151E+03 -0.36549428258E+03  0.54531171676E+03  0.12699999809E+01 0. -1.
</event>
<event>
 5   0  0.9625225E-04  0.1690607E+04  0.7818609E-02  0.8766740E-01
       -2   -1    0    0    0  501  0.00000000000E+00  0.00000000000E+00  0.17262956713E+04  0.17262956713E+04  0.25500000920E-02 0. -1.
        2   -1    0    0  501    0  0.00000000000E+00  0.00000000000E+00 -0.41391400247E+03  0.41391400248E+03  0.25500000920E-02 0.  1.
    10030    2    1    2    0    0  0.00000000000E+00  0.00000000000E+00  0.13123816688E+04  0.21402096737E+04  0.16906069333E+04 0.  0.
        1    1    3    3  502    0  0.79468238993E+03  0.20463321106E+03  0.39941025393E+03  0.91264637341E+03  0.50400001928E-02 0. -1.
       -1    1    3    3    0  502 -0.79468238993E+03 -0.20463321106E+03  0.91297141487E+03  0.12275633003E+04  0.50400001928E-02 0.  1.
</event>
<event>
 5   0  0.4947006E-04  0.1711731E+04  0.7818609E-02  0.8754702E-01
        1   -1    0    0  501    0  0.00000000000E+00  0.00000000000E+00  0.69898667810E+03  0.69898667811E+03  0.50400001928E-02 0. -1.
       -1   -1    0    0    0  501  0.00000000000E+00  0.00000000000E+00 -0.10479543565E+04  0.10479543565E+04  0.50400001928E-02 0.  1.
    10030    2    1    2    0    0  0.00000000000E+00  0.00000000000E+00 -0.34896767836E+03  0.17469410346E+04  0.17117314444E+04 0.  0.
        2    1    3    3  502    0  0.25911367679E+03  0.31076769190E+03  0.59521081645E+03  0.71971686923E+03  0.25500000920E-02 0. -1.
       -2    1    3    3    0  502 -0.25911367679E+03 -0.31076769190E+03 -0.94417849481E+03  0.10272241654E+04  0.25500000920E-02 0.  1.
</event>
<event>
 5   0  0.9610114E-04  0.1621216E+04  0.7818609E-02  0.8807619E-01
        2   -1    0    0  501    0  0.00000000000E+00  0.00000000000E+00  0.11103132988E+04  0.11103132988E+04  0.25500000920E-02 0. -1.
       -2   -1    0    0    0  501  0.00000000000E+00  0.00000000000E+00 -0.59180147915E+03  0.59180147915E+03  0.25500000920E-02 0.  1.
    10030    2    1    2    0    0  0.00000000000E+00  0.00000000000E+00  0.51851181964E+03  0.17021147779E+04  0.16212156581E+04 0.  0.
        2    1    3    3  502    0  0.72244242962E+03  0.28614305638E+03  0.50160814631E+03  0.92488466593E+03  0.25500000920E-02 0. -1.
       -2    1    3    3    0  502 -0.72244242962E+03 -0.28614305638E+03  0.16903673333E+02  0.77723011201E+03  0.25500000920E-02 0.  1.
</event>
<event>
 5   0  0.9625225E-04  0.1184357E+04  0.7818609E-02  0.9126660E-01
        2   -1    0    0  501    0  0.00000000000E+00  0.00000000000E+00  0.13744787166E+04  0.13744787166E+04  0.25500000920E-02 0.  1.
       -2   -1    0    0    0  501  0.00000000000E+00  0.00000000000E+00 -0.25513335882E+03  0.25513335883E+03  0.25500000920E-02 0. -1.
    10030    2    1    2    0    0  0.00000000000E+00  0.00000000000E+00  0.11193453578E+04  0.16296120755E+04  0.11843569928E+04 0.  0.
        1    1    3    3  502    0  0.17765384025E+03  0.51181285218E+03  0.23070316634E+03  0.58884398070E+03  0.50400001928E-02 0. -1.
       -1    1    3    3    0  502 -0.17765384025E+03 -0.51181285218E+03  0.88864219148E+03  0.10407680948E+04  0.50400001928E-02 0.  1.
</event>
<event>
 5   0  0.9312096E-04  0.1972985E+04  0.7818609E-02  0.8619356E-01
       -2   -1    0    0    0  501  0.00000000000E+00  0.00000000000E+00  0.66878413576E+03  0.66878413576E+03  0.25500000920E-02 0. -1.
        2   -1    0    0  501    0  0.00000000000E+00  0.00000000000E+00 -0.14551287041E+04  0.14551287041E+04  0.25500000920E-02 0.  1.
    10030    2    1    2    0    0  0.00000000000E+00  0.00000000000E+00 -0.78634456831E+03  0.21239128398E+04  0.19729845339E+04 0.  0.
        3    1    3    3  502    0 -0.56509270634E+03  0.76361686788E+03 -0.10688366928E+03  0.95596266487E+03  0.10100000352E+00 0. -1.
       -3    1    3    3    0  502  0.56509270634E+03 -0.76361686788E+03 -0.67946089903E+03  0.11679501750E+04  0.10100000352E+00 0.  1.
</event>
<event>
 5   0  0.9610114E-04  0.1642979E+04  0.7818609E-02  0.8794571E-01
        2   -1    0    0  501    0  0.00000000000E+00  0.00000000000E+00  0.15440024321E+04  0.15440024321E+04  0.25500000920E-02 0. -1.
       -2   -1    0    0    0  501  0.00000000000E+00  0.00000000000E+00 -0.43707531178E+03  0.43707531179E+03  0.25500000920E-02 0.  1.
    10030    2    1    2    0    0  0.00000000000E+00  0.00000000000E+00  0.11069271204E+04  0.19810777439E+04  0.16429794210E+04 0.  0.
        2    1    3    3  502    0 -0.17689181551E+03 -0.56084930412E+03  0.12450860682E+04  0.13769829242E+04  0.25500000920E-02 0. -1.
       -2    1    3    3    0  502  0.17689181551E+03  0.56084930412E+03 -0.13815894785E+03  0.60409481971E+03  0.25500000920E-02 0.  1.
</event>
<event>
 5   0  0.5059689E-04  0.1699049E+04  0.7818609E-02  0.8761907E-01
       -1   -1    0    0    0  501  0.00000000000E+00  0.00000000000E+00  0.28010521714E+03  0.28010521719E+03  0.50400001928E-02 0.  1.
        1   -1    0    0  501    0  0.00000000000E+00  0.00000000000E+00 -0.25765030362E+04  0.25765030362E+04  0.50400001928E-02 0. -1.
    10030    2    1    2    0    0  0.00000000000E+00  0.00000000000E+00 -0.22963978191E+04  0.28566082534E+04  0.16990490782E+04 0.  0.
        5    1    3    3  502    0 -0.22108913829E+02 -0.39339526716E+02  0.27806677624E+03  0.28174389874E+03  0.46999998093E+01 0.  1.
       -5    1    3    3    0  502  0.22108913829E+02  0.39339526716E+02 -0.25744645953E+04  0.25748643547E+04  0.46999998093E+01 0. -1.
</event>
<event>
 5   0  0.9284971E-04  0.1707004E+04  0.7818609E-02  0.8757380E-01
       -2   -1    0    0    0  501  0.00000000000E+00  0.00000000000E+00  0.69831251265E+03  0.69831251265E+03  0.25500000920E-02 0. -1.
        2   -1    0    0  501    0  0.00000000000E+00  0.00000000000E+00 -0.10431802458E+04  0.10431802458E+04  0.25500000920E-02 0.  1.
    10030    2    1    2    0    0  0.00000000000E+00  0.00000000000E+00 -0.34486773311E+03  0.17414927584E+04  0.17070041811E+04 0.  0.
        4    1    3    3  502    0  0.50321943510E+03  0.61025347823E+03  0.15470839699E+03  0.80596241138E+03  0.12699999809E+01 0. -1.
       -4    1    3    3    0  502 -0.50321943510E+03 -0.61025347823E+03 -0.49957613010E+03  0.93553034703E+03  0.12699999809E+01 0.  1.
</event>
<event>
 5   0  0.5009762E-04  0.1639060E+04  0.7818609E-02  0.8796905E-01
        1   -1    0    0  501    0  0.00000000000E+00  0.00000000000E+00  0.48021772105E+03  0.48021772108E+03  0.50400001928E-02 0. -1.
       -1   -1    0    0    0  501  0.00000000000E+00  0.00000000000E+00 -0.13985936863E+04  0.13985936863E+04  0.50400001928E-02 0.  1.
    10030    2    1    2    0    0  0.00000000000E+00  0.00000000000E+00 -0.91837596524E+03  0.18788114074E+04  0.16390600633E+04 0.  0.
        3    1    3    3  502    0 -0.23261484623E+03  0.50180428488E+03  0.23401125599E+03  0.60056513813E+03  0.10100000352E+00 0. -1.
       -3    1    3    3    0  502  0.23261484623E+03 -0.50180428488E+03 -0.11523872212E+04  0.12782462693E+04  0.10100000352E+00 0.  1.
</event>
<event>
 5   0  0.5074133E-04  0.1698221E+04  0.7818609E-02  0.8762379E-01
        1   -1    0    0  501    0  0.00000000000E+00  0.00000000000E+00  0.20424100051E+04  0.20424100051E+04  0.50400001928E-02 0. -1.
       -1   -1    0    0    0  501  0.00000000000E+00  0.00000000000E+00 -0.35300892202E+03  0.35300892205E+03  0.50400001928E-02 0.  1.
    10030    2    1    2    0    0  0.00000000000E+00  0.00000000000E+00  0.16894010831E+04  0.23954189272E+04  0.16982213687E+04 0.  0.
        1    1    3    3  502    0 -0.70292818745E+03 -0.20922916928E+03  0.24111868432E+03  0.77202532468E+03  0.50400001928E-02 0.  1.
       -1    1    3    3    0  502  0.70292818745E+03  0.20922916928E+03  0.14482823988E+04  0.16233936025E+04  0.50400001928E-02 0. -1.
</event>
<event>
 5   0  0.9312096E-04  0.1634456E+04  0.7818609E-02  0.8799656E-01
        2   -1    0    0  501    0  0.00000000000E+00  0.00000000000E+00  0.13695264108E+04  0.13695264108E+04  0.25500000920E-02 0.  1.
       -2   -1    0    0    0  501  0.00000000000E+00  0.00000000000E+00 -0.48765866499E+03  0.48765866500E+03  0.25500000920E-02 0. -1.
    10030    2    1    2    0    0  0.00000000000E+00  0.00000000000E+00  0.88186774578E+03  0.18571850758E+04  0.16344557763E+04 0.  0.
        3    1    3    3  502    0  0.27223270355E+03  0.48284184390E+03 -0.24141050154E+03  0.60458740605E+03  0.10100000352E+00 0. -1.
       -3    1    3    3    0  502 -0.27223270355E+03 -0.48284184390E+03  0.11232782473E+04  0.12525976697E+04  0.10100000352E+00 0.  1.
</event>
<event>
 5   0  0.3523125E-04  0.1698389E+04  0.7818609E-02  0.8762284E-01
        3   -1    0    0  501    0  0.00000000000E+00  0.00000000000E+00  0.15919507179E+04  0.15919507211E+04  0.10100000352E+00 0.  1.
       -3   -1    0    0    0  501  0.00000000000E+00  0.00000000000E+00 -0.45298599423E+03  0.45298600549E+03  0.10100000352E+00 0. -1.
    10030    2    1    2    0    0  0.00000000000E+00  0.00000000000E+00  0.11389647237E+04  0.20449367266E+04  0.16983891115E+04 0.  0.
        1    1    3    3  502    0 -0.50538400894E+03 -0.24103019660E+03  0.13382090058E+04  0.14506246570E+04  0.50400001928E-02 0.  1.
       -1    1    3    3    0  502  0.50538400894E+03  0.24103019660E+03 -0.19924428210E+03  0.59431206966E+03  0.50400001928E-02 0. -1.
</event>
<event>
 5   0  0.5009762E-04  0.1740837E+04  0.7818609E-02  0.8738410E-01
       -1   -1    0    0    0  501  0.00000000000E+00  0.00000000000E+00  0.48577025641E+03  0.48577025643E+03  0.50400001928E-02 0.  1.
        1   -1    0    0  501    0  0.00000000000E+00  0.00000000000E+00 -0.15596428515E+04  0.15596428515E+04  0.50400001928E-02 0. -1.
    10030    2    1    2    0    0  0.00000000000E+00  0.00000000000E+00 -0.10738725951E+04  0.20454131079E+04  0.17408367045E+04 0.  0.
        3    1    3    3  502    0  0.51186751566E+03  0.63632833562E+03 -0.89080405333E+03  0.12084924393E+04  0.10100000352E+00 0. -1.
       -3    1    3    3    0  502 -0.51186751566E+03 -0.63632833562E+03 -0.18306854172E+03  0.83692066857E+03  0.10100000352E+00 0.  1.
</event>
<event>
 5   0  0.5035495E-04  0.1747273E+04  0.7818609E-02  0.8734853E-01
       -1   -1    0    0    0  501  0.00000000000E+00  0.00000000000E+00  0.57922339496E+03  0.57922339498E+03  0.50400001928E-02 0. -1.
        1   -1    0    0  501    0  0.00000000000E+00  0.00000000000E+00 -0.13176970466E+04  0.13176970466E+04  0.50400001928E-02 0.  1.
    10030    2    1    2    0    0  0.00000000000E+00  0.00000000000E+00 -0.73847365161E+03  0.18969204416E+04  0.17472732550E+04 0.  0.
        4    1    3    3  502    0  0.66729545027E+03 -0.37790912082E+03 -0.82357787818E+03  0.11253357969E+04  0.12699999809E+01 0.  1.
       -4    1    3    3    0  502 -0.66729545027E+03  0.37790912082E+03  0.85104226568E+02  0.77158464463E+03  0.12699999809E+01 0. -1.
</event>
<event>
 5   0  0.5059689E-04  0.1696513E+04  0.7818609E-02  0.8763356E-01
        1   -1    0    0  501    0  0.00000000000E+00  0.00000000000E+00  0.59442596505E+03  0.59442596507E+03  0.50400001928E-02 0. -1.
       -1   -1    0    0    0  501  0.00000000000E+00  0.00000000000E+00 -0.12104766478E+04  0.12104766478E+04  0.50400001928E-02 0.  1.
    10030    2    1    2    0    0  0.00000000000E+00  0.00000000000E+00 -0.61605068271E+03  0.18049026128E+04  0.16965125989E+04 0.  0.
        5    1    3    3  502    0 -0.27535549962E+03 -0.74545986488E+03  0.75495780821E+01  0.79473904362E+03  0.46999998093E+01 0. -1.
       -5    1    3    3    0  502  0.27535549962E+03  0.74545986488E+03 -0.62360026079E+03  0.10101635692E+04  0.46999998093E+01 0.  1.
</event>
<event>
 5   0  0.5035495E-04  0.1739061E+04  0.7818609E-02  0.8739395E-01
        1   -1    0    0  501    0  0.00000000000E+00  0.00000000000E+00  0.43853574867E+03  0.43853574870E+03  0.50400001928E-02 0.  1.
       -1   -1    0    0    0  501  0.00000000000E+00  0.00000000000E+00 -0.17241077431E+04  0.17241077431E+04  0.50400001928E-02 0. -1.
    10030    2    1    2    0    0  0.00000000000E+00  0.00000000000E+00 -0.12855719944E+04  0.21626434918E+04  0.17390605279E+04 0.  0.
        4    1    3    3  502    0  0.78362721357E+03 -0.37419492991E+03 -0.58734157666E+03  0.10483631031E+04  0.12699999809E+01 0. -1.
       -4    1    3    3    0  502 -0.78362721357E+03  0.37419492991E+03 -0.69823041774E+03  0.11142803887E+04  0.12699999809E+01 0.  1.
</event>
<event>
 5   0  0.9312096E-04  0.1769090E+04  0.7818609E-02  0.8722912E-01
        2   -1    0    0  501    0  0.00000000000E+00  0.00000000000E+00  0.86426175068E+03  0.86426175068E+03  0.25500000920E-02 0. -1.
       -2   -1    0    0    0  501  0.00000000000E+00  0.00000000000E+00 -0.90530450912E+03  0.90530450912E+03  0.25500000920E-02 0.  1.
    10030    2    1    2    0    0  0.00000000000E+00  0.00000000000E+00 -0.41042758439E+02  0.17695662598E+04  0.17690902294E+04 0.  0.
        3    1    3    3  502    0 -0.61356497837E+03  0.63585570742E+03  0.20055364444E+02  0.88384200578E+03  0.10100000352E+00 0. -1.
       -3    1    3    3    0  502  0.61356497837E+03 -0.63585570742E+03 -0.61098122882E+02  0.88572425402E+03  0.10100000352E+00 0.  1.
</event>
<event>
 5   0  0.5074133E-04  0.1623045E+04  0.7818609E-02  0.8806514E-01
        1   -1    0    0  501    0  0.00000000000E+00  0.00000000000E+00  0.12966899779E+04  0.12966899779E+04  0.50400001928E-02 0. -1.
       -1   -1    0    0    0  501  0.00000000000E+00  0.00000000000E+00 -0.50788462891E+03  0.50788462893E+03  0.50400001928E-02 0.  1.
    10030    2    1    2    0    0  0.00000000000E+00  0.00000000000E+00  0.78880534901E+03  0.18045746069E+04  0.16230451728E+04 0.  0.
        1    1    3    3  502    0 -0.46763978335E+03  0.39116864151E+03  0.98990857764E+03  0.11625914438E+04  0.50400001928E-02 0. -1.
       -1    1    3    3    0  502  0.46763978335E+03 -0.39116864151E+03 -0.20110322863E+03  0.64198316307E+03  0.50400001928E-02 0.  1.
</event>
<event>
 5   0  0.9312096E-04  0.1662694E+04  0.7818609E-02  0.8782932E-01
       -2   -1    0    0    0  501  0.00000000000E+00  0.00000000000E+00  0.24531342891E+03  0.24531342892E+03  0.25500000920E-02 0.  1.
        2   -1    0    0  501    0  0.00000000000E+00  0.00000000000E+00 -0.28173649383E+04  0.28173649383E+04  0.25500000920E-02 0. -1.
    10030    2    1    2    0    0  0.00000000000E+00  0.00000000000E+00 -0.25720515094E+04  0.30626783673E+04  0.16626935419E+04 0.  0.
        3    1    3    3  502    0  0.63226278223E+03 -0.51384710679E+02 -0.22758162535E+04  0.23625698390E+04  0.10100000352E+00 0. -1.
       -3    1    3    3    0  502 -0.63226278223E+03  0.51384710679E+02 -0.29623525593E+03  0.70010852826E+03  0.10100000352E+00 0.  1.
</event>
<event>
 5   0  0.9284971E-04  0.1712975E+04  0.7818609E-02  0.8753999E-01
       -2   -1    0    0    0  501  0.00000000000E+00  0.00000000000E+00  0.11050502686E+04  0.11050502686E+04  0.25500000920E-02 0.  1.
        2   -1    0    0  501    0  0.00000000000E+00  0.00000000000E+00 -0.66383444509E+03  0.66383444509E+03  0.25500000920E-02 0. -1.
    10030    2    1    2    0    0  0.00000000000E+00  0.00000000000E+00  0.44121582355E+03  0.17688847137E+04  0.17129745262E+04 0.  0.
        4    1    3    3  502    0  0.70517902841E+03 -0.45192927315E+03  0.40548001154E+03  0.93055530878E+03  0.12699999809E+01 0. -1.
       -4    1    3    3    0  502 -0.70517902841E+03  0.45192927315E+03  0.35735812014E+02  0.83832940495E+03  0.12699999809E+01 0.  1.
</event>
<event>
 5   0  0.5035495E-04  0.1734604E+04  0.7818609E-02  0.8741871E-01
       -1   -1    0    0    0  501  0.00000000000E+00  0.00000000000E+00  0.91584971561E+03  0.91584971562E+03  0.50400001928E-02 0. -1.
        1   -1    0    0  501    0  0.00000000000E+00  0.00000000000E+00 -0.82132791457E+03  0.82132791459E+03  0.50400001928E-02 0.  1.
    10030    2    1    2    0    0  0.00000000000E+00  0.00000000000E+00  0.94521801036E+02  0.17371776302E+04  0.17346042050E+04 0.  0.
        4    1    3    3  502    0 -0.59824404764E+03  0.27928000147E+03  0.61051690561E+03  0.89923621185E+03  0.12699999809E+01 0. -1.
       -4    1    3    3    0  502  0.59824404764E+03 -0.27928000147E+03 -0.51599510458E+03  0.83794141836E+03  0.12699999809E+01 0.  1.
</event>
<event>
 5   0  0.5074133E-04  0.1621671E+04  0.7818609E-02  0.8807344E-01
        1   -1    0    0  501    0  0.00000000000E+00  0.00000000000E+00  0.21074936819E+04  0.21074936819E+04  0.50400001928E-02 0. -1.
       -1   -1    0    0    0  501  0.00000000000E+00  0.00000000000E+00 -0.31196027991E+03  0.31196027995E+03  0.50400001928E-02 0.  1.
    10030    2    1    2    0    0  0.00000000000E+00  0.00000000000E+00  0.17955334020E+04  0.24194539619E+04  0.16216711368E+04 0.  0.
        1    1    3    3  502    0 -0.59980737880E+03  0.54420929141E+03  0.95596569051E+03  0.12529178129E+04  0.50400001928E-02 0.  1.
       -1    1    3    3    0  502  0.59980737880E+03 -0.54420929141E+03  0.83956771149E+03  0.11665361489E+04  0.50400001928E-02 0. -1.
</event>
<event>
 5   0  0.9610114E-04  0.1624426E+04  0.7818609E-02  0.8805681E-01
       -2   -1    0    0    0  501  0.00000000000E+00  0.00000000000E+00  0.17095250249E+04  0.17095250249E+04  0.25500000920E-02 0. -1.
        2   -1    0    0  501    0  0.00000000000E+00  0.00000000000E+00 -0.38589061074E+03  0.38589061075E+03  0.25500000920E-02 0.  1.
    10030    2    1    2    0    0  0.00000000000E+00  0.00000000000E+00  0.13236344141E+04  0.20954156356E+04  0.16244256289E+04 0.  0.
        2    1    3    3  502    0 -0.54445830229E+03 -0.43477282722E+03  0.12338804062E+03  0.70759229984E+03  0.25500000920E-02 0.  1.
       -2    1    3    3    0  502  0.54445830229E+03  0.43477282722E+03  0.12002463735E+04  0.13878233358E+04  0.25500000920E-02 0. -1.
</event>
<event>
 5   0  0.9312096E-04  0.1647082E+04  0.7818609E-02  0.8792135E-01
        2   -1    0    0  501    0  0.00000000000E+00  0.00000000000E+00  0.18346352945E+04  0.18346352945E+04  0.25500000920E-02 0.  1.
       -2   -1    0    0    0  501  0.00000000000E+00  0.00000000000E+00 -0.36967557948E+03  0.36967557948E+03  0.25500000920E-02 0. -1.
    10030    2    1    2    0    0  0.00000000000E+00  0.00000000000E+00  0.14649597151E+04  0.22043108740E+04  0.16470821056E+04 0.  0.
        3    1    3    3  502    0  0.33208717081E+03 -0.49568852549E+03  0.14921781566E+04  0.16070422100E+04  0.10100000352E+00 0.  1.
       -3    1    3    3    0  502 -0.33208717081E+03  0.49568852549E+03 -0.27218441552E+02  0.59726866407E+03  0.10100000352E+00 0. -1.
</event>
<event>
 5   0  0.5035495E-04  0.1548164E+04  0.7818609E-02  0.8853041E-01
        1   -1    0    0  501    0  0.00000000000E+00  0.00000000000E+00  0.25707670529E+03  0.25707670534E+03  0.50400001928E-02 0.  1.
       -1   -1    0    0    0  501  0.00000000000E+00  0.00000000000E+00 -0.23308325692E+04  0.23308325692E+04  0.50400001928E-02 0. -1.
    10030    2    1    2    0    0  0.00000000000E+00  0.00000000000E+00 -0.20737558639E+04  0.25879092745E+04  0.15481637608E+04 0.  0.
        4    1    3    3  502    0  0.59333039302E+03  0.10326351511E+02 -0.20601821334E+03  0.62816614517E+03  0.12699999809E+01 0.  1.
       -4    1    3    3    0  502 -0.59333039302E+03 -0.10326351511E+02 -0.18677376505E+04  0.19597431293E+04  0.12699999809E+01 0. -1.
</event>
<event>
 5   0  0.4947006E-04  0.1678759E+04  0.7818609E-02  0.8773572E-01
       -1   -1    0    0    0  501  0.00000000000E+00  0.00000000000E+00  0.52814669799E+03  0.52814669801E+03  0.50400001928E-02 0.  1.
        1   -1    0    0  501    0  0.00000000000E+00  0.00000000000E+00 -0.13340196963E+04  0.13340196963E+04  0.50400001928E-02 0. -1.
    10030    2    1    2    0    0  0.00000000000E+00  0.00000000000E+00 -0.80587299831E+03  0.18621663943E+04  0.16787591819E+04 0.  0.
        2    1    3    3  502    0  0.12076282979E+03 -0.17474365212E+03  0.49784079099E+03  0.54126191275E+03  0.25500000920E-02 0.  1.
       -2    1    3    3    0  502 -0.12076282979E+03  0.17474365212E+03 -0.13037137893E+04  0.13209044816E+04  0.25500000920E-02 0. -1.
</event>
<event>
 5   0  0.5074133E-04  0.1698409E+04  0.7818609E-02  0.8762272E-01
        1   -1    0    0  501    0  0.00000000000E+00  0.00000000000E+00  0.81260036878E+03  0.81260036879E+03  0.50400001928E-02 0. -1.
       -1   -1    0    0    0  501  0.00000000000E+00  0.00000000000E+00 -0.88745756624E+03  0.88745756626E+03  0.50400001928E-02 0.  1.
    10030    2    1    2    0    0  0.00000000000E+00  0.00000000000E+00 -0.74857197463E+02  0.17000579351E+04  0.16984090740E+04 0.  0.
        1    1    3    3  502    0  0.54542800328E+03 -0.16166908185E+03  0.59367517019E+03  0.82224011488E+03  0.50400001928E-02 0. -1.
       -1    1    3    3    0  502 -0.54542800328E+03  0.16166908185E+03 -0.66853236765E+03  0.87781782017E+03  0.50400001928E-02 0.  1.
</event>
<event>
 5   0  0.9610114E-04  0.1699627E+04  0.7818609E-02  0.8761577E-01
       -2   -1    0    0    0  501  0.00000000000E+00  0.00000000000E+00  0.42808729157E+03  0.42808729158E+03  0.25500000920E-02 0.  1.
        2   -1    0    0  501    0  0.00000000000E+00  0.00000000000E+00 -0.16869988145E+04  0.16869988145E+04  0.25500000920E-02 0. -1.
    10030    2    1    2    0    0  0.00000000000E+00  0.00000000000E+00 -0.12589115229E+04  0.21150861061E+04  0.16996267277E+04 0.  0.
        2    1    3    3  502    0 -0.30324433307E+03 -0.30567901716E+03  0.28229277936E+03  0.51486503120E+03  0.25500000920E-02 0.  1.
       -2    1    3    3    0  502  0.30324433307E+03  0.30567901716E+03 -0.15412043023E+04  0.16002210749E+04  0.25500000920E-02 0. -1.
</event>
<event>
 5   0  0.5059689E-04  0.1721926E+04  0.7818609E-02  0.8748957E-01
        1   -1    0    0  501    0  0.00000000000E+00  0.00000000000E+00  0.58987371154E+03  0.58987371156E+03  0.50400001928E-02 0. -1.
       -1   -1    0    0    0  501  0.00000000000E+00  0.00000000000E+00 -0.12566372412E+04  0.12566372412E+04  0.50400001928E-02 0.  1.
    10030    2    1    2    0    0  0.00000000000E+00  0.00000000000E+00 -0.66676352963E+03  0.18465109527E+04  0.17219259839E+04 0.  0.
        5    1    3    3  502    0  0.36506387875E+03  0.64789795157E+03 -0.79857966708E+03  0.10912355226E+04  0.46999998093E+01 0.  1.
       -5    1    3    3    0  502 -0.36506387875E+03 -0.64789795157E+03  0.13181613745E+03  0.75527543010E+03  0.46999998093E+01 0. -1.
</event>
<event>
 5   0  0.5009762E-04  0.1580850E+04  0.7818609E-02  0.8832400E-01
       -1   -1    0    0    0  501  0.00000000000E+00  0.00000000000E+00  0.29222310273E+03  0.29222310277E+03  0.50400001928E-02 0. -1.
        1   -1    0    0  501    0  0.00000000000E+00  0.00000000000E+00 -0.21379949312E+04  0.21379949313E+04  0.50400001928E-02 0.  1.
    10030    2    1    2    0    0  0.00000000000E+00  0.00000000000E+00 -0.18457718285E+04  0.24302180340E+04  0.15808497873E+04 0.  0.
        3    1    3    3  502    0 -0.72475159640E+03  0.21046094251E+03 -0.56166358484E+03  0.94075750198E+03  0.10100000352E+00 0.  1.
       -3    1    3    3    0  502  0.72475159640E+03 -0.21046094251E+03 -0.12841082437E+04  0.14894605320E+04  0.10100000352E+00 0. -1.
</event>
<event>
 5   0  0.9312096E-04  0.1642168E+04  0.7818609E-02  0.8795053E-01
        2   -1    0    0  501    0  0.00000000000E+00  0.00000000000E+00  0.82791941543E+03  0.82791941543E+03  0.25500000920E-02 0. -1.
       -2   -1    0    0    0  501  0.00000000000E+00  0.00000000000E+00 -0.81430550036E+03  0.81430550036E+03  0.25500000920E-02 0.  1.
    10030    2    1    2    0    0  0.00000000000E+00  0.00000000000E+00  0.13613915071E+02  0.16422249158E+04  0.16421684857E+04 0.  0.
        3    1    3    3  502    0  0.46078600950E+03  0.21209625732E+03 -0.63887052017E+03  0.81575984252E+03  0.10100000352E+00 0.  1.
       -3    1    3    3    0  502 -0.46078600950E+03 -0.21209625732E+03  0.65248443524E+03  0.82646507328E+03  0.10100000352E+00 0. -1.
</event>
<event>
 5   0  0.9312096E-04  0.1716681E+04  0.7818609E-02  0.8751907E-01
       -2   -1    0    0    0  501  0.00000000000E+00  0.00000000000E+00  0.85191084849E+03  0.85191084850E+03  0.25500000920E-02 0. -1.
        2   -1    0    0  501    0  0.00000000000E+00  0.00000000000E+00 -0.86481860190E+03  0.86481860191E+03  0.25500000920E-02 0.  1.
    10030    2    1    2    0    0  0.00000000000E+00  0.00000000000E+00 -0.12907753410E+02  0.17167294504E+04  0.17166809243E+04 0.  0.
        3    1    3    3  502    0 -0.33973329518E+03  0.23007257022E+03 -0.76039576701E+03  0.86403346701E+03  0.10100000352E+00 0.  1.
       -3    1    3    3    0  502  0.33973329518E+03 -0.23007257022E+03  0.74748801360E+03  0.85269598339E+03  0.10100000352E+00 0. -1.
</event>
<event>
 5   0  0.5074133E-04  0.1289569E+04  0.7818609E-02  0.9037878E-01
        1   -1    0    0  501    0  0.00000000000E+00  0.00000000000E+00  0.80448278189E+03  0.80448278190E+03  0.50400001928E-02 0. -1.
       -1   -1    0    0    0  501  0.00000000000E+00  0.00000000000E+00 -0.51678833120E+03  0.51678833122E+03  0.50400001928E-02 0.  1.
    10030    2    1    2    0    0  0.00000000000E+00  0.00000000000E+00  0.28769445069E+03  0.13212711131E+04  0.12895694078E+04 0.  0.
        1    1    3    3  502    0  0.14461441863E+03 -0.57890854027E+03 -0.10649282356E+03  0.60612634786E+03  0.50400001928E-02 0.  1.
       -1    1    3    3    0  502 -0.14461441863E+03  0.57890854027E+03  0.39418727425E+03  0.71514476526E+03  0.50400001928E-02 0. -1.
</event>
<event>
 5   0  0.9625225E-04  0.1680984E+04  0.7818609E-02  0.8772285E-01
        2   -1    0    0  501    0  0.00000000000E+00  0.00000000000E+00  0.16697495284E+04  0.16697495284E+04  0.25500000920E-02 0. -1.
       -2   -1    0    0    0  501  0.00000000000E+00  0.00000000000E+00 -0.42307348489E+03  0.42307348489E+03  0.25500000920E-02 0.  1.
    10030    2    1    2    0    0  0.00000000000E+00  0.00000000000E+00  0.12466760435E+04  0.20928230133E+04  0.16809839403E+04 0.  0.
        1    1    3    3  502    0 -0.61997531948E+03 -0.18697425329E+03  0.12904273747E+04  0.14437906973E+04  0.50400001928E-02 0. -1.
       -1    1    3    3    0  502  0.61997531948E+03  0.18697425329E+03 -0.43751331239E+02  0.64903231597E+03  0.50400001928E-02 0.  1.
</event>
<event>
 5   0  0.4947006E-04  0.1683041E+04  0.7818609E-02  0.8771096E-01
        1   -1    0    0  501    0  0.00000000000E+00  0.00000000000E+00  0.94967523154E+03  0.94967523155E+03  0.50400001928E-02 0.  1.
       -1   -1    0    0    0  501  0.00000000000E+00  0.00000000000E+00 -0.74568348960E+03  0.74568348962E+03  0.50400001928E-02 0. -1.
    10030    2    1    2    0    0  0.00000000000E+00  0.00000000000E+00  0.20399174194E+03  0.16953587212E+04  0.16830414620E+04 0.  0.
        2    1    3    3  502    0 -0.63661017804E+03  0.53175756142E+03 -0.40881937391E+02  0.83048778181E+03  0.25500000920E-02 0. -1.
       -2    1    3    3    0  502  0.63661017804E+03 -0.53175756142E+03  0.24487367933E+03  0.86487093936E+03  0.25500000920E-02 0.  1.
</event>
<event>
 5   0  0.5074133E-04  0.1862577E+04  0.7818609E-02  0.8673712E-01
       -1   -1    0    0    0  501  0.00000000000E+00  0.00000000000E+00  0.71364543397E+03  0.71364543399E+03  0.50400001928E-02 0. -1.
        1   -1    0    0  501    0  0.00000000000E+00  0.00000000000E+00 -0.12153068289E+04  0.12153068289E+04  0.50400001928E-02 0.  1.
    10030    2    1    2    0    0  0.00000000000E+00  0.00000000000E+00 -0.50166139490E+03  0.19289522629E+04  0.18625768916E+04 0.  0.
        1    1    3    3  502    0 -0.12074529561E+02 -0.86311400389E+02  0.70941289787E+03  0.71474618697E+03  0.50400001928E-02 0. -1.
       -1    1    3    3    0  502  0.12074529561E+02  0.86311400389E+02 -0.12110742928E+04  0.12142060759E+04  0.50400001928E-02 0.  1.
</event>
<event>
 5   0  0.3523125E-04  0.1714393E+04  0.7818609E-02  0.8753198E-01
        4   -1    0    0  501    0  0.00000000000E+00  0.00000000000E+00  0.10246029101E+04  0.10246036971E+04  0.12699999809E+01 0.  1.
       -4   -1    0    0    0  501  0.00000000000E+00  0.00000000000E+00 -0.71714029765E+03  0.71714142218E+03  0.12699999809E+01 0. -1.
    10030    2    1    2    0    0  0.00000000000E+00  0.00000000000E+00  0.30746261242E+03  0.17417451193E+04  0.17143928379E+04 0.  0.
        4    1    3    3  502    0  0.32991086430E+03 -0.60917068654E+03  0.66661627594E+03  0.96140988968E+03  0.12699999809E+01 0.  1.
       -4    1    3    3    0  502 -0.32991086430E+03  0.60917068654E+03 -0.35915366352E+03  0.78033522966E+03  0.12699999809E+01 0. -1.
</event>
<event>
 5   0  0.9625225E-04  0.1639589E+04  0.7818609E-02  0.8796589E-01
        2   -1    0    0  501    0  0.00000000000E+00  0.00000000000E+00  0.17536040491E+04  0.17536040491E+04  0.25500000920E-02 0. -1.
       -2   -1    0    0    0  501  0.00000000000E+00  0.00000000000E+00 -0.38324676656E+03  0.38324676657E+03  0.25500000920E-02 0.  1.
    10030    2    1    2    0    0  0.00000000000E+00  0.00000000000E+00  0.13703572826E+04  0.21368508157E+04  0.16395890725E+04 0.  0.
        1    1    3    3  502    0 -0.85718752026E+02  0.60403629295E+03 -0.28487712142E+02  0.61075289391E+03  0.50400001928E-02 0.  1.
       -1    1    3    3    0  502  0.85718752026E+02 -0.60403629295E+03  0.13988449947E+04  0.15260979218E+04  0.50400001928E-02 0. -1.
</event>
<event>
 5   0  0.4947006E-04  0.1660687E+04  0.7818609E-02  0.8784109E-01
       -1   -1    0    0    0  501  0.00000000000E+00  0.00000000000E+00  0.16907892730E+04  0.16907892730E+04  0.50400001928E-02 0. -1.
        1   -1    0    0  501    0  0.00000000000E+00  0.00000000000E+00 -0.40778029189E+03  0.40778029192E+03  0.50400001928E-02 0.  1.
    10030    2    1    2    0    0  0.00000000000E+00  0.00000000000E+00  0.12830089811E+04  0.20985695649E+04  0.16606872593E+04 0.  0.
        2    1    3    3  502    0  0.33210654639E+03  0.49453863659E+03 -0.89471708599E+02  0.60238559734E+03  0.25500000920E-02 0.  1.
       -2    1    3    3    0  502 -0.33210654639E+03 -0.49453863659E+03  0.13724806897E+04  0.14961839676E+04  0.25500000920E-02 0. -1.
</event>
<event>
 5   0  0.4947006E-04  0.1715310E+04  0.7818609E-02  0.8752680E-01
        1   -1    0    0  501    0  0.00000000000E+00  0.00000000000E+00  0.86489181170E+03  0.86489181172E+03  0.50400001928E-02 0. -1.
       -1   -1    0    0    0  501  0.00000000000E+00  0.00000000000E+00 -0.85047867858E+03  0.85047867859E+03  0.50400001928E-02 0.  1.
    10030    2    1    2    0    0  0.00000000000E+00  0.00000000000E+00  0.14413133125E+02  0.17153704903E+04  0.17153099372E+04 0.  0.
        2    1    3    3  502    0 -0.58557965955E+03 -0.35030918899E+03  0.52679394070E+03  0.86205099706E+03  0.25500000920E-02 0.  1.
       -2    1    3    3    0  502  0.58557965955E+03  0.35030918899E+03 -0.51238080757E+03  0.85331949324E+03  0.25500000920E-02 0. -1.
</event>
<event>
 5   0  0.9610114E-04  0.1617744E+04  0.7818609E-02  0.8809721E-01
        2   -1    0    0  501    0  0.00000000000E+00  0.00000000000E+00  0.16842484169E+04  0.16842484169E+04  0.25500000920E-02 0. -1.
       -2   -1    0    0    0  501  0.00000000000E+00  0.00000000000E+00 -0.38846646868E+03  0.38846646869E+03  0.25500000920E-02 0.  1.
    10030    2    1    2    0    0  0.00000000000E+00  0.00000000000E+00  0.12957819482E+04  0.20727148856E+04  0.16177441515E+04 0.  0.
        2    1    3    3  502    0 -0.63586162820E+03 -0.34982626782E+03  0.11055199864E+04  0.13224495712E+04  0.25500000920E-02 0. -1.
       -2    1    3    3    0  502  0.63586162820E+03  0.34982626782E+03  0.19026196176E+03  0.75026531439E+03  0.25500000920E-02 0.  1.
</event>
<event>
 5   0  0.5009762E-04  0.1732817E+04  0.7818609E-02  0.8742866E-01
       -1   -1    0    0    0  501  0.00000000000E+00  0.00000000000E+00  0.11233637356E+04  0.11233637356E+04  0.50400001928E-02 0.  1.
        1   -1    0    0  501    0  0.00000000000E+00  0.00000000000E+00 -0.66822846398E+03  0.66822846400E+03  0.50400001928E-02 0. -1.
    10030    2    1    2    0    0  0.00000000000E+00  0.00000000000E+00  0.45513527164E+03  0.17915921996E+04  0.17328169246E+04 0.  0.
        3    1    3    3  502    0  0.83907326423E+03 -0.17379857058E+03  0.95106007038E+02  0.86214560758E+03  0.10100000352E+00 0. -1.
       -3    1    3    3    0  502 -0.83907326423E+03  0.17379857058E+03  0.36002926460E+03  0.92944659204E+03  0.10100000352E+00 0.  1.
</event>
<event>
 5   0  0.1007187E-03  0.1699683E+04  0.7818609E-02  0.8761545E-01
        2   -1    0    0  501    0  0.00000000000E+00  0.00000000000E+00  0.14739580503E+04  0.14739580503E+04  0.25500000920E-02 0.  1.
       -2   -1    0    0    0  501  0.00000000000E+00  0.00000000000E+00 -0.48999388723E+03  0.48999388724E+03  0.25500000920E-02 0. -1.
    10030    2    1    2    0    0  0.00000000000E+00  0.00000000000E+00  0.98396416307E+03  0.19639519375E+04  0.16996828348E+04 0.  0.
        5    1    3    3  502    0 -0.22332395035E+03 -0.13358272655E+03 -0.44280911047E+03  0.51363404283E+03  0.46999998093E+01 0. -1.
       -5    1    3    3    0  502  0.22332395035E+03  0.13358272655E+03  0.14267732735E+04  0.14503178947E+04  0.46999998093E+01 0.  1.
</event>
<event>
 5   0  0.5009762E-04  0.1730430E+04  0.7818609E-02  0.8744197E-01
        1   -1    0    0  501    0  0.00000000000E+00  0.00000000000E+00  0.14930845739E+04  0.14930845739E+04  0.50400001928E-02 0.  1.
       -1   -1    0    0    0  501  0.00000000000E+00  0.00000000000E+00 -0.50137617385E+03  0.50137617388E+03  0.50400001928E-02 0. -1.
    10030    2    1    2    0    0  0.00000000000E+00  0.00000000000E+00  0.99170840007E+03  0.19944607478E+04  0.17304300401E+04 0.  0.
        3    1    3    3  502    0  0.12755588347E+03  0.45617502987E+03 -0.33865809392E+03  0.58228470361E+03  0.10100000352E+00 0. -1.
       -3    1    3    3    0  502 -0.12755588347E+03 -0.45617502987E+03  0.13303664940E+04  0.14121760442E+04  0.10100000352E+00 0.  1.
</event>
<event>
 5   0  0.9610114E-04  0.1659897E+04  0.7818609E-02  0.8784573E-01
       -2   -1    0    0    0  501  0.00000000000E+00  0.00000000000E+00  0.60053254592E+03  0.60053254593E+03  0.25500000920E-02 0. -1.
        2   -1    0    0  501    0  0.00000000000E+00  0.00000000000E+00 -0.11470067789E+04  0.11470067789E+04  0.25500000920E-02 0.  1.
    10030    2    1    2    0    0  0.00000000000E+00  0.00000000000E+00 -0.54647423300E+03  0.17475393249E+04  0.16598974681E+04 0.  0.
        2    1    3    3  502    0  0.15929250473E+03 -0.12805587701E+03  0.57362381108E+03  0.60894719504E+03  0.25500000920E-02 0. -1.
       -2    1    3    3    0  502 -0.15929250473E+03  0.12805587701E+03 -0.11200980441E+04  0.11385921298E+04  0.25500000920E-02 0.  1.
</event>
<event>
 5   0  0.9610114E-04  0.1777678E+04  0.7818609E-02  0.8718261E-01
       -2   -1    0    0    0  501  0.00000000000E+00  0.00000000000E+00  0.12438509773E+04  0.12438509773E+04  0.25500000920E-02 0.  1.
        2   -1    0    0  501    0  0.00000000000E+00  0.00000000000E+00 -0.63515217720E+03  0.63515217720E+03  0.25500000920E-02 0. -1.
    10030    2    1    2    0    0  0.00000000000E+00  0.00000000000E+00  0.60869880006E+03  0.18790031545E+04  0.17776778744E+04 0.  0.
        2    1    3    3  502    0  0.78436431207E+02 -0.83209622345E+03  0.62407753458E+03  0.10430767795E+04  0.25500000920E-02 0.  1.
       -2    1    3    3    0  502 -0.78436431207E+02  0.83209622345E+03 -0.15378734522E+02  0.83592637493E+03  0.25500000920E-02 0. -1.
</event>
<event>
 5   0  0.5074133E-04  0.1764137E+04  0.7818609E-02  0.8725607E-01
       -1   -1    0    0    0  501  0.00000000000E+00  0.00000000000E+00  0.81876014404E+03  0.81876014406E+03  0.50400001928E-02 0. -1.
        1   -1    0    0  501    0  0.00000000000E+00  0.00000000000E+00 -0.95027182670E+03  0.95027182671E+03  0.50400001928E-02 0.  1.
    10030    2    1    2    0    0  0.00000000000E+00  0.00000000000E+00 -0.13151168266E+03  0.17690319708E+04  0.17641368402E+04 0.  0.
        1    1    3    3  502    0 -0.32149634935E+03 -0.29776178705E+03 -0.83340121481E+03  0.94158354347E+03  0.50400001928E-02 0.  1.
       -1    1    3    3    0  502  0.32149634935E+03  0.29776178705E+03  0.70188953215E+03  0.82744842730E+03  0.50400001928E-02 0. -1.
</event>
<event>
 5   0  0.9312096E-04  0.1701627E+04  0.7818609E-02  0.8760437E-01
        2   -1    0    0  501    0  0.00000000000E+00  0.00000000000E+00  0.10467221851E+04  0.10467221851E+04  0.25500000920E-02 0. -1.
       -2   -1    0    0    0  501  0.00000000000E+00  0.00000000000E+00 -0.69157164009E+03  0.69157164010E+03  0.25500000920E-02 0.  1.
    10030    2    1    2    0    0  0.00000000000E+00  0.00000000000E+00  0.35515054500E+03  0.17382938252E+04  0.17016267255E+04 0.  0.
        3    1    3    3  502    0  0.24773704699E+03 -0.36824155015E+03 -0.56395047974E+03  0.71764589981E+03  0.10100000352E+00 0.  1.
       -3    1    3    3    0  502 -0.24773704699E+03  0.36824155015E+03  0.91910102474E+03  0.10206479254E+04  0.10100000352E+00 0. -1.
</event>
<event>
 5   0  0.9610114E-04  0.1672569E+04  0.7818609E-02  0.8777166E-01
        2   -1    0    0  501    0  0.00000000000E+00  0.00000000000E+00  0.10807412765E+04  0.10807412765E+04  0.25500000920E-02 0. -1.
       -2   -1    0    0    0  501  0.00000000000E+00  0.00000000000E+00 -0.64712203742E+03  0.64712203743E+03  0.25500000920E-02 0.  1.
    10030    2    1    2    0    0  0.00000000000E+00  0.00000000000E+00  0.43361923912E+03  0.17278633140E+04  0.16725686794E+04 0.  0.
        2    1    3    3  502    0 -0.16728136298E+02 -0.70542793810E+03  0.68049475069E+03  0.98029664496E+03  0.25500000920E-02 0. -1.
       -2    1    3    3    0  502  0.16728136298E+02  0.70542793810E+03 -0.24687551157E+03  0.74756666901E+03  0.25500000920E-02 0.  1.
</event>
<event>
 5   0  0.5009762E-04  0.1728050E+04  0.7818609E-02  0.8745526E-01
       -1   -1    0    0    0  501  0.00000000000E+00  0.00000000000E+00  0.61689441378E+03  0.61689441380E+03  0.50400001928E-02 0. -1.
        1   -1    0    0  501    0  0.00000000000E+00  0.00000000000E+00 -0.12101576507E+04  0.12101576507E+04  0.50400001928E-02 0.  1.
    10030    2    1    2    0    0  0.00000000000E+00  0.00000000000E+00 -0.59326323690E+03  0.18270520645E+04  0.17280503402E+04 0.  0.
        3    1    3    3  502    0  0.24141228458E+03  0.34373231066E+03  0.50168098128E+03  0.65430544069E+03  0.10100000352E+00 0. -1.
       -3    1    3    3    0  502 -0.24141228458E+03 -0.34373231066E+03 -0.10949442182E+04  0.11727466238E+04  0.10100000352E+00 0.  1.
</event>
<event>
 5   0  0.5009762E-04  0.1674235E+04  0.7818609E-02  0.8776197E-01
       -1   -1    0    0    0  501  0.00000000000E+00  0.00000000000E+00  0.10111451855E+04  0.10111451856E+04  0.50400001928E-02 0.  1.
        1   -1    0    0  501    0  0.00000000000E+00  0.00000000000E+00 -0.69304192445E+03  0.69304192447E+03  0.50400001928E-02 0. -1.
    10030    2    1    2    0    0  0.00000000000E+00  0.00000000000E+00  0.31810326109E+03  0.17041871100E+04  0.16742353542E+04 0.  0.
        3    1    3    3  502    0 -0.16804193292E+03  0.47967889276E+03 -0.51800660876E+03  0.72571398518E+03  0.10100000352E+00 0. -1.
       -3    1    3    3    0  502  0.16804193292E+03 -0.47967889276E+03  0.83610986985E+03  0.97847312484E+03  0.10100000352E+00 0.  1.
</event>
<event>
 5   0  0.5035495E-04  0.1023337E+04  0.7818609E-02  0.9283313E-01
       -1   -1    0    0    0  501  0.00000000000E+00  0.00000000000E+00  0.95670402900E+02  0.95670403033E+02  0.50400001928E-02 0.  1.
        1   -1    0    0  501    0  0.00000000000E+00  0.00000000000E+00 -0.27365280715E+04  0.27365280715E+04  0.50400001928E-02 0. -1.
    10030    2    1    2    0    0  0.00000000000E+00  0.00000000000E+00 -0.26408576686E+04  0.28321984746E+04  0.10233371748E+04 0.  0.
        4    1    3    3  502    0 -0.39347564634E+03  0.27239965212E+03 -0.81935778569E+03  0.94888010234E+03  0.12699999809E+01 0.  1.
       -4    1    3    3    0  502  0.39347564634E+03 -0.27239965212E+03 -0.18214998829E+04  0.18833183722E+04  0.12699999809E+01 0. -1.
</event>
<event>
 5   0  0.9312096E-04  0.1700523E+04  0.7818609E-02  0.8761066E-01
        2   -1    0    0  501    0  0.00000000000E+00  0.00000000000E+00  0.98075339794E+03  0.98075339795E+03  0.25500000920E-02 0. -1.
       -2   -1    0    0    0  501  0.00000000000E+00  0.00000000000E+00 -0.73713214211E+03  0.73713214211E+03  0.25500000920E-02 0.  1.
    10030    2    1    2    0    0  0.00000000000E+00  0.00000000000E+00  0.24362125584E+03  0.17178855401E+04  0.17005232761E+04 0.  0.
        3    1    3    3  502    0  0.34131998796E+03 -0.59909565981E+03  0.62441408997E+03  0.93021928046E+03  0.10100000352E+00 0. -1.
       -3    1    3    3    0  502 -0.34131998796E+03  0.59909565981E+03 -0.38079283413E+03  0.78766625960E+03  0.10100000352E+00 0.  1.
</event>
<event>
 5   0  0.9610114E-04  0.1697873E+04  0.7818609E-02  0.8762578E-01
       -2   -1    0    0    0  501  0.00000000000E+00  0.00000000000E+00  0.88222446785E+03  0.88222446785E+03  0.25500000920E-02 0.  1.
        2   -1    0    0  501    0  0.00000000000E+00  0.00000000000E+00 -0.81690481170E+03  0.81690481171E+03  0.25500000920E-02 0. -1.
    10030    2    1    2    0    0  0.00000000000E+00  0.00000000000E+00  0.65319656141E+02  0.16991292796E+04  0.16978732730E+04 0.  0.
        2    1    3    3  502    0  0.62227633059E+03 -0.56488456981E+03  0.15262763129E+03  0.85417656410E+03  0.25500000920E-02 0.  1.
       -2    1    3    3    0  502 -0.62227633059E+03  0.56488456981E+03 -0.87307975144E+02  0.84495271546E+03  0.25500000920E-02 0. -1.
</event>
<event>
 5   0  0.9284971E-04  0.1698696E+04  0.7818609E-02  0.8762109E-01
        2   -1    0    0  501    0  0.00000000000E+00  0.00000000000E+00  0.13121577970E+04  0.13121577970E+04  0.25500000920E-02 0. -1.
       -2   -1    0    0    0  501  0.00000000000E+00  0.00000000000E+00 -0.54977524892E+03  0.54977524893E+03  0.25500000920E-02 0.  1.
    10030    2    1    2    0    0  0.00000000000E+00  0.00000000000E+00  0.76238254809E+03  0.18619330460E+04  0.16986958286E+04 0.  0.
        4    1    3    3  502    0 -0.83264742046E+03  0.42128180972E+02  0.20338795545E+03  0.85816361130E+03  0.12699999809E+01 0.  1.
       -4    1    3    3    0  502  0.83264742046E+03 -0.42128180972E+02  0.55899459264E+03  0.10037694347E+04  0.12699999809E+01 0. -1.
</event>
<event>
 5   0  0.4947006E-04  0.1658456E+04  0.7818609E-02  0.8785420E-01
       -1   -1    0    0    0  501  0.00000000000E+00  0.00000000000E+00  0.11459731965E+04  0.11459731966E+04  0.50400001928E-02 0. -1.
        1   -1    0    0  501    0  0.00000000000E+00  0.00000000000E+00 -0.60003081978E+03  0.60003081980E+03  0.50400001928E-02 0.  1.
    10030    2    1    2    0    0  0.00000000000E+00  0.00000000000E+00  0.54594237677E+03  0.17460040164E+04  0.16584561937E+04 0.  0.
        2    1    3    3  502    0 -0.71684094580E+03  0.27202933895E+03  0.60548969940E+03  0.97697424680E+03  0.25500000920E-02 0.  1.
       -2    1    3    3    0  502  0.71684094580E+03 -0.27202933895E+03 -0.59547322632E+02  0.76902976956E+03  0.25500000920E-02 0. -1.
</event>
<event>
 5   0  0.3523125E-04  0.1677434E+04  0.7818609E-02  0.8774341E-01
       -3   -1    0    0    0  501  0.00000000000E+00  0.00000000000E+00  0.62751066948E+03  0.62751067761E+03  0.10100000352E+00 0.  1.
        3   -1    0    0  501    0  0.00000000000E+00  0.00000000000E+00 -0.11210100693E+04  0.11210100738E+04  0.10100000352E+00 0. -1.
    10030    2    1    2    0    0  0.00000000000E+00  0.00000000000E+00 -0.49349939982E+03  0.17485207515E+04  0.16774335041E+04 0.  0.
        3    1    3    3  502    0  0.55904177441E+03  0.28570645757E+03 -0.82645643090E+03  0.10378757767E+04  0.10100000352E+00 0. -1.
       -3    1    3    3    0  502 -0.55904177441E+03 -0.28570645757E+03  0.33295703108E+03  0.71064497478E+03  0.10100000352E+00 0.  1.
</event>
<event>
 5   0  0.9625225E-04  0.1702442E+04  0.7818609E-02  0.8759973E-01
        2   -1    0    0  501    0  0.00000000000E+00  0.00000000000E+00  0.62255144524E+03  0.62255144524E+03  0.25500000920E-02 0.  1.
       -2   -1    0    0    0  501  0.00000000000E+00  0.00000000000E+00 -0.11638830658E+04  0.11638830658E+04  0.25500000920E-02 0. -1.
    10030    2    1    2    0    0  0.00000000000E+00  0.00000000000E+00 -0.54133162052E+03  0.17864345110E+04  0.17024418753E+04 0.  0.
        1    1    3    3  502    0  0.40179663485E+03 -0.17153875212E+03 -0.10372641705E+04  0.11255145662E+04  0.50400001928E-02 0. -1.
       -1    1    3    3    0  502 -0.40179663485E+03  0.17153875212E+03  0.49593255001E+03  0.66091994480E+03  0.50400001928E-02 0.  1.
</event>
<event>
 5   0  0.9610114E-04  0.1724829E+04  0.7818609E-02  0.8747329E-01
        2   -1    0    0  501    0  0.00000000000E+00  0.00000000000E+00  0.49513982990E+03  0.49513982990E+03  0.25500000920E-02 0.  1.
       -2   -1    0    0    0  501  0.00000000000E+00  0.00000000000E+00 -0.15021182793E+04  0.15021182793E+04  0.25500000920E-02 0. -1.
    10030    2    1    2    0    0  0.00000000000E+00  0.00000000000E+00 -0.10069784494E+04  0.19972581092E+04  0.17248287907E+04 0.  0.
        2    1    3    3  502    0 -0.73809134341E+03  0.21570166042E+03 -0.95561113027E+03  0.12265800707E+04  0.25500000920E-02 0. -1.
       -2    1    3    3    0  502  0.73809134341E+03 -0.21570166042E+03 -0.51367319113E+02  0.77067803849E+03  0.25500000920E-02 0.  1.
</event>
<event>
 5   0  0.5074133E-04  0.1713415E+04  0.7818609E-02  0.8753750E-01
       -1   -1    0    0    0  501  0.00000000000E+00  0.00000000000E+00  0.65959305066E+03  0.65959305067E+03  0.50400001928E-02 0.  1.
        1   -1    0    0  501    0  0.00000000000E+00  0.00000000000E+00 -0.11127281055E+04  0.11127281055E+04  0.50400001928E-02 0. -1.
    10030    2    1    2    0    0  0.00000000000E+00  0.00000000000E+00 -0.45313505488E+03  0.17723211562E+04  0.17134149827E+04 0.  0.
        1    1    3    3  502    0  0.78841202098E+03  0.30340956951E+03 -0.37393244932E+03  0.92383784204E+03  0.50400001928E-02 0. -1.
       -1    1    3    3    0  502 -0.78841202098E+03 -0.30340956951E+03 -0.79202605562E+02  0.84848331419E+03  0.50400001928E-02 0.  1.
</event>
<event>
 5   0  0.5009762E-04  0.1700227E+04  0.7818609E-02  0.8761235E-01
        1   -1    0    0  501    0  0.00000000000E+00  0.00000000000E+00  0.12684879944E+04  0.12684879944E+04  0.50400001928E-02 0. -1.
       -1   -1    0    0    0  501  0.00000000000E+00  0.00000000000E+00 -0.56972785428E+03  0.56972785430E+03  0.50400001928E-02 0.  1.
    10030    2    1    2    0    0  0.00000000000E+00  0.00000000000E+00  0.69876014015E+03  0.18382158487E+04  0.17002269769E+04 0.  0.
        3    1    3    3  502    0 -0.27591414358E+03  0.55842301936E+02 -0.51787259132E+03  0.58943957142E+03  0.10100000352E+00 0.  1.
       -3    1    3    3    0  502  0.27591414358E+03 -0.55842301936E+02  0.12166327315E+04  0.12487762773E+04  0.10100000352E+00 0. -1.
</event>
<event>
 5   0  0.5035495E-04  0.1658906E+04  0.7818609E-02  0.8785155E-01
       -1   -1    0    0    0  501  0.00000000000E+00  0.00000000000E+00  0.64375785918E+03  0.64375785920E+03  0.50400001928E-02 0.  1.
        1   -1    0    0  501    0  0.00000000000E+00  0.00000000000E+00 -0.10687127711E+04  0.10687127711E+04  0.50400001928E-02 0. -1.
    10030    2    1    2    0    0  0.00000000000E+00  0.00000000000E+00 -0.42495491192E+03  0.17124706303E+04  0.16589059595E+04 0.  0.
        4    1    3    3  502    0  0.25111796712E+03  0.21173502237E+03 -0.99871232937E+03  0.10513419438E+04  0.12699999809E+01 0. -1.
       -4    1    3    3    0  502 -0.25111796712E+03 -0.21173502237E+03  0.57375741745E+03  0.66112868648E+03  0.12699999809E+01 0.  1.
</event>
<event>
 5   0  0.5009762E-04  0.1672024E+04  0.7818609E-02  0.8777483E-01
        1   -1    0    0  501    0  0.00000000000E+00  0.00000000000E+00  0.95779599279E+03  0.95779599281E+03  0.50400001928E-02 0. -1.
       -1   -1    0    0    0  501  0.00000000000E+00  0.00000000000E+00 -0.72971295810E+03  0.72971295812E+03  0.50400001928E-02 0.  1.
    10030    2    1    2    0    0  0.00000000000E+00  0.00000000000E+00  0.22808303469E+03  0.16875089509E+04  0.16720240993E+04 0.  0.
        3    1    3    3  502    0  0.48888928265E+03  0.25677580938E+03  0.74752442670E+03  0.92937577206E+03  0.10100000352E+00 0. -1.
       -3    1    3    3    0  502 -0.48888928265E+03 -0.25677580938E+03 -0.51944139201E+03  0.75813317887E+03  0.10100000352E+00 0.  1.
</event>
<event>
 5   0  0.9312096E-04  0.1943920E+04  0.7818609E-02  0.8633298E-01
        2   -1    0    0  501    0  0.00000000000E+00  0.00000000000E+00  0.44797095685E+03  0.44797095686E+03  0.25500000920E-02 0. -1.
       -2   -1    0    0    0  501  0.00000000000E+00  0.00000000000E+00 -0.21088567750E+04  0.21088567750E+04  0.25500000920E-02 0.  1.
    10030    2    1    2    0    0  0.00000000000E+00  0.00000000000E+00 -0.16608858181E+04  0.25568277318E+04  0.19439203557E+04 0.  0.
        3    1    3    3  502    0 -0.86223167784E+03  0.33509475321E+03 -0.43810880176E+03  0.10235581529E+04  0.10100000352E+00 0. -1.
       -3    1    3    3    0  502  0.86223167784E+03 -0.33509475321E+03 -0.12227770164E+04  0.15332695790E+04  0.10100000352E+00 0.  1.
</event>
<event>
 5   0  0.4947006E-04  0.8538877E+03  0.7818609E-02  0.9485134E-01
        1   -1    0    0  501    0  0.00000000000E+00  0.00000000000E+00  0.43700741149E+03  0.43700741152E+03  0.50400001928E-02 0. -1.
       -1   -1    0    0    0  501  0.00000000000E+00  0.00000000000E+00 -0.41711199610E+03  0.41711199613E+03  0.50400001928E-02 0.  1.
    10030    2    1    2    0    0  0.00000000000E+00  0.00000000000E+00  0.19895415390E+02  0.85411940764E+03  0.85388765945E+03 0.  0.
        2    1    3    3  502    0 -0.28806740222E+03 -0.15132800933E+03  0.28642467624E+03  0.43349981522E+03  0.25500000920E-02 0. -1.
       -2    1    3    3    0  502  0.28806740222E+03  0.15132800933E+03 -0.26652926085E+03  0.42061959242E+03  0.25500000920E-02 0.  1.
</event>
<event>
 5   0  0.9625225E-04  0.1710482E+04  0.7818609E-02  0.8755409E-01
        2   -1    0    0  501    0  0.00000000000E+00  0.00000000000E+00  0.13719617794E+04  0.13719617794E+04  0.25500000920E-02 0. -1.
       -2   -1    0    0    0  501  0.00000000000E+00  0.00000000000E+00 -0.53313211122E+03  0.53313211123E+03  0.25500000920E-02 0.  1.
    10030    2    1    2    0    0  0.00000000000E+00  0.00000000000E+00  0.83882966817E+03  0.19050938906E+04  0.17104816631E+04 0.  0.
        1    1    3    3  502    0  0.34052938295E+03 -0.68916007841E+03  0.18823981635E+01  0.76870372562E+03  0.50400001928E-02 0.  1.
       -1    1    3    3    0  502 -0.34052938295E+03  0.68916007841E+03  0.83694727000E+03  0.11363901650E+04  0.50400001928E-02 0. -1.
</event>
<event>
 5   0  0.4947006E-04  0.1587116E+04  0.7818609E-02  0.8828503E-01
        1   -1    0    0  501    0  0.00000000000E+00  0.00000000000E+00  0.10661849773E+04  0.10661849773E+04  0.50400001928E-02 0. -1.
       -1   -1    0    0    0  501  0.00000000000E+00  0.00000000000E+00 -0.59064241754E+03  0.59064241757E+03  0.50400001928E-02 0.  1.
    10030    2    1    2    0    0  0.00000000000E+00  0.00000000000E+00  0.47554255979E+03  0.16568273949E+04  0.15871157142E+04 0.  0.
        2    1    3    3  502    0  0.12147584944E+03 -0.29664078585E+03  0.99559211080E+03  0.10459234145E+04  0.25500000920E-02 0. -1.
       -2    1    3    3    0  502 -0.12147584944E+03  0.29664078585E+03 -0.52004955101E+03  0.61090398045E+03  0.25500000920E-02 0.  1.
</event>
<event>
 5   0  0.5009762E-04  0.1633163E+04  0.7818609E-02  0.8800430E-01
        1   -1    0    0  501    0  0.00000000000E+00  0.00000000000E+00  0.11111932393E+04  0.11111932393E+04  0.50400001928E-02 0. -1.
       -1   -1    0    0    0  501  0.00000000000E+00  0.00000000000E+00 -0.60008065466E+03  0.60008065468E+03  0.50400001928E-02 0.  1.
    10030    2    1    2    0    0  0.00000000000E+00  0.00000000000E+00  0.51111258467E+03  0.17112738940E+04  0.16331632699E+04 0.  0.
        3    1    3    3  502    0 -0.63012087393E+03  0.46376742791E+03  0.50056212689E+03  0.92881375745E+03  0.10100000352E+00 0. -1.
       -3    1    3    3    0  502  0.63012087393E+03 -0.46376742791E+03  0.10550457782E+02  0.78246013657E+03  0.10100000352E+00 0.  1.
</event>
<event>
 5   0  0.9284971E-04  0.1737976E+04  0.7818609E-02  0.8739997E-01
        2   -1    0    0  501    0  0.00000000000E+00  0.00000000000E+00  0.74865905061E+03  0.74865905061E+03  0.25500000920E-02 0.  1.
       -2   -1    0    0    0  501  0.00000000000E+00  0.00000000000E+00 -0.10086567614E+04  0.10086567614E+04  0.25500000920E-02 0. -1.
    10030    2    1    2    0    0  0.00000000000E+00  0.00000000000E+00 -0.25999771083E+03  0.17573158121E+04  0.17379758496E+04 0.  0.
        4    1    3    3  502    0 -0.14730015343E+03  0.77734754553E+03 -0.49340313214E+03  0.93242415533E+03  0.12699999809E+01 0. -1.
       -4    1    3    3    0  502  0.14730015343E+03 -0.77734754553E+03  0.23340542131E+03  0.82489165673E+03  0.12699999809E+01 0.  1.
</event>
<event>
 5   0  0.5035495E-04  0.1703486E+04  0.7818609E-02  0.8759379E-01
        1   -1    0    0  501    0  0.00000000000E+00  0.00000000000E+00  0.89408657410E+03  0.89408657412E+03  0.50400001928E-02 0.  1.
       -1   -1    0    0    0  501  0.00000000000E+00  0.00000000000E+00 -0.81140469808E+03  0.81140469809E+03  0.50400001928E-02 0. -1.
    10030    2    1    2    0    0  0.00000000000E+00  0.00000000000E+00  0.82681876028E+02  0.17054912722E+04  0.17034858928E+04 0.  0.
        4    1    3    3  502    0  0.36407318635E+03  0.38495611238E+03 -0.62632037840E+03  0.82037754892E+03  0.12699999809E+01 0. -1.
       -4    1    3    3    0  502 -0.36407318635E+03 -0.38495611238E+03  0.70900225443E+03  0.88511372329E+03  0.12699999809E+01 0.  1.
</event>
<event>
 5   0  0.9610114E-04  0.1695007E+04  0.7818609E-02  0.8764217E-01
       -2   -1    0    0    0  501  0.00000000000E+00  0.00000000000E+00  0.66725677279E+03  0.66725677279E+03  0.25500000920E-02 0.  1.
        2   -1    0    0  501    0  0.00000000000E+00  0.00000000000E+00 -0.10764408119E+04  0.10764408119E+04  0.25500000920E-02 0. -1.
    10030    2    1    2    0    0  0.00000000000E+00  0.00000000000E+00 -0.40918403915E+03  0.17436975847E+04  0.16950072829E+04 0.  0.
        2    1    3    3  502    0  0.64021050747E+03 -0.15610420424E+03  0.34365644922E+03  0.74319430269E+03  0.25500000920E-02 0. -1.
       -2    1    3    3    0  502 -0.64021050747E+03  0.15610420424E+03 -0.75284048836E+03  0.10005032820E+04  0.25500000920E-02 0.  1.
</event>
<event>
 5   0  0.5059689E-04  0.1660978E+04  0.7818609E-02  0.8783939E-01
        1   -1    0    0  501    0  0.00000000000E+00  0.00000000000E+00  0.69182756475E+03  0.69182756477E+03  0.50400001928E-02 0. -1.
       -1   -1    0    0    0  501  0.00000000000E+00  0.00000000000E+00 -0.99694144086E+03  0.99694144087E+03  0.50400001928E-02 0.  1.
    10030    2    1    2    0    0  0.00000000000E+00  0.00000000000E+00 -0.30511387611E+03  0.16887690056E+04  0.16609775065E+04 0.  0.
        5    1    3    3  502    0 -0.64468319951E+03  0.23575707857E+03  0.32269502799E+03  0.75851961011E+03  0.46999998093E+01 0. -1.
       -5    1    3    3    0  502  0.64468319951E+03 -0.23575707857E+03 -0.62780890410E+03  0.93024939553E+03  0.46999998093E+01 0.  1.
</event>
<event>
 5   0  0.9312096E-04  0.1245105E+04  0.7818609E-02  0.9074267E-01
        2   -1    0    0  501    0  0.00000000000E+00  0.00000000000E+00  0.15236766583E+04  0.15236766583E+04  0.25500000920E-02 0.  1.
       -2   -1    0    0    0  501  0.00000000000E+00  0.00000000000E+00 -0.25436592369E+03  0.25436592370E+03  0.25500000920E-02 0. -1.
    10030    2    1    2    0    0  0.00000000000E+00  0.00000000000E+00  0.12693107346E+04  0.17780425820E+04  0.12451046873E+04 0.  0.
        3    1    3    3  502    0 -0.56564299619E+03 -0.18968206959E+03  0.88866803539E+03  0.10703560968E+04  0.10100000352E+00 0. -1.
       -3    1    3    3    0  502  0.56564299619E+03  0.18968206959E+03  0.38064269925E+03  0.70768648522E+03  0.10100000352E+00 0.  1.
</event>
<event>
 5   0  0.4947006E-04  0.1691635E+04  0.7818609E-02  0.8766150E-01
       -1   -1    0    0    0  501  0.00000000000E+00  0.00000000000E+00  0.10894484664E+04  0.10894484664E+04  0.50400001928E-02 0.  1.
        1   -1    0    0  501    0  0.00000000000E+00  0.00000000000E+00 -0.65666914959E+03  0.65666914961E+03  0.50400001928E-02 0. -1.
    10030    2    1    2    0    0  0.00000000000E+00  0.00000000000E+00  0.43277931685E+03  0.17461176161E+04  0.16916349464E+04 0.  0.
        2    1    3    3  502    0 -0.82157825364E+03  0.10724802894E+02  0.42360725926E+03  0.92441817289E+03  0.25500000920E-02 0.  1.
       -2    1    3    3    0  502  0.82157825364E+03 -0.10724802894E+02  0.91720575837E+01  0.82169944317E+03  0.25500000920E-02 0. -1.
</event>
<event>
 5   0  0.9610114E-04  0.1636051E+04  0.7818609E-02  0.8798701E-01
        2   -1    0    0  501    0  0.00000000000E+00  0.00000000000E+00  0.22081798514E+04  0.22081798514E+04  0.25500000920E-02 0.  1.
       -2   -1    0    0    0  501  0.00000000000E+00  0.00000000000E+00 -0.30303964309E+03  0.30303964310E+03  0.25500000920E-02 0. -1.
    10030    2    1    2    0    0  0.00000000000E+00  0.00000000000E+00  0.19051402083E+04  0.25112194945E+04  0.16360513856E+04 0.  0.
        2    1    3    3  502    0 -0.48658905874E+03 -0.19434605742E+02  0.19614497679E+04  0.20209977258E+04  0.25500000920E-02 0.  1.
       -2    1    3    3    0  502  0.48658905874E+03  0.19434605742E+02 -0.56309559540E+02  0.49022176868E+03  0.25500000920E-02 0. -1.
</event>
<event>
 5   0  0.9625225E-04  0.1725011E+04  0.7818609E-02  0.8747227E-01
        2   -1    0    0  501    0  0.00000000000E+00  0.00000000000E+00  0.12563387038E+04  0.12563387038E+04  0.25500000920E-02 0. -1.
       -2   -1    0    0    0  501  0.00000000000E+00  0.00000000000E+00 -0.59213007626E+03  0.59213007627E+03  0.25500000920E-02 0.  1.
    10030    2    1    2    0    0  0.00000000000E+00  0.00000000000E+00  0.66420862756E+03  0.18484687801E+04  0.17250112261E+04 0.  0.
        1    1    3    3  502    0 -0.84133714358E+03 -0.18833161311E+03  0.35832924310E+03  0.93365777036E+03  0.50400001928E-02 0.  1.
       -1    1    3    3    0  502  0.84133714358E+03  0.18833161311E+03  0.30587938446E+03  0.91481100973E+03  0.50400001928E-02 0. -1.
</event>
<event>
 5   0  0.5009762E-04  0.1674926E+04  0.7818609E-02  0.8775796E-01
       -1   -1    0    0    0  501  0.00000000000E+00  0.00000000000E+00  0.68396776525E+03  0.68396776527E+03  0.50400001928E-02 0.  1.
        1   -1    0    0  501    0  0.00000000000E+00  0.00000000000E+00 -0.10254053013E+04  0.10254053013E+04  0.50400001928E-02 0. -1.
    10030    2    1    2    0    0  0.00000000000E+00  0.00000000000E+00 -0.34143753605E+03  0.17093730666E+04  0.16749258759E+04 0.  0.
        3    1    3    3  502    0  0.10238678743E+03  0.22438379235E+03  0.64606151707E+03  0.69153932249E+03  0.10100000352E+00 0.  1.
       -3    1    3    3    0  502 -0.10238678743E+03 -0.22438379235E+03 -0.98749905312E+03  0.10178337441E+04  0.10100000352E+00 0. -1.
</event>
<event>
 5   0  0.5035495E-04  0.1695044E+04  0.7818609E-02  0.8764196E-01
        1   -1    0    0  501    0  0.00000000000E+00  0.00000000000E+00  0.13770931234E+04  0.13770931234E+04  0.50400001928E-02 0.  1.
       -1   -1    0    0    0  501  0.00000000000E+00  0.00000000000E+00 -0.52160123836E+03  0.52160123839E+03  0.50400001928E-02 0. -1.
    10030    2    1    2    0    0  0.00000000000E+00  0.00000000000E+00  0.85549188500E+03  0.18986943618E+04  0.16950439269E+04 0.  0.
        4    1    3    3  502    0 -0.38089854043E+03  0.38219837941E+03 -0.30432883789E+03  0.61949733962E+03  0.12699999809E+01 0. -1.
       -4    1    3    3    0  502  0.38089854043E+03 -0.38219837941E+03  0.11598207229E+04  0.12791970221E+04  0.12699999809E+01 0.  1.
</event>
<event>
 5   0  0.9610114E-04  0.1671144E+04  0.7818609E-02  0.8777995E-01
       -2   -1    0    0    0  501  0.00000000000E+00  0.00000000000E+00  0.71601987962E+03  0.71601987963E+03  0.25500000920E-02 0. -1.
        2   -1    0    0  501    0  0.00000000000E+00  0.00000000000E+00 -0.97508525355E+03  0.97508525356E+03  0.25500000920E-02 0.  1.
    10030    2    1    2    0    0  0.00000000000E+00  0.00000000000E+00 -0.25906537393E+03  0.16911051332E+04  0.16711438309E+04 0.  0.
        2    1    3    3  502    0  0.57855342354E+03  0.60285212758E+03 -0.12440518763E+03  0.84476706987E+03  0.25500000920E-02 0.  1.
       -2    1    3    3    0  502 -0.57855342354E+03 -0.60285212758E+03 -0.13466018630E+03  0.84633806331E+03  0.25500000920E-02 0. -1.
</event>
<event>
 5   0  0.9284971E-04  0.1708768E+04  0.7818609E-02  0.8756379E-01
        2   -1    0    0  501    0  0.00000000000E+00  0.00000000000E+00  0.15562781964E+04  0.15562781964E+04  0.25500000920E-02 0. -1.
       -2   -1    0    0    0  501  0.00000000000E+00  0.00000000000E+00 -0.46904994055E+03  0.46904994056E+03  0.25500000920E-02 0.  1.
    10030    2    1    2    0    0  0.00000000000E+00  0.00000000000E+00  0.10872282558E+04  0.20253281369E+04  0.17087682061E+04 0.  0.
        4    1    3    3  502    0 -0.23504617218E+03 -0.69565432220E+03  0.10613268568E+04  0.12905804698E+04  0.12699999809E+01 0. -1.
       -4    1    3    3    0  502  0.23504617218E+03  0.69565432220E+03  0.25901399024E+02  0.73474766718E+03  0.12699999809E+01 0.  1.
</event>
<event>
 5   0  0.9312096E-04  0.1717476E+04  0.7818609E-02  0.8751459E-01
       -2   -1    0    0    0  501  0.00000000000E+00  0.00000000000E+00  0.83981259257E+03  0.83981259257E+03  0.25500000920E-02 0. -1.
        2   -1    0    0  501    0  0.00000000000E+00  0.00000000000E+00 -0.87808989798E+03  0.87808989798E+03  0.25500000920E-02 0.  1.
    10030    2    1    2    0    0  0.00000000000E+00  0.00000000000E+00 -0.38277305412E+02  0.17179024906E+04  0.17174760013E+04 0.  0.
        3    1    3    3  502    0  0.83979341781E+02  0.62475099746E+03 -0.60243404764E+03  0.87194789445E+03  0.10100000352E+00 0.  1.
       -3    1    3    3    0  502 -0.83979341781E+02 -0.62475099746E+03  0.56415674223E+03  0.84595459611E+03  0.10100000352E+00 0. -1.
</event>
<event>
 5   0  0.1007187E-03  0.1657898E+04  0.7818609E-02  0.8785748E-01
        2   -1    0    0  501    0  0.00000000000E+00  0.00000000000E+00  0.12051013073E+04  0.12051013073E+04  0.25500000920E-02 0.  1.
       -2   -1    0    0    0  501  0.00000000000E+00  0.00000000000E+00 -0.57020668017E+03  0.57020668018E+03  0.25500000920E-02 0. -1.
    10030    2    1    2    0    0  0.00000000000E+00  0.00000000000E+00  0.63489462716E+03  0.17753079875E+04  0.16578984477E+04 0.  0.
        5    1    3    3  502    0  0.52669092959E+03  0.28667498927E+03 -0.29540215754E+03  0.66848366432E+03  0.46999998093E+01 0. -1.
       -5    1    3    3    0  502 -0.52669092959E+03 -0.28667498927E+03  0.93029678470E+03  0.11068243232E+04  0.46999998093E+01 0.  1.
</event>
<event>
 5   0  0.5035495E-04  0.1674374E+04  0.7818609E-02  0.8776116E-01
       -1   -1    0    0    0  501  0.00000000000E+00  0.00000000000E+00  0.19518554302E+04  0.19518554302E+04  0.50400001928E-02 0.  1.
        1   -1    0    0  501    0  0.00000000000E+00  0.00000000000E+00 -0.35908507112E+03  0.35908507115E+03  0.50400001928E-02 0. -1.
    10030    2    1    2    0    0  0.00000000000E+00  0.00000000000E+00  0.15927703591E+04  0.23109405014E+04  0.16743740873E+04 0.  0.
        4    1    3    3  502    0 -0.81446191992E+03 -0.17618519632E+03  0.68518765747E+03  0.10788295423E+04  0.12699999809E+01 0. -1.
       -4    1    3    3    0  502  0.81446191992E+03  0.17618519632E+03  0.90758270166E+03  0.12321109591E+04  0.12699999809E+01 0.  1.
</event>
<event>
 5   0  0.5059689E-04  0.1712392E+04  0.7818609E-02  0.8754328E-01
       -1   -1    0    0    0  501  0.00000000000E+00  0.00000000000E+00  0.46567339516E+03  0.46567339519E+03  0.50400001928E-02 0.  1.
        1   -1    0    0  501    0  0.00000000000E+00  0.00000000000E+00 -0.15742191592E+04  0.15742191592E+04  0.50400001928E-02 0. -1.
    10030    2    1    2    0    0  0.00000000000E+00  0.00000000000E+00 -0.11085457640E+04  0.20398925544E+04  0.17123924557E+04 0.  0.
        5    1    3    3  502    0  0.65764747957E+03 -0.30567688608E+03 -0.12139799400E+02  0.72533304818E+03  0.46999998093E+01 0.  1.
       -5    1    3    3    0  502 -0.65764747957E+03  0.30567688608E+03 -0.10964059646E+04  0.13145595062E+04  0.46999998093E+01 0. -1.
</event>
<event>
 5   0  0.5074133E-04  0.1692404E+04  0.7818609E-02  0.8765709E-01
       -1   -1    0    0    0  501  0.00000000000E+00  0.00000000000E+00  0.62685056415E+03  0.62685056417E+03  0.50400001928E-02 0. -1.
        1   -1    0    0  501    0  0.00000000000E+00  0.00000000000E+00 -0.11423100016E+04  0.11423100016E+04  0.50400001928E-02 0.  1.
    10030    2    1    2    0    0  0.00000000000E+00  0.00000000000E+00 -0.51545943748E+03  0.17691605658E+04  0.16924038159E+04 0.  0.
        1    1    3    3  502    0 -0.74159244008E+03  0.29630377002E+03 -0.55024649925E+03  0.96980744547E+03  0.50400001928E-02 0.  1.
       -1    1    3    3    0  502  0.74159244008E+03 -0.29630377002E+03  0.34787061769E+02  0.79935312035E+03  0.50400001928E-02 0. -1.
</event>
<event>
 5   0  0.9284971E-04  0.1658164E+04  0.7818609E-02  0.8785591E-01
        2   -1    0    0  501    0  0.00000000000E+00  0.00000000000E+00  0.14954915325E+04  0.14954915325E+04  0.25500000920E-02 0.  1.
       -2   -1    0    0    0  501  0.00000000000E+00  0.00000000000E+00 -0.45963294916E+03  0.45963294917E+03  0.25500000920E-02 0. -1.
    10030    2    1    2    0    0  0.00000000000E+00  0.00000000000E+00  0.10358585834E+04  0.19551244817E+04  0.16581642663E+04 0.  0.
        4    1    3    3  502    0 -0.60555911845E+02  0.39901345696E+03 -0.33599287825E+03  0.52513958566E+03  0.12699999809E+01 0. -1.
       -4    1    3    3    0  502  0.60555911845E+02 -0.39901345696E+03  0.13718514616E+04  0.14299848960E+04  0.12699999809E+01 0.  1.
</event>
<event>
 5   0  0.9284971E-04  0.1680724E+04  0.7818609E-02  0.8772435E-01
       -2   -1    0    0    0  501  0.00000000000E+00  0.00000000000E+00  0.91054530283E+03  0.91054530284E+03  0.25500000920E-02 0. -1.
        2   -1    0    0  501    0  0.00000000000E+00  0.00000000000E+00 -0.77558789668E+03  0.77558789668E+03  0.25500000920E-02 0.  1.
    10030    2    1    2    0    0  0.00000000000E+00  0.00000000000E+00  0.13495740616E+03  0.16861331995E+04  0.16807235540E+04 0.  0.
        4    1    3    3  502    0 -0.26711531590E+03  0.51369243520E+03 -0.54355952180E+03  0.79415935215E+03  0.12699999809E+01 0.  1.
       -4    1    3    3    0  502  0.26711531590E+03 -0.51369243520E+03  0.67851692795E+03  0.89197384737E+03  0.12699999809E+01 0. -1.
</event>
<event>
 5   0  0.3523125E-04  0.1720443E+04  0.7818609E-02  0.8749790E-01
        3   -1    0    0  501    0  0.00000000000E+00  0.00000000000E+00  0.50084364666E+03  0.50084365684E+03  0.10100000352E+00 0. -1.
       -3   -1    0    0    0  501  0.00000000000E+00  0.00000000000E+00 -0.14774685925E+04  0.14774685959E+04  0.10100000352E+00 0.  1.
    10030    2    1    2    0    0  0.00000000000E+00  0.00000000000E+00 -0.97662494582E+03  0.19783122528E+04  0.17204427002E+04 0.  0.
        4    1    3    3  502    0 -0.56652018234E+03 -0.31909450322E+03  0.15932197066E+03  0.66944120147E+03  0.12699999809E+01 0. -1.
       -4    1    3    3    0  502  0.56652018234E+03  0.31909450322E+03 -0.11359469165E+04  0.13088710513E+04  0.12699999809E+01 0.  1.
</event>
<event>
 5   0  0.9610114E-04  0.1657080E+04  0.7818609E-02  0.8786229E-01
       -2   -1    0    0    0  501  0.00000000000E+00  0.00000000000E+00  0.10155850235E+04  0.10155850235E+04  0.25500000920E-02 0.  1.
        2   -1    0    0  501    0  0.00000000000E+00  0.00000000000E+00 -0.67594393916E+03  0.67594393916E+03  0.25500000920E-02 0. -1.
    10030    2    1    2    0    0  0.00000000000E+00  0.00000000000E+00  0.33964108437E+03  0.16915289627E+04  0.16570800118E+04 0.  0.
        2    1    3    3  502    0 -0.43574315880E+03  0.65696559818E+02 -0.54639978760E+03  0.70195503154E+03  0.25500000920E-02 0. -1.
       -2    1    3    3    0  502  0.43574315880E+03 -0.65696559818E+02  0.88604087196E+03  0.98957393115E+03  0.25500000920E-02 0.  1.
</event>
<event>
 5   0  0.4947006E-04  0.1689033E+04  0.7818609E-02  0.8767644E-01
       -1   -1    0    0    0  501  0.00000000000E+00  0.00000000000E+00  0.94577429152E+03  0.94577429153E+03  0.50400001928E-02 0. -1.
        1   -1    0    0  501    0  0.00000000000E+00  0.00000000000E+00 -0.75409937282E+03  0.75409937283E+03  0.50400001928E-02 0.  1.
    10030    2    1    2    0    0  0.00000000000E+00  0.00000000000E+00  0.19167491870E+03  0.16998736644E+04  0.16890326226E+04 0.  0.
        2    1    3    3  502    0  0.21610215484E+03  0.22313382279E+03  0.88619255281E+03  0.93905595407E+03  0.25500000920E-02 0. -1.
       -2    1    3    3    0  502 -0.21610215484E+03 -0.22313382279E+03 -0.69451763411E+03  0.76081771030E+03  0.25500000920E-02 0.  1.
</event>
<event>
 5   0  0.5009762E-04  0.1690288E+04  0.7818609E-02  0.8766923E-01
        1   -1    0    0  501    0  0.00000000000E+00  0.00000000000E+00  0.85998057475E+03  0.85998057477E+03  0.50400001928E-02 0. -1.
       -1   -1    0    0    0  501  0.00000000000E+00  0.00000000000E+00 -0.83056291048E+03  0.83056291050E+03  0.50400001928E-02 0.  1.
    10030    2    1    2    0    0  0.00000000000E+00  0.00000000000E+00  0.29417664267E+02  0.16905434853E+04  0.16902875130E+04 0.  0.
        3    1    3    3  502    0 -0.79262841845E+03  0.29156093969E+03 -0.16924546852E+02  0.84472128053E+03  0.10100000352E+00 0. -1.
       -3    1    3    3    0  502  0.79262841845E+03 -0.29156093969E+03  0.46342211119E+02  0.84582220474E+03  0.10100000352E+00 0.  1.
</event>
<event>
 5   0  0.1007187E-03  0.1665340E+04  0.7818609E-02  0.8781383E-01
       -2   -1    0    0    0  501  0.00000000000E+00  0.00000000000E+00  0.58358444439E+03  0.58358444439E+03  0.25500000920E-02 0. -1.
        2   -1    0    0  501    0  0.00000000000E+00  0.00000000000E+00 -0.11880698511E+04  0.11880698511E+04  0.25500000920E-02 0.  1.
    10030    2    1    2    0    0  0.00000000000E+00  0.00000000000E+00 -0.60448540670E+03  0.17716542955E+04  0.16653397058E+04 0.  0.
        5    1    3    3  502    0 -0.54776432114E+03  0.62385795802E+03 -0.23435264334E+03  0.86266317572E+03  0.46999998093E+01 0.  1.
       -5    1    3    3    0  502  0.54776432114E+03 -0.62385795802E+03 -0.37013276335E+03  0.90899111976E+03  0.46999998093E+01 0. -1.
</event>
<event>
 5   0  0.9625225E-04  0.1661643E+04  0.7818609E-02  0.8783548E-01
       -2   -1    0    0    0  501  0.00000000000E+00  0.00000000000E+00  0.74793810798E+03  0.74793810798E+03  0.25500000920E-02 0. -1.
        2   -1    0    0  501    0  0.00000000000E+00  0.00000000000E+00 -0.92289017970E+03  0.92289017971E+03  0.25500000920E-02 0.  1.
    10030    2    1    2    0    0  0.00000000000E+00  0.00000000000E+00 -0.17495207172E+03  0.16708282877E+04  0.16616434454E+04 0.  0.
        1    1    3    3  502    0 -0.54650000322E+03 -0.64760063760E+02 -0.71333808539E+03  0.90094802485E+03  0.50400001928E-02 0.  1.
       -1    1    3    3    0  502  0.54650000322E+03  0.64760063760E+02  0.53838601367E+03  0.76988026284E+03  0.50400001928E-02 0. -1.
</event>
<event>
 5   0  0.5035495E-04  0.1696891E+04  0.7818609E-02  0.8763139E-01
       -1   -1    0    0    0  501  0.00000000000E+00  0.00000000000E+00  0.49128045850E+03  0.49128045853E+03  0.50400001928E-02 0. -1.
        1   -1    0    0  501    0  0.00000000000E+00  0.00000000000E+00 -0.14652733049E+04  0.14652733049E+04  0.50400001928E-02 0.  1.
    10030    2    1    2    0    0  0.00000000000E+00  0.00000000000E+00 -0.97399284640E+03  0.19565537634E+04  0.16968914415E+04 0.  0.
        4    1    3    3  502    0  0.78028026034E+03 -0.28492115870E+03 -0.68617641043E+03  0.10774307544E+04  0.12699999809E+01 0.  1.
       -4    1    3    3    0  502 -0.78028026034E+03  0.28492115870E+03 -0.28781643596E+03  0.87912300906E+03  0.12699999809E+01 0. -1.
</event>
<event>
 5   0  0.5035495E-04  0.1673038E+04  0.7818609E-02  0.8776893E-01
       -1   -1    0    0    0  501  0.00000000000E+00  0.00000000000E+00  0.85004536367E+03  0.85004536369E+03  0.50400001928E-02 0.  1.
        1   -1    0    0  501    0  0.00000000000E+00  0.00000000000E+00 -0.82320743930E+03  0.82320743932E+03  0.50400001928E-02 0. -1.
    10030    2    1    2    0    0  0.00000000000E+00  0.00000000000E+00  0.26837924366E+02  0.16732528030E+04  0.16730375574E+04 0.  0.
        4    1    3    3  502    0 -0.67712393750E+03 -0.94951596328E+02  0.49540359479E+03  0.84435713238E+03  0.12699999809E+01 0. -1.
       -4    1    3    3    0  502  0.67712393750E+03  0.94951596328E+02 -0.46856567042E+03  0.82889567062E+03  0.12699999809E+01 0.  1.
</event>
<event>
 5   0  0.5059689E-04  0.1816290E+04  0.7818609E-02  0.8697684E-01
       -1   -1    0    0    0  501  0.00000000000E+00  0.00000000000E+00  0.10526521317E+04  0.10526521317E+04  0.50400001928E-02 0.  1.
        1   -1    0    0  501    0  0.00000000000E+00  0.00000000000E+00 -0.78347545318E+03  0.78347545320E+03  0.50400001928E-02 0. -1.
    10030    2    1    2    0    0  0.00000000000E+00  0.00000000000E+00  0.26917667854E+03  0.18361275849E+04  0.18162897412E+04 0.  0.
        5    1    3    3  502    0 -0.79568233003E+03 -0.36250770982E+03 -0.11341295168E+03  0.88170675262E+03  0.46999998093E+01 0.  1.
       -5    1    3    3    0  502  0.79568233003E+03  0.36250770982E+03  0.38258963022E+03  0.95442083231E+03  0.46999998093E+01 0. -1.
</event>
<event>
 5   0  0.9284971E-04  0.1687718E+04  0.7818609E-02  0.8768400E-01
        2   -1    0    0  501    0  0.00000000000E+00  0.00000000000E+00  0.84358395765E+03  0.84358395765E+03  0.25500000920E-02 0. -1.
       -2   -1    0    0    0  501  0.00000000000E+00  0.00000000000E+00 -0.84413408850E+03  0.84413408851E+03  0.25500000920E-02 0.  1.
    10030    2    1    2    0    0  0.00000000000E+00  0.00000000000E+00 -0.55013085635E+00  0.16877180462E+04  0.16877179565E+04 0.  0.
        4    1    3    3  502    0  0.49919306813E+03  0.13061474023E+03 -0.66798943550E+03  0.84407667216E+03  0.12699999809E+01 0.  1.
       -4    1    3    3    0  502 -0.49919306813E+03 -0.13061474023E+03  0.66743930464E+03  0.84364137400E+03  0.12699999809E+01 0. -1.
</event>
<event>
 5   0  0.5059689E-04  0.1709977E+04  0.7818609E-02  0.8755694E-01
        1   -1    0    0  501    0  0.00000000000E+00  0.00000000000E+00  0.14394649737E+04  0.14394649737E+04  0.50400001928E-02 0. -1.
       -1   -1    0    0    0  501  0.00000000000E+00  0.00000000000E+00 -0.50783153203E+03  0.50783153206E+03  0.50400001928E-02 0.  1.
    10030    2    1    2    0    0  0.00000000000E+00  0.00000000000E+00  0.93163344170E+03  0.19472965058E+04  0.17099774302E+04 0.  0.
        5    1    3    3  502    0 -0.11821614814E+03  0.20928219913E+02  0.14298037460E+04  0.14348428102E+04  0.46999998093E+01 0. -1.
       -5    1    3    3    0  502  0.11821614814E+03 -0.20928219913E+02 -0.49817030426E+03  0.51245369558E+03  0.46999998093E+01 0.  1.
</event>
<event>
 5   0  0.9312096E-04  0.1692826E+04  0.7818609E-02  0.8765466E-01
        2   -1    0    0  501    0  0.00000000000E+00  0.00000000000E+00  0.69715610372E+03  0.69715610373E+03  0.25500000920E-02 0.  1.
       -2   -1    0    0    0  501  0.00000000000E+00  0.00000000000E+00 -0.10276252061E+04  0.10276252061E+04  0.25500000920E-02 0. -1.
    10030    2    1    2    0    0  0.00000000000E+00  0.00000000000E+00 -0.33046910238E+03  0.17247813098E+04  0.16928262578E+04 0.  0.
        3    1    3    3  502    0 -0.80285673258E+02  0.36592684002E+03  0.60808345757E+03  0.71422247455E+03  0.10100000352E+00 0.  1.
       -3    1    3    3    0  502  0.80285673258E+02 -0.36592684002E+03 -0.93855255995E+03  0.10105588353E+04  0.10100000352E+00 0. -1.
</event>
<event>
 5   0  0.9312096E-04  0.1655759E+04  0.7818609E-02  0.8787007E-01
        2   -1    0    0  501    0  0.00000000000E+00  0.00000000000E+00  0.46178451694E+03  0.46178451694E+03  0.25500000920E-02 0.  1.
       -2   -1    0    0    0  501  0.00000000000E+00  0.00000000000E+00 -0.14842086752E+04  0.14842086752E+04  0.25500000920E-02 0. -1.
    10030    2    1    2    0    0  0.00000000000E+00  0.00000000000E+00 -0.10224241583E+04  0.19459931921E+04  0.16557591445E+04 0.  0.
        3    1    3    3  502    0 -0.62655561182E+03  0.28910033885E+03 -0.10488128771E+04  0.12554518716E+04  0.10100000352E+00 0. -1.
       -3    1    3    3    0  502  0.62655561182E+03 -0.28910033885E+03  0.26388718853E+02  0.69054132049E+03  0.10100000352E+00 0.  1.
</event>
<event>
 5   0  0.3523125E-04  0.1579153E+04  0.7818609E-02  0.8833459E-01
        3   -1    0    0  501    0  0.00000000000E+00  0.00000000000E+00  0.99743081769E+03  0.99743082280E+03  0.10100000352E+00 0. -1.
       -3   -1    0    0    0  501  0.00000000000E+00  0.00000000000E+00 -0.62503670358E+03  0.62503671174E+03  0.10100000352E+00 0.  1.
    10030    2    1    2    0    0  0.00000000000E+00  0.00000000000E+00  0.37239411411E+03  0.16224675345E+04  0.15791527869E+04 0.  0.
        1    1    3    3  502    0  0.14059401797E+03 -0.57452591854E+03 -0.35120255471E+03  0.68788803117E+03  0.50400001928E-02 0.  1.
       -1    1    3    3    0  502 -0.14059401797E+03  0.57452591854E+03  0.72359666882E+03  0.93457950337E+03  0.50400001928E-02 0. -1.
</event>
<event>
 5   0  0.5059689E-04  0.1140657E+04  0.7818609E-02  0.9166446E-01
       -1   -1    0    0    0  501  0.00000000000E+00  0.00000000000E+00  0.64954149680E+03  0.64954149682E+03  0.50400001928E-02 0. -1.
        1   -1    0    0  501    0  0.00000000000E+00  0.00000000000E+00 -0.50077571463E+03  0.50077571465E+03  0.50400001928E-02 0.  1.
    10030    2    1    2    0    0  0.00000000000E+00  0.00000000000E+00  0.14876578217E+03  0.11503172115E+04  0.11406570164E+04 0.  0.
        5    1    3    3  502    0 -0.32853622539E+02 -0.30476646392E+03  0.55938261877E+03  0.63788162085E+03  0.46999998093E+01 0. -1.
       -5    1    3    3    0  502  0.32853622539E+02  0.30476646392E+03 -0.41061683659E+03  0.51243559062E+03  0.46999998093E+01 0.  1.
</event>
<event>
 5   0  0.9312096E-04  0.1700531E+04  0.7818609E-02  0.8761062E-01
       -2   -1    0    0    0  501  0.00000000000E+00  0.00000000000E+00  0.11412291269E+04  0.11412291269E+04  0.25500000920E-02 0. -1.
        2   -1    0    0  501    0  0.00000000000E+00  0.00000000000E+00 -0.63348492893E+03  0.63348492893E+03  0.25500000920E-02 0.  1.
    10030    2    1    2    0    0  0.00000000000E+00  0.00000000000E+00  0.50774419793E+03  0.17747140558E+04  0.17005310374E+04 0.  0.
        3    1    3    3  502    0  0.84523647360E+03  0.66677807347E+02  0.32054008313E+03  0.90643068206E+03  0.10100000352E+00 0.  1.
       -3    1    3    3    0  502 -0.84523647360E+03 -0.66677807347E+02  0.18720411480E+03  0.86828337373E+03  0.10100000352E+00 0. -1.
</event>
<event>
 5   0  0.3523125E-04  0.1719914E+04  0.7818609E-02  0.8750088E-01
        3   -1    0    0  501    0  0.00000000000E+00  0.00000000000E+00  0.66029723237E+03  0.66029724010E+03  0.10100000352E+00 0.  1.
       -3   -1    0    0    0  501  0.00000000000E+00  0.00000000000E+00 -0.11199891911E+04  0.11199891957E+04  0.10100000352E+00 0. -1.
    10030    2    1    2    0    0  0.00000000000E+00  0.00000000000E+00 -0.45969195876E+03  0.17802864358E+04  0.17199136887E+04 0.  0.
        5    1    3    3  502    0 -0.19676762841E+02 -0.73401345420E+02 -0.11164934891E+04  0.11190865622E+04  0.46999998093E+01 0. -1.
       -5    1    3    3    0  502  0.19676762841E+02  0.73401345420E+02  0.65680153036E+03  0.66119987356E+03  0.46999998093E+01 0.  1.
</event>
<event>
 5   0  0.9610114E-04  0.1706303E+04  0.7818609E-02  0.8757778E-01
        2   -1    0    0  501    0  0.00000000000E+00  0.00000000000E+00  0.74084420125E+03  0.74084420125E+03  0.25500000920E-02 0. -1.
       -2   -1    0    0    0  501  0.00000000000E+00  0.00000000000E+00 -0.98248422642E+03  0.98248422642E+03  0.25500000920E-02 0.  1.
    10030    2    1    2    0    0  0.00000000000E+00  0.00000000000E+00 -0.24164002517E+03  0.17233284277E+04  0.17063033048E+04 0.  0.
        2    1    3    3  502    0  0.64273671416E+02 -0.46422760076E+02 -0.97875530727E+03  0.98196136838E+03  0.25500000920E-02 0.  1.
       -2    1    3    3    0  502 -0.64273671416E+02  0.46422760076E+02  0.73711528209E+03  0.74136705929E+03  0.25500000920E-02 0. -1.
</event>
<event>
 5   0  0.9625225E-04  0.1739277E+04  0.7818609E-02  0.8739275E-01
        2   -1    0    0  501    0  0.00000000000E+00  0.00000000000E+00  0.16565700743E+04  0.16565700743E+04  0.25500000920E-02 0.  1.
       -2   -1    0    0    0  501  0.00000000000E+00  0.00000000000E+00 -0.45652825673E+03  0.45652825674E+03  0.25500000920E-02 0. -1.
    10030    2    1    2    0    0  0.00000000000E+00  0.00000000000E+00  0.12000418176E+04  0.21130983311E+04  0.17392769166E+04 0.  0.
        1    1    3    3  502    0  0.42458908457E+03 -0.11557618335E+03 -0.31128720142E+03  0.53901156452E+03  0.50400001928E-02 0. -1.
       -1    1    3    3    0  502 -0.42458908457E+03  0.11557618335E+03  0.15113290190E+04  0.15740867666E+04  0.50400001928E-02 0.  1.
</event>
<event>
 5   0  0.5074133E-04  0.1698695E+04  0.7818609E-02  0.8762109E-01
       -1   -1    0    0    0  501  0.00000000000E+00  0.00000000000E+00  0.79505065564E+03  0.79505065566E+03  0.50400001928E-02 0.  1.
        1   -1    0    0  501    0  0.00000000000E+00  0.00000000000E+00 -0.90735281248E+03  0.90735281250E+03  0.50400001928E-02 0. -1.
    10030    2    1    2    0    0  0.00000000000E+00  0.00000000000E+00 -0.11230215684E+03  0.17024034682E+04  0.16986953211E+04 0.  0.
        1    1    3    3  502    0 -0.58111299404E+03  0.61476067895E+03 -0.13226714794E+03  0.85622286975E+03  0.50400001928E-02 0.  1.
       -1    1    3    3    0  502  0.58111299404E+03 -0.61476067895E+03  0.19964991104E+02  0.84618059841E+03  0.50400001928E-02 0. -1.
</event>
<event>
 5   0  0.9284971E-04  0.1681241E+04  0.7818609E-02  0.8772136E-01
        2   -1    0    0  501    0  0.00000000000E+00  0.00000000000E+00  0.13271662104E+04  0.13271662104E+04  0.25500000920E-02 0. -1.
       -2   -1    0    0    0  501  0.00000000000E+00  0.00000000000E+00 -0.53244492904E+03  0.53244492904E+03  0.25500000920E-02 0.  1.
    10030    2    1    2    0    0  0.00000000000E+00  0.00000000000E+00  0.79472128138E+03  0.18596111395E+04  0.16812411115E+04 0.  0.
        4    1    3    3  502    0  0.23976865661E+02 -0.55714222923E+03 -0.29838843172E+03  0.63247104500E+03  0.12699999809E+01 0.  1.
       -4    1    3    3    0  502 -0.23976865661E+02  0.55714222923E+03  0.10931097131E+04  0.12271400945E+04  0.12699999809E+01 0. -1.
</event>
<event>
 5   0  0.9284971E-04  0.1660256E+04  0.7818609E-02  0.8784362E-01
       -2   -1    0    0    0  501  0.00000000000E+00  0.00000000000E+00  0.83376347283E+03  0.83376347283E+03  0.25500000920E-02 0.  1.
        2   -1    0    0  501    0  0.00000000000E+00  0.00000000000E+00 -0.82650847050E+03  0.82650847050E+03  0.25500000920E-02 0. -1.
    10030    2    1    2    0    0  0.00000000000E+00  0.00000000000E+00  0.72550023316E+01  0.16602719433E+04  0.16602560919E+04 0.  0.
        4    1    3    3  502    0  0.51162113943E+03  0.63524902031E+03  0.15794505170E+03  0.83081030348E+03  0.12699999809E+01 0.  1.
       -4    1    3    3    0  502 -0.51162113943E+03 -0.63524902031E+03 -0.15069004937E+03  0.82946163985E+03  0.12699999809E+01 0. -1.
</event>
<event>
 5   0  0.9312096E-04  0.1665428E+04  0.7818609E-02  0.8781331E-01
       -2   -1    0    0    0  501  0.00000000000E+00  0.00000000000E+00  0.82226442891E+03  0.82226442891E+03  0.25500000920E-02 0. -1.
        2   -1    0    0  501    0  0.00000000000E+00  0.00000000000E+00 -0.84329632832E+03  0.84329632833E+03  0.25500000920E-02 0.  1.
    10030    2    1    2    0    0  0.00000000000E+00  0.00000000000E+00 -0.21031899416E+02  0.16655607572E+04  0.16654279616E+04 0.  0.
        3    1    3    3  502    0  0.76466161112E+03 -0.27309790972E+03 -0.19525402831E+03  0.83511316214E+03  0.10100000352E+00 0. -1.
       -3    1    3    3    0  502 -0.76466161112E+03  0.27309790972E+03  0.17422212889E+03  0.83044759510E+03  0.10100000352E+00 0.  1.
</event>
<event>
 5   0  0.5035495E-04  0.1707408E+04  0.7818609E-02  0.8757151E-01
        1   -1    0    0  501    0  0.00000000000E+00  0.00000000000E+00  0.34273154269E+03  0.34273154272E+03  0.50400001928E-02 0.  1.
       -1   -1    0    0    0  501  0.00000000000E+00  0.00000000000E+00 -0.21264763242E+04  0.21264763242E+04  0.50400001928E-02 0. -1.
    10030    2    1    2    0    0  0.00000000000E+00  0.00000000000E+00 -0.17837447815E+04  0.24692078670E+04  0.17074079901E+04 0.  0.
        4    1    3    3  502    0  0.32753776208E+03  0.78394212915E+03 -0.10125447073E+04  0.13217770783E+04  0.12699999809E+01 0. -1.
       -4    1    3    3    0  502 -0.32753776208E+03 -0.78394212915E+03 -0.77120007426E+03  0.11474307887E+04  0.12699999809E+01 0.  1.
</event>
<event>
 5   0  0.4947006E-04  0.1716152E+04  0.7818609E-02  0.8752205E-01
       -1   -1    0    0    0  501  0.00000000000E+00  0.00000000000E+00  0.62421852716E+03  0.62421852718E+03  0.50400001928E-02 0.  1.
        1   -1    0    0  501    0  0.00000000000E+00  0.00000000000E+00 -0.11795461842E+04  0.11795461842E+04  0.50400001928E-02 0. -1.
    10030    2    1    2    0    0  0.00000000000E+00  0.00000000000E+00 -0.55532765704E+03  0.18037647114E+04  0.17161521865E+04 0.  0.
        2    1    3    3  502    0  0.48475284470E+03  0.94943972808E+02 -0.10151209231E+04  0.11289243407E+04  0.25500000920E-02 0. -1.
       -2    1    3    3    0  502 -0.48475284470E+03 -0.94943972808E+02  0.45979326607E+03  0.67484037071E+03  0.25500000920E-02 0.  1.
</event>
<event>
 5   0  0.9312096E-04  0.1703520E+04  0.7818609E-02  0.8759359E-01
        2   -1    0    0  501    0  0.00000000000E+00  0.00000000000E+00  0.22084283807E+04  0.22084283807E+04  0.25500000920E-02 0.  1.
       -2   -1    0    0    0  501  0.00000000000E+00  0.00000000000E+00 -0.32851206393E+03  0.32851206394E+03  0.25500000920E-02 0. -1.
    10030    2    1    2    0    0  0.00000000000E+00  0.00000000000E+00  0.18799163168E+04  0.25369404446E+04  0.17035203144E+04 0.  0.
        3    1    3    3  502    0 -0.39982806905E+03  0.35617339370E+03  0.19264263656E+04  0.19994600580E+04  0.10100000352E+00 0. -1.
       -3    1    3    3    0  502  0.39982806905E+03 -0.35617339370E+03 -0.46510048849E+02  0.53748038665E+03  0.10100000352E+00 0.  1.
</event>
<event>
 5   0  0.9284971E-04  0.1702245E+04  0.7818609E-02  0.8760085E-01
       -2   -1    0    0    0  501  0.00000000000E+00  0.00000000000E+00  0.80574490179E+03  0.80574490179E+03  0.25500000920E-02 0.  1.
        2   -1    0    0  501    0  0.00000000000E+00  0.00000000000E+00 -0.89905537400E+03  0.89905537401E+03  0.25500000920E-02 0. -1.
    10030    2    1    2    0    0  0.00000000000E+00  0.00000000000E+00 -0.93310472213E+02  0.17048002758E+04  0.17022447345E+04 0.  0.
        4    1    3    3  502    0  0.16509175458E+02  0.84363591988E+03 -0.15823862775E+03  0.85850753893E+03  0.12699999809E+01 0.  1.
       -4    1    3    3    0  502 -0.16509175458E+02 -0.84363591988E+03  0.64928155540E+02  0.84629273687E+03  0.12699999809E+01 0. -1.
</event>
<event>
 5   0  0.9284971E-04  0.1005745E+04  0.7818609E-02  0.9302266E-01
       -2   -1    0    0    0  501  0.00000000000E+00  0.00000000000E+00  0.76170339286E+03  0.76170339286E+03  0.25500000920E-02 0.  1.
        2   -1    0    0  501    0  0.00000000000E+00  0.00000000000E+00 -0.33199382202E+03  0.33199382203E+03  0.25500000920E-02 0. -1.
    10030    2    1    2    0    0  0.00000000000E+00  0.00000000000E+00  0.42970957084E+03  0.10936972149E+04  0.10057451380E+04 0.  0.
        4    1    3    3  502    0 -0.48897835222E+03  0.10696639522E+03  0.26743125168E+03  0.56750570563E+03  0.12699999809E+01 0.  1.
       -4    1    3    3    0  502  0.48897835222E+03 -0.10696639522E+03  0.16227831916E+03  0.52619150926E+03  0.12699999809E+01 0. -1.
</event>
<event>
 5   0  0.5009762E-04  0.1716903E+04  0.7818609E-02  0.8751782E-01
       -1   -1    0    0    0  501  0.00000000000E+00  0.00000000000E+00  0.78649774932E+03  0.78649774934E+03  0.50400001928E-02 0. -1.
        1   -1    0    0  501    0  0.00000000000E+00  0.00000000000E+00 -0.93698822532E+03  0.93698822533E+03  0.50400001928E-02 0.  1.
    10030    2    1    2    0    0  0.00000000000E+00  0.00000000000E+00 -0.15049047600E+03  0.17234859747E+04  0.17169031777E+04 0.  0.
        3    1    3    3  502    0 -0.72216646140E+03  0.25493173526E+03 -0.46457829916E+03  0.89573857451E+03  0.10100000352E+00 0.  1.
       -3    1    3    3    0  502  0.72216646140E+03 -0.25493173526E+03  0.31408782316E+03  0.82774740016E+03  0.10100000352E+00 0. -1.
</event>
<event>
 5   0  0.5074133E-04  0.1703497E+04  0.7818609E-02  0.8759372E-01
       -1   -1    0    0    0  501  0.00000000000E+00  0.00000000000E+00  0.76965330842E+03  0.76965330843E+03  0.50400001928E-02 0.  1.
        1   -1    0    0  501    0  0.00000000000E+00  0.00000000000E+00 -0.94260026935E+03  0.94260026937E+03  0.50400001928E-02 0. -1.
    10030    2    1    2    0    0  0.00000000000E+00  0.00000000000E+00 -0.17294696094E+03  0.17122535778E+04  0.17034968927E+04 0.  0.
        1    1    3    3  502    0  0.17980772124E+03  0.37157464184E+03 -0.83533809161E+03  0.93176620372E+03  0.50400001928E-02 0. -1.
       -1    1    3    3    0  502 -0.17980772124E+03 -0.37157464184E+03  0.66239113067E+03  0.78048737408E+03  0.50400001928E-02 0.  1.
</event>
<event>
 5   0  0.4947006E-04  0.1608873E+04  0.7818609E-02  0.8815116E-01
       -1   -1    0    0    0  501  0.00000000000E+00  0.00000000000E+00  0.80489588710E+03  0.80489588711E+03  0.50400001928E-02 0.  1.
        1   -1    0    0  501    0  0.00000000000E+00  0.00000000000E+00 -0.80397717464E+03  0.80397717466E+03  0.50400001928E-02 0. -1.
    10030    2    1    2    0    0  0.00000000000E+00  0.00000000000E+00  0.91871245323E+00  0.16088730618E+04  0.16088727995E+04 0.  0.
        2    1    3    3  502    0  0.20058611430E+03  0.58577773604E+03 -0.51310433205E+03  0.80414327136E+03  0.25500000920E-02 0. -1.
       -2    1    3    3    0  502 -0.20058611430E+03 -0.58577773604E+03  0.51402304451E+03  0.80472979041E+03  0.25500000920E-02 0.  1.
</event>
<event>
 5   0  0.9625225E-04  0.1656344E+04  0.7818609E-02  0.8786662E-01
        2   -1    0    0  501    0  0.00000000000E+00  0.00000000000E+00  0.93692059650E+03  0.93692059650E+03  0.25500000920E-02 0. -1.
       -2   -1    0    0    0  501  0.00000000000E+00  0.00000000000E+00 -0.73204564851E+03  0.73204564852E+03  0.25500000920E-02 0.  1.
    10030    2    1    2    0    0  0.00000000000E+00  0.00000000000E+00  0.20487494799E+03  0.16689662450E+04  0.16563437393E+04 0.  0.
        1    1    3    3  502    0 -0.49235513621E+03 -0.14833027790E+03  0.75657905681E+03  0.91478266311E+03  0.50400001928E-02 0. -1.
       -1    1    3    3    0  502  0.49235513621E+03  0.14833027790E+03 -0.55170410882E+03  0.75418358191E+03  0.50400001928E-02 0.  1.
</event>
<event>
 5   0  0.9284971E-04  0.1790188E+04  0.7818609E-02  0.8711535E-01
       -2   -1    0    0    0  501  0.00000000000E+00  0.00000000000E+00  0.67759880716E+03  0.67759880717E+03  0.25500000920E-02 0. -1.
        2   -1    0    0  501    0  0.00000000000E+00  0.00000000000E+00 -0.11824001387E+04  0.11824001387E+04  0.25500000920E-02 0.  1.
    10030    2    1    2    0    0  0.00000000000E+00  0.00000000000E+00 -0.50480133153E+03  0.18599989459E+04  0.17901876143E+04 0.  0.
        4    1    3    3  502    0  0.65174685078E+03  0.46138490885E+03 -0.67257343032E+03  0.10440338231E+04  0.12699999809E+01 0.  1.
       -4    1    3    3    0  502 -0.65174685078E+03 -0.46138490885E+03  0.16777209878E+03  0.81596512281E+03  0.12699999809E+01 0. -1.
</event>
<event>
 5   0  0.5059689E-04  0.1717102E+04  0.7818609E-02  0.8751670E-01
        1   -1    0    0  501    0  0.00000000000E+00  0.00000000000E+00  0.76827681377E+03  0.76827681379E+03  0.50400001928E-02 0. -1.
       -1   -1    0    0    0  501  0.00000000000E+00  0.00000000000E+00 -0.95943229620E+03  0.95943229621E+03  0.50400001928E-02 0.  1.
    10030    2    1    2    0    0  0.00000000000E+00  0.00000000000E+00 -0.19115548243E+03  0.17277091100E+04  0.17171017297E+04 0.  0.
        5    1    3    3  502    0 -0.45901675705E+03  0.64528446227E+03 -0.42928766223E+03  0.90077655800E+03  0.46999998093E+01 0. -1.
       -5    1    3    3    0  502  0.45901675705E+03 -0.64528446227E+03  0.23813217980E+03  0.82693255200E+03  0.46999998093E+01 0.  1.
</event>
<event>
 5   0  0.9625225E-04  0.1687082E+04  0.7818609E-02  0.8768767E-01
        2   -1    0    0  501    0  0.00000000000E+00  0.00000000000E+00  0.74454048629E+03  0.74454048630E+03  0.25500000920E-02 0.  1.
       -2   -1    0    0    0  501  0.00000000000E+00  0.00000000000E+00 -0.95570513324E+03  0.95570513325E+03  0.25500000920E-02 0. -1.
    10030    2    1    2    0    0  0.00000000000E+00  0.00000000000E+00 -0.21116464695E+03  0.17002456195E+04  0.16870816989E+04 0.  0.
        1    1    3    3  502    0  0.50876233493E+03 -0.66712222501E+03 -0.17320500076E+02  0.83916099545E+03  0.50400001928E-02 0.  1.
       -1    1    3    3    0  502 -0.50876233493E+03  0.66712222501E+03 -0.19384414687E+03  0.86108462409E+03  0.50400001928E-02 0. -1.
</event>
<event>
 5   0  0.5009762E-04  0.1699988E+04  0.7818609E-02  0.8761371E-01
       -1   -1    0    0    0  501  0.00000000000E+00  0.00000000000E+00  0.10855128754E+04  0.10855128754E+04  0.50400001928E-02 0.  1.
        1   -1    0    0  501    0  0.00000000000E+00  0.00000000000E+00 -0.66557448307E+03  0.66557448309E+03  0.50400001928E-02 0. -1.
    10030    2    1    2    0    0  0.00000000000E+00  0.00000000000E+00  0.41993839232E+03  0.17510873585E+04  0.16999878481E+04 0.  0.
        3    1    3    3  502    0 -0.53939613725E+02 -0.81179662025E+03 -0.43530807404E+02  0.81475037648E+03  0.10100000352E+00 0. -1.
       -3    1    3    3    0  502  0.53939613725E+02  0.81179662025E+03  0.46346919972E+03  0.93633698200E+03  0.10100000352E+00 0.  1.
</event>
<event>
 5   0  0.3523125E-04  0.1646078E+04  0.7818609E-02  0.8792730E-01
       -3   -1    0    0    0  501  0.00000000000E+00  0.00000000000E+00  0.82400809971E+03  0.82400810590E+03  0.10100000352E+00 0. -1.
        3   -1    0    0  501    0  0.00000000000E+00  0.00000000000E+00 -0.82207054018E+03  0.82207054639E+03  0.10100000352E+00 0.  1.
    10030    2    1    2    0    0  0.00000000000E+00  0.00000000000E+00  0.19375595290E+01  0.16460786523E+04  0.16460775120E+04 0.  0.
        2    1    3    3  502    0  0.31754719232E+03 -0.16789621406E+03  0.74148764891E+03  0.82391097307E+03  0.25500000920E-02 0. -1.
       -2    1    3    3    0  502 -0.31754719232E+03  0.16789621406E+03 -0.73955008938E+03  0.82216767922E+03  0.25500000920E-02 0.  1.
</event>
<event>
 5   0  0.5059689E-04  0.1286998E+04  0.7818609E-02  0.9039940E-01
        1   -1    0    0  501    0  0.00000000000E+00  0.00000000000E+00  0.86637224435E+03  0.86637224436E+03  0.50400001928E-02 0. -1.
       -1   -1    0    0    0  501  0.00000000000E+00  0.00000000000E+00 -0.47795993964E+03  0.47795993966E+03  0.50400001928E-02 0.  1.
    10030    2    1    2    0    0  0.00000000000E+00  0.00000000000E+00  0.38841230471E+03  0.13443321840E+04  0.12869984081E+04 0.  0.
        5    1    3    3  502    0 -0.43801410735E+02 -0.55503442356E+03 -0.14279205023E+03  0.57479860345E+03  0.46999998093E+01 0.  1.
       -5    1    3    3    0  502  0.43801410735E+02  0.55503442356E+03  0.53120435494E+03  0.76953358057E+03  0.46999998093E+01 0. -1.
</event>
<event>
 5   0  0.3523125E-04  0.9500553E+03  0.7818609E-02  0.9365086E-01
       -4   -1    0    0    0  501  0.00000000000E+00  0.00000000000E+00  0.49695356862E+03  0.49695519141E+03  0.12699999809E+01 0.  1.
        4   -1    0    0  501    0  0.00000000000E+00  0.00000000000E+00 -0.45406585050E+03  0.45406762656E+03  0.12699999809E+01 0. -1.
    10030    2    1    2    0    0  0.00000000000E+00  0.00000000000E+00  0.42887718123E+02  0.95102281797E+03  0.95005528467E+03 0.  0.
        2    1    3    3  502    0 -0.41488241779E+03 -0.14953903605E+03  0.19815101736E+03  0.48348026804E+03  0.25500000920E-02 0.  1.
       -2    1    3    3    0  502  0.41488241779E+03  0.14953903605E+03 -0.15526329923E+03  0.46754254993E+03  0.25500000920E-02 0. -1.
</event>
<event>
 5   0  0.1007187E-03  0.1072560E+04  0.7818609E-02  0.9232357E-01
       -2   -1    0    0    0  501  0.00000000000E+00  0.00000000000E+00  0.35455793567E+03  0.35455793568E+03  0.25500000920E-02 0.  1.
        2   -1    0    0  501    0  0.00000000000E+00  0.00000000000E+00 -0.81114008905E+03  0.81114008906E+03  0.25500000920E-02 0. -1.
    10030    2    1    2    0    0  0.00000000000E+00  0.00000000000E+00 -0.45658215339E+03  0.11656980247E+04  0.10725598455E+04 0.  0.
        5    1    3    3  502    0  0.31399299414E+03 -0.22965099269E+03 -0.62945460763E+03  0.73997727795E+03  0.46999998093E+01 0. -1.
       -5    1    3    3    0  502 -0.31399299414E+03  0.22965099269E+03  0.17287245424E+03  0.42572074679E+03  0.46999998093E+01 0.  1.
</event>
<event>
 5   0  0.9284971E-04  0.1727773E+04  0.7818609E-02  0.8745681E-01
        2   -1    0    0  501    0  0.00000000000E+00  0.00000000000E+00  0.67855352362E+03  0.67855352362E+03  0.25500000920E-02 0.  1.
       -2   -1    0    0    0  501  0.00000000000E+00  0.00000000000E+00 -0.10998393914E+04  0.10998393914E+04  0.25500000920E-02 0. -1.
    10030    2    1    2    0    0  0.00000000000E+00  0.00000000000E+00 -0.42128586780E+03  0.17783929151E+04  0.17277730111E+04 0.  0.
        4    1    3    3  502    0  0.60523244294E+03  0.56875130827E+03  0.34048493014E+02  0.83123117929E+03  0.12699999809E+01 0.  1.
       -4    1    3    3    0  502 -0.60523244294E+03 -0.56875130827E+03 -0.45533436082E+03  0.94716173576E+03  0.12699999809E+01 0. -1.
</event>
<event>
 5   0  0.5074133E-04  0.1667348E+04  0.7818609E-02  0.8780209E-01
        1   -1    0    0  501    0  0.00000000000E+00  0.00000000000E+00  0.18841294185E+04  0.18841294185E+04  0.50400001928E-02 0. -1.
       -1   -1    0    0    0  501  0.00000000000E+00  0.00000000000E+00 -0.36887705669E+03  0.36887705673E+03  0.50400001928E-02 0.  1.
    10030    2    1    2    0    0  0.00000000000E+00  0.00000000000E+00  0.15152523618E+04  0.22530064752E+04  0.16673477314E+04 0.  0.
        1    1    3    3  502    0  0.40359138980E+03 -0.30041775234E+03 -0.14060082716E+03  0.52240351116E+03  0.50400001928E-02 0.  1.
       -1    1    3    3    0  502 -0.40359138980E+03  0.30041775234E+03  0.16558531889E+04  0.17306029641E+04  0.50400001928E-02 0. -1.
</event>
<event>
 5   0  0.1007187E-03  0.1697803E+04  0.7818609E-02  0.8762619E-01
       -2   -1    0    0    0  501  0.00000000000E+00  0.00000000000E+00  0.13336613091E+04  0.13336613091E+04  0.25500000920E-02 0. -1.
        2   -1    0    0  501    0  0.00000000000E+00  0.00000000000E+00 -0.54034218264E+03  0.54034218265E+03  0.25500000920E-02 0.  1.
    10030    2    1    2    0    0  0.00000000000E+00  0.00000000000E+00  0.79331912641E+03  0.18740034917E+04  0.16978026536E+04 0.  0.
        5    1    3    3  502    0  0.33595996252E+03 -0.65016563172E+03  0.87144857170E+03  0.11379934746E+04  0.46999998093E+01 0. -1.
       -5    1    3    3    0  502 -0.33595996252E+03  0.65016563172E+03 -0.78129445288E+02  0.73601001712E+03  0.46999998093E+01 0.  1.
</event>
<event>
 5   0  0.5059689E-04  0.1609000E+04  0.7818609E-02  0.8815038E-01
       -1   -1    0    0    0  501  0.00000000000E+00  0.00000000000E+00  0.36244459324E+03  0.36244459328E+03  0.50400001928E-02 0.  1.
        1   -1    0    0  501    0  0.00000000000E+00  0.00000000000E+00 -0.17857080512E+04  0.17857080512E+04  0.50400001928E-02 0. -1.
    10030    2    1    2    0    0  0.00000000000E+00  0.00000000000E+00 -0.14232634579E+04  0.21481526445E+04  0.16089999730E+04 0.  0.
        5    1    3    3  502    0  0.53032427547E+03  0.13922059073E+03 -0.14976014093E+04  0.15948223353E+04  0.46999998093E+01 0. -1.
       -5    1    3    3    0  502 -0.53032427547E+03 -0.13922059073E+03  0.74337951362E+02  0.55333030917E+03  0.46999998093E+01 0.  1.
</event>
<event>
 5   0  0.9312096E-04  0.1704988E+04  0.7818609E-02  0.8758525E-01
        2   -1    0    0  501    0  0.00000000000E+00  0.00000000000E+00  0.10963674705E+04  0.10963674705E+04  0.25500000920E-02 0.  1.
       -2   -1    0    0    0  501  0.00000000000E+00  0.00000000000E+00 -0.66286691908E+03  0.66286691909E+03  0.25500000920E-02 0. -1.
    10030    2    1    2    0    0  0.00000000000E+00  0.00000000000E+00  0.43350055146E+03  0.17592343896E+04  0.17049876567E+04 0.  0.
        3    1    3    3  502    0  0.74827461020E+03  0.54418162873E+02  0.63443781164E+03  0.98254138628E+03  0.10100000352E+00 0.  1.
       -3    1    3    3    0  502 -0.74827461020E+03 -0.54418162873E+02 -0.20093726018E+03  0.77669300335E+03  0.10100000352E+00 0. -1.
</event>
<event>
 5   0  0.1007187E-03  0.1678361E+04  0.7818609E-02  0.8773803E-01
       -2   -1    0    0    0  501  0.00000000000E+00  0.00000000000E+00  0.23021793401E+03  0.23021793402E+03  0.25500000920E-02 0. -1.
        2   -1    0    0  501    0  0.00000000000E+00  0.00000000000E+00 -0.30589446719E+04  0.30589446719E+04  0.25500000920E-02 0.  1.
    10030    2    1    2    0    0  0.00000000000E+00  0.00000000000E+00 -0.28287267379E+04  0.32891626059E+04  0.16783610132E+04 0.  0.
        5    1    3    3  502    0 -0.22395133578E+03 -0.11792427876E+03  0.15360736306E+03  0.29610411734E+03  0.46999998093E+01 0. -1.
       -5    1    3    3    0  502  0.22395133578E+03  0.11792427876E+03 -0.29823341009E+04  0.29930584885E+04  0.46999998093E+01 0.  1.
</event>
<event>
 5   0  0.5035495E-04  0.1655153E+04  0.7818609E-02  0.8787364E-01
       -1   -1    0    0    0  501  0.00000000000E+00  0.00000000000E+00  0.46298126900E+03  0.46298126903E+03  0.50400001928E-02 0.  1.
        1   -1    0    0  501    0  0.00000000000E+00  0.00000000000E+00 -0.14792885226E+04  0.14792885226E+04  0.50400001928E-02 0. -1.
    10030    2    1    2    0    0  0.00000000000E+00  0.00000000000E+00 -0.10163072536E+04  0.19422697916E+04  0.16551530170E+04 0.  0.
        4    1    3    3  502    0  0.60788077114E+03  0.17523474573E+03 -0.11342350625E+04  0.12987367085E+04  0.12699999809E+01 0. -1.
       -4    1    3    3    0  502 -0.60788077114E+03 -0.17523474573E+03  0.11792780897E+03  0.64353308311E+03  0.12699999809E+01 0.  1.
</event>
<event>
 5   0  0.9312096E-04  0.1775084E+04  0.7818609E-02  0.8719663E-01
        2   -1    0    0  501    0  0.00000000000E+00  0.00000000000E+00  0.84969166696E+03  0.84969166696E+03  0.25500000920E-02 0. -1.
       -2   -1    0    0    0  501  0.00000000000E+00  0.00000000000E+00 -0.92707792279E+03  0.92707792280E+03  0.25500000920E-02 0.  1.
    10030    2    1    2    0    0  0.00000000000E+00  0.00000000000E+00 -0.77386255833E+02  0.17767695898E+04  0.17750835311E+04 0.  0.
        3    1    3    3  502    0 -0.56142209853E+03 -0.66101128858E+03 -0.22755111618E+03  0.89661040425E+03  0.10100000352E+00 0.  1.
       -3    1    3    3    0  502  0.56142209853E+03  0.66101128858E+03  0.15016486035E+03  0.88015918550E+03  0.10100000352E+00 0. -1.
</event>
<event>
 5   0  0.9610114E-04  0.1438630E+04  0.7818609E-02  0.8926321E-01
        2   -1    0    0  501    0  0.00000000000E+00  0.00000000000E+00  0.22936481858E+04  0.22936481858E+04  0.25500000920E-02 0.  1.
       -2   -1    0    0    0  501  0.00000000000E+00  0.00000000000E+00 -0.22558576501E+03  0.22558576503E+03  0.25500000920E-02 0. -1.
    10030    2    1    2    0    0  0.00000000000E+00  0.00000000000E+00  0.20680624208E+04  0.25192339508E+04  0.14386304330E+04 0.  0.
        2    1    3    3  502    0 -0.69993801015E+02 -0.70505761059E+03  0.12514047542E+04  0.14380609254E+04  0.25500000920E-02 0.  1.
       -2    1    3    3    0  502  0.69993801015E+02  0.70505761059E+03  0.81665766657E+03  0.10811730254E+04  0.25500000920E-02 0. -1.
</event>
<event>
 5   0  0.9284971E-04  0.1782130E+04  0.7818609E-02  0.8715860E-01
        2   -1    0    0  501    0  0.00000000000E+00  0.00000000000E+00  0.42151859920E+03  0.42151859920E+03  0.25500000920E-02 0. -1.
       -2   -1    0    0    0  501  0.00000000000E+00  0.00000000000E+00 -0.18836585316E+04  0.18836585316E+04  0.25500000920E-02 0.  1.
    10030    2    1    2    0    0  0.00000000000E+00  0.00000000000E+00 -0.14621399324E+04  0.23051771308E+04  0.17821303046E+04 0.  0.
        4    1    3    3  502    0 -0.69339220489E+03 -0.53393842239E+03 -0.94794752311E+03  0.12901508083E+04  0.12699999809E+01 0.  1.
       -4    1    3    3    0  502  0.69339220489E+03  0.53393842239E+03 -0.51419240932E+03  0.10150263225E+04  0.12699999809E+01 0. -1.
</event>
<event>
 5   0  0.9312096E-04  0.1699546E+04  0.7818609E-02  0.8761623E-01
       -2   -1    0    0    0  501  0.00000000000E+00  0.00000000000E+00  0.88545233386E+03  0.88545233386E+03  0.25500000920E-02 0.  1.
        2   -1    0    0  501    0  0.00000000000E+00  0.00000000000E+00 -0.81553140640E+03  0.81553140640E+03  0.25500000920E-02 0. -1.
    10030    2    1    2    0    0  0.00000000000E+00  0.00000000000E+00  0.69920927461E+02  0.17009837403E+04  0.16995460419E+04 0.  0.
        3    1    3    3  502    0  0.60059961774E+03 -0.42465407557E+03  0.46083562812E+03  0.86799796721E+03  0.10100000352E+00 0. -1.
       -3    1    3    3    0  502 -0.60059961774E+03  0.42465407557E+03 -0.39091470065E+03  0.83298577306E+03  0.10100000352E+00 0.  1.
</event>
<event>
 5   0  0.9625225E-04  0.1678466E+04  0.7818609E-02  0.8773742E-01
        2   -1    0    0  501    0  0.00000000000E+00  0.00000000000E+00  0.16033443908E+04  0.16033443908E+04  0.25500000920E-02 0. -1.
       -2   -1    0    0    0  501  0.00000000000E+00  0.00000000000E+00 -0.43927678842E+03  0.43927678843E+03  0.25500000920E-02 0.  1.
    10030    2    1    2    0    0  0.00000000000E+00  0.00000000000E+00  0.11640676023E+04  0.20426211792E+04  0.16784659362E+04 0.  0.
        1    1    3    3  502    0  0.30735261239E+03 -0.37533484313E+03 -0.25135541572E+03  0.54637113562E+03  0.50400001928E-02 0.  1.
       -1    1    3    3    0  502 -0.30735261239E+03  0.37533484313E+03  0.14154230180E+04  0.14962500436E+04  0.50400001928E-02 0. -1.
</event>
<event>
 5   0  0.9625225E-04  0.1667979E+04  0.7818609E-02  0.8779841E-01
        2   -1    0    0  501    0  0.00000000000E+00  0.00000000000E+00  0.70119657912E+03  0.70119657913E+03  0.25500000920E-02 0. -1.
       -2   -1    0    0    0  501  0.00000000000E+00  0.00000000000E+00 -0.99193040749E+03  0.99193040750E+03  0.25500000920E-02 0.  1.
    10030    2    1    2    0    0  0.00000000000E+00  0.00000000000E+00 -0.29073382837E+03  0.16931269866E+04  0.16679786671E+04 0.  0.
        1    1    3    3  502    0 -0.37802574536E+03  0.60835781412E+03 -0.57905024220E+03  0.92103304890E+03  0.50400001928E-02 0.  1.
       -1    1    3    3    0  502  0.37802574536E+03 -0.60835781412E+03  0.28831641383E+03  0.77209393772E+03  0.50400001928E-02 0. -1.
</event>
<event>
 5   0  0.5074133E-04  0.1650057E+04  0.7818609E-02  0.8790373E-01
       -1   -1    0    0    0  501  0.00000000000E+00  0.00000000000E+00  0.58116025251E+03  0.58116025253E+03  0.50400001928E-02 0. -1.
        1   -1    0    0  501    0  0.00000000000E+00  0.00000000000E+00 -0.11712299595E+04  0.11712299595E+04  0.50400001928E-02 0.  1.
    10030    2    1    2    0    0  0.00000000000E+00  0.00000000000E+00 -0.59006970702E+03  0.17523902121E+04  0.16500573312E+04 0.  0.
        1    1    3    3  502    0 -0.42289793754E+03 -0.69234479762E+03 -0.45429614731E+03  0.92982201192E+03  0.50400001928E-02 0.  1.
       -1    1    3    3    0  502  0.42289793754E+03  0.69234479762E+03 -0.13577355972E+03  0.82256820016E+03  0.50400001928E-02 0. -1.
</event>
<event>
 5   0  0.4947006E-04  0.1721898E+04  0.7818609E-02  0.8748973E-01
       -1   -1    0    0    0  501  0.00000000000E+00  0.00000000000E+00  0.37499358682E+03  0.37499358685E+03  0.50400001928E-02 0.  1.
        1   -1    0    0  501    0  0.00000000000E+00  0.00000000000E+00 -0.19766549422E+04  0.19766549422E+04  0.50400001928E-02 0. -1.
    10030    2    1    2    0    0  0.00000000000E+00  0.00000000000E+00 -0.16016613553E+04  0.23516485290E+04  0.17218977051E+04 0.  0.
        2    1    3    3  502    0 -0.26278695599E+02  0.38107093996E+03  0.25293236785E+03  0.45812707172E+03  0.25500000920E-02 0.  1.
       -2    1    3    3    0  502  0.26278695599E+02 -0.38107093996E+03 -0.18545937232E+04  0.18935214573E+04  0.25500000920E-02 0. -1.
</event>
<event>
 5   0  0.9625225E-04  0.1715625E+04  0.7818609E-02  0.8752503E-01
       -2   -1    0    0    0  501  0.00000000000E+00  0.00000000000E+00  0.51599214308E+03  0.51599214308E+03  0.25500000920E-02 0. -1.
        2   -1    0    0  501    0  0.00000000000E+00  0.00000000000E+00 -0.14260726563E+04  0.14260726563E+04  0.25500000920E-02 0.  1.
    10030    2    1    2    0    0  0.00000000000E+00  0.00000000000E+00 -0.91008051323E+03  0.19420647994E+04  0.17156250011E+04 0.  0.
        1    1    3    3  502    0  0.17366908828E+03  0.18295536693E+03 -0.13831373321E+04  0.14059525234E+04  0.50400001928E-02 0.  1.
       -1    1    3    3    0  502 -0.17366908828E+03 -0.18295536693E+03  0.47305681891E+03  0.53611227598E+03  0.50400001928E-02 0. -1.
</event>
<event>
 5   0  0.5059689E-04  0.1728153E+04  0.7818609E-02  0.8745468E-01
        1   -1    0    0  501    0  0.00000000000E+00  0.00000000000E+00  0.70293163237E+03  0.70293163239E+03  0.50400001928E-02 0.  1.
       -1   -1    0    0    0  501  0.00000000000E+00  0.00000000000E+00 -0.10621635636E+04  0.10621635636E+04  0.50400001928E-02 0. -1.
    10030    2    1    2    0    0  0.00000000000E+00  0.00000000000E+00 -0.35923193119E+03  0.17650951960E+04  0.17281531964E+04 0.  0.
        5    1    3    3  502    0 -0.11923442880E+03 -0.44402489413E+03  0.56761808552E+03  0.73047062681E+03  0.46999998093E+01 0.  1.
       -5    1    3    3    0  502  0.11923442880E+03  0.44402489413E+03 -0.92685001671E+03  0.10346245691E+04  0.46999998093E+01 0. -1.
</event>
<event>
 5   0  0.1007187E-03  0.1752949E+04  0.7818609E-02  0.8731729E-01
        2   -1    0    0  501    0  0.00000000000E+00  0.00000000000E+00  0.15919620524E+04  0.15919620524E+04  0.25500000920E-02 0. -1.
       -2   -1    0    0    0  501  0.00000000000E+00  0.00000000000E+00 -0.48255388385E+03  0.48255388386E+03  0.25500000920E-02 0.  1.
    10030    2    1    2    0    0  0.00000000000E+00  0.00000000000E+00  0.11094081685E+04  0.20745159362E+04  0.17529489112E+04 0.  0.
        5    1    3    3  502    0 -0.52519396498E+03 -0.26304287051E+03 -0.21513942496E+03  0.62556159949E+03  0.46999998093E+01 0.  1.
       -5    1    3    3    0  502  0.52519396498E+03  0.26304287051E+03  0.13245475935E+04  0.14489543367E+04  0.46999998093E+01 0. -1.
</event>
<event>
 5   0  0.5009762E-04  0.1712823E+04  0.7818609E-02  0.8754085E-01
       -1   -1    0    0    0  501  0.00000000000E+00  0.00000000000E+00  0.47881857836E+03  0.47881857839E+03  0.50400001928E-02 0.  1.
        1   -1    0    0  501    0  0.00000000000E+00  0.00000000000E+00 -0.15317708943E+04  0.15317708943E+04  0.50400001928E-02 0. -1.
    10030    2    1    2    0    0  0.00000000000E+00  0.00000000000E+00 -0.10529523159E+04  0.20105894727E+04  0.17128226552E+04 0.  0.
        3    1    3    3  502    0  0.15153322746E+03  0.76525306362E+03 -0.94127040594E+03  0.12225238475E+04  0.10100000352E+00 0.  1.
       -3    1    3    3    0  502 -0.15153322746E+03 -0.76525306362E+03 -0.11168191001E+03  0.78806562520E+03  0.10100000352E+00 0. -1.
</event>
<event>
 5   0  0.9610114E-04  0.1707385E+04  0.7818609E-02  0.8757164E-01
        2   -1    0    0  501    0  0.00000000000E+00  0.00000000000E+00  0.12326327782E+04  0.12326327782E+04  0.25500000920E-02 0.  1.
       -2   -1    0    0    0  501  0.00000000000E+00  0.00000000000E+00 -0.59124732028E+03  0.59124732029E+03  0.25500000920E-02 0. -1.
    10030    2    1    2    0    0  0.00000000000E+00  0.00000000000E+00  0.64138545791E+03  0.18238800985E+04  0.17073849326E+04 0.  0.
        2    1    3    3  502    0 -0.41642194208E+03  0.17293662545E+03  0.10950502060E+04  0.11842505073E+04  0.25500000920E-02 0.  1.
       -2    1    3    3    0  502  0.41642194208E+03 -0.17293662545E+03 -0.45366474811E+03  0.63962959121E+03  0.25500000920E-02 0. -1.
</event>
<event>
 5   0  0.5035495E-04  0.1722768E+04  0.7818609E-02  0.8748485E-01
        1   -1    0    0  501    0  0.00000000000E+00  0.00000000000E+00  0.89771734502E+03  0.89771734504E+03  0.50400001928E-02 0. -1.
       -1   -1    0    0    0  501  0.00000000000E+00  0.00000000000E+00 -0.82652089068E+03  0.82652089070E+03  0.50400001928E-02 0.  1.
    10030    2    1    2    0    0  0.00000000000E+00  0.00000000000E+00  0.71196454341E+02  0.17242382357E+04  0.17227677030E+04 0.  0.
        4    1    3    3  502    0  0.57906846856E+03  0.48175900435E+03  0.45376881829E+03  0.87938602610E+03  0.12699999809E+01 0. -1.
       -4    1    3    3    0  502 -0.57906846856E+03 -0.48175900435E+03 -0.38257236395E+03  0.84485220963E+03  0.12699999809E+01 0.  1.
</event>
<event>
 5   0  0.5059689E-04  0.1734067E+04  0.7818609E-02  0.8742170E-01
       -1   -1    0    0    0  501  0.00000000000E+00  0.00000000000E+00  0.13988003657E+04  0.13988003658E+04  0.50400001928E-02 0. -1.
        1   -1    0    0  501    0  0.00000000000E+00  0.00000000000E+00 -0.53742291891E+03  0.53742291894E+03  0.50400001928E-02 0.  1.
    10030    2    1    2    0    0  0.00000000000E+00  0.00000000000E+00  0.86137744683E+03  0.19362232847E+04  0.17340673292E+04 0.  0.
        5    1    3    3  502    0  0.51289253230E+02 -0.17053844740E+03  0.13781449400E+04  0.13896112820E+04  0.46999998093E+01 0. -1.
       -5    1    3    3    0  502 -0.51289253230E+02  0.17053844740E+03 -0.51676749312E+03  0.54661200269E+03  0.46999998093E+01 0.  1.
</event>
<event>
 5   0  0.5074133E-04  0.2034705E+04  0.7818609E-02  0.8590565E-01
        1   -1    0    0  501    0  0.00000000000E+00  0.00000000000E+00  0.19389616516E+04  0.19389616516E+04  0.50400001928E-02 0.  1.
       -1   -1    0    0    0  501  0.00000000000E+00  0.00000000000E+00 -0.53379387035E+03  0.53379387037E+03  0.50400001928E-02 0. -1.
    10030    2    1    2    0    0  0.00000000000E+00  0.00000000000E+00  0.14051677813E+04  0.24727555220E+04  0.20347047398E+04 0.  0.
        1    1    3    3  502    0 -0.48670924008E+03  0.25326307702E+03  0.17437529128E+04  0.18280323551E+04  0.50400001928E-02 0.  1.
       -1    1    3    3    0  502  0.48670924008E+03 -0.25326307702E+03 -0.33858513152E+03  0.64472316685E+03  0.50400001928E-02 0. -1.
</event>
<event>
 5   0  0.4947006E-04  0.1746103E+04  0.7818609E-02  0.8735498E-01
        1   -1    0    0  501    0  0.00000000000E+00  0.00000000000E+00  0.13339049351E+04  0.13339049351E+04  0.50400001928E-02 0. -1.
       -1   -1    0    0    0  501  0.00000000000E+00  0.00000000000E+00 -0.57141946614E+03  0.57141946616E+03  0.50400001928E-02 0.  1.
    10030    2    1    2    0    0  0.00000000000E+00  0.00000000000E+00  0.76248546893E+03  0.19053244012E+04  0.17461033714E+04 0.  0.
        2    1    3    3  502    0  0.69316410681E+03 -0.24149526755E+02 -0.19735324525E+03  0.72111578961E+03  0.25500000920E-02 0.  1.
       -2    1    3    3    0  502 -0.69316410681E+03  0.24149526755E+02  0.95983871417E+03  0.11842086116E+04  0.25500000920E-02 0. -1.
</event>
<event>
 5   0  0.9312096E-04  0.1164141E+04  0.7818609E-02  0.9144836E-01
       -2   -1    0    0    0  501  0.00000000000E+00  0.00000000000E+00  0.30777014181E+03  0.30777014182E+03  0.25500000920E-02 0. -1.
        2   -1    0    0  501    0  0.00000000000E+00  0.00000000000E+00 -0.11008410343E+04  0.11008410343E+04  0.25500000920E-02 0.  1.
    10030    2    1    2    0    0  0.00000000000E+00  0.00000000000E+00 -0.79307089245E+03  0.14086111761E+04  0.11641408871E+04 0.  0.
        3    1    3    3  502    0 -0.53160860689E+03 -0.14252969936E+03 -0.62574534960E+03  0.83335447372E+03  0.10100000352E+00 0.  1.
       -3    1    3    3    0  502  0.53160860689E+03  0.14252969936E+03 -0.16732554285E+03  0.57525670236E+03  0.10100000352E+00 0. -1.
</event>
<event>
 5   0  0.9625225E-04  0.1728784E+04  0.7818609E-02  0.8745116E-01
       -2   -1    0    0    0  501  0.00000000000E+00  0.00000000000E+00  0.93542333035E+03  0.93542333035E+03  0.25500000920E-02 0. -1.
        2   -1    0    0  501    0  0.00000000000E+00  0.00000000000E+00 -0.79875412710E+03  0.79875412710E+03  0.25500000920E-02 0.  1.
    10030    2    1    2    0    0  0.00000000000E+00  0.00000000000E+00  0.13666920325E+03  0.17341774575E+04  0.17287836715E+04 0.  0.
        1    1    3    3  502    0 -0.43221975857E+03 -0.74725946419E+03  0.23894923800E+02  0.86358647160E+03  0.50400001928E-02 0. -1.
       -1    1    3    3    0  502  0.43221975857E+03  0.74725946419E+03  0.11277427945E+03  0.87059098585E+03  0.50400001928E-02 0.  1.
</event>
<event>
 5   0  0.4947006E-04  0.1606322E+04  0.7818609E-02  0.8816674E-01
       -1   -1    0    0    0  501  0.00000000000E+00  0.00000000000E+00  0.62155379941E+03  0.62155379943E+03  0.50400001928E-02 0. -1.
        1   -1    0    0  501    0  0.00000000000E+00  0.00000000000E+00 -0.10378304760E+04  0.10378304760E+04  0.50400001928E-02 0.  1.
    10030    2    1    2    0    0  0.00000000000E+00  0.00000000000E+00 -0.41627667657E+03  0.16593842754E+04  0.16063218551E+04 0.  0.
        2    1    3    3  502    0  0.23235298942E+03  0.28960773649E+03 -0.94384889595E+03  0.10142540565E+04  0.25500000920E-02 0.  1.
       -2    1    3    3    0  502 -0.23235298942E+03 -0.28960773649E+03  0.52757221937E+03  0.64513021894E+03  0.25500000920E-02 0. -1.
</event>
<event>
 5   0  0.5035495E-04  0.1604762E+04  0.7818609E-02  0.8817628E-01
       -1   -1    0    0    0  501  0.00000000000E+00  0.00000000000E+00  0.24834642173E+03  0.24834642179E+03  0.50400001928E-02 0. -1.
        1   -1    0    0  501    0  0.00000000000E+00  0.00000000000E+00 -0.25924072478E+04  0.25924072478E+04  0.50400001928E-02 0.  1.
    10030    2    1    2    0    0  0.00000000000E+00  0.00000000000E+00 -0.23440608260E+04  0.28407536695E+04  0.16047617440E+04 0.  0.
        4    1    3    3  502    0 -0.75435463608E+03  0.23344095053E+03 -0.14240457223E+04  0.16283284148E+04  0.12699999809E+01 0.  1.
       -4    1    3    3    0  502  0.75435463608E+03 -0.23344095053E+03 -0.92001510373E+03  0.12124252547E+04  0.12699999809E+01 0. -1.
</event>
<event>
 5   0  0.5009762E-04  0.1755442E+04  0.7818609E-02  0.8730361E-01
        1   -1    0    0  501    0  0.00000000000E+00  0.00000000000E+00  0.95332289360E+03  0.95332289362E+03  0.50400001928E-02 0. -1.
       -1   -1    0    0    0  501  0.00000000000E+00  0.00000000000E+00 -0.80811443763E+03  0.80811443764E+03  0.50400001928E-02 0.  1.
    10030    2    1    2    0    0  0.00000000000E+00  0.00000000000E+00  0.14520845598E+03  0.17614373313E+04  0.17554418180E+04 0.  0.
        3    1    3    3  502    0  0.24155218905E+03 -0.62753442363E+03 -0.49345641997E+03  0.83405405190E+03  0.10100000352E+00 0.  1.
       -3    1    3    3    0  502 -0.24155218905E+03  0.62753442363E+03  0.63866487594E+03  0.92738327936E+03  0.10100000352E+00 0. -1.
</event>
<event>
 5   0  0.5035495E-04  0.1698581E+04  0.7818609E-02  0.8762174E-01
       -1   -1    0    0    0  501  0.00000000000E+00  0.00000000000E+00  0.50268222233E+03  0.50268222236E+03  0.50400001928E-02 0. -1.
        1   -1    0    0  501    0  0.00000000000E+00  0.00000000000E+00 -0.14348907389E+04  0.14348907389E+04  0.50400001928E-02 0.  1.
    10030    2    1    2    0    0  0.00000000000E+00  0.00000000000E+00 -0.93220851652E+03  0.19375729612E+04  0.16985806610E+04 0.  0.
        4    1    3    3  502    0 -0.24947858601E+03  0.72456900609E+03 -0.48457051907E+02  0.76784732092E+03  0.12699999809E+01 0. -1.
       -4    1    3    3    0  502  0.24947858601E+03 -0.72456900609E+03 -0.88375146461E+03  0.11697256403E+04  0.12699999809E+01 0.  1.
</event>
<event>
 5   0  0.9610114E-04  0.1650585E+04  0.7818609E-02  0.8790060E-01
       -2   -1    0    0    0  501  0.00000000000E+00  0.00000000000E+00  0.86808765270E+03  0.86808765270E+03  0.25500000920E-02 0.  1.
        2   -1    0    0  501    0  0.00000000000E+00  0.00000000000E+00 -0.78460737670E+03  0.78460737670E+03  0.25500000920E-02 0. -1.
    10030    2    1    2    0    0  0.00000000000E+00  0.00000000000E+00  0.83480276001E+02  0.16526950294E+04  0.16505853216E+04 0.  0.
        2    1    3    3  502    0 -0.52631346107E+03 -0.17338810152E+03 -0.57062858635E+03  0.79541578851E+03  0.25500000920E-02 0. -1.
       -2    1    3    3    0  502  0.52631346107E+03  0.17338810152E+03  0.65410886235E+03  0.85727924089E+03  0.25500000920E-02 0.  1.
</event>
<event>
 5   0  0.9625225E-04  0.1736777E+04  0.7818609E-02  0.8740663E-01
       -2   -1    0    0    0  501  0.00000000000E+00  0.00000000000E+00  0.11587862914E+04  0.11587862914E+04  0.25500000920E-02 0. -1.
        2   -1    0    0  501    0  0.00000000000E+00  0.00000000000E+00 -0.65076554255E+03  0.65076554255E+03  0.25500000920E-02 0.  1.
    10030    2    1    2    0    0  0.00000000000E+00  0.00000000000E+00  0.50802074881E+03  0.18095518339E+04  0.17367765424E+04 0.  0.
        1    1    3    3  502    0 -0.12141755957E+03 -0.68128596301E+03 -0.29257192156E+03  0.75132623838E+03  0.50400001928E-02 0.  1.
       -1    1    3    3    0  502  0.12141755957E+03  0.68128596301E+03  0.80059267037E+03  0.10582255955E+04  0.50400001928E-02 0. -1.
</event>
<event>
 5   0  0.5074133E-04  0.1203279E+04  0.7818609E-02  0.9109991E-01
        1   -1    0    0  501    0  0.00000000000E+00  0.00000000000E+00  0.55375810908E+03  0.55375810910E+03  0.50400001928E-02 0.  1.
       -1   -1    0    0    0  501  0.00000000000E+00  0.00000000000E+00 -0.65366102746E+03  0.65366102748E+03  0.50400001928E-02 0. -1.
    10030    2    1    2    0    0  0.00000000000E+00  0.00000000000E+00 -0.99902918377E+02  0.12074191366E+04  0.12032790110E+04 0.  0.
        1    1    3    3  502    0 -0.47360814355E+03 -0.69198231263E+02  0.31582576740E+03  0.57344483974E+03  0.50400001928E-02 0.  1.
       -1    1    3    3    0  502  0.47360814355E+03  0.69198231263E+02 -0.41572868578E+03  0.63397429684E+03  0.50400001928E-02 0. -1.
</event>
<event>
 5   0  0.9610114E-04  0.1702706E+04  0.7818609E-02  0.8759823E-01
        2   -1    0    0  501    0  0.00000000000E+00  0.00000000000E+00  0.75244031344E+03  0.75244031344E+03  0.25500000920E-02 0. -1.
       -2   -1    0    0    0  501  0.00000000000E+00  0.00000000000E+00 -0.96326786287E+03  0.96326786287E+03  0.25500000920E-02 0.  1.
    10030    2    1    2    0    0  0.00000000000E+00  0.00000000000E+00 -0.21082754943E+03  0.17157081763E+04  0.17027055796E+04 0.  0.
        2    1    3    3  502    0  0.82969711781E+03 -0.13879825927E+03 -0.23733069715E+03  0.87406414175E+03  0.25500000920E-02 0.  1.
       -2    1    3    3    0  502 -0.82969711781E+03  0.13879825927E+03  0.26503147719E+02  0.84164403457E+03  0.25500000920E-02 0. -1.
</event>
<event>
 5   0  0.5009762E-04  0.1670548E+04  0.7818609E-02  0.8778342E-01
       -1   -1    0    0    0  501  0.00000000000E+00  0.00000000000E+00  0.12996089296E+04  0.12996089297E+04  0.50400001928E-02 0.  1.
        1   -1    0    0  501    0  0.00000000000E+00  0.00000000000E+00 -0.53684050029E+03  0.53684050031E+03  0.50400001928E-02 0. -1.
    10030    2    1    2    0    0  0.00000000000E+00  0.00000000000E+00  0.76276842935E+03  0.18364494300E+04  0.16705480634E+04 0.  0.
        3    1    3    3  502    0  0.67601894789E+03  0.44737936770E+03  0.60270550877E+03  0.10101504131E+04  0.10100000352E+00 0.  1.
       -3    1    3    3    0  502 -0.67601894789E+03 -0.44737936770E+03  0.16006292059E+03  0.82629901688E+03  0.10100000352E+00 0. -1.
</event>
<event>
 5   0  0.9625225E-04  0.1914886E+04  0.7818609E-02  0.8647482E-01
        2   -1    0    0  501    0  0.00000000000E+00  0.00000000000E+00  0.93225933137E+03  0.93225933137E+03  0.25500000920E-02 0. -1.
       -2   -1    0    0    0  501  0.00000000000E+00  0.00000000000E+00 -0.98330698260E+03  0.98330698260E+03  0.25500000920E-02 0.  1.
    10030    2    1    2    0    0  0.00000000000E+00  0.00000000000E+00 -0.51047651234E+02  0.19155663140E+04  0.19148860124E+04 0.  0.
        1    1    3    3  502    0 -0.55551967508E+03  0.51612221903E+03  0.55924595773E+03  0.94219971112E+03  0.50400001928E-02 0. -1.
       -1    1    3    3    0  502  0.55551967508E+03 -0.51612221903E+03 -0.61029360896E+03  0.97336660285E+03  0.50400001928E-02 0.  1.
</event>
<event>
 5   0  0.5009762E-04  0.1655945E+04  0.7818609E-02  0.8786897E-01
       -1   -1    0    0    0  501  0.00000000000E+00  0.00000000000E+00  0.13886950829E+04  0.13886950829E+04  0.50400001928E-02 0.  1.
        1   -1    0    0  501    0  0.00000000000E+00  0.00000000000E+00 -0.49365645989E+03  0.49365645992E+03  0.50400001928E-02 0. -1.
    10030    2    1    2    0    0  0.00000000000E+00  0.00000000000E+00  0.89503862296E+03  0.18823515428E+04  0.16559448040E+04 0.  0.
        3    1    3    3  502    0  0.49954392711E+03 -0.65884522920E+03  0.39774798629E+03  0.91751002281E+03  0.10100000352E+00 0.  1.
       -3    1    3    3    0  502 -0.49954392711E+03  0.65884522920E+03  0.49729063667E+03  0.96484151998E+03  0.10100000352E+00 0. -1.
</event>
<event>
 5   0  0.1007187E-03  0.1570768E+04  0.7818609E-02  0.8838710E-01
        2   -1    0    0  501    0  0.00000000000E+00  0.00000000000E+00  0.15352892870E+04  0.15352892870E+04  0.25500000920E-02 0.  1.
       -2   -1    0    0    0  501  0.00000000000E+00  0.00000000000E+00 -0.40176666170E+03  0.40176666170E+03  0.25500000920E-02 0. -1.
    10030    2    1    2    0    0  0.00000000000E+00  0.00000000000E+00  0.11335226253E+04  0.19370559487E+04  0.15707680307E+04 0.  0.
        5    1    3    3  502    0  0.25008022381E+03 -0.50403234309E+03  0.12424519877E+04  0.13639273268E+04  0.46999998093E+01 0.  1.
       -5    1    3    3    0  502 -0.25008022381E+03  0.50403234309E+03 -0.10892936237E+03  0.57312862187E+03  0.46999998093E+01 0. -1.
</event>
<event>
 5   0  0.9625225E-04  0.1715436E+04  0.7818609E-02  0.8752609E-01
        2   -1    0    0  501    0  0.00000000000E+00  0.00000000000E+00  0.75544411252E+03  0.75544411253E+03  0.25500000920E-02 0. -1.
       -2   -1    0    0    0  501  0.00000000000E+00  0.00000000000E+00 -0.97383804970E+03  0.97383804970E+03  0.25500000920E-02 0.  1.
    10030    2    1    2    0    0  0.00000000000E+00  0.00000000000E+00 -0.21839393717E+03  0.17292821622E+04  0.17154360626E+04 0.  0.
        1    1    3    3  502    0 -0.53624618212E+03 -0.66565103166E+03 -0.37709436572E+02  0.85561280110E+03  0.50400001928E-02 0.  1.
       -1    1    3    3    0  502  0.53624618212E+03  0.66565103166E+03 -0.18068450060E+03  0.87366936112E+03  0.50400001928E-02 0. -1.
</event>
<event>
 5   0  0.4947006E-04  0.1721012E+04  0.7818609E-02  0.8749471E-01
       -1   -1    0    0    0  501  0.00000000000E+00  0.00000000000E+00  0.69595207369E+03  0.69595207371E+03  0.50400001928E-02 0. -1.
        1   -1    0    0  501    0  0.00000000000E+00  0.00000000000E+00 -0.10639673962E+04  0.10639673962E+04  0.50400001928E-02 0.  1.
    10030    2    1    2    0    0  0.00000000000E+00  0.00000000000E+00 -0.36801532253E+03  0.17599194699E+04  0.17210116975E+04 0.  0.
        2    1    3    3  502    0 -0.11908144884E+02  0.20079573755E+03  0.67157301381E+03  0.70104995900E+03  0.25500000920E-02 0. -1.
       -2    1    3    3    0  502  0.11908144884E+02 -0.20079573755E+03 -0.10395883363E+04  0.10588695109E+04  0.25500000920E-02 0.  1.
</event>
<event>
 5   0  0.9610114E-04  0.1643958E+04  0.7818609E-02  0.8793989E-01
        2   -1    0    0  501    0  0.00000000000E+00  0.00000000000E+00  0.12578276543E+04  0.12578276543E+04  0.25500000920E-02 0. -1.
       -2   -1    0    0    0  501  0.00000000000E+00  0.00000000000E+00 -0.53715607781E+03  0.53715607782E+03  0.25500000920E-02 0.  1.
    10030    2    1    2    0    0  0.00000000000E+00  0.00000000000E+00  0.72067157647E+03  0.17949837321E+04  0.16439583563E+04 0.  0.
        2    1    3    3  502    0 -0.59044361101E+03 -0.44348816737E+03 -0.33863487300E+02  0.73922401757E+03  0.25500000920E-02 0.  1.
       -2    1    3    3    0  502  0.59044361101E+03  0.44348816737E+03  0.75453506377E+03  0.10557597145E+04  0.25500000920E-02 0. -1.
</event>
<event>
 5   0  0.9625225E-04  0.1714266E+04  0.7818609E-02  0.8753269E-01
        2   -1    0    0  501    0  0.00000000000E+00  0.00000000000E+00  0.20171675440E+04  0.20171675440E+04  0.25500000920E-02 0. -1.
       -2   -1    0    0    0  501  0.00000000000E+00  0.00000000000E+00 -0.36421231760E+03  0.36421231761E+03  0.25500000920E-02 0.  1.
    10030    2    1    2    0    0  0.00000000000E+00  0.00000000000E+00  0.16529552264E+04  0.23813798616E+04  0.17142663343E+04 0.  0.
        1    1    3    3  502    0  0.60505446528E+03 -0.25824140358E+03  0.15897513333E+04  0.17204908690E+04  0.50400001928E-02 0. -1.
       -1    1    3    3    0  502 -0.60505446528E+03  0.25824140358E+03  0.63203893126E+02  0.66088899266E+03  0.50400001928E-02 0.  1.
</event>
<event>
 5   0  0.4947006E-04  0.1248130E+04  0.7818609E-02  0.9071741E-01
        1   -1    0    0  501    0  0.00000000000E+00  0.00000000000E+00  0.15166981636E+04  0.15166981636E+04  0.50400001928E-02 0. -1.
       -1   -1    0    0    0  501  0.00000000000E+00  0.00000000000E+00 -0.25677976608E+03  0.25677976613E+03  0.50400001928E-02 0.  1.
    10030    2    1    2    0    0  0.00000000000E+00  0.00000000000E+00  0.12599183975E+04  0.17734779297E+04  0.12481304414E+04 0.  0.
        2    1    3    3  502    0  0.60198335188E+03  0.16137219053E+03  0.67561567674E+03  0.91917434825E+03  0.25500000920E-02 0. -1.
       -2    1    3    3    0  502 -0.60198335188E+03 -0.16137219053E+03  0.58430272079E+03  0.85430358149E+03  0.25500000920E-02 0.  1.
</event>
<event>
 5   0  0.5035495E-04  0.1668127E+04  0.7818609E-02  0.8779754E-01
        1   -1    0    0  501    0  0.00000000000E+00  0.00000000000E+00  0.13743558135E+04  0.13743558135E+04  0.50400001928E-02 0. -1.
       -1   -1    0    0    0  501  0.00000000000E+00  0.00000000000E+00 -0.50617330419E+03  0.50617330422E+03  0.50400001928E-02 0.  1.
    10030    2    1    2    0    0  0.00000000000E+00  0.00000000000E+00  0.86818250930E+03  0.18805291177E+04  0.16681273612E+04 0.  0.
        4    1    3    3  502    0  0.63974306462E+03  0.53397522819E+03  0.47410553295E+03  0.95873792160E+03  0.12699999809E+01 0.  1.
       -4    1    3    3    0  502 -0.63974306462E+03 -0.53397522819E+03  0.39407697635E+03  0.92179119612E+03  0.12699999809E+01 0. -1.
</event>
<event>
 5   0  0.1007187E-03  0.1687226E+04  0.7818609E-02  0.8768684E-01
        2   -1    0    0  501    0  0.00000000000E+00  0.00000000000E+00  0.65982638026E+03  0.65982638026E+03  0.25500000920E-02 0. -1.
       -2   -1    0    0    0  501  0.00000000000E+00  0.00000000000E+00 -0.10785911457E+04  0.10785911457E+04  0.25500000920E-02 0.  1.
    10030    2    1    2    0    0  0.00000000000E+00  0.00000000000E+00 -0.41876476546E+03  0.17384175260E+04  0.16872259973E+04 0.  0.
        5    1    3    3  502    0  0.28714784252E+03 -0.25620355467E+03 -0.98287020086E+03  0.10555330723E+04  0.46999998093E+01 0.  1.
       -5    1    3    3    0  502 -0.28714784252E+03  0.25620355467E+03  0.56410543540E+03  0.68288445372E+03  0.46999998093E+01 0. -1.
</event>
<event>
 5   0  0.5009762E-04  0.1681406E+04  0.7818609E-02  0.8772041E-01
        1   -1    0    0  501    0  0.00000000000E+00  0.00000000000E+00  0.76823524881E+03  0.76823524882E+03  0.50400001928E-02 0.  1.
       -1   -1    0    0    0  501  0.00000000000E+00  0.00000000000E+00 -0.92000631063E+03  0.92000631065E+03  0.50400001928E-02 0. -1.
    10030    2    1    2    0    0  0.00000000000E+00  0.00000000000E+00 -0.15177106183E+03  0.16882415595E+04  0.16814056940E+04 0.  0.
        3    1    3    3  502    0  0.27258213737E+03 -0.78647567489E+03  0.42646346109E+02  0.83346489419E+03  0.10100000352E+00 0.  1.
       -3    1    3    3    0  502 -0.27258213737E+03  0.78647567489E+03 -0.19441740794E+03  0.85477666528E+03  0.10100000352E+00 0. -1.
</event>
<event>
 5   0  0.5009762E-04  0.1676781E+04  0.7818609E-02  0.8774719E-01
        1   -1    0    0  501    0  0.00000000000E+00  0.00000000000E+00  0.62409321170E+03  0.62409321172E+03  0.50400001928E-02 0. -1.
       -1   -1    0    0    0  501  0.00000000000E+00  0.00000000000E+00 -0.11262724219E+04  0.11262724219E+04  0.50400001928E-02 0.  1.
    10030    2    1    2    0    0  0.00000000000E+00  0.00000000000E+00 -0.50217921021E+03  0.17503656336E+04  0.16767814086E+04 0.  0.
        3    1    3    3  502    0 -0.55809945889E+03 -0.26161936814E+03  0.34216299108E+03  0.70497888086E+03  0.10100000352E+00 0. -1.
       -3    1    3    3    0  502  0.55809945889E+03  0.26161936814E+03 -0.84434220129E+03  0.10453867528E+04  0.10100000352E+00 0.  1.
</event>
<event>
 5   0  0.9312096E-04  0.1642290E+04  0.7818609E-02  0.8794981E-01
       -2   -1    0    0    0  501  0.00000000000E+00  0.00000000000E+00  0.48023609848E+03  0.48023609848E+03  0.25500000920E-02 0.  1.
        2   -1    0    0  501    0  0.00000000000E+00  0.00000000000E+00 -0.14040575087E+04  0.14040575087E+04  0.25500000920E-02 0. -1.
    10030    2    1    2    0    0  0.00000000000E+00  0.00000000000E+00 -0.92382141019E+03  0.18842936072E+04  0.16422899866E+04 0.  0.
        3    1    3    3  502    0 -0.57718556033E+03  0.18202226023E+01  0.20822127749E+03  0.61359807273E+03  0.10100000352E+00 0.  1.
       -3    1    3    3    0  502  0.57718556033E+03 -0.18202226023E+01 -0.11320426877E+04  0.12706955344E+04  0.10100000352E+00 0. -1.
</event>
<event>
 5   0  0.1007187E-03  0.1722647E+04  0.7818609E-02  0.8748552E-01
        2   -1    0    0  501    0  0.00000000000E+00  0.00000000000E+00  0.10492034468E+04  0.10492034468E+04  0.25500000920E-02 0. -1.
       -2   -1    0    0    0  501  0.00000000000E+00  0.00000000000E+00 -0.70708700501E+03  0.70708700501E+03  0.25500000920E-02 0.  1.
    10030    2    1    2    0    0  0.00000000000E+00  0.00000000000E+00  0.34211644179E+03  0.17562904518E+04  0.17226469433E+04 0.  0.
        5    1    3    3  502    0  0.42704143904E+03  0.53666230696E+03 -0.36016022909E+03  0.77466657536E+03  0.46999998093E+01 0.  1.
       -5    1    3    3    0  502 -0.42704143904E+03 -0.53666230696E+03  0.70227667088E+03  0.98162387646E+03  0.46999998093E+01 0. -1.
</event>
<event>
 5   0  0.5059689E-04  0.1552644E+04  0.7818609E-02  0.8850180E-01
       -1   -1    0    0    0  501  0.00000000000E+00  0.00000000000E+00  0.34416333103E+03  0.34416333107E+03  0.50400001928E-02 0. -1.
        1   -1    0    0  501    0  0.00000000000E+00  0.00000000000E+00 -0.17511339003E+04  0.17511339003E+04  0.50400001928E-02 0.  1.
    10030    2    1    2    0    0  0.00000000000E+00  0.00000000000E+00 -0.14069705693E+04  0.20952972314E+04  0.15526442944E+04 0.  0.
        5    1    3    3  502    0  0.17439843259E+03 -0.45931002761E+03  0.10764702996E+03  0.50298159789E+03  0.46999998093E+01 0. -1.
       -5    1    3    3    0  502 -0.17439843259E+03  0.45931002761E+03 -0.15146175992E+04  0.15923156335E+04  0.46999998093E+01 0.  1.
</event>
<event>
 5   0  0.4947006E-04  0.1672399E+04  0.7818609E-02  0.8777265E-01
        1   -1    0    0  501    0  0.00000000000E+00  0.00000000000E+00  0.16951733254E+04  0.16951733254E+04  0.50400001928E-02 0.  1.
       -1   -1    0    0    0  501  0.00000000000E+00  0.00000000000E+00 -0.41248250880E+03  0.41248250883E+03  0.50400001928E-02 0. -1.
    10030    2    1    2    0    0  0.00000000000E+00  0.00000000000E+00  0.12826908166E+04  0.21076558342E+04  0.16723986919E+04 0.  0.
        2    1    3    3  502    0 -0.85796272260E+02  0.45497294083E+03 -0.23620409210E+03  0.51976316756E+03  0.25500000920E-02 0. -1.
       -2    1    3    3    0  502  0.85796272260E+02 -0.45497294083E+03  0.15188949087E+04  0.15878926667E+04  0.25500000920E-02 0.  1.
</event>
<event>
 5   0  0.9284971E-04  0.1710133E+04  0.7818609E-02  0.8755606E-01
        2   -1    0    0  501    0  0.00000000000E+00  0.00000000000E+00  0.13489905098E+04  0.13489905098E+04  0.25500000920E-02 0.  1.
       -2   -1    0    0    0  501  0.00000000000E+00  0.00000000000E+00 -0.54198948817E+03  0.54198948817E+03  0.25500000920E-02 0. -1.
    10030    2    1    2    0    0  0.00000000000E+00  0.00000000000E+00  0.80700102163E+03  0.18909799980E+04  0.17101329492E+04 0.  0.
        4    1    3    3  502    0  0.67742729316E+03 -0.16723387392E+03  0.94999420401E+03  0.11787134964E+04  0.12699999809E+01 0.  1.
       -4    1    3    3    0  502 -0.67742729316E+03  0.16723387392E+03 -0.14299318239E+03  0.71226650154E+03  0.12699999809E+01 0. -1.
</event>
<event>
 5   0  0.1007187E-03  0.1641219E+04  0.7818609E-02  0.8795618E-01
        2   -1    0    0  501    0  0.00000000000E+00  0.00000000000E+00  0.36326627772E+03  0.36326627773E+03  0.25500000920E-02 0. -1.
       -2   -1    0    0    0  501  0.00000000000E+00  0.00000000000E+00 -0.18537354365E+04  0.18537354365E+04  0.25500000920E-02 0.  1.
    10030    2    1    2    0    0  0.00000000000E+00  0.00000000000E+00 -0.14904691587E+04  0.22170017142E+04  0.16412185374E+04 0.  0.
        5    1    3    3  502    0 -0.10302295845E+03 -0.70293275212E+03 -0.12999776474E+04  0.14814493436E+04  0.46999998093E+01 0. -1.
       -5    1    3    3    0  502  0.10302295845E+03  0.70293275212E+03 -0.19049151134E+03  0.73555237058E+03  0.46999998093E+01 0.  1.
</event>
<event>
 5   0  0.5074133E-04  0.1713053E+04  0.7818609E-02  0.8753954E-01
        1   -1    0    0  501    0  0.00000000000E+00  0.00000000000E+00  0.21809146910E+04  0.21809146910E+04  0.50400001928E-02 0.  1.
       -1   -1    0    0    0  501  0.00000000000E+00  0.00000000000E+00 -0.33639004978E+03  0.33639004982E+03  0.50400001928E-02 0. -1.
    10030    2    1    2    0    0  0.00000000000E+00  0.00000000000E+00  0.18445246412E+04  0.25173047408E+04  0.17130534160E+04 0.  0.
        1    1    3    3  502    0  0.64660747963E+03 -0.31536387927E+03  0.23917758857E+03  0.75813028429E+03  0.50400001928E-02 0. -1.
       -1    1    3    3    0  502 -0.64660747963E+03  0.31536387927E+03  0.16053470527E+04  0.17591744565E+04  0.50400001928E-02 0.  1.
</event>
<event>
 5   0  0.9610114E-04  0.1622606E+04  0.7818609E-02  0.8806779E-01
       -2   -1    0    0    0  501  0.00000000000E+00  0.00000000000E+00  0.38076065355E+03  0.38076065356E+03  0.25500000920E-02 0. -1.
        2   -1    0    0  501    0  0.00000000000E+00  0.00000000000E+00 -0.17286781325E+04  0.17286781325E+04  0.25500000920E-02 0.  1.
    10030    2    1    2    0    0  0.00000000000E+00  0.00000000000E+00 -0.13479174790E+04  0.21094387861E+04  0.16226060711E+04 0.  0.
        2    1    3    3  502    0 -0.19377204769E+03 -0.71727372817E+03 -0.10975843038E+04  0.13254133361E+04  0.25500000920E-02 0.  1.
       -2    1    3    3    0  502  0.19377204769E+03  0.71727372817E+03 -0.25033317515E+03  0.78402544995E+03  0.25500000920E-02 0. -1.
</event>
<event>
 5   0  0.4947006E-04  0.1647549E+04  0.7818609E-02  0.8791858E-01
        1   -1    0    0  501    0  0.00000000000E+00  0.00000000000E+00  0.95793964622E+03  0.95793964624E+03  0.50400001928E-02 0. -1.
       -1   -1    0    0    0  501  0.00000000000E+00  0.00000000000E+00 -0.70840014203E+03  0.70840014205E+03  0.50400001928E-02 0.  1.
    10030    2    1    2    0    0  0.00000000000E+00  0.00000000000E+00  0.24953950419E+03  0.16663397883E+04  0.16475491877E+04 0.  0.
        2    1    3    3  502    0 -0.21807766175E+03  0.59212754184E+03 -0.41082796712E+03  0.75296248973E+03  0.25500000920E-02 0.  1.
       -2    1    3    3    0  502  0.21807766175E+03 -0.59212754184E+03  0.66036747131E+03  0.91337729856E+03  0.25500000920E-02 0. -1.
</event>
<event>
 5   0  0.9625225E-04  0.1712549E+04  0.7818609E-02  0.8754239E-01
       -2   -1    0    0    0  501  0.00000000000E+00  0.00000000000E+00  0.71005576227E+03  0.71005576228E+03  0.25500000920E-02 0. -1.
        2   -1    0    0  501    0  0.00000000000E+00  0.00000000000E+00 -0.10326039049E+04  0.10326039049E+04  0.25500000920E-02 0.  1.
    10030    2    1    2    0    0  0.00000000000E+00  0.00000000000E+00 -0.32254814260E+03  0.17426596672E+04  0.17125493894E+04 0.  0.
        1    1    3    3  502    0 -0.45826665518E+03  0.43368677258E+03  0.42779420723E+03  0.76229943442E+03  0.50400001928E-02 0. -1.
       -1    1    3    3    0  502  0.45826665518E+03 -0.43368677258E+03 -0.75034234984E+03  0.98036023274E+03  0.50400001928E-02 0.  1.
</event>
<event>
 5   0  0.5009762E-04  0.1698500E+04  0.7818609E-02  0.8762220E-01
       -1   -1    0    0    0  501  0.00000000000E+00  0.00000000000E+00  0.28098078415E+03  0.28098078420E+03  0.50400001928E-02 0. -1.
        1   -1    0    0  501    0  0.00000000000E+00  0.00000000000E+00 -0.25668155989E+04  0.25668155989E+04  0.50400001928E-02 0.  1.
    10030    2    1    2    0    0  0.00000000000E+00  0.00000000000E+00 -0.22858348147E+04  0.28477963831E+04  0.16985003501E+04 0.  0.
        3    1    3    3  502    0  0.29628650824E+03  0.67722698718E+03 -0.44191633639E+03  0.86122711621E+03  0.10100000352E+00 0. -1.
       -3    1    3    3    0  502 -0.29628650824E+03 -0.67722698718E+03 -0.18439184783E+04  0.19865692668E+04  0.10100000352E+00 0.  1.
</event>
<event>
 5   0  0.5009762E-04  0.1936395E+04  0.7818609E-02  0.8636949E-01
       -1   -1    0    0    0  501  0.00000000000E+00  0.00000000000E+00  0.74658621399E+03  0.74658621401E+03  0.50400001928E-02 0.  1.
        1   -1    0    0  501    0  0.00000000000E+00  0.00000000000E+00 -0.12555900973E+04  0.12555900974E+04  0.50400001928E-02 0. -1.
    10030    2    1    2    0    0  0.00000000000E+00  0.00000000000E+00 -0.50900388335E+03  0.20021763114E+04  0.19363948535E+04 0.  0.
        3    1    3    3  502    0  0.51143811289E+03 -0.82187345834E+03 -0.23484772896E+03  0.99609155746E+03  0.10100000352E+00 0.  1.
       -3    1    3    3    0  502 -0.51143811289E+03  0.82187345834E+03 -0.27415615439E+03  0.10060847539E+04  0.10100000352E+00 0. -1.
</event>
<event>
 5   0  0.9284971E-04  0.1741710E+04  0.7818609E-02  0.8737927E-01
       -2   -1    0    0    0  501  0.00000000000E+00  0.00000000000E+00  0.43113448010E+03  0.43113448011E+03  0.25500000920E-02 0. -1.
        2   -1    0    0  501    0  0.00000000000E+00  0.00000000000E+00 -0.17590533993E+04  0.17590533993E+04  0.25500000920E-02 0.  1.
    10030    2    1    2    0    0  0.00000000000E+00  0.00000000000E+00 -0.13279189192E+04  0.21901878794E+04  0.17417101628E+04 0.  0.
        4    1    3    3  502    0  0.17004794422E+03  0.23309998059E+03 -0.16971985174E+04  0.17215505583E+04  0.12699999809E+01 0.  1.
       -4    1    3    3    0  502 -0.17004794422E+03 -0.23309998059E+03  0.36927959817E+03  0.46863732119E+03  0.12699999809E+01 0. -1.
</event>
<event>
 5   0  0.9625225E-04  0.1622463E+04  0.7818609E-02  0.8806866E-01
        2   -1    0    0  501    0  0.00000000000E+00  0.00000000000E+00  0.76474910598E+03  0.76474910598E+03  0.25500000920E-02 0. -1.
       -2   -1    0    0    0  501  0.00000000000E+00  0.00000000000E+00 -0.86053916270E+03  0.86053916270E+03  0.25500000920E-02 0.  1.
    10030    2    1    2    0    0  0.00000000000E+00  0.00000000000E+00 -0.95790056720E+02  0.16252882687E+04  0.16224630108E+04 0.  0.
        1    1    3    3  502    0 -0.61044113043E+03 -0.43105701123E+03  0.26832543083E+03  0.79400696314E+03  0.50400001928E-02 0. -1.
       -1    1    3    3    0  502  0.61044113043E+03  0.43105701123E+03 -0.36411548755E+03  0.83128130555E+03  0.50400001928E-02 0.  1.
</event>
<event>
 5   0  0.3523125E-04  0.1568538E+04  0.7818609E-02  0.8840113E-01
        4   -1    0    0  501    0  0.00000000000E+00  0.00000000000E+00  0.14329128851E+04  0.14329134479E+04  0.12699999809E+01 0. -1.
       -4   -1    0    0    0  501  0.00000000000E+00  0.00000000000E+00 -0.42924829035E+03  0.42925016909E+03  0.12699999809E+01 0.  1.
    10030    2    1    2    0    0  0.00000000000E+00  0.00000000000E+00  0.10036645947E+04  0.18621636170E+04  0.15685377642E+04 0.  0.
        1    1    3    3  502    0 -0.33818093666E+03 -0.64532037946E+03  0.84647329117E+03  0.11168356060E+04  0.50400001928E-02 0. -1.
       -1    1    3    3    0  502  0.33818093666E+03  0.64532037946E+03  0.15719130356E+03  0.74532801101E+03  0.50400001928E-02 0.  1.
</event>
<event>
 5   0  0.5035495E-04  0.1713934E+04  0.7818609E-02  0.8753457E-01
       -1   -1    0    0    0  501  0.00000000000E+00  0.00000000000E+00  0.99836530568E+03  0.99836530569E+03  0.50400001928E-02 0. -1.
        1   -1    0    0  501    0  0.00000000000E+00  0.00000000000E+00 -0.73559492774E+03  0.73559492776E+03  0.50400001928E-02 0.  1.
    10030    2    1    2    0    0  0.00000000000E+00  0.00000000000E+00  0.26277037794E+03  0.17339602334E+04  0.17139340185E+04 0.  0.
        4    1    3    3  502    0  0.81290428874E+03  0.40768451597E+02  0.40268904258E+03  0.90809444840E+03  0.12699999809E+01 0. -1.
       -4    1    3    3    0  502 -0.81290428874E+03 -0.40768451597E+02 -0.13991866464E+03  0.82586578505E+03  0.12699999809E+01 0.  1.
</event>
<event>
 5   0  0.5059689E-04  0.1681127E+04  0.7818609E-02  0.8772202E-01
       -1   -1    0    0    0  501  0.00000000000E+00  0.00000000000E+00  0.43828902204E+03  0.43828902207E+03  0.50400001928E-02 0.  1.
        1   -1    0    0  501    0  0.00000000000E+00  0.00000000000E+00 -0.16120564441E+04  0.16120564441E+04  0.50400001928E-02 0. -1.
    10030    2    1    2    0    0  0.00000000000E+00  0.00000000000E+00 -0.11737674221E+04  0.20503454662E+04  0.16811265775E+04 0.  0.
        5    1    3    3  502    0  0.61856959123E+03  0.51802150916E+03 -0.87433772884E+03  0.11897323973E+04  0.46999998093E+01 0. -1.
       -5    1    3    3    0  502 -0.61856959123E+03 -0.51802150916E+03 -0.29942969325E+03  0.86061306889E+03  0.46999998093E+01 0.  1.
</event>
<event>
 5   0  0.9610114E-04  0.1572764E+04  0.7818609E-02  0.8837457E-01
       -2   -1    0    0    0  501  0.00000000000E+00  0.00000000000E+00  0.17356598305E+04  0.17356598305E+04  0.25500000920E-02 0. -1.
        2   -1    0    0  501    0  0.00000000000E+00  0.00000000000E+00 -0.35628929012E+03  0.35628929013E+03  0.25500000920E-02 0.  1.
    10030    2    1    2    0    0  0.00000000000E+00  0.00000000000E+00  0.13793705404E+04  0.20919491206E+04  0.15727644565E+04 0.  0.
        2    1    3    3  502    0  0.50393993560E+03  0.50848753481E+03  0.25687410769E+03  0.76059144023E+03  0.25500000920E-02 0.  1.
       -2    1    3    3    0  502 -0.50393993560E+03 -0.50848753481E+03  0.11224964327E+04  0.13313576804E+04  0.25500000920E-02 0. -1.
</event>
<event>
 5   0  0.5035495E-04  0.1692329E+04  0.7818609E-02  0.8765751E-01
        1   -1    0    0  501    0  0.00000000000E+00  0.00000000000E+00  0.78867522343E+03  0.78867522345E+03  0.50400001928E-02 0.  1.
       -1   -1    0    0    0  501  0.00000000000E+00  0.00000000000E+00 -0.90784456442E+03  0.90784456444E+03  0.50400001928E-02 0. -1.
    10030    2    1    2    0    0  0.00000000000E+00  0.00000000000E+00 -0.11916934099E+03  0.16965197879E+04  0.16923291816E+04 0.  0.
        4    1    3    3  502    0  0.79073768179E+03 -0.26312395878E+03 -0.20655125181E+03  0.85858332829E+03  0.12699999809E+01 0. -1.
       -4    1    3    3    0  502 -0.79073768179E+03  0.26312395878E+03  0.87381910826E+02  0.83793645960E+03  0.12699999809E+01 0.  1.
</event>
<event>
 5   0  0.1007187E-03  0.1678964E+04  0.7818609E-02  0.8773454E-01
       -2   -1    0    0    0  501  0.00000000000E+00  0.00000000000E+00  0.60382266784E+03  0.60382266784E+03  0.25500000920E-02 0. -1.
        2   -1    0    0  501    0  0.00000000000E+00  0.00000000000E+00 -0.11671144847E+04  0.11671144847E+04  0.25500000920E-02 0.  1.
    10030    2    1    2    0    0  0.00000000000E+00  0.00000000000E+00 -0.56329181684E+03  0.17709371525E+04  0.16789641828E+04 0.  0.
        5    1    3    3  502    0  0.38596760944E+03 -0.29028326277E+03 -0.10058984098E+04  0.11158355923E+04  0.46999998093E+01 0.  1.
       -5    1    3    3    0  502 -0.38596760944E+03  0.29028326277E+03  0.44260659292E+03  0.65510156027E+03  0.46999998093E+01 0. -1.
</event>
<event>
 5   0  0.5059689E-04  0.1629838E+04  0.7818609E-02  0.8802424E-01
       -1   -1    0    0    0  501  0.00000000000E+00  0.00000000000E+00  0.61442138744E+03  0.61442138746E+03  0.50400001928E-02 0.  1.
        1   -1    0    0  501    0  0.00000000000E+00  0.00000000000E+00 -0.10808426380E+04  0.10808426380E+04  0.50400001928E-02 0. -1.
    10030    2    1    2    0    0  0.00000000000E+00  0.00000000000E+00 -0.46642125058E+03  0.16952640255E+04  0.16298378242E+04 0.  0.
        5    1    3    3  502    0 -0.17717181669E+03 -0.56741422617E+03 -0.81301160675E+03  0.10071537715E+04  0.46999998093E+01 0. -1.
       -5    1    3    3    0  502  0.17717181669E+03  0.56741422617E+03  0.34659035617E+03  0.68811025402E+03  0.46999998093E+01 0.  1.
</event>
<event>
 5   0  0.5074133E-04  0.1696805E+04  0.7818609E-02  0.8763189E-01
       -1   -1    0    0    0  501  0.00000000000E+00  0.00000000000E+00  0.52569579932E+03  0.52569579935E+03  0.50400001928E-02 0. -1.
        1   -1    0    0  501    0  0.00000000000E+00  0.00000000000E+00 -0.13692071615E+04  0.13692071615E+04  0.50400001928E-02 0.  1.
    10030    2    1    2    0    0  0.00000000000E+00  0.00000000000E+00 -0.84351136214E+03  0.18949029608E+04  0.16968045889E+04 0.  0.
        1    1    3    3  502    0  0.47387789142E+03  0.56107759190E+03 -0.89610167445E+03  0.11586054251E+04  0.50400001928E-02 0.  1.
       -1    1    3    3    0  502 -0.47387789142E+03 -0.56107759190E+03  0.52590312313E+02  0.73629753571E+03  0.50400001928E-02 0. -1.
</event>
<event>
 5   0  0.9610114E-04  0.1678640E+04  0.7818609E-02  0.8773641E-01
       -2   -1    0    0    0  501  0.00000000000E+00  0.00000000000E+00  0.39096950194E+03  0.39096950195E+03  0.25500000920E-02 0.  1.
        2   -1    0    0  501    0  0.00000000000E+00  0.00000000000E+00 -0.18018231432E+04  0.18018231432E+04  0.25500000920E-02 0. -1.
    10030    2    1    2    0    0  0.00000000000E+00  0.00000000000E+00 -0.14108536413E+04  0.21927926452E+04  0.16786398028E+04 0.  0.
        2    1    3    3  502    0 -0.49267694846E+03 -0.41815868636E+03 -0.14050804578E+04  0.15465569357E+04  0.25500000920E-02 0. -1.
       -2    1    3    3    0  502  0.49267694846E+03  0.41815868636E+03 -0.57731834844E+01  0.64623570946E+03  0.25500000920E-02 0.  1.
</event>
<event>
 5   0  0.5059689E-04  0.1694144E+04  0.7818609E-02  0.8764711E-01
        1   -1    0    0  501    0  0.00000000000E+00  0.00000000000E+00  0.15380861629E+04  0.15380861629E+04  0.50400001928E-02 0. -1.
       -1   -1    0    0    0  501  0.00000000000E+00  0.00000000000E+00 -0.46650920089E+03  0.46650920092E+03  0.50400001928E-02 0.  1.
    10030    2    1    2    0    0  0.00000000000E+00  0.00000000000E+00  0.10715769620E+04  0.20045953638E+04  0.16941444411E+04 0.  0.
        5    1    3    3  502    0 -0.39104986619E+03  0.64955778145E+03  0.98271220091E+03  0.12412053291E+04  0.46999998093E+01 0. -1.
       -5    1    3    3    0  502  0.39104986619E+03 -0.64955778145E+03  0.88864761108E+02  0.76339003468E+03  0.46999998093E+01 0.  1.
</event>
<event>
 5   0  0.9625225E-04  0.1720079E+04  0.7818609E-02  0.8749995E-01
       -2   -1    0    0    0  501  0.00000000000E+00  0.00000000000E+00  0.64332229908E+03  0.64332229908E+03  0.25500000920E-02 0.  1.
        2   -1    0    0  501    0  0.00000000000E+00  0.00000000000E+00 -0.11497631083E+04  0.11497631083E+04  0.25500000920E-02 0. -1.
    10030    2    1    2    0    0  0.00000000000E+00  0.00000000000E+00 -0.50644080927E+03  0.17930854074E+04  0.17200793543E+04 0.  0.
        1    1    3    3  502    0 -0.87100803771E+02  0.61612889582E+02 -0.11428379487E+04  0.11478071594E+04  0.50400001928E-02 0. -1.
       -1    1    3    3    0  502  0.87100803771E+02 -0.61612889582E+02  0.63639713947E+03  0.64527824799E+03  0.50400001928E-02 0.  1.
</event>
<event>
 5   0  0.5074133E-04  0.1682133E+04  0.7818609E-02  0.8771621E-01
       -1   -1    0    0    0  501  0.00000000000E+00  0.00000000000E+00  0.90381991549E+03  0.90381991550E+03  0.50400001928E-02 0.  1.
        1   -1    0    0  501    0  0.00000000000E+00  0.00000000000E+00 -0.78267025294E+03  0.78267025296E+03  0.50400001928E-02 0. -1.
    10030    2    1    2    0    0  0.00000000000E+00  0.00000000000E+00  0.12114966255E+03  0.16864901685E+04  0.16821331242E+04 0.  0.
        1    1    3    3  502    0 -0.67818225053E+03  0.49536792585E+03  0.14933131452E+02  0.83996639537E+03  0.50400001928E-02 0. -1.
       -1    1    3    3    0  502  0.67818225053E+03 -0.49536792585E+03  0.10621653109E+03  0.84652377309E+03  0.50400001928E-02 0.  1.
</event>
<event>
 5   0  0.4947006E-04  0.1768211E+04  0.7818609E-02  0.8723390E-01
       -1   -1    0    0    0  501  0.00000000000E+00  0.00000000000E+00  0.12001008879E+04  0.12001008879E+04  0.50400001928E-02 0.  1.
        1   -1    0    0  501    0  0.00000000000E+00  0.00000000000E+00 -0.65131395562E+03  0.65131395564E+03  0.50400001928E-02 0. -1.
    10030    2    1    2    0    0  0.00000000000E+00  0.00000000000E+00  0.54878693230E+03  0.18514148436E+04  0.17682109110E+04 0.  0.
        2    1    3    3  502    0  0.79484017972E+03 -0.34418253364E+03  0.88825439023E+02  0.87070229493E+03  0.25500000920E-02 0.  1.
       -2    1    3    3    0  502 -0.79484017972E+03  0.34418253364E+03  0.45996149327E+03  0.98071254865E+03  0.25500000920E-02 0. -1.
</event>
<event>
 5   0  0.9284971E-04  0.1617747E+04  0.7818609E-02  0.8809719E-01
        2   -1    0    0  501    0  0.00000000000E+00  0.00000000000E+00  0.11234370438E+04  0.11234370438E+04  0.25500000920E-02 0.  1.
       -2   -1    0    0    0  501  0.00000000000E+00  0.00000000000E+00 -0.58238804700E+03  0.58238804700E+03  0.25500000920E-02 0. -1.
    10030    2    1    2    0    0  0.00000000000E+00  0.00000000000E+00  0.54104899681E+03  0.17058250908E+04  0.16177469590E+04 0.  0.
        4    1    3    3  502    0 -0.65426241647E+03  0.42380263358E+03  0.42884730179E+02  0.78071037832E+03  0.12699999809E+01 0. -1.
       -4    1    3    3    0  502  0.65426241647E+03 -0.42380263358E+03  0.49816426664E+03  0.92511471250E+03  0.12699999809E+01 0.  1.
</event>
<event>
 5   0  0.9610114E-04  0.1677893E+04  0.7818609E-02  0.8774074E-01
       -2   -1    0    0    0  501  0.00000000000E+00  0.00000000000E+00  0.34998063669E+03  0.34998063670E+03  0.25500000920E-02 0. -1.
        2   -1    0    0  501    0  0.00000000000E+00  0.00000000000E+00 -0.20110580183E+04  0.20110580183E+04  0.25500000920E-02 0.  1.
    10030    2    1    2    0    0  0.00000000000E+00  0.00000000000E+00 -0.16610773816E+04  0.23610386550E+04  0.16778931619E+04 0.  0.
        2    1    3    3  502    0  0.41933762445E+03  0.47979773917E+03 -0.15984085394E+04  0.17207439591E+04  0.25500000920E-02 0.  1.
       -2    1    3    3    0  502 -0.41933762445E+03 -0.47979773917E+03 -0.62668842129E+02  0.64029469588E+03  0.25500000920E-02 0. -1.
</event>
<event>
 5   0  0.9284971E-04  0.1691482E+04  0.7818609E-02  0.8766237E-01
        2   -1    0    0  501    0  0.00000000000E+00  0.00000000000E+00  0.29032012574E+04  0.29032012574E+04  0.25500000920E-02 0. -1.
       -2   -1    0    0    0  501  0.00000000000E+00  0.00000000000E+00 -0.24637554193E+03  0.24637554195E+03  0.25500000920E-02 0.  1.
    10030    2    1    2    0    0  0.00000000000E+00  0.00000000000E+00  0.26568257155E+04  0.31495767993E+04  0.16914819339E+04 0.  0.
        4    1    3    3  502    0  0.49654898906E+03 -0.68218521084E+03  0.12208239068E+04  0.14840317330E+04  0.12699999809E+01 0.  1.
       -4    1    3    3    0  502 -0.49654898906E+03  0.68218521084E+03  0.14360018087E+04  0.16655450663E+04  0.12699999809E+01 0. -1.
</event>
<event>
 5   0  0.4947006E-04  0.1693635E+04  0.7818609E-02  0.8765003E-01
        1   -1    0    0  501    0  0.00000000000E+00  0.00000000000E+00  0.61099800224E+03  0.61099800226E+03  0.50400001928E-02 0. -1.
       -1   -1    0    0    0  501  0.00000000000E+00  0.00000000000E+00 -0.11736529560E+04  0.11736529561E+04  0.50400001928E-02 0.  1.
    10030    2    1    2    0    0  0.00000000000E+00  0.00000000000E+00 -0.56265495381E+03  0.17846509583E+04  0.16936346849E+04 0.  0.
        2    1    3    3  502    0  0.41085882091E+03  0.50870636078E+03 -0.84830676526E+03  0.10710795957E+04  0.25500000920E-02 0.  1.
       -2    1    3    3    0  502 -0.41085882091E+03 -0.50870636078E+03  0.28565181145E+03  0.71357136267E+03  0.25500000920E-02 0. -1.
</event>
<event>
 5   0  0.9625225E-04  0.1652809E+04  0.7818609E-02  0.8788746E-01
        2   -1    0    0  501    0  0.00000000000E+00  0.00000000000E+00  0.87365079821E+03  0.87365079822E+03  0.25500000920E-02 0.  1.
       -2   -1    0    0    0  501  0.00000000000E+00  0.00000000000E+00 -0.78171351407E+03  0.78171351407E+03  0.25500000920E-02 0. -1.
    10030    2    1    2    0    0  0.00000000000E+00  0.00000000000E+00  0.91937284143E+02  0.16553643123E+04  0.16528092879E+04 0.  0.
        1    1    3    3  502    0  0.56917880790E+03 -0.43674244934E+03 -0.36483142705E+03  0.80486672972E+03  0.50400001928E-02 0.  1.
       -1    1    3    3    0  502 -0.56917880790E+03  0.43674244934E+03  0.45676871120E+03  0.85049758258E+03  0.50400001928E-02 0. -1.
</event>
<event>
 5   0  0.5035495E-04  0.1625928E+04  0.7818609E-02  0.8804776E-01
       -1   -1    0    0    0  501  0.00000000000E+00  0.00000000000E+00  0.73788549648E+03  0.73788549650E+03  0.50400001928E-02 0. -1.
        1   -1    0    0  501    0  0.00000000000E+00  0.00000000000E+00 -0.89568136520E+03  0.89568136521E+03  0.50400001928E-02 0.  1.
    10030    2    1    2    0    0  0.00000000000E+00  0.00000000000E+00 -0.15779586871E+03  0.16335668617E+04  0.16259277830E+04 0.  0.
        4    1    3    3  502    0  0.33752044532E+03 -0.76642575816E+02 -0.81795889944E+03  0.88817369333E+03  0.12699999809E+01 0.  1.
       -4    1    3    3    0  502 -0.33752044532E+03  0.76642575816E+02  0.66016303073E+03  0.74539316839E+03  0.12699999809E+01 0. -1.
</event>
<event>
 5   0  0.4947006E-04  0.1673732E+04  0.7818609E-02  0.8776490E-01
       -1   -1    0    0    0  501  0.00000000000E+00  0.00000000000E+00  0.67280356822E+03  0.67280356824E+03  0.50400001928E-02 0.  1.
        1   -1    0    0  501    0  0.00000000000E+00  0.00000000000E+00 -0.10409342974E+04  0.10409342974E+04  0.50400001928E-02 0. -1.
    10030    2    1    2    0    0  0.00000000000E+00  0.00000000000E+00 -0.36813072920E+03  0.17137378657E+04  0.16737315312E+04 0.  0.
        2    1    3    3  502    0  0.52079706998E+03  0.27569620212E+03  0.42436564970E+03  0.72617090868E+03  0.25500000920E-02 0.  1.
       -2    1    3    3    0  502 -0.52079706998E+03 -0.27569620212E+03 -0.79249637890E+03  0.98756695699E+03  0.25500000920E-02 0. -1.
</event>
<event>
 5   0  0.5074133E-04  0.1611844E+04  0.7818609E-02  0.8813304E-01
       -1   -1    0    0    0  501  0.00000000000E+00  0.00000000000E+00  0.69511759071E+03  0.69511759073E+03  0.50400001928E-02 0. -1.
        1   -1    0    0  501    0  0.00000000000E+00  0.00000000000E+00 -0.93438937288E+03  0.93438937289E+03  0.50400001928E-02 0.  1.
    10030    2    1    2    0    0  0.00000000000E+00  0.00000000000E+00 -0.23927178217E+03  0.16295069636E+04  0.16118442725E+04 0.  0.
        1    1    3    3  502    0  0.22871687149E+03 -0.68295045634E+03  0.24595896942E+03  0.76107065886E+03  0.50400001928E-02 0. -1.
       -1    1    3    3    0  502 -0.22871687149E+03  0.68295045634E+03 -0.48523075159E+03  0.86843630476E+03  0.50400001928E-02 0.  1.
</event>
<event>
 5   0  0.9625225E-04  0.1702968E+04  0.7818609E-02  0.8759673E-01
       -2   -1    0    0    0  501  0.00000000000E+00  0.00000000000E+00  0.56763151078E+03  0.56763151079E+03  0.25500000920E-02 0. -1.
        2   -1    0    0  501    0  0.00000000000E+00  0.00000000000E+00 -0.12772816089E+04  0.12772816089E+04  0.25500000920E-02 0.  1.
    10030    2    1    2    0    0  0.00000000000E+00  0.00000000000E+00 -0.70965009815E+03  0.18449131197E+04  0.17029683372E+04 0.  0.
        1    1    3    3  502    0  0.53304415452E+03  0.59216124492E+03 -0.29396895938E+02  0.79727986816E+03  0.50400001928E-02 0. -1.
       -1    1    3    3    0  502 -0.53304415452E+03 -0.59216124492E+03 -0.68025320221E+03  0.10476332516E+04  0.50400001928E-02 0.  1.
</event>
<event>
 5   0  0.5009762E-04  0.1672123E+04  0.7818609E-02  0.8777425E-01
        1   -1    0    0  501    0  0.00000000000E+00  0.00000000000E+00  0.13630839358E+04  0.13630839358E+04  0.50400001928E-02 0.  1.
       -1   -1    0    0    0  501  0.00000000000E+00  0.00000000000E+00 -0.51280718081E+03  0.51280718084E+03  0.50400001928E-02 0. -1.
    10030    2    1    2    0    0  0.00000000000E+00  0.00000000000E+00  0.85027675501E+03  0.18758911167E+04  0.16721234767E+04 0.  0.
        3    1    3    3  502    0  0.29112256232E+03  0.50962593302E+03 -0.24284356990E+03  0.63517237625E+03  0.10100000352E+00 0. -1.
       -3    1    3    3    0  502 -0.29112256232E+03 -0.50962593302E+03  0.10931203249E+04  0.12407187404E+04  0.10100000352E+00 0.  1.
</event>
<event>
 5   0  0.5059689E-04  0.1416680E+04  0.7818609E-02  0.8941833E-01
       -1   -1    0    0    0  501  0.00000000000E+00  0.00000000000E+00  0.60851074146E+03  0.60851074148E+03  0.50400001928E-02 0.  1.
        1   -1    0    0  501    0  0.00000000000E+00  0.00000000000E+00 -0.82454640828E+03  0.82454640830E+03  0.50400001928E-02 0. -1.
    10030    2    1    2    0    0  0.00000000000E+00  0.00000000000E+00 -0.21603566682E+03  0.14330571498E+04  0.14166797045E+04 0.  0.
        5    1    3    3  502    0  0.63126760140E+03 -0.28507267594E+03 -0.25791334733E+03  0.73912556435E+03  0.46999998093E+01 0. -1.
       -5    1    3    3    0  502 -0.63126760140E+03  0.28507267594E+03  0.41877680510E+02  0.69393158543E+03  0.46999998093E+01 0.  1.
</event>
<event>
 5   0  0.5009762E-04  0.9553968E+03  0.7818609E-02  0.9358865E-01
        1   -1    0    0  501    0  0.00000000000E+00  0.00000000000E+00  0.60247966781E+03  0.60247966783E+03  0.50400001928E-02 0. -1.
       -1   -1    0    0    0  501  0.00000000000E+00  0.00000000000E+00 -0.37876094757E+03  0.37876094761E+03  0.50400001928E-02 0.  1.
    10030    2    1    2    0    0  0.00000000000E+00  0.00000000000E+00  0.22371872024E+03  0.98124061544E+03  0.95539681787E+03 0.  0.
        3    1    3    3  502    0 -0.28730524612E+03 -0.38023831214E+03  0.14545946876E+03  0.49828099072E+03  0.10100000352E+00 0. -1.
       -3    1    3    3    0  502  0.28730524612E+03  0.38023831214E+03  0.78259251474E+02  0.48295962471E+03  0.10100000352E+00 0.  1.
</event>
<event>
 5   0  0.9610114E-04  0.1639461E+04  0.7818609E-02  0.8796665E-01
        2   -1    0    0  501    0  0.00000000000E+00  0.00000000000E+00  0.12586143896E+04  0.12586143896E+04  0.25500000920E-02 0. -1.
       -2   -1    0    0    0  501  0.00000000000E+00  0.00000000000E+00 -0.53388750985E+03  0.53388750985E+03  0.25500000920E-02 0.  1.
    10030    2    1    2    0    0  0.00000000000E+00  0.00000000000E+00  0.72472687973E+03  0.17925018994E+04  0.16394614998E+04 0.  0.
        2    1    3    3  502    0  0.32402732449E+03 -0.55569940172E+03 -0.19316382249E+03  0.67164558691E+03  0.25500000920E-02 0.  1.
       -2    1    3    3    0  502 -0.32402732449E+03  0.55569940172E+03  0.91789070222E+03  0.11208563125E+04  0.25500000920E-02 0. -1.
</event>
<event>
 5   0  0.9610114E-04  0.1968600E+04  0.7818609E-02  0.8621443E-01
        2   -1    0    0  501    0  0.00000000000E+00  0.00000000000E+00  0.19488154280E+04  0.19488154280E+04  0.25500000920E-02 0.  1.
       -2   -1    0    0    0  501  0.00000000000E+00  0.00000000000E+00 -0.49714655784E+03  0.49714655784E+03  0.25500000920E-02 0. -1.
    10030    2    1    2    0    0  0.00000000000E+00  0.00000000000E+00  0.14516688702E+04  0.24459619859E+04  0.19686003982E+04 0.  0.
        2    1    3    3  502    0 -0.59872432528E+03 -0.22247722556E+03 -0.20468852074E+03  0.67071925878E+03  0.25500000920E-02 0. -1.
       -2    1    3    3    0  502  0.59872432528E+03  0.22247722556E+03  0.16563573909E+04  0.17752427271E+04  0.25500000920E-02 0.  1.
</event>
<event>
 5   0  0.9284971E-04  0.1703474E+04  0.7818609E-02  0.8759386E-01
       -2   -1    0    0    0  501  0.00000000000E+00  0.00000000000E+00  0.88453801085E+03  0.88453801085E+03  0.25500000920E-02 0. -1.
        2   -1    0    0  501    0  0.00000000000E+00  0.00000000000E+00 -0.82015215643E+03  0.82015215643E+03  0.25500000920E-02 0.  1.
    10030    2    1    2    0    0  0.00000000000E+00  0.00000000000E+00  0.64385854420E+02  0.17046901673E+04  0.17034738120E+04 0.  0.
        4    1    3    3  502    0 -0.41362748513E+03  0.54266436100E+02 -0.71091497971E+03  0.82427802581E+03  0.12699999809E+01 0.  1.
       -4    1    3    3    0  502  0.41362748513E+03 -0.54266436100E+02  0.77530083413E+03  0.88041214147E+03  0.12699999809E+01 0. -1.
</event>
<event>
 5   0  0.3523125E-04  0.1682083E+04  0.7818609E-02  0.8771649E-01
        3   -1    0    0  501    0  0.00000000000E+00  0.00000000000E+00  0.93130218719E+03  0.93130219267E+03  0.10100000352E+00 0. -1.
       -3   -1    0    0    0  501  0.00000000000E+00  0.00000000000E+00 -0.75952911089E+03  0.75952911760E+03  0.10100000352E+00 0.  1.
    10030    2    1    2    0    0  0.00000000000E+00  0.00000000000E+00  0.17177307631E+03  0.16908313103E+04  0.16820833897E+04 0.  0.
        1    1    3    3  502    0 -0.32896482047E+03 -0.69365366847E+03  0.43115191552E+03  0.88049147592E+03  0.50400001928E-02 0. -1.
       -1    1    3    3    0  502  0.32896482047E+03  0.69365366847E+03 -0.25937883921E+03  0.81033983435E+03  0.50400001928E-02 0.  1.
</event>
<event>
 5   0  0.5009762E-04  0.1655586E+04  0.7818609E-02  0.8787109E-01
        1   -1    0    0  501    0  0.00000000000E+00  0.00000000000E+00  0.83100295229E+03  0.83100295231E+03  0.50400001928E-02 0.  1.
       -1   -1    0    0    0  501  0.00000000000E+00  0.00000000000E+00 -0.82459548407E+03  0.82459548409E+03  0.50400001928E-02 0. -1.
    10030    2    1    2    0    0  0.00000000000E+00  0.00000000000E+00  0.64074682183E+01  0.16555984364E+04  0.16555860373E+04 0.  0.
        3    1    3    3  502    0 -0.43628242159E+03  0.50202282535E+03  0.49602788211E+03  0.82970653763E+03  0.10100000352E+00 0.  1.
       -3    1    3    3    0  502  0.43628242159E+03 -0.50202282535E+03 -0.48962041389E+03  0.82589189877E+03  0.10100000352E+00 0. -1.
</event>
<event>
 5   0  0.5035495E-04  0.1723064E+04  0.7818609E-02  0.8748318E-01
        1   -1    0    0  501    0  0.00000000000E+00  0.00000000000E+00  0.83579498670E+03  0.83579498671E+03  0.50400001928E-02 0. -1.
       -1   -1    0    0    0  501  0.00000000000E+00  0.00000000000E+00 -0.88806136426E+03  0.88806136428E+03  0.50400001928E-02 0.  1.
    10030    2    1    2    0    0  0.00000000000E+00  0.00000000000E+00 -0.52266377565E+02  0.17238563510E+04  0.17230638249E+04 0.  0.
        4    1    3    3  502    0 -0.55053824524E+03 -0.15067802746E+03 -0.67175116246E+03  0.88150295779E+03  0.12699999809E+01 0.  1.
       -4    1    3    3    0  502  0.55053824524E+03  0.15067802746E+03  0.61948478489E+03  0.84235339320E+03  0.12699999809E+01 0. -1.
</event>
<event>
 5   0  0.1007187E-03  0.1654369E+04  0.7818609E-02  0.8787826E-01
        2   -1    0    0  501    0  0.00000000000E+00  0.00000000000E+00  0.61601059821E+03  0.61601059822E+03  0.25500000920E-02 0.  1.
       -2   -1    0    0    0  501  0.00000000000E+00  0.00000000000E+00 -0.11107502398E+04  0.11107502398E+04  0.25500000920E-02 0. -1.
    10030    2    1    2    0    0  0.00000000000E+00  0.00000000000E+00 -0.49473964161E+03  0.17267608380E+04  0.16543686647E+04 0.  0.
        5    1    3    3  502    0  0.51044634868E+02 -0.57643715744E+02  0.61224820500E+03  0.61708857325E+03  0.46999998093E+01 0.  1.
       -5    1    3    3    0  502 -0.51044634868E+02  0.57643715744E+02 -0.11069878466E+04  0.11096722648E+04  0.46999998093E+01 0. -1.
</event>
<event>
 5   0  0.5059689E-04  0.1668902E+04  0.7818609E-02  0.8779302E-01
       -1   -1    0    0    0  501  0.00000000000E+00  0.00000000000E+00  0.16349275200E+04  0.16349275200E+04  0.50400001928E-02 0.  1.
        1   -1    0    0  501    0  0.00000000000E+00  0.00000000000E+00 -0.42589547808E+03  0.42589547811E+03  0.50400001928E-02 0. -1.
    10030    2    1    2    0    0  0.00000000000E+00  0.00000000000E+00  0.12090320420E+04  0.20608229982E+04  0.16689017201E+04 0.  0.
        5    1    3    3  502    0 -0.19559536954E+03  0.16014924063E+03 -0.37745636395E+03  0.45431346507E+03  0.46999998093E+01 0. -1.
       -5    1    3    3    0  502  0.19559536954E+03 -0.16014924063E+03  0.15864884059E+04  0.16065095331E+04  0.46999998093E+01 0.  1.
</event>
<event>
 5   0  0.4947006E-04  0.1668370E+04  0.7818609E-02  0.8779612E-01
       -1   -1    0    0    0  501  0.00000000000E+00  0.00000000000E+00  0.71547115223E+03  0.71547115225E+03  0.50400001928E-02 0. -1.
        1   -1    0    0  501    0  0.00000000000E+00  0.00000000000E+00 -0.97259670751E+03  0.97259670752E+03  0.50400001928E-02 0.  1.
    10030    2    1    2    0    0  0.00000000000E+00  0.00000000000E+00 -0.25712555528E+03  0.16880678598E+04  0.16683703270E+04 0.  0.
        2    1    3    3  502    0  0.57710458257E+03  0.14952417142E+03 -0.71893923530E+03  0.93395974277E+03  0.25500000920E-02 0.  1.
       -2    1    3    3    0  502 -0.57710458257E+03 -0.14952417142E+03  0.46181368002E+03  0.75410811700E+03  0.25500000920E-02 0. -1.
</event>
<event>
 5   0  0.9312096E-04  0.1653191E+04  0.7818609E-02  0.8788521E-01
        2   -1    0    0  501    0  0.00000000000E+00  0.00000000000E+00  0.17650621813E+04  0.17650621813E+04  0.25500000920E-02 0.  1.
       -2   -1    0    0    0  501  0.00000000000E+00  0.00000000000E+00 -0.38710263539E+03  0.38710263540E+03  0.25500000920E-02 0. -1.
    10030    2    1    2    0    0  0.00000000000E+00  0.00000000000E+00  0.13779595459E+04  0.21521648167E+04  0.16531911227E+04 0.  0.
        3    1    3    3  502    0  0.26704607098E+03 -0.45548007750E+03 -0.13896888860E+03  0.54597441994E+03  0.10100000352E+00 0. -1.
       -3    1    3    3    0  502 -0.26704607098E+03  0.45548007750E+03  0.15169284345E+04  0.16061903968E+04  0.10100000352E+00 0.  1.
</event>
<event>
 5   0  0.5009762E-04  0.1768259E+04  0.7818609E-02  0.8723363E-01
        1   -1    0    0  501    0  0.00000000000E+00  0.00000000000E+00  0.11830394621E+04  0.11830394622E+04  0.50400001928E-02 0. -1.
       -1   -1    0    0    0  501  0.00000000000E+00  0.00000000000E+00 -0.66074326154E+03  0.66074326156E+03  0.50400001928E-02 0.  1.
    10030    2    1    2    0    0  0.00000000000E+00  0.00000000000E+00  0.52229620060E+03  0.18437827237E+04  0.17682594298E+04 0.  0.
        3    1    3    3  502    0  0.28183829839E+03  0.52522637599E+03  0.94202272177E+03  0.11147656216E+04  0.10100000352E+00 0. -1.
       -3    1    3    3    0  502 -0.28183829839E+03 -0.52522637599E+03 -0.41972652116E+03  0.72901710216E+03  0.10100000352E+00 0.  1.
</event>
<event>
 5   0  0.5009762E-04  0.1339881E+04  0.7818609E-02  0.8998524E-01
       -1   -1    0    0    0  501  0.00000000000E+00  0.00000000000E+00  0.56321098956E+03  0.56321098958E+03  0.50400001928E-02 0. -1.
        1   -1    0    0  501    0  0.00000000000E+00  0.00000000000E+00 -0.79689519914E+03  0.79689519915E+03  0.50400001928E-02 0.  1.
    10030    2    1    2    0    0  0.00000000000E+00  0.00000000000E+00 -0.23368420958E+03  0.13601061887E+04  0.13398807913E+04 0.  0.
        3    1    3    3  502    0  0.50546993849E+03 -0.42879860025E+03 -0.18153026842E+02  0.66309700714E+03  0.10100000352E+00 0.  1.
       -3    1    3    3    0  502 -0.50546993849E+03  0.42879860025E+03 -0.21553118274E+03  0.69700918159E+03  0.10100000352E+00 0. -1.
</event>
<event>
 5   0  0.5009762E-04  0.1664969E+04  0.7818609E-02  0.8781600E-01
        1   -1    0    0  501    0  0.00000000000E+00  0.00000000000E+00  0.14671333275E+04  0.14671333275E+04  0.50400001928E-02 0.  1.
       -1   -1    0    0    0  501  0.00000000000E+00  0.00000000000E+00 -0.47237035466E+03  0.47237035468E+03  0.50400001928E-02 0. -1.
    10030    2    1    2    0    0  0.00000000000E+00  0.00000000000E+00  0.99476297288E+03  0.19395036822E+04  0.16649688169E+04 0.  0.
        3    1    3    3  502    0 -0.81580568543E+03  0.14636820963E+03  0.40664186874E+03  0.92321188727E+03  0.10100000352E+00 0.  1.
       -3    1    3    3    0  502  0.81580568543E+03 -0.14636820963E+03  0.58812110414E+03  0.10162917950E+04  0.10100000352E+00 0. -1.
</event>
<event>
 5   0  0.3523125E-04  0.1722294E+04  0.7818609E-02  0.8748750E-01
        4   -1    0    0  501    0  0.00000000000E+00  0.00000000000E+00  0.43744210281E+03  0.43744394637E+03  0.12699999809E+01 0. -1.
       -4   -1    0    0    0  501  0.00000000000E+00  0.00000000000E+00 -0.16952453648E+04  0.16952458405E+04  0.12699999809E+01 0.  1.
    10030    2    1    2    0    0  0.00000000000E+00  0.00000000000E+00 -0.12578032620E+04  0.21326897869E+04  0.17222940171E+04 0.  0.
        1    1    3    3  502    0 -0.60419006884E+03 -0.23037317029E+03  0.75351026381E+02  0.65099555611E+03  0.50400001928E-02 0. -1.
       -1    1    3    3    0  502  0.60419006884E+03  0.23037317029E+03 -0.13331542884E+04  0.14816942308E+04  0.50400001928E-02 0.  1.
</event>
<event>
 5   0  0.5035495E-04  0.1700210E+04  0.7818609E-02  0.8761244E-01
       -1   -1    0    0    0  501  0.00000000000E+00  0.00000000000E+00  0.45517740243E+03  0.45517740245E+03  0.50400001928E-02 0.  1.
        1   -1    0    0  501    0  0.00000000000E+00  0.00000000000E+00 -0.15876860558E+04  0.15876860558E+04  0.50400001928E-02 0. -1.
    10030    2    1    2    0    0  0.00000000000E+00  0.00000000000E+00 -0.11325086534E+04  0.20428634583E+04  0.17002103573E+04 0.  0.
        4    1    3    3  502    0  0.75093164040E+02 -0.79686571611E+03 -0.22209613741E+03  0.83063966914E+03  0.12699999809E+01 0.  1.
       -4    1    3    3    0  502 -0.75093164040E+02  0.79686571611E+03 -0.91041251597E+03  0.12122237891E+04  0.12699999809E+01 0. -1.
</event>
<event>
 5   0  0.5035495E-04  0.1677430E+04  0.7818609E-02  0.8774343E-01
        1   -1    0    0  501    0  0.00000000000E+00  0.00000000000E+00  0.17263243424E+04  0.17263243424E+04  0.50400001928E-02 0.  1.
       -1   -1    0    0    0  501  0.00000000000E+00  0.00000000000E+00 -0.40747997331E+03  0.40747997334E+03  0.50400001928E-02 0. -1.
    10030    2    1    2    0    0  0.00000000000E+00  0.00000000000E+00  0.13188443691E+04  0.21338043157E+04  0.16774296969E+04 0.  0.
        4    1    3    3  502    0 -0.79988395497E+03 -0.22883883868E+03  0.52444249113E+03  0.98347500980E+03  0.12699999809E+01 0. -1.
       -4    1    3    3    0  502  0.79988395497E+03  0.22883883868E+03  0.79440187793E+03  0.11503293059E+04  0.12699999809E+01 0.  1.
</event>
<event>
 5   0  0.9312096E-04  0.1703927E+04  0.7818609E-02  0.8759128E-01
       -2   -1    0    0    0  501  0.00000000000E+00  0.00000000000E+00  0.10128029315E+04  0.10128029315E+04  0.25500000920E-02 0.  1.
        2   -1    0    0  501    0  0.00000000000E+00  0.00000000000E+00 -0.71666600693E+03  0.71666600694E+03  0.25500000920E-02 0. -1.
    10030    2    1    2    0    0  0.00000000000E+00  0.00000000000E+00  0.29613692453E+03  0.17294689384E+04  0.17039265626E+04 0.  0.
        3    1    3    3  502    0  0.41197148689E+03 -0.51062625665E+03  0.69970588056E+03  0.95919133101E+03  0.10100000352E+00 0.  1.
       -3    1    3    3    0  502 -0.41197148689E+03  0.51062625665E+03 -0.40356895603E+03  0.77027760740E+03  0.10100000352E+00 0. -1.
</event>
<event>
 5   0  0.9284971E-04  0.1672124E+04  0.7818609E-02  0.8777424E-01
        2   -1    0    0  501    0  0.00000000000E+00  0.00000000000E+00  0.22482992539E+04  0.22482992539E+04  0.25500000920E-02 0.  1.
       -2   -1    0    0    0  501  0.00000000000E+00  0.00000000000E+00 -0.31090167933E+03  0.31090167934E+03  0.25500000920E-02 0. -1.
    10030    2    1    2    0    0  0.00000000000E+00  0.00000000000E+00  0.19373975746E+04  0.25592009333E+04  0.16721244137E+04 0.  0.
        4    1    3    3  502    0  0.78646097041E+02  0.52538783607E+03 -0.19375634485E+02  0.53159628948E+03  0.12699999809E+01 0. -1.
       -4    1    3    3    0  502 -0.78646097041E+02 -0.52538783607E+03  0.19567732091E+04  0.20276046438E+04  0.12699999809E+01 0.  1.
</event>
<event>
 5   0  0.9284971E-04  0.1672344E+04  0.7818609E-02  0.8777296E-01
        2   -1    0    0  501    0  0.00000000000E+00  0.00000000000E+00  0.17781367503E+04  0.17781367503E+04  0.25500000920E-02 0. -1.
       -2   -1    0    0    0  501  0.00000000000E+00  0.00000000000E+00 -0.39321155164E+03  0.39321155165E+03  0.25500000920E-02 0.  1.
    10030    2    1    2    0    0  0.00000000000E+00  0.00000000000E+00  0.13849251987E+04  0.21713483020E+04  0.16723443553E+04 0.  0.
        4    1    3    3  502    0  0.21085257424E+03  0.94045083262E+02 -0.35100596724E+03  0.42013103633E+03  0.12699999809E+01 0.  1.
       -4    1    3    3    0  502 -0.21085257424E+03 -0.94045083262E+02  0.17359311659E+04  0.17512172656E+04  0.12699999809E+01 0. -1.
</event>
<event>
 5   0  0.5059689E-04  0.1700225E+04  0.7818609E-02  0.8761236E-01
       -1   -1    0    0    0  501  0.00000000000E+00  0.00000000000E+00  0.41955173844E+03  0.41955173847E+03  0.50400001928E-02 0.  1.
        1   -1    0    0  501    0  0.00000000000E+00  0.00000000000E+00 -0.17225315365E+04  0.17225315365E+04  0.50400001928E-02 0. -1.
    10030    2    1    2    0    0  0.00000000000E+00  0.00000000000E+00 -0.13029797980E+04  0.21420832750E+04  0.17002248095E+04 0.  0.
        5    1    3    3  502    0  0.45138116084E+02  0.36836079945E+03  0.31208695769E+03  0.48492008337E+03  0.46999998093E+01 0.  1.
       -5    1    3    3    0  502 -0.45138116084E+02 -0.36836079945E+03 -0.16150667557E+04  0.16571631916E+04  0.46999998093E+01 0. -1.
</event>
<event>
 5   0  0.5009762E-04  0.1710691E+04  0.7818609E-02  0.8755290E-01
        1   -1    0    0  501    0  0.00000000000E+00  0.00000000000E+00  0.92611254769E+03  0.92611254771E+03  0.50400001928E-02 0.  1.
       -1   -1    0    0    0  501  0.00000000000E+00  0.00000000000E+00 -0.78998621098E+03  0.78998621099E+03  0.50400001928E-02 0. -1.
    10030    2    1    2    0    0  0.00000000000E+00  0.00000000000E+00  0.13612633672E+03  0.17160987587E+04  0.17106912550E+04 0.  0.
        3    1    3    3  502    0  0.30095723243E+03  0.68854979751E+03  0.47793768289E+03  0.89056191156E+03  0.10100000352E+00 0. -1.
       -3    1    3    3    0  502 -0.30095723243E+03 -0.68854979751E+03 -0.34181134618E+03  0.82553684713E+03  0.10100000352E+00 0.  1.
</event>
<event>
 5   0  0.9284971E-04  0.1658941E+04  0.7818609E-02  0.8785135E-01
       -2   -1    0    0    0  501  0.00000000000E+00  0.00000000000E+00  0.85019344075E+03  0.85019344075E+03  0.25500000920E-02 0. -1.
        2   -1    0    0  501    0  0.00000000000E+00  0.00000000000E+00 -0.80925257731E+03  0.80925257731E+03  0.25500000920E-02 0.  1.
    10030    2    1    2    0    0  0.00000000000E+00  0.00000000000E+00  0.40940863441E+02  0.16594460181E+04  0.16589409069E+04 0.  0.
        4    1    3    3  502    0 -0.43118653739E+03 -0.55439022512E+03  0.46190885362E+03  0.84061391476E+03  0.12699999809E+01 0. -1.
       -4    1    3    3    0  502  0.43118653739E+03  0.55439022512E+03 -0.42096799018E+03  0.81883210330E+03  0.12699999809E+01 0.  1.
</event>
<event>
 5   0  0.1007187E-03  0.1238696E+04  0.7818609E-02  0.9079644E-01
       -2   -1    0    0    0  501  0.00000000000E+00  0.00000000000E+00  0.65429478659E+03  0.65429478660E+03  0.25500000920E-02 0.  1.
        2   -1    0    0  501    0  0.00000000000E+00  0.00000000000E+00 -0.58626789638E+03  0.58626789639E+03  0.25500000920E-02 0. -1.
    10030    2    1    2    0    0  0.00000000000E+00  0.00000000000E+00  0.68026890211E+02  0.12405626830E+04  0.12386961341E+04 0.  0.
        5    1    3    3  502    0  0.43578112585E+03  0.43736649067E+03  0.82823948682E+02  0.62295789046E+03  0.46999998093E+01 0.  1.
       -5    1    3    3    0  502 -0.43578112585E+03 -0.43736649067E+03 -0.14797058471E+02  0.61760479252E+03  0.46999998093E+01 0. -1.
</event>
<event>
 5   0  0.5059689E-04  0.1435158E+04  0.7818609E-02  0.8928755E-01
       -1   -1    0    0    0  501  0.00000000000E+00  0.00000000000E+00  0.40115456534E+03  0.40115456537E+03  0.50400001928E-02 0. -1.
        1   -1    0    0  501    0  0.00000000000E+00  0.00000000000E+00 -0.12835945848E+04  0.12835945848E+04  0.50400001928E-02 0.  1.
    10030    2    1    2    0    0  0.00000000000E+00  0.00000000000E+00 -0.88244001943E+03  0.16847491501E+04  0.14351582878E+04 0.  0.
        5    1    3    3  502    0 -0.35335640317E+03  0.55772573052E+01 -0.11743331814E+04  0.12263655101E+04  0.46999998093E+01 0.  1.
       -5    1    3    3    0  502  0.35335640317E+03 -0.55772573052E+01  0.29189316196E+03  0.45838364004E+03  0.46999998093E+01 0. -1.
</event>
<event>
 5   0  0.5009762E-04  0.1661042E+04  0.7818609E-02  0.8783901E-01
       -1   -1    0    0    0  501  0.00000000000E+00  0.00000000000E+00  0.62157815022E+03  0.62157815024E+03  0.50400001928E-02 0. -1.
        1   -1    0    0  501    0  0.00000000000E+00  0.00000000000E+00 -0.11097001607E+04  0.11097001607E+04  0.50400001928E-02 0.  1.
    10030    2    1    2    0    0  0.00000000000E+00  0.00000000000E+00 -0.48812201050E+03  0.17312783110E+04  0.16610422911E+04 0.  0.
        3    1    3    3  502    0 -0.77367336378E+03  0.59235266596E+02  0.64578495087E+02  0.77862037147E+03  0.10100000352E+00 0. -1.
       -3    1    3    3    0  502  0.77367336378E+03 -0.59235266596E+02 -0.55270050559E+03  0.95265793951E+03  0.10100000352E+00 0.  1.
</event>
<event>
 5   0  0.9610114E-04  0.2005811E+04  0.7818609E-02  0.8603909E-01
       -2   -1    0    0    0  501  0.00000000000E+00  0.00000000000E+00  0.15396236630E+04  0.15396236630E+04  0.25500000920E-02 0. -1.
        2   -1    0    0  501    0  0.00000000000E+00  0.00000000000E+00 -0.65328912501E+03  0.65328912502E+03  0.25500000920E-02 0.  1.
    10030    2    1    2    0    0  0.00000000000E+00  0.00000000000E+00  0.88633453800E+03  0.21929127880E+04  0.20058109539E+04 0.  0.
        2    1    3    3  502    0  0.97062629743E+03 -0.24585170880E+03  0.38073606966E+03  0.10712228651E+04  0.25500000920E-02 0. -1.
       -2    1    3    3    0  502 -0.97062629743E+03  0.24585170880E+03  0.50559846833E+03  0.11216899229E+04  0.25500000920E-02 0.  1.
</event>
<event>
 5   0  0.1007187E-03  0.1505472E+04  0.7818609E-02  0.8880822E-01
       -2   -1    0    0    0  501  0.00000000000E+00  0.00000000000E+00  0.34461243605E+03  0.34461243606E+03  0.25500000920E-02 0.  1.
        2   -1    0    0  501    0  0.00000000000E+00  0.00000000000E+00 -0.16442000297E+04  0.16442000297E+04  0.25500000920E-02 0. -1.
    10030    2    1    2    0    0  0.00000000000E+00  0.00000000000E+00 -0.12995875936E+04  0.19888124657E+04  0.15054723878E+04 0.  0.
        5    1    3    3  502    0 -0.18680930748E+03 -0.64387164847E+01  0.31344542399E+03  0.36497849012E+03  0.46999998093E+01 0.  1.
       -5    1    3    3    0  502  0.18680930748E+03  0.64387164847E+01 -0.16130330176E+04  0.16238339756E+04  0.46999998093E+01 0. -1.
</event>
<event>
 5   0  0.9625225E-04  0.1734362E+04  0.7818609E-02  0.8742006E-01
       -2   -1    0    0    0  501  0.00000000000E+00  0.00000000000E+00  0.42726628385E+03  0.42726628386E+03  0.25500000920E-02 0.  1.
        2   -1    0    0  501    0  0.00000000000E+00  0.00000000000E+00 -0.17600325170E+04  0.17600325170E+04  0.25500000920E-02 0. -1.
    10030    2    1    2    0    0  0.00000000000E+00  0.00000000000E+00 -0.13327662332E+04  0.21872988009E+04  0.17343616151E+04 0.  0.
        1    1    3    3  502    0 -0.44142674091E+03 -0.42280658311E+03  0.10938567852E+03  0.62095748727E+03  0.50400001928E-02 0.  1.
       -1    1    3    3    0  502  0.44142674091E+03  0.42280658311E+03 -0.14421519117E+04  0.15663413136E+04  0.50400001928E-02 0. -1.
</event>
<event>
 5   0  0.9284971E-04  0.1735530E+04  0.7818609E-02  0.8741356E-01
       -2   -1    0    0    0  501  0.00000000000E+00  0.00000000000E+00  0.88365239125E+03  0.88365239125E+03  0.25500000920E-02 0.  1.
        2   -1    0    0  501    0  0.00000000000E+00  0.00000000000E+00 -0.85216337748E+03  0.85216337749E+03  0.25500000920E-02 0. -1.
    10030    2    1    2    0    0  0.00000000000E+00  0.00000000000E+00  0.31489013763E+02  0.17358157687E+04  0.17355301279E+04 0.  0.
        4    1    3    3  502    0  0.85386172436E+03  0.15214973785E+03 -0.12281637688E+02  0.86739946886E+03  0.12699999809E+01 0.  1.
       -4    1    3    3    0  502 -0.85386172436E+03 -0.15214973785E+03  0.43770651451E+02  0.86841629988E+03  0.12699999809E+01 0. -1.
</event>
<event>
 5   0  0.1007187E-03  0.1705908E+04  0.7818609E-02  0.8758002E-01
       -2   -1    0    0    0  501  0.00000000000E+00  0.00000000000E+00  0.32586573316E+03  0.32586573317E+03  0.25500000920E-02 0. -1.
        2   -1    0    0  501    0  0.00000000000E+00  0.00000000000E+00 -0.22326082635E+04  0.22326082635E+04  0.25500000920E-02 0.  1.
    10030    2    1    2    0    0  0.00000000000E+00  0.00000000000E+00 -0.19067425304E+04  0.25584739967E+04  0.17059080030E+04 0.  0.
        5    1    3    3  502    0 -0.73492268673E+03 -0.18448002826E+03 -0.36603421078E+03  0.84151492545E+03  0.46999998093E+01 0. -1.
       -5    1    3    3    0  502  0.73492268673E+03  0.18448002826E+03 -0.15407083196E+04  0.17169590712E+04  0.46999998093E+01 0.  1.
</event>
<event>
 5   0  0.9312096E-04  0.1721469E+04  0.7818609E-02  0.8749214E-01
        2   -1    0    0  501    0  0.00000000000E+00  0.00000000000E+00  0.19941566233E+04  0.19941566233E+04  0.25500000920E-02 0.  1.
       -2   -1    0    0    0  501  0.00000000000E+00  0.00000000000E+00 -0.37151728469E+03  0.37151728470E+03  0.25500000920E-02 0. -1.
    10030    2    1    2    0    0  0.00000000000E+00  0.00000000000E+00  0.16226393386E+04  0.23656739080E+04  0.17214687380E+04 0.  0.
        3    1    3    3  502    0 -0.75891086069E+03 -0.39463504136E+03  0.94299483958E+03  0.12731542672E+04  0.10100000352E+00 0. -1.
       -3    1    3    3    0  502  0.75891086069E+03  0.39463504136E+03  0.67964449902E+03  0.10925196408E+04  0.10100000352E+00 0.  1.
</event>
<event>
 5   0  0.5035495E-04  0.1704612E+04  0.7818609E-02  0.8758739E-01
        1   -1    0    0  501    0  0.00000000000E+00  0.00000000000E+00  0.66769237071E+03  0.66769237072E+03  0.50400001928E-02 0. -1.
       -1   -1    0    0    0  501  0.00000000000E+00  0.00000000000E+00 -0.10879638088E+04  0.10879638088E+04  0.50400001928E-02 0.  1.
    10030    2    1    2    0    0  0.00000000000E+00  0.00000000000E+00 -0.42027143813E+03  0.17556561796E+04  0.17046115508E+04 0.  0.
        4    1    3    3  502    0 -0.84201354999E+03 -0.13156439058E+03 -0.22176610368E+03  0.88061218756E+03  0.12699999809E+01 0. -1.
       -4    1    3    3    0  502  0.84201354999E+03  0.13156439058E+03 -0.19850533445E+03  0.87504399201E+03  0.12699999809E+01 0.  1.
</event>
<event>
 5   0  0.1007187E-03  0.1720134E+04  0.7818609E-02  0.8749964E-01
       -2   -1    0    0    0  501  0.00000000000E+00  0.00000000000E+00  0.33675378580E+03  0.33675378581E+03  0.25500000920E-02 0.  1.
        2   -1    0    0  501    0  0.00000000000E+00  0.00000000000E+00 -0.21966056557E+04  0.21966056557E+04  0.25500000920E-02 0. -1.
    10030    2    1    2    0    0  0.00000000000E+00  0.00000000000E+00 -0.18598518699E+04  0.25333594415E+04  0.17201340302E+04 0.  0.
        5    1    3    3  502    0 -0.58441946302E+03 -0.26735584944E+03 -0.88166931805E+02  0.64870698844E+03  0.46999998093E+01 0.  1.
       -5    1    3    3    0  502  0.58441946302E+03  0.26735584944E+03 -0.17716849381E+04  0.18846524530E+04  0.46999998093E+01 0. -1.
</event>
<event>
 5   0  0.5059689E-04  0.1697226E+04  0.7818609E-02  0.8762948E-01
        1   -1    0    0  501    0  0.00000000000E+00  0.00000000000E+00  0.12577732483E+04  0.12577732483E+04  0.50400001928E-02 0.  1.
       -1   -1    0    0    0  501  0.00000000000E+00  0.00000000000E+00 -0.57255504147E+03  0.57255504150E+03  0.50400001928E-02 0. -1.
    10030    2    1    2    0    0  0.00000000000E+00  0.00000000000E+00  0.68521820679E+03  0.18303282898E+04  0.16972264603E+04 0.  0.
        5    1    3    3  502    0  0.35719078275E+03  0.25551126172E+03 -0.44045610889E+03  0.62200878933E+03  0.46999998093E+01 0. -1.
       -5    1    3    3    0  502 -0.35719078275E+03 -0.25551126172E+03  0.11256743157E+04  0.12083195004E+04  0.46999998093E+01 0.  1.
</event>
<event>
 5   0  0.5059689E-04  0.1718987E+04  0.7818609E-02  0.8750609E-01
       -1   -1    0    0    0  501  0.00000000000E+00  0.00000000000E+00  0.71159486298E+03  0.71159486300E+03  0.50400001928E-02 0.  1.
        1   -1    0    0  501    0  0.00000000000E+00  0.00000000000E+00 -0.10381320834E+04  0.10381320834E+04  0.50400001928E-02 0. -1.
    10030    2    1    2    0    0  0.00000000000E+00  0.00000000000E+00 -0.32653722043E+03  0.17497269464E+04  0.17189874434E+04 0.  0.
        5    1    3    3  502    0  0.72646134741E+03  0.40868320740E+02  0.30239565671E+03  0.78796036202E+03  0.46999998093E+01 0.  1.
       -5    1    3    3    0  502 -0.72646134741E+03 -0.40868320740E+02 -0.62893287714E+03  0.96176658440E+03  0.46999998093E+01 0. -1.
</event>
<event>
 5   0  0.5059689E-04  0.1701994E+04  0.7818609E-02  0.8760228E-01
       -1   -1    0    0    0  501  0.00000000000E+00  0.00000000000E+00  0.55366261732E+03  0.55366261734E+03  0.50400001928E-02 0. -1.
        1   -1    0    0  501    0  0.00000000000E+00  0.00000000000E+00 -0.13080100738E+04  0.13080100738E+04  0.50400001928E-02 0.  1.
    10030    2    1    2    0    0  0.00000000000E+00  0.00000000000E+00 -0.75434745650E+03  0.18616726912E+04  0.17019944547E+04 0.  0.
        5    1    3    3  502    0 -0.59087401798E+03 -0.51842394096E+02 -0.10446309906E+04  0.12012891972E+04  0.46999998093E+01 0.  1.
       -5    1    3    3    0  502  0.59087401798E+03  0.51842394096E+02  0.29028353405E+03  0.66038349395E+03  0.46999998093E+01 0. -1.
</event>
<event>
 5   0  0.5074133E-04  0.1699200E+04  0.7818609E-02  0.8761821E-01
       -1   -1    0    0    0  501  0.00000000000E+00  0.00000000000E+00  0.83388691057E+03  0.83388691059E+03  0.50400001928E-02 0.  1.
        1   -1    0    0  501    0  0.00000000000E+00  0.00000000000E+00 -0.86560934736E+03  0.86560934737E+03  0.50400001928E-02 0. -1.
    10030    2    1    2    0    0  0.00000000000E+00  0.00000000000E+00 -0.31722436787E+02  0.16994962580E+04  0.16992001700E+04 0.  0.
        1    1    3    3  502    0  0.31333901148E+03 -0.78520419825E+03 -0.10009783531E+03  0.85132047181E+03  0.50400001928E-02 0. -1.
       -1    1    3    3    0  502 -0.31333901148E+03  0.78520419825E+03  0.68375398524E+02  0.84817578615E+03  0.50400001928E-02 0.  1.
</event>
<event>
 5   0  0.9312096E-04  0.1723497E+04  0.7818609E-02  0.8748076E-01
       -2   -1    0    0    0  501  0.00000000000E+00  0.00000000000E+00  0.12345647812E+04  0.12345647812E+04  0.25500000920E-02 0.  1.
        2   -1    0    0  501    0  0.00000000000E+00  0.00000000000E+00 -0.60151574257E+03  0.60151574257E+03  0.25500000920E-02 0. -1.
    10030    2    1    2    0    0  0.00000000000E+00  0.00000000000E+00  0.63304903858E+03  0.18360805237E+04  0.17234966215E+04 0.  0.
        3    1    3    3  502    0 -0.74694407659E+03 -0.21619429039E+03 -0.79146117873E+02  0.78161981994E+03  0.10100000352E+00 0. -1.
       -3    1    3    3    0  502  0.74694407659E+03  0.21619429039E+03  0.71219515646E+03  0.10544607038E+04  0.10100000352E+00 0.  1.
</event>
<event>
 5   0  0.3523125E-04  0.1687712E+04  0.7818609E-02  0.8768404E-01
       -4   -1    0    0    0  501  0.00000000000E+00  0.00000000000E+00  0.78094694366E+03  0.78094797631E+03  0.12699999809E+01 0. -1.
        4   -1    0    0  501    0  0.00000000000E+00  0.00000000000E+00 -0.91183112152E+03  0.91183200595E+03  0.12699999809E+01 0.  1.
    10030    2    1    2    0    0  0.00000000000E+00  0.00000000000E+00 -0.13088417786E+03  0.16927799823E+04  0.16877124756E+04 0.  0.
        4    1    3    3  502    0  0.78634213725E+02 -0.13530604134E+03  0.76626461184E+03  0.78208320059E+03  0.12699999809E+01 0. -1.
       -4    1    3    3    0  502 -0.78634213725E+02  0.13530604134E+03 -0.89714878970E+03  0.91069678167E+03  0.12699999809E+01 0.  1.
</event>
<event>
 5   0  0.5035495E-04  0.1644226E+04  0.7818609E-02  0.8793830E-01
        1   -1    0    0  501    0  0.00000000000E+00  0.00000000000E+00  0.60893601329E+03  0.60893601332E+03  0.50400001928E-02 0.  1.
       -1   -1    0    0    0  501  0.00000000000E+00  0.00000000000E+00 -0.11099194445E+04  0.11099194445E+04  0.50400001928E-02 0. -1.
    10030    2    1    2    0    0  0.00000000000E+00  0.00000000000E+00 -0.50098343120E+03  0.17188554578E+04  0.16442261665E+04 0.  0.
        4    1    3    3  502    0  0.55306093617E+02  0.75350888496E+03  0.88307626476E+02  0.76068012561E+03  0.12699999809E+01 0.  1.
       -4    1    3    3    0  502 -0.55306093617E+02 -0.75350888496E+03 -0.58929105768E+03  0.95817533222E+03  0.12699999809E+01 0. -1.
</event>
<event>
 5   0  0.9610114E-04  0.1751823E+04  0.7818609E-02  0.8732347E-01
       -2   -1    0    0    0  501  0.00000000000E+00  0.00000000000E+00  0.14279019586E+04  0.14279019586E+04  0.25500000920E-02 0.  1.
        2   -1    0    0  501    0  0.00000000000E+00  0.00000000000E+00 -0.53730664265E+03  0.53730664265E+03  0.25500000920E-02 0. -1.
    10030    2    1    2    0    0  0.00000000000E+00  0.00000000000E+00  0.89059531593E+03  0.19652086012E+04  0.17518232872E+04 0.  0.
        2    1    3    3  502    0 -0.45027122324E+03  0.66177549151E+03  0.84433681360E+03  0.11634412879E+04  0.25500000920E-02 0.  1.
       -2    1    3    3    0  502  0.45027122324E+03 -0.66177549151E+03  0.46258502327E+02  0.80176731331E+03  0.25500000920E-02 0. -1.
</event>
<event>
 5   0  0.9610114E-04  0.1660490E+04  0.7818609E-02  0.8784225E-01
       -2   -1    0    0    0  501  0.00000000000E+00  0.00000000000E+00  0.89668121816E+03  0.89668121816E+03  0.25500000920E-02 0. -1.
        2   -1    0    0  501    0  0.00000000000E+00  0.00000000000E+00 -0.76873082758E+03  0.76873082758E+03  0.25500000920E-02 0.  1.
    10030    2    1    2    0    0  0.00000000000E+00  0.00000000000E+00  0.12795039059E+03  0.16654120457E+04  0.16604896807E+04 0.  0.
        2    1    3    3  502    0 -0.32921699781E+03 -0.60442107261E+03 -0.40172638697E+03  0.79692706985E+03  0.25500000920E-02 0.  1.
       -2    1    3    3    0  502  0.32921699781E+03  0.60442107261E+03  0.52967677756E+03  0.86848497589E+03  0.25500000920E-02 0. -1.
</event>
<event>
 5   0  0.5074133E-04  0.1610930E+04  0.7818609E-02  0.8813861E-01
       -1   -1    0    0    0  501  0.00000000000E+00  0.00000000000E+00  0.43583703954E+03  0.43583703957E+03  0.50400001928E-02 0. -1.
        1   -1    0    0  501    0  0.00000000000E+00  0.00000000000E+00 -0.14885705931E+04  0.14885705931E+04  0.50400001928E-02 0.  1.
    10030    2    1    2    0    0  0.00000000000E+00  0.00000000000E+00 -0.10527335536E+04  0.19244076327E+04  0.16109304150E+04 0.  0.
        1    1    3    3  502    0  0.71128919299E+03 -0.32534016767E+03 -0.75613802178E+03  0.10878985471E+04  0.50400001928E-02 0.  1.
       -1    1    3    3    0  502 -0.71128919299E+03  0.32534016767E+03 -0.29659553178E+03  0.83650908558E+03  0.50400001928E-02 0. -1.
</event>
<event>
 5   0  0.1007187E-03  0.1680898E+04  0.7818609E-02  0.8772334E-01
       -2   -1    0    0    0  501  0.00000000000E+00  0.00000000000E+00  0.72125510173E+03  0.72125510174E+03  0.25500000920E-02 0.  1.
        2   -1    0    0  501    0  0.00000000000E+00  0.00000000000E+00 -0.97934095909E+03  0.97934095910E+03  0.25500000920E-02 0. -1.
    10030    2    1    2    0    0  0.00000000000E+00  0.00000000000E+00 -0.25808585736E+03  0.17005960608E+04  0.16808981684E+04 0.  0.
        5    1    3    3  502    0  0.41233811867E+03 -0.38815494030E+03  0.49923810598E+03  0.75494884478E+03  0.46999998093E+01 0.  1.
       -5    1    3    3    0  502 -0.41233811867E+03  0.38815494030E+03 -0.75732396334E+03  0.94564721605E+03  0.46999998093E+01 0. -1.
</event>
<event>
 5   0  0.5009762E-04  0.1616865E+04  0.7818609E-02  0.8810253E-01
       -1   -1    0    0    0  501  0.00000000000E+00  0.00000000000E+00  0.45334284277E+03  0.45334284280E+03  0.50400001928E-02 0. -1.
        1   -1    0    0  501    0  0.00000000000E+00  0.00000000000E+00 -0.14416537294E+04  0.14416537294E+04  0.50400001928E-02 0.  1.
    10030    2    1    2    0    0  0.00000000000E+00  0.00000000000E+00 -0.98831088662E+03  0.18949965722E+04  0.16168653624E+04 0.  0.
        3    1    3    3  502    0  0.17253045341E+02 -0.13317283770E+03  0.44018004470E+03  0.46020772943E+03  0.10100000352E+00 0. -1.
       -3    1    3    3    0  502 -0.17253045341E+02  0.13317283770E+03 -0.14284909313E+04  0.14347888428E+04  0.10100000352E+00 0.  1.
</event>
<event>
 5   0  0.9284971E-04  0.1680717E+04  0.7818609E-02  0.8772439E-01
       -2   -1    0    0    0  501  0.00000000000E+00  0.00000000000E+00  0.32940364613E+03  0.32940364614E+03  0.25500000920E-02 0.  1.
        2   -1    0    0  501    0  0.00000000000E+00  0.00000000000E+00 -0.21438821159E+04  0.21438821159E+04  0.25500000920E-02 0. -1.
    10030    2    1    2    0    0  0.00000000000E+00  0.00000000000E+00 -0.18144784698E+04  0.24732857621E+04  0.16807172110E+04 0.  0.
        4    1    3    3  502    0  0.78944655089E+03 -0.21671198812E+03 -0.11864919630E+04  0.14415112673E+04  0.12699999809E+01 0.  1.
       -4    1    3    3    0  502 -0.78944655089E+03  0.21671198812E+03 -0.62798650680E+03  0.10317744948E+04  0.12699999809E+01 0. -1.
</event>
<event>
 5   0  0.3523125E-04  0.1748038E+04  0.7818609E-02  0.8734431E-01
        4   -1    0    0  501    0  0.00000000000E+00  0.00000000000E+00  0.41950016548E+03  0.41950208788E+03  0.12699999809E+01 0.  1.
       -4   -1    0    0    0  501  0.00000000000E+00  0.00000000000E+00 -0.18209921874E+04  0.18209926302E+04  0.12699999809E+01 0. -1.
    10030    2    1    2    0    0  0.00000000000E+00  0.00000000000E+00 -0.14014920219E+04  0.22404947181E+04  0.17480379557E+04 0.  0.
        4    1    3    3  502    0  0.81436233299E+03  0.19576192148E+03 -0.10209164706E+04  0.13205229237E+04  0.12699999809E+01 0.  1.
       -4    1    3    3    0  502 -0.81436233299E+03 -0.19576192148E+03 -0.38057555130E+03  0.91997179437E+03  0.12699999809E+01 0. -1.
</event>
<event>
 5   0  0.5074133E-04  0.1703155E+04  0.7818609E-02  0.8759567E-01
       -1   -1    0    0    0  501  0.00000000000E+00  0.00000000000E+00  0.48982138659E+03  0.48982138662E+03  0.50400001928E-02 0.  1.
        1   -1    0    0  501    0  0.00000000000E+00  0.00000000000E+00 -0.14805067219E+04  0.14805067219E+04  0.50400001928E-02 0. -1.
    10030    2    1    2    0    0  0.00000000000E+00  0.00000000000E+00 -0.99068533530E+03  0.19703281085E+04  0.17031545501E+04 0.  0.
        1    1    3    3  502    0  0.17605444550E+02  0.24825049329E+03  0.44681086617E+03  0.51144717151E+03  0.50400001928E-02 0.  1.
       -1    1    3    3    0  502 -0.17605444550E+02 -0.24825049329E+03 -0.14374962015E+04  0.14588809370E+04  0.50400001928E-02 0. -1.
</event>
<event>
 5   0  0.5074133E-04  0.1763867E+04  0.7818609E-02  0.8725754E-01
       -1   -1    0    0    0  501  0.00000000000E+00  0.00000000000E+00  0.83913754363E+03  0.83913754364E+03  0.50400001928E-02 0.  1.
        1   -1    0    0  501    0  0.00000000000E+00  0.00000000000E+00 -0.92691203970E+03  0.92691203971E+03  0.50400001928E-02 0. -1.
    10030    2    1    2    0    0  0.00000000000E+00  0.00000000000E+00 -0.87774496070E+02  0.17660495834E+04  0.17638669929E+04 0.  0.
        1    1    3    3  502    0 -0.43562640683E+03  0.74084897801E+03 -0.24206932909E+03  0.89287464666E+03  0.50400001928E-02 0. -1.
       -1    1    3    3    0  502  0.43562640683E+03 -0.74084897801E+03  0.15429483302E+03  0.87317493669E+03  0.50400001928E-02 0.  1.
</event>
<event>
 5   0  0.5009762E-04  0.1702399E+04  0.7818609E-02  0.8759997E-01
       -1   -1    0    0    0  501  0.00000000000E+00  0.00000000000E+00  0.46101291498E+03  0.46101291501E+03  0.50400001928E-02 0.  1.
        1   -1    0    0  501    0  0.00000000000E+00  0.00000000000E+00 -0.15716282534E+04  0.15716282534E+04  0.50400001928E-02 0. -1.
    10030    2    1    2    0    0  0.00000000000E+00  0.00000000000E+00 -0.11106153385E+04  0.20326411685E+04  0.17023993919E+04 0.  0.
        3    1    3    3  502    0  0.57509986100E+01 -0.37883472462E+03 -0.14653977304E+04  0.15135849303E+04  0.10100000352E+00 0. -1.
       -3    1    3    3    0  502 -0.57509986100E+01  0.37883472462E+03  0.35478239197E+03  0.51905623820E+03  0.10100000352E+00 0.  1.
</event>
<event>
 5   0  0.9284971E-04  0.1728802E+04  0.7818609E-02  0.8745106E-01
        2   -1    0    0  501    0  0.00000000000E+00  0.00000000000E+00  0.61475083556E+03  0.61475083557E+03  0.25500000920E-02 0. -1.
       -2   -1    0    0    0  501  0.00000000000E+00  0.00000000000E+00 -0.12154337379E+04  0.12154337379E+04  0.25500000920E-02 0.  1.
    10030    2    1    2    0    0  0.00000000000E+00  0.00000000000E+00 -0.60068290230E+03  0.18301845734E+04  0.17288017884E+04 0.  0.
        4    1    3    3  502    0  0.36350606275E+03 -0.18917033892E+03 -0.11060693717E+04  0.11795393774E+04  0.12699999809E+01 0.  1.
       -4    1    3    3    0  502 -0.36350606275E+03  0.18917033892E+03  0.50538646943E+03  0.65064519607E+03  0.12699999809E+01 0. -1.
</event>
<event>
 5   0  0.9625225E-04  0.1677632E+04  0.7818609E-02  0.8774225E-01
        2   -1    0    0  501    0  0.00000000000E+00  0.00000000000E+00  0.86931521331E+03  0.86931521331E+03  0.25500000920E-02 0. -1.
       -2   -1    0    0    0  501  0.00000000000E+00  0.00000000000E+00 -0.80938687641E+03  0.80938687642E+03  0.25500000920E-02 0.  1.
    10030    2    1    2    0    0  0.00000000000E+00  0.00000000000E+00  0.59928336891E+02  0.16787020897E+04  0.16776320516E+04 0.  0.
        1    1    3    3  502    0  0.43159312594E+03 -0.14148898943E+03  0.73562355893E+03  0.86454252699E+03  0.50400001928E-02 0. -1.
       -1    1    3    3    0  502 -0.43159312594E+03  0.14148898943E+03 -0.67569522204E+03  0.81415956274E+03  0.50400001928E-02 0.  1.
</event>
<event>
 5   0  0.3523125E-04  0.1633426E+04  0.7818609E-02  0.8800272E-01
       -4   -1    0    0    0  501  0.00000000000E+00  0.00000000000E+00  0.13416259166E+04  0.13416265177E+04  0.12699999809E+01 0.  1.
        4   -1    0    0  501    0  0.00000000000E+00  0.00000000000E+00 -0.49717161470E+03  0.49717323677E+03  0.12699999809E+01 0. -1.
    10030    2    1    2    0    0  0.00000000000E+00  0.00000000000E+00  0.84445430185E+03  0.18387997544E+04  0.16334262974E+04 0.  0.
        4    1    3    3  502    0 -0.17841277018E+03 -0.10613321918E+03 -0.46697503779E+03  0.51104077684E+03  0.12699999809E+01 0. -1.
       -4    1    3    3    0  502  0.17841277018E+03  0.10613321918E+03  0.13114293396E+04  0.13277589776E+04  0.12699999809E+01 0.  1.
</event>
<event>
 5   0  0.4947006E-04  0.1637353E+04  0.7818609E-02  0.8797923E-01
        1   -1    0    0  501    0  0.00000000000E+00  0.00000000000E+00  0.11295718492E+04  0.11295718492E+04  0.50400001928E-02 0.  1.
       -1   -1    0    0    0  501  0.00000000000E+00  0.00000000000E+00 -0.59334995223E+03  0.59334995225E+03  0.50400001928E-02 0. -1.
    10030    2    1    2    0    0  0.00000000000E+00  0.00000000000E+00  0.53622189699E+03  0.17229218015E+04  0.16373532335E+04 0.  0.
        2    1    3    3  502    0  0.65573628286E+03  0.45691688957E+02 -0.24540242662E+03  0.70164104362E+03  0.25500000920E-02 0. -1.
       -2    1    3    3    0  502 -0.65573628286E+03 -0.45691688957E+02  0.78162432361E+03  0.10212807579E+04  0.25500000920E-02 0.  1.
</event>
<event>
 5   0  0.3523125E-04  0.1588249E+04  0.7818609E-02  0.8827800E-01
       -3   -1    0    0    0  501  0.00000000000E+00  0.00000000000E+00  0.10716905219E+04  0.10716905267E+04  0.10100000352E+00 0.  1.
        3   -1    0    0  501    0  0.00000000000E+00  0.00000000000E+00 -0.58844722836E+03  0.58844723702E+03  0.10100000352E+00 0. -1.
    10030    2    1    2    0    0  0.00000000000E+00  0.00000000000E+00  0.48324329358E+03  0.16601377637E+04  0.15882485050E+04 0.  0.
        2    1    3    3  502    0  0.43800945945E+03 -0.10193444800E+01 -0.45076564284E+03  0.62852445489E+03  0.25500000920E-02 0. -1.
       -2    1    3    3    0  502 -0.43800945945E+03  0.10193444800E+01  0.93400893642E+03  0.10316133088E+04  0.25500000920E-02 0.  1.
</event>
<event>
 5   0  0.9284971E-04  0.1634727E+04  0.7818609E-02  0.8799493E-01
       -2   -1    0    0    0  501  0.00000000000E+00  0.00000000000E+00  0.33095838774E+03  0.33095838775E+03  0.25500000920E-02 0. -1.
        2   -1    0    0  501    0  0.00000000000E+00  0.00000000000E+00 -0.20186319962E+04  0.20186319962E+04  0.25500000920E-02 0.  1.
    10030    2    1    2    0    0  0.00000000000E+00  0.00000000000E+00 -0.16876736084E+04  0.23495903839E+04  0.16347271221E+04 0.  0.
        4    1    3    3  502    0  0.12743405756E+03 -0.29290497454E+03  0.23753198499E+03  0.39806509509E+03  0.12699999809E+01 0. -1.
       -4    1    3    3    0  502 -0.12743405756E+03  0.29290497454E+03 -0.19252055934E+04  0.19515252888E+04  0.12699999809E+01 0.  1.
</event>
<event>
 5   0  0.5009762E-04  0.1717458E+04  0.7818609E-02  0.8751469E-01
       -1   -1    0    0    0  501  0.00000000000E+00  0.00000000000E+00  0.64369300328E+03  0.64369300330E+03  0.50400001928E-02 0. -1.
        1   -1    0    0  501    0  0.00000000000E+00  0.00000000000E+00 -0.11456015915E+04  0.11456015915E+04  0.50400001928E-02 0.  1.
    10030    2    1    2    0    0  0.00000000000E+00  0.00000000000E+00 -0.50190858823E+03  0.17892945948E+04  0.17174582720E+04 0.  0.
        3    1    3    3  502    0  0.70798339128E+02  0.85127963560E+03 -0.15937836629E+03  0.86895966343E+03  0.10100000352E+00 0. -1.
       -3    1    3    3    0  502 -0.70798339128E+02 -0.85127963560E+03 -0.34253022193E+03  0.92033493140E+03  0.10100000352E+00 0.  1.
</event>
<event>
 5   0  0.9284971E-04  0.1710194E+04  0.7818609E-02  0.8755572E-01
        2   -1    0    0  501    0  0.00000000000E+00  0.00000000000E+00  0.16833042482E+04  0.16833042482E+04  0.25500000920E-02 0.  1.
       -2   -1    0    0    0  501  0.00000000000E+00  0.00000000000E+00 -0.43437831055E+03  0.43437831056E+03  0.25500000920E-02 0. -1.
    10030    2    1    2    0    0  0.00000000000E+00  0.00000000000E+00  0.12489259376E+04  0.21176825587E+04  0.17101939720E+04 0.  0.
        4    1    3    3  502    0  0.58332088111E+03 -0.58074606509E+02  0.13953331137E+04  0.15134701918E+04  0.12699999809E+01 0.  1.
       -4    1    3    3    0  502 -0.58332088111E+03  0.58074606509E+02 -0.14640717610E+03  0.60421236695E+03  0.12699999809E+01 0. -1.
</event>
<event>
 5   0  0.5009762E-04  0.1684450E+04  0.7818609E-02  0.8770283E-01
        1   -1    0    0  501    0  0.00000000000E+00  0.00000000000E+00  0.11104521062E+04  0.11104521063E+04  0.50400001928E-02 0. -1.
       -1   -1    0    0    0  501  0.00000000000E+00  0.00000000000E+00 -0.63878719432E+03  0.63878719434E+03  0.50400001928E-02 0.  1.
    10030    2    1    2    0    0  0.00000000000E+00  0.00000000000E+00  0.47166491193E+03  0.17492393006E+04  0.16844495664E+04 0.  0.
        3    1    3    3  502    0 -0.53415049376E+03 -0.22681394268E+03  0.86970467422E+03  0.10455369650E+04  0.10100000352E+00 0. -1.
       -3    1    3    3    0  502  0.53415049376E+03  0.22681394268E+03 -0.39803976229E+03  0.70370233561E+03  0.10100000352E+00 0.  1.
</event>
<event>
 5   0  0.5009762E-04  0.1687340E+04  0.7818609E-02  0.8768618E-01
       -1   -1    0    0    0  501  0.00000000000E+00  0.00000000000E+00  0.65923760703E+03  0.65923760705E+03  0.50400001928E-02 0. -1.
        1   -1    0    0  501    0  0.00000000000E+00  0.00000000000E+00 -0.10796997505E+04  0.10796997505E+04  0.50400001928E-02 0.  1.
    10030    2    1    2    0    0  0.00000000000E+00  0.00000000000E+00 -0.42046214346E+03  0.17389373575E+04  0.16873395389E+04 0.  0.
        3    1    3    3  502    0 -0.57232889207E+03 -0.11725693171E+03  0.41704318083E+03  0.71779842129E+03  0.10100000352E+00 0. -1.
       -3    1    3    3    0  502  0.57232889207E+03  0.11725693171E+03 -0.83750532429E+03  0.10211389363E+04  0.10100000352E+00 0.  1.
</event>
<event>
 5   0  0.9284971E-04  0.1711638E+04  0.7818609E-02  0.8754754E-01
        2   -1    0    0  501    0  0.00000000000E+00  0.00000000000E+00  0.16874912351E+04  0.16874912351E+04  0.25500000920E-02 0. -1.
       -2   -1    0    0    0  501  0.00000000000E+00  0.00000000000E+00 -0.43403267906E+03  0.43403267907E+03  0.25500000920E-02 0.  1.
    10030    2    1    2    0    0  0.00000000000E+00  0.00000000000E+00  0.12534585561E+04  0.21215239142E+04  0.17116382114E+04 0.  0.
        4    1    3    3  502    0 -0.43953525528E+02 -0.56616444678E+03 -0.16687087026E+03  0.59187971197E+03  0.12699999809E+01 0.  1.
       -4    1    3    3    0  502  0.43953525528E+02  0.56616444678E+03  0.14203294263E+04  0.15296442022E+04  0.12699999809E+01 0. -1.
</event>
<event>
 5   0  0.9625225E-04  0.1106189E+04  0.7818609E-02  0.9199180E-01
        2   -1    0    0  501    0  0.00000000000E+00  0.00000000000E+00  0.86037404650E+03  0.86037404651E+03  0.25500000920E-02 0.  1.
       -2   -1    0    0    0  501  0.00000000000E+00  0.00000000000E+00 -0.35555885579E+03  0.35555885580E+03  0.25500000920E-02 0. -1.
    10030    2    1    2    0    0  0.00000000000E+00  0.00000000000E+00  0.50481519071E+03  0.12159329023E+04  0.11061891548E+04 0.  0.
        1    1    3    3  502    0 -0.68096190083E+02 -0.90201503841E+02 -0.34273071920E+03  0.36088467453E+03  0.50400001928E-02 0. -1.
       -1    1    3    3    0  502  0.68096190083E+02  0.90201503841E+02  0.84754590991E+03  0.85504822778E+03  0.50400001928E-02 0.  1.
</event>
<event>
 5   0  0.9610114E-04  0.1733249E+04  0.7818609E-02  0.8742625E-01
        2   -1    0    0  501    0  0.00000000000E+00  0.00000000000E+00  0.24196162122E+04  0.24196162122E+04  0.25500000920E-02 0.  1.
       -2   -1    0    0    0  501  0.00000000000E+00  0.00000000000E+00 -0.31039564360E+03  0.31039564361E+03  0.25500000920E-02 0. -1.
    10030    2    1    2    0    0  0.00000000000E+00  0.00000000000E+00  0.21092205686E+04  0.27300118558E+04  0.17332493548E+04 0.  0.
        2    1    3    3  502    0  0.54162504654E+03  0.48745271370E+02  0.21174174547E+04  0.21861359679E+04  0.25500000920E-02 0.  1.
       -2    1    3    3    0  502 -0.54162504654E+03 -0.48745271370E+02 -0.81968861177E+01  0.54387588793E+03  0.25500000920E-02 0. -1.
</event>
<event>
 5   0  0.9284971E-04  0.1813332E+04  0.7818609E-02  0.8699242E-01
        2   -1    0    0  501    0  0.00000000000E+00  0.00000000000E+00  0.83843764720E+03  0.83843764720E+03  0.25500000920E-02 0. -1.
       -2   -1    0    0    0  501  0.00000000000E+00  0.00000000000E+00 -0.98044616538E+03  0.98044616538E+03  0.25500000920E-02 0.  1.
    10030    2    1    2    0    0  0.00000000000E+00  0.00000000000E+00 -0.14200851818E+03  0.18188838126E+04  0.18133317138E+04 0.  0.
        4    1    3    3  502    0  0.49433782706E+03 -0.11049759224E+03 -0.82527857623E+03  0.96833152713E+03  0.12699999809E+01 0.  1.
       -4    1    3    3    0  502 -0.49433782706E+03  0.11049759224E+03  0.68327005805E+03  0.85055228545E+03  0.12699999809E+01 0. -1.
</event>
<event>
 5   0  0.5074133E-04  0.1737104E+04  0.7818609E-02  0.8740481E-01
       -1   -1    0    0    0  501  0.00000000000E+00  0.00000000000E+00  0.38847739681E+03  0.38847739684E+03  0.50400001928E-02 0. -1.
        1   -1    0    0  501    0  0.00000000000E+00  0.00000000000E+00 -0.19418963981E+04  0.19418963981E+04  0.50400001928E-02 0.  1.
    10030    2    1    2    0    0  0.00000000000E+00  0.00000000000E+00 -0.15534190013E+04  0.23303737949E+04  0.17371043235E+04 0.  0.
        1    1    3    3  502    0  0.10893173286E+03 -0.74321595550E+03 -0.19172525119E+03  0.77523844777E+03  0.50400001928E-02 0.  1.
       -1    1    3    3    0  502 -0.10893173286E+03  0.74321595550E+03 -0.13616937501E+04  0.15551353472E+04  0.50400001928E-02 0. -1.
</event>
<event>
 5   0  0.5009762E-04  0.1689257E+04  0.7818609E-02  0.8767515E-01
       -1   -1    0    0    0  501  0.00000000000E+00  0.00000000000E+00  0.58406822683E+03  0.58406822685E+03  0.50400001928E-02 0. -1.
        1   -1    0    0  501    0  0.00000000000E+00  0.00000000000E+00 -0.12214283079E+04  0.12214283079E+04  0.50400001928E-02 0.  1.
    10030    2    1    2    0    0  0.00000000000E+00  0.00000000000E+00 -0.63736008108E+03  0.18054965348E+04  0.16892571930E+04 0.  0.
        3    1    3    3  502    0  0.50268705184E+03 -0.95714226334E+02 -0.10368875544E+04  0.11562833977E+04  0.10100000352E+00 0.  1.
       -3    1    3    3    0  502 -0.50268705184E+03  0.95714226334E+02  0.39952747329E+03  0.64921313705E+03  0.10100000352E+00 0. -1.
</event>
<event>
 5   0  0.9610114E-04  0.1670913E+04  0.7818609E-02  0.8778130E-01
       -2   -1    0    0    0  501  0.00000000000E+00  0.00000000000E+00  0.50867757596E+03  0.50867757596E+03  0.25500000920E-02 0.  1.
        2   -1    0    0  501    0  0.00000000000E+00  0.00000000000E+00 -0.13721607507E+04  0.13721607507E+04  0.25500000920E-02 0. -1.
    10030    2    1    2    0    0  0.00000000000E+00  0.00000000000E+00 -0.86348317478E+03  0.18808383267E+04  0.16709128098E+04 0.  0.
        2    1    3    3  502    0  0.68716277178E+03 -0.26792660071E+02  0.10228529995E+03  0.69525017378E+03  0.25500000920E-02 0.  1.
       -2    1    3    3    0  502 -0.68716277178E+03  0.26792660071E+02 -0.96576847473E+03  0.11855881529E+04  0.25500000920E-02 0. -1.
</event>
<event>
 5   0  0.4947006E-04  0.1704326E+04  0.7818609E-02  0.8758901E-01
       -1   -1    0    0    0  501  0.00000000000E+00  0.00000000000E+00  0.84120168949E+03  0.84120168950E+03  0.50400001928E-02 0. -1.
        1   -1    0    0  501    0  0.00000000000E+00  0.00000000000E+00 -0.86326737145E+03  0.86326737147E+03  0.50400001928E-02 0.  1.
    10030    2    1    2    0    0  0.00000000000E+00  0.00000000000E+00 -0.22065681965E+02  0.17044690610E+04  0.17043262262E+04 0.  0.
        2    1    3    3  502    0  0.29353306722E+03  0.22072022695E+03  0.75799382058E+03  0.84227888029E+03  0.25500000920E-02 0. -1.
       -2    1    3    3    0  502 -0.29353306722E+03 -0.22072022695E+03 -0.78005950255E+03  0.86219018068E+03  0.25500000920E-02 0.  1.
</event>
<event>
 5   0  0.5035495E-04  0.1647567E+04  0.7818609E-02  0.8791847E-01
       -1   -1    0    0    0  501  0.00000000000E+00  0.00000000000E+00  0.83662060217E+03  0.83662060218E+03  0.50400001928E-02 0.  1.
        1   -1    0    0  501    0  0.00000000000E+00  0.00000000000E+00 -0.81114307252E+03  0.81114307254E+03  0.50400001928E-02 0. -1.
    10030    2    1    2    0    0  0.00000000000E+00  0.00000000000E+00  0.25477529648E+02  0.16477636747E+04  0.16475666977E+04 0.  0.
        4    1    3    3  502    0 -0.28860596541E+03 -0.62271308225E+03 -0.44289490186E+03  0.81683688278E+03  0.12699999809E+01 0. -1.
       -4    1    3    3    0  502  0.28860596541E+03  0.62271308225E+03  0.46837243151E+03  0.83092679194E+03  0.12699999809E+01 0.  1.
</event>
<event>
 5   0  0.5035495E-04  0.1732577E+04  0.7818609E-02  0.8742999E-01
       -1   -1    0    0    0  501  0.00000000000E+00  0.00000000000E+00  0.50918710699E+03  0.50918710701E+03  0.50400001928E-02 0.  1.
        1   -1    0    0  501    0  0.00000000000E+00  0.00000000000E+00 -0.14738312965E+04  0.14738312965E+04  0.50400001928E-02 0. -1.
    10030    2    1    2    0    0  0.00000000000E+00  0.00000000000E+00 -0.96464418952E+03  0.19830184035E+04  0.17325771487E+04 0.  0.
        4    1    3    3  502    0 -0.10676630463E+03  0.38689648988E+03 -0.13609941777E+04  0.14189414020E+04  0.12699999809E+01 0. -1.
       -4    1    3    3    0  502  0.10676630463E+03 -0.38689648988E+03  0.39634998814E+03  0.56407700156E+03  0.12699999809E+01 0.  1.
</event>
<event>
 5   0  0.9610114E-04  0.1524825E+04  0.7818609E-02  0.8868111E-01
       -2   -1    0    0    0  501  0.00000000000E+00  0.00000000000E+00  0.40534922208E+03  0.40534922209E+03  0.25500000920E-02 0. -1.
        2   -1    0    0  501    0  0.00000000000E+00  0.00000000000E+00 -0.14340044110E+04  0.14340044110E+04  0.25500000920E-02 0.  1.
    10030    2    1    2    0    0  0.00000000000E+00  0.00000000000E+00 -0.10286551889E+04  0.18393536330E+04  0.15248246751E+04 0.  0.
        2    1    3    3  502    0 -0.82729164371E+01  0.68405806390E+03 -0.10835167450E+03  0.69263551837E+03  0.25500000920E-02 0. -1.
       -2    1    3    3    0  502  0.82729164371E+01 -0.68405806390E+03 -0.92030351438E+03  0.11467181147E+04  0.25500000920E-02 0.  1.
</event>
<event>
 5   0  0.5074133E-04  0.1610120E+04  0.7818609E-02  0.8814355E-01
       -1   -1    0    0    0  501  0.00000000000E+00  0.00000000000E+00  0.27055658847E+03  0.27055658852E+03  0.50400001928E-02 0.  1.
        1   -1    0    0  501    0  0.00000000000E+00  0.00000000000E+00 -0.23955135712E+04  0.23955135712E+04  0.50400001928E-02 0. -1.
    10030    2    1    2    0    0  0.00000000000E+00  0.00000000000E+00 -0.21249569827E+04  0.26660701597E+04  0.16101204670E+04 0.  0.
        1    1    3    3  502    0  0.32622387632E+03  0.67372937329E+03 -0.57187289650E+03  0.94200419091E+03  0.50400001928E-02 0.  1.
       -1    1    3    3    0  502 -0.32622387632E+03 -0.67372937329E+03 -0.15530840862E+04  0.17240659688E+04  0.50400001928E-02 0. -1.
</event>
<event>
 5   0  0.9610114E-04  0.9845973E+03  0.7818609E-02  0.9325601E-01
       -2   -1    0    0    0  501  0.00000000000E+00  0.00000000000E+00  0.33545237127E+03  0.33545237128E+03  0.25500000920E-02 0.  1.
        2   -1    0    0  501    0  0.00000000000E+00  0.00000000000E+00 -0.72248098494E+03  0.72248098495E+03  0.25500000920E-02 0. -1.
    10030    2    1    2    0    0  0.00000000000E+00  0.00000000000E+00 -0.38702861368E+03  0.10579333562E+04  0.98459729758E+03 0.  0.
        2    1    3    3  502    0  0.10698906022E+03 -0.46795668365E+03 -0.31086363965E+03  0.57189712295E+03  0.25500000920E-02 0. -1.
       -2    1    3    3    0  502 -0.10698906022E+03  0.46795668365E+03 -0.76164974029E+02  0.48603623327E+03  0.25500000920E-02 0.  1.
</event>
<event>
 5   0  0.9610114E-04  0.1622397E+04  0.7818609E-02  0.8806906E-01
        2   -1    0    0  501    0  0.00000000000E+00  0.00000000000E+00  0.14100219961E+04  0.14100219961E+04  0.25500000920E-02 0.  1.
       -2   -1    0    0    0  501  0.00000000000E+00  0.00000000000E+00 -0.46668977972E+03  0.46668977972E+03  0.25500000920E-02 0. -1.
    10030    2    1    2    0    0  0.00000000000E+00  0.00000000000E+00  0.94333221635E+03  0.18767117758E+04  0.16223968131E+04 0.  0.
        2    1    3    3  502    0 -0.50099048668E+03 -0.62140392663E+03  0.30440213032E+03  0.85428037828E+03  0.25500000920E-02 0. -1.
       -2    1    3    3    0  502  0.50099048668E+03  0.62140392663E+03  0.63893008604E+03  0.10224313975E+04  0.25500000920E-02 0.  1.
</event>
<event>
 5   0  0.9610114E-04  0.1694072E+04  0.7818609E-02  0.8764753E-01
       -2   -1    0    0    0  501  0.00000000000E+00  0.00000000000E+00  0.10862264038E+04  0.10862264038E+04  0.25500000920E-02 0.  1.
        2   -1    0    0  501    0  0.00000000000E+00  0.00000000000E+00 -0.66051586560E+03  0.66051586561E+03  0.25500000920E-02 0. -1.
    10030    2    1    2    0    0  0.00000000000E+00  0.00000000000E+00  0.42571053824E+03  0.17467422695E+04  0.16940717498E+04 0.  0.
        2    1    3    3  502    0 -0.22165109089E+03  0.74631702735E+03 -0.13121329204E+03  0.78951582595E+03  0.25500000920E-02 0. -1.
       -2    1    3    3    0  502  0.22165109089E+03 -0.74631702735E+03  0.55692383028E+03  0.95722644351E+03  0.25500000920E-02 0.  1.
</event>
<event>
 5   0  0.9625225E-04  0.1704664E+04  0.7818609E-02  0.8758709E-01
        2   -1    0    0  501    0  0.00000000000E+00  0.00000000000E+00  0.10134319954E+04  0.10134319954E+04  0.25500000920E-02 0.  1.
       -2   -1    0    0    0  501  0.00000000000E+00  0.00000000000E+00 -0.71684116635E+03  0.71684116635E+03  0.25500000920E-02 0. -1.
    10030    2    1    2    0    0  0.00000000000E+00  0.00000000000E+00  0.29659082901E+03  0.17302731617E+04  0.17046639242E+04 0.  0.
        1    1    3    3  502    0  0.12261128396E+02 -0.82385346887E+03 -0.73121340806E+02  0.82718293257E+03  0.50400001928E-02 0. -1.
       -1    1    3    3    0  502 -0.12261128396E+02  0.82385346887E+03  0.36971216982E+03  0.90309022914E+03  0.50400001928E-02 0.  1.
</event>
<event>
 5   0  0.4947006E-04  0.1444638E+04  0.7818609E-02  0.8922126E-01
       -1   -1    0    0    0  501  0.00000000000E+00  0.00000000000E+00  0.73007644561E+03  0.73007644563E+03  0.50400001928E-02 0.  1.
        1   -1    0    0  501    0  0.00000000000E+00  0.00000000000E+00 -0.71464377309E+03  0.71464377310E+03  0.50400001928E-02 0. -1.
    10030    2    1    2    0    0  0.00000000000E+00  0.00000000000E+00  0.15432672526E+02  0.14447202187E+04  0.14446377896E+04 0.  0.
        2    1    3    3  502    0 -0.21327050541E+03 -0.62933597376E+02 -0.67956347484E+03  0.71501850500E+03  0.25500000920E-02 0. -1.
       -2    1    3    3    0  502  0.21327050541E+03  0.62933597376E+02  0.69499614737E+03  0.72970171373E+03  0.25500000920E-02 0.  1.
</event>
<event>
 5   0  0.9284971E-04  0.1705012E+04  0.7818609E-02  0.8758511E-01
        2   -1    0    0  501    0  0.00000000000E+00  0.00000000000E+00  0.10949021560E+04  0.10949021560E+04  0.25500000920E-02 0. -1.
       -2   -1    0    0    0  501  0.00000000000E+00  0.00000000000E+00 -0.66377283589E+03  0.66377283590E+03  0.25500000920E-02 0.  1.
    10030    2    1    2    0    0  0.00000000000E+00  0.00000000000E+00  0.43112932013E+03  0.17586749919E+04  0.17050117995E+04 0.  0.
        4    1    3    3  502    0  0.71696935499E+03  0.45211983022E+03  0.12155161285E+03  0.85629072421E+03  0.12699999809E+01 0.  1.
       -4    1    3    3    0  502 -0.71696935499E+03 -0.45211983022E+03  0.30957770728E+03  0.90238426772E+03  0.12699999809E+01 0. -1.
</event>
<event>
 5   0  0.1007187E-03  0.1739599E+04  0.7818609E-02  0.8739096E-01
        2   -1    0    0  501    0  0.00000000000E+00  0.00000000000E+00  0.99477138998E+03  0.99477138998E+03  0.25500000920E-02 0. -1.
       -2   -1    0    0    0  501  0.00000000000E+00  0.00000000000E+00 -0.76052803445E+03  0.76052803446E+03  0.25500000920E-02 0.  1.
    10030    2    1    2    0    0  0.00000000000E+00  0.00000000000E+00  0.23424335552E+03  0.17552994244E+04  0.17395994136E+04 0.  0.
        5    1    3    3  502    0 -0.39998192136E+03  0.33686972658E+03 -0.58417810681E+03  0.78406179640E+03  0.46999998093E+01 0.  1.
       -5    1    3    3    0  502  0.39998192136E+03 -0.33686972658E+03  0.81842146234E+03  0.97123762803E+03  0.46999998093E+01 0. -1.
</event>
<event>
 5   0  0.5009762E-04  0.1741457E+04  0.7818609E-02  0.8738067E-01
       -1   -1    0    0    0  501  0.00000000000E+00  0.00000000000E+00  0.52105655939E+03  0.52105655941E+03  0.50400001928E-02 0. -1.
        1   -1    0    0  501    0  0.00000000000E+00  0.00000000000E+00 -0.14550590247E+04  0.14550590247E+04  0.50400001928E-02 0.  1.
    10030    2    1    2    0    0  0.00000000000E+00  0.00000000000E+00 -0.93400246533E+03  0.19761155841E+04  0.17414569178E+04 0.  0.
        3    1    3    3  502    0 -0.44392107068E+03 -0.41414388010E+03  0.24127361451E+03  0.65329475558E+03  0.10100000352E+00 0. -1.
       -3    1    3    3    0  502  0.44392107068E+03  0.41414388010E+03 -0.11752760798E+04  0.13228208286E+04  0.10100000352E+00 0.  1.
</event>
<event>
 5   0  0.1007187E-03  0.1688362E+04  0.7818609E-02  0.8768030E-01
        2   -1    0    0  501    0  0.00000000000E+00  0.00000000000E+00  0.39259196039E+03  0.39259196040E+03  0.25500000920E-02 0. -1.
       -2   -1    0    0    0  501  0.00000000000E+00  0.00000000000E+00 -0.18152223553E+04  0.18152223553E+04  0.25500000920E-02 0.  1.
    10030    2    1    2    0    0  0.00000000000E+00  0.00000000000E+00 -0.14226303949E+04  0.22078143157E+04  0.16883621685E+04 0.  0.
        5    1    3    3  502    0  0.16309513912E+03  0.42781487381E+03  0.21610883302E+03  0.50631088114E+03  0.46999998093E+01 0. -1.
       -5    1    3    3    0  502 -0.16309513912E+03 -0.42781487381E+03 -0.16387392280E+04  0.17015034346E+04  0.46999998093E+01 0.  1.
</event>
<event>
 5   0  0.5059689E-04  0.1138652E+04  0.7818609E-02  0.9168317E-01
        1   -1    0    0  501    0  0.00000000000E+00  0.00000000000E+00  0.15301064362E+04  0.15301064362E+04  0.50400001928E-02 0.  1.
       -1   -1    0    0    0  501  0.00000000000E+00  0.00000000000E+00 -0.21183612288E+03  0.21183612294E+03  0.50400001928E-02 0. -1.
    10030    2    1    2    0    0  0.00000000000E+00  0.00000000000E+00  0.13182703133E+04  0.17419425591E+04  0.11386515096E+04 0.  0.
        5    1    3    3  502    0  0.41961323022E+03 -0.31612441375E+03  0.99465230076E+03  0.11248845262E+04  0.46999998093E+01 0.  1.
       -5    1    3    3    0  502 -0.41961323022E+03  0.31612441375E+03  0.32361801255E+03  0.61705803291E+03  0.46999998093E+01 0. -1.
</event>
<event>
 5   0  0.1007187E-03  0.1794936E+04  0.7818609E-02  0.8708997E-01
       -2   -1    0    0    0  501  0.00000000000E+00  0.00000000000E+00  0.99478030245E+03  0.99478030246E+03  0.25500000920E-02 0. -1.
        2   -1    0    0  501    0  0.00000000000E+00  0.00000000000E+00 -0.80967545135E+03  0.80967545135E+03  0.25500000920E-02 0.  1.
    10030    2    1    2    0    0  0.00000000000E+00  0.00000000000E+00  0.18510485111E+03  0.18044557538E+04  0.17949364227E+04 0.  0.
        5    1    3    3  502    0  0.46378987210E+03 -0.25278369269E+03  0.82195286742E+03  0.97705130214E+03  0.46999998093E+01 0. -1.
       -5    1    3    3    0  502 -0.46378987210E+03  0.25278369269E+03 -0.63684801631E+03  0.82740445167E+03  0.46999998093E+01 0.  1.
</event>
<event>
 5   0  0.9610114E-04  0.1700445E+04  0.7818609E-02  0.8761111E-01
       -2   -1    0    0    0  501  0.00000000000E+00  0.00000000000E+00  0.97046941366E+03  0.97046941366E+03  0.25500000920E-02 0.  1.
        2   -1    0    0  501    0  0.00000000000E+00  0.00000000000E+00 -0.74487465471E+03  0.74487465471E+03  0.25500000920E-02 0. -1.
    10030    2    1    2    0    0  0.00000000000E+00  0.00000000000E+00  0.22559475895E+03  0.17153440684E+04  0.17004447294E+04 0.  0.
        2    1    3    3  502    0  0.75726408865E+03  0.35510956367E+03 -0.41270561639E+02  0.83740967360E+03  0.25500000920E-02 0. -1.
       -2    1    3    3    0  502 -0.75726408865E+03 -0.35510956367E+03  0.26686532059E+03  0.87793439477E+03  0.25500000920E-02 0.  1.
</event>
<event>
 5   0  0.5074133E-04  0.1699757E+04  0.7818609E-02  0.8761503E-01
       -1   -1    0    0    0  501  0.00000000000E+00  0.00000000000E+00  0.48378819822E+03  0.48378819824E+03  0.50400001928E-02 0.  1.
        1   -1    0    0  501    0  0.00000000000E+00  0.00000000000E+00 -0.14929954560E+04  0.14929954560E+04  0.50400001928E-02 0. -1.
    10030    2    1    2    0    0  0.00000000000E+00  0.00000000000E+00 -0.10092072578E+04  0.19767836542E+04  0.16997571375E+04 0.  0.
        1    1    3    3  502    0 -0.64766561542E+03 -0.45590676278E+03 -0.86300505584E+03  0.11713664893E+04  0.50400001928E-02 0. -1.
       -1    1    3    3    0  502  0.64766561542E+03  0.45590676278E+03 -0.14620220191E+03  0.80541716496E+03  0.50400001928E-02 0.  1.
</event>
<event>
 5   0  0.5009762E-04  0.1725026E+04  0.7818609E-02  0.8747218E-01
        1   -1    0    0  501    0  0.00000000000E+00  0.00000000000E+00  0.88038283384E+03  0.88038283385E+03  0.50400001928E-02 0.  1.
       -1   -1    0    0    0  501  0.00000000000E+00  0.00000000000E+00 -0.84500583023E+03  0.84500583024E+03  0.50400001928E-02 0. -1.
    10030    2    1    2    0    0  0.00000000000E+00  0.00000000000E+00  0.35377003612E+02  0.17253886641E+04  0.17250259447E+04 0.  0.
        3    1    3    3  502    0 -0.26049759760E+03 -0.74645364315E+03  0.36254582722E+03  0.86976521358E+03  0.10100000352E+00 0.  1.
       -3    1    3    3    0  502  0.26049759760E+03  0.74645364315E+03 -0.32716882361E+03  0.85562345051E+03  0.10100000352E+00 0. -1.
</event>
<event>
 5   0  0.9284971E-04  0.1661938E+04  0.7818609E-02  0.8783375E-01
       -2   -1    0    0    0  501  0.00000000000E+00  0.00000000000E+00  0.94308018680E+03  0.94308018680E+03  0.25500000920E-02 0.  1.
        2   -1    0    0  501    0  0.00000000000E+00  0.00000000000E+00 -0.73218515930E+03  0.73218515930E+03  0.25500000920E-02 0. -1.
    10030    2    1    2    0    0  0.00000000000E+00  0.00000000000E+00  0.21089502750E+03  0.16752653461E+04  0.16619378049E+04 0.  0.
        4    1    3    3  502    0 -0.59520005190E+03 -0.57265498468E+03  0.13552467781E+02  0.82606423209E+03  0.12699999809E+01 0.  1.
       -4    1    3    3    0  502  0.59520005190E+03  0.57265498468E+03  0.19734255971E+03  0.84920111401E+03  0.12699999809E+01 0. -1.
</event>
<event>
 5   0  0.9284971E-04  0.1707801E+04  0.7818609E-02  0.8756927E-01
       -2   -1    0    0    0  501  0.00000000000E+00  0.00000000000E+00  0.50988858893E+03  0.50988858894E+03  0.25500000920E-02 0.  1.
        2   -1    0    0  501    0  0.00000000000E+00  0.00000000000E+00 -0.14300111049E+04  0.14300111049E+04  0.25500000920E-02 0. -1.
    10030    2    1    2    0    0  0.00000000000E+00  0.00000000000E+00 -0.92012251597E+03  0.19398996938E+04  0.17078013285E+04 0.  0.
        4    1    3    3  502    0 -0.49640688512E+03 -0.10194659133E+03  0.32060522414E+03  0.59966842982E+03  0.12699999809E+01 0.  1.
       -4    1    3    3    0  502  0.49640688512E+03  0.10194659133E+03 -0.12407277401E+04  0.13402312640E+04  0.12699999809E+01 0. -1.
</event>
<event>
 5   0  0.9625225E-04  0.1722084E+04  0.7818609E-02  0.8748868E-01
       -2   -1    0    0    0  501  0.00000000000E+00  0.00000000000E+00  0.12581515118E+04  0.12581515118E+04  0.25500000920E-02 0. -1.
        2   -1    0    0  501    0  0.00000000000E+00  0.00000000000E+00 -0.58927171891E+03  0.58927171891E+03  0.25500000920E-02 0.  1.
    10030    2    1    2    0    0  0.00000000000E+00  0.00000000000E+00  0.66887979290E+03  0.18474232307E+04  0.17220837425E+04 0.  0.
        1    1    3    3  502    0  0.40073470132E+03 -0.18282238008E+03 -0.45926106415E+03  0.63634349888E+03  0.50400001928E-02 0.  1.
       -1    1    3    3    0  502 -0.40073470132E+03  0.18282238008E+03  0.11281408570E+04  0.12110797318E+04  0.50400001928E-02 0. -1.
</event>
<event>
 5   0  0.1007187E-03  0.1736909E+04  0.7818609E-02  0.8740589E-01
        2   -1    0    0  501    0  0.00000000000E+00  0.00000000000E+00  0.12600438746E+04  0.12600438746E+04  0.25500000920E-02 0. -1.
       -2   -1    0    0    0  501  0.00000000000E+00  0.00000000000E+00 -0.59856087525E+03  0.59856087526E+03  0.25500000920E-02 0.  1.
    10030    2    1    2    0    0  0.00000000000E+00  0.00000000000E+00  0.66148299935E+03  0.18586047499E+04  0.17369087074E+04 0.  0.
        5    1    3    3  502    0  0.68034199502E+03 -0.37977105545E+03 -0.79666465581E+02  0.78323695040E+03  0.46999998093E+01 0.  1.
       -5    1    3    3    0  502 -0.68034199502E+03  0.37977105545E+03  0.74114946493E+03  0.10753677995E+04  0.46999998093E+01 0. -1.
</event>
<event>
 5   0  0.5009762E-04  0.1706454E+04  0.7818609E-02  0.8757692E-01
       -1   -1    0    0    0  501  0.00000000000E+00  0.00000000000E+00  0.45682724233E+03  0.45682724235E+03  0.50400001928E-02 0. -1.
        1   -1    0    0  501    0  0.00000000000E+00  0.00000000000E+00 -0.15935915520E+04  0.15935915520E+04  0.50400001928E-02 0.  1.
    10030    2    1    2    0    0  0.00000000000E+00  0.00000000000E+00 -0.11367643097E+04  0.20504187944E+04  0.17064536726E+04 0.  0.
        3    1    3    3  502    0  0.59611513933E+03 -0.33542342325E+02  0.16400009855E+03  0.61917234320E+03  0.10100000352E+00 0. -1.
       -3    1    3    3    0  502 -0.59611513933E+03  0.33542342325E+02 -0.13007644083E+04  0.14312464512E+04  0.10100000352E+00 0.  1.
</event>
<event>
 5   0  0.5074133E-04  0.1669178E+04  0.7818609E-02  0.8779141E-01
        1   -1    0    0  501    0  0.00000000000E+00  0.00000000000E+00  0.95710940130E+03  0.95710940131E+03  0.50400001928E-02 0.  1.
       -1   -1    0    0    0  501  0.00000000000E+00  0.00000000000E+00 -0.72775229320E+03  0.72775229321E+03  0.50400001928E-02 0. -1.
    10030    2    1    2    0    0  0.00000000000E+00  0.00000000000E+00  0.22935710810E+03  0.16848616945E+04  0.16691777157E+04 0.  0.
        1    1    3    3  502    0 -0.55724240011E+03 -0.50443660178E+03  0.48080311699E+03  0.89227070725E+03  0.50400001928E-02 0.  1.
       -1    1    3    3    0  502  0.55724240011E+03  0.50443660178E+03 -0.25144600888E+03  0.79259098727E+03  0.50400001928E-02 0. -1.
</event>
<event>
 5   0  0.9610114E-04  0.1722998E+04  0.7818609E-02  0.8748355E-01
       -2   -1    0    0    0  501  0.00000000000E+00  0.00000000000E+00  0.77775984276E+03  0.77775984276E+03  0.25500000920E-02 0. -1.
        2   -1    0    0  501    0  0.00000000000E+00  0.00000000000E+00 -0.95425444722E+03  0.95425444722E+03  0.25500000920E-02 0.  1.
    10030    2    1    2    0    0  0.00000000000E+00  0.00000000000E+00 -0.17649460446E+03  0.17320142900E+04  0.17229983039E+04 0.  0.
        2    1    3    3  502    0  0.74937485124E+03 -0.41179466635E+03 -0.19388417675E+03  0.87677168573E+03  0.25500000920E-02 0. -1.
       -2    1    3    3    0  502 -0.74937485124E+03  0.41179466635E+03  0.17389572289E+02  0.85524260425E+03  0.25500000920E-02 0.  1.
</event>
<event>
 5   0  0.5059689E-04  0.1722939E+04  0.7818609E-02  0.8748388E-01
        1   -1    0    0  501    0  0.00000000000E+00  0.00000000000E+00  0.14990117640E+04  0.14990117640E+04  0.50400001928E-02 0.  1.
       -1   -1    0    0    0  501  0.00000000000E+00  0.00000000000E+00 -0.49507955791E+03  0.49507955793E+03  0.50400001928E-02 0. -1.
    10030    2    1    2    0    0  0.00000000000E+00  0.00000000000E+00  0.10039322061E+04  0.19940913220E+04  0.17229394435E+04 0.  0.
        5    1    3    3  502    0 -0.13894697462E+02 -0.83372089432E+03  0.75241039451E+03  0.11231327099E+04  0.46999998093E+01 0.  1.
       -5    1    3    3    0  502  0.13894697462E+02  0.83372089432E+03  0.25152181159E+03  0.87095861207E+03  0.46999998093E+01 0. -1.
</event>
<event>
 5   0  0.5009762E-04  0.1761373E+04  0.7818609E-02  0.8727115E-01
       -1   -1    0    0    0  501  0.00000000000E+00  0.00000000000E+00  0.32630783507E+04  0.32630783507E+04  0.50400001928E-02 0.  1.
        1   -1    0    0  501    0  0.00000000000E+00  0.00000000000E+00 -0.23769220490E+03  0.23769220496E+03  0.50400001928E-02 0. -1.
    10030    2    1    2    0    0  0.00000000000E+00  0.00000000000E+00  0.30253861458E+04  0.35007705557E+04  0.17613725194E+04 0.  0.
        3    1    3    3  502    0 -0.95780131061E+02 -0.39125823796E+03 -0.43871437461E+02  0.40519323230E+03  0.10100000352E+00 0. -1.
       -3    1    3    3    0  502  0.95780131061E+02  0.39125823796E+03  0.30692575833E+04  0.30955773233E+04  0.10100000352E+00 0.  1.
</event>
<event>
 5   0  0.4947006E-04  0.1698400E+04  0.7818609E-02  0.8762277E-01
       -1   -1    0    0    0  501  0.00000000000E+00  0.00000000000E+00  0.55656757351E+03  0.55656757353E+03  0.50400001928E-02 0.  1.
        1   -1    0    0  501    0  0.00000000000E+00  0.00000000000E+00 -0.12956931582E+04  0.12956931582E+04  0.50400001928E-02 0. -1.
    10030    2    1    2    0    0  0.00000000000E+00  0.00000000000E+00 -0.73912558469E+03  0.18522607317E+04  0.16984001850E+04 0.  0.
        2    1    3    3  502    0  0.21093361074E+03 -0.56599247463E+03 -0.10205466238E+04  0.11858987650E+04  0.25500000920E-02 0. -1.
       -2    1    3    3    0  502 -0.21093361074E+03  0.56599247463E+03  0.28142103909E+03  0.66636196675E+03  0.25500000920E-02 0.  1.
</event>
<event>
 5   0  0.9610114E-04  0.1669021E+04  0.7818609E-02  0.8779233E-01
       -2   -1    0    0    0  501  0.00000000000E+00  0.00000000000E+00  0.63371284435E+03  0.63371284435E+03  0.25500000920E-02 0.  1.
        2   -1    0    0  501    0  0.00000000000E+00  0.00000000000E+00 -0.10989327214E+04  0.10989327214E+04  0.25500000920E-02 0. -1.
    10030    2    1    2    0    0  0.00000000000E+00  0.00000000000E+00 -0.46521987705E+03  0.17326455658E+04  0.16690210072E+04 0.  0.
        2    1    3    3  502    0 -0.53781358855E+03 -0.62290618497E+03 -0.88942824304E+02  0.82774778604E+03  0.25500000920E-02 0. -1.
       -2    1    3    3    0  502  0.53781358855E+03  0.62290618497E+03 -0.37627705274E+03  0.90489777971E+03  0.25500000920E-02 0.  1.
</event>
<event>
 5   0  0.9312096E-04  0.1685003E+04  0.7818609E-02  0.8769964E-01
       -2   -1    0    0    0  501  0.00000000000E+00  0.00000000000E+00  0.54182359166E+03  0.54182359166E+03  0.25500000920E-02 0. -1.
        2   -1    0    0  501    0  0.00000000000E+00  0.00000000000E+00 -0.13100369357E+04  0.13100369357E+04  0.25500000920E-02 0.  1.
    10030    2    1    2    0    0  0.00000000000E+00  0.00000000000E+00 -0.76821334406E+03  0.18518605274E+04  0.16850031664E+04 0.  0.
        3    1    3    3  502    0 -0.79791337137E+03 -0.12889162245E+03 -0.12280182557E+03  0.81753232176E+03  0.10100000352E+00 0.  1.
       -3    1    3    3    0  502  0.79791337137E+03  0.12889162245E+03 -0.64541151849E+03  0.10343282056E+04  0.10100000352E+00 0. -1.
</event>
<event>
 5   0  0.5059689E-04  0.1691426E+04  0.7818609E-02  0.8766270E-01
        1   -1    0    0  501    0  0.00000000000E+00  0.00000000000E+00  0.14763216040E+04  0.14763216040E+04  0.50400001928E-02 0.  1.
       -1   -1    0    0    0  501  0.00000000000E+00  0.00000000000E+00 -0.48446792675E+03  0.48446792678E+03  0.50400001928E-02 0. -1.
    10030    2    1    2    0    0  0.00000000000E+00  0.00000000000E+00  0.99185367724E+03  0.19607895308E+04  0.16914259862E+04 0.  0.
        5    1    3    3  502    0  0.52010148102E+03  0.30811479374E+03  0.11815225303E+04  0.13271992527E+04  0.46999998093E+01 0. -1.
       -5    1    3    3    0  502 -0.52010148102E+03 -0.30811479374E+03 -0.18966885307E+03  0.63359027810E+03  0.46999998093E+01 0.  1.
</event>
<event>
 5   0  0.5074133E-04  0.1327948E+04  0.7818609E-02  0.9007691E-01
       -1   -1    0    0    0  501  0.00000000000E+00  0.00000000000E+00  0.47016227080E+03  0.47016227083E+03  0.50400001928E-02 0.  1.
        1   -1    0    0  501    0  0.00000000000E+00  0.00000000000E+00 -0.93767969853E+03  0.93767969854E+03  0.50400001928E-02 0. -1.
    10030    2    1    2    0    0  0.00000000000E+00  0.00000000000E+00 -0.46751742773E+03  0.14078419694E+04  0.13279482164E+04 0.  0.
        1    1    3    3  502    0 -0.49036504817E+03 -0.69669407022E+02  0.23505637135E+03  0.54823644943E+03  0.50400001928E-02 0.  1.
       -1    1    3    3    0  502  0.49036504817E+03  0.69669407022E+02 -0.70257379907E+03  0.85960551994E+03  0.50400001928E-02 0. -1.
</event>
<event>
 5   0  0.5009762E-04  0.1733082E+04  0.7818609E-02  0.8742718E-01
        1   -1    0    0  501    0  0.00000000000E+00  0.00000000000E+00  0.14661393509E+04  0.14661393509E+04  0.50400001928E-02 0. -1.
       -1   -1    0    0    0  501  0.00000000000E+00  0.00000000000E+00 -0.51215686761E+03  0.51215686764E+03  0.50400001928E-02 0.  1.
    10030    2    1    2    0    0  0.00000000000E+00  0.00000000000E+00  0.95398248328E+03  0.19782962185E+04  0.17330820378E+04 0.  0.
        3    1    3    3  502    0  0.40064962652E+03  0.39893810368E+03  0.12265789385E+04  0.13506175019E+04  0.10100000352E+00 0. -1.
       -3    1    3    3    0  502 -0.40064962652E+03 -0.39893810368E+03 -0.27259645519E+03  0.62767871669E+03  0.10100000352E+00 0.  1.
</event>
<event>
 5   0  0.1007187E-03  0.1699040E+04  0.7818609E-02  0.8761912E-01
       -2   -1    0    0    0  501  0.00000000000E+00  0.00000000000E+00  0.70164705896E+03  0.70164705896E+03  0.25500000920E-02 0.  1.
        2   -1    0    0  501    0  0.00000000000E+00  0.00000000000E+00 -0.10285568066E+04  0.10285568066E+04  0.25500000920E-02 0. -1.
    10030    2    1    2    0    0  0.00000000000E+00  0.00000000000E+00 -0.32690974762E+03  0.17302038655E+04  0.16990395620E+04 0.  0.
        5    1    3    3  502    0  0.25674341367E+02 -0.52187855565E+03 -0.84555068329E+03  0.99397909770E+03  0.46999998093E+01 0. -1.
       -5    1    3    3    0  502 -0.25674341367E+02  0.52187855565E+03  0.51864093567E+03  0.73622476785E+03  0.46999998093E+01 0.  1.
</event>
<event>
 5   0  0.3523125E-04  0.1698506E+04  0.7818609E-02  0.8762217E-01
        3   -1    0    0  501    0  0.00000000000E+00  0.00000000000E+00  0.66526787695E+03  0.66526788462E+03  0.10100000352E+00 0. -1.
       -3   -1    0    0    0  501  0.00000000000E+00  0.00000000000E+00 -0.10841212710E+04  0.10841212757E+04  0.10100000352E+00 0.  1.
    10030    2    1    2    0    0  0.00000000000E+00  0.00000000000E+00 -0.41885339409E+03  0.17493891604E+04  0.16985064818E+04 0.  0.
        3    1    3    3  502    0  0.64307088181E+03  0.49157970558E+03 -0.47410827296E+03  0.93806685831E+03  0.10100000352E+00 0.  1.
       -3    1    3    3    0  502 -0.64307088181E+03 -0.49157970558E+03  0.55254878865E+02  0.81132230205E+03  0.10100000352E+00 0. -1.
</event>
<event>
 5   0  0.9610114E-04  0.1704143E+04  0.7818609E-02  0.8759005E-01
        2   -1    0    0  501    0  0.00000000000E+00  0.00000000000E+00  0.50412504604E+03  0.50412504605E+03  0.25500000920E-02 0. -1.
       -2   -1    0    0    0  501  0.00000000000E+00  0.00000000000E+00 -0.14401707717E+04  0.14401707717E+04  0.25500000920E-02 0.  1.
    10030    2    1    2    0    0  0.00000000000E+00  0.00000000000E+00 -0.93604572567E+03  0.19442958178E+04  0.17041433703E+04 0.  0.
        2    1    3    3  502    0  0.81361478934E+03  0.24161379129E+03 -0.55400868061E+03  0.10135442111E+04  0.25500000920E-02 0.  1.
       -2    1    3    3    0  502 -0.81361478934E+03 -0.24161379129E+03 -0.38203704506E+03  0.93075160670E+03  0.25500000920E-02 0. -1.
</event>
<event>
 5   0  0.9610114E-04  0.1708641E+04  0.7818609E-02  0.8756451E-01
       -2   -1    0    0    0  501  0.00000000000E+00  0.00000000000E+00  0.63951359862E+03  0.63951359863E+03  0.25500000920E-02 0.  1.
        2   -1    0    0  501    0  0.00000000000E+00  0.00000000000E+00 -0.11412797721E+04  0.11412797721E+04  0.25500000920E-02 0. -1.
    10030    2    1    2    0    0  0.00000000000E+00  0.00000000000E+00 -0.50176617350E+03  0.17807933708E+04  0.17086414886E+04 0.  0.
        2    1    3    3  502    0  0.31955894437E+03  0.74049456064E+03 -0.54458760568E+03  0.97315249244E+03  0.25500000920E-02 0. -1.
       -2    1    3    3    0  502 -0.31955894437E+03 -0.74049456064E+03  0.42821432175E+02  0.80764087832E+03  0.25500000920E-02 0.  1.
</event>
<event>
 5   0  0.1007187E-03  0.1756525E+04  0.7818609E-02  0.8729767E-01
       -2   -1    0    0    0  501  0.00000000000E+00  0.00000000000E+00  0.75756167080E+03  0.75756167081E+03  0.25500000920E-02 0. -1.
        2   -1    0    0  501    0  0.00000000000E+00  0.00000000000E+00 -0.10181943605E+04  0.10181943605E+04  0.25500000920E-02 0.  1.
    10030    2    1    2    0    0  0.00000000000E+00  0.00000000000E+00 -0.26063268968E+03  0.17757560313E+04  0.17565250023E+04 0.  0.
        5    1    3    3  502    0 -0.16853874298E+03  0.26482148696E+03 -0.95953263178E+03  0.10095844141E+04  0.46999998093E+01 0.  1.
       -5    1    3    3    0  502  0.16853874298E+03 -0.26482148696E+03  0.69889994210E+03  0.76617161714E+03  0.46999998093E+01 0. -1.
</event>
<event>
 5   0  0.9625225E-04  0.1705462E+04  0.7818609E-02  0.8758255E-01
        2   -1    0    0  501    0  0.00000000000E+00  0.00000000000E+00  0.92622042423E+03  0.92622042423E+03  0.25500000920E-02 0. -1.
       -2   -1    0    0    0  501  0.00000000000E+00  0.00000000000E+00 -0.78507240435E+03  0.78507240436E+03  0.25500000920E-02 0.  1.
    10030    2    1    2    0    0  0.00000000000E+00  0.00000000000E+00  0.14114801988E+03  0.17112928286E+04  0.17054619262E+04 0.  0.
        1    1    3    3  502    0  0.24168749472E+03  0.52261031063E+03 -0.56055634494E+03  0.80359056600E+03  0.50400001928E-02 0.  1.
       -1    1    3    3    0  502 -0.24168749472E+03 -0.52261031063E+03  0.70170436482E+03  0.90770226259E+03  0.50400001928E-02 0. -1.
</event>
<event>
 5   0  0.9610114E-04  0.1701102E+04  0.7818609E-02  0.8760736E-01
        2   -1    0    0  501    0  0.00000000000E+00  0.00000000000E+00  0.75514426710E+03  0.75514426710E+03  0.25500000920E-02 0.  1.
       -2   -1    0    0    0  501  0.00000000000E+00  0.00000000000E+00 -0.95801133536E+03  0.95801133537E+03  0.25500000920E-02 0. -1.
    10030    2    1    2    0    0  0.00000000000E+00  0.00000000000E+00 -0.20286706826E+03  0.17131556025E+04  0.17011017227E+04 0.  0.
        2    1    3    3  502    0 -0.66291967190E+03 -0.54406875191E+01  0.43520689832E+03  0.79303035050E+03  0.25500000920E-02 0.  1.
       -2    1    3    3    0  502  0.66291967190E+03  0.54406875191E+01 -0.63807396658E+03  0.92012525197E+03  0.25500000920E-02 0. -1.
</event>
<event>
 5   0  0.9625225E-04  0.1678228E+04  0.7818609E-02  0.8773880E-01
        2   -1    0    0  501    0  0.00000000000E+00  0.00000000000E+00  0.95438593767E+03  0.95438593768E+03  0.25500000920E-02 0.  1.
       -2   -1    0    0    0  501  0.00000000000E+00  0.00000000000E+00 -0.73776463531E+03  0.73776463531E+03  0.25500000920E-02 0. -1.
    10030    2    1    2    0    0  0.00000000000E+00  0.00000000000E+00  0.21662130236E+03  0.16921505730E+04  0.16782278668E+04 0.  0.
        1    1    3    3  502    0  0.10716161764E+03  0.38621430090E+03 -0.63500744194E+03  0.75091913670E+03  0.50400001928E-02 0. -1.
       -1    1    3    3    0  502 -0.10716161764E+03 -0.38621430090E+03  0.85162874430E+03  0.94123143629E+03  0.50400001928E-02 0.  1.
</event>
<event>
 5   0  0.5035495E-04  0.1647512E+04  0.7818609E-02  0.8791879E-01
        1   -1    0    0  501    0  0.00000000000E+00  0.00000000000E+00  0.10680487734E+04  0.10680487734E+04  0.50400001928E-02 0.  1.
       -1   -1    0    0    0  501  0.00000000000E+00  0.00000000000E+00 -0.63534018222E+03  0.63534018224E+03  0.50400001928E-02 0. -1.
    10030    2    1    2    0    0  0.00000000000E+00  0.00000000000E+00  0.43270859116E+03  0.17033889556E+04  0.16475124307E+04 0.  0.
        4    1    3    3  502    0  0.69938224894E+03  0.23304025503E+03 -0.16371260506E+03  0.75514682053E+03  0.12699999809E+01 0.  1.
       -4    1    3    3    0  502 -0.69938224894E+03 -0.23304025503E+03  0.59642119622E+03  0.94824213511E+03  0.12699999809E+01 0. -1.
</event>
<event>
 5   0  0.5035495E-04  0.1750384E+04  0.7818609E-02  0.8733139E-01
       -1   -1    0    0    0  501  0.00000000000E+00  0.00000000000E+00  0.10810185754E+04  0.10810185754E+04  0.50400001928E-02 0. -1.
        1   -1    0    0  501    0  0.00000000000E+00  0.00000000000E+00 -0.70855452952E+03  0.70855452954E+03  0.50400001928E-02 0.  1.
    10030    2    1    2    0    0  0.00000000000E+00  0.00000000000E+00  0.37246404588E+03  0.17895731050E+04  0.17503835101E+04 0.  0.
        4    1    3    3  502    0  0.30554052390E+03 -0.34202416764E+02 -0.65152476068E+03  0.72042414156E+03  0.12699999809E+01 0.  1.
       -4    1    3    3    0  502 -0.30554052390E+03  0.34202416764E+02  0.10239888066E+04  0.10691489634E+04  0.12699999809E+01 0. -1.
</event>
<event>
 5   0  0.5035495E-04  0.1765617E+04  0.7818609E-02  0.8724801E-01
        1   -1    0    0  501    0  0.00000000000E+00  0.00000000000E+00  0.20272262165E+04  0.20272262166E+04  0.50400001928E-02 0.  1.
       -1   -1    0    0    0  501  0.00000000000E+00  0.00000000000E+00 -0.38444179831E+03  0.38444179834E+03  0.50400001928E-02 0. -1.
    10030    2    1    2    0    0  0.00000000000E+00  0.00000000000E+00  0.16427844182E+04  0.24116680149E+04  0.17656165975E+04 0.  0.
        4    1    3    3  502    0 -0.59451466173E+03 -0.83587072904E+02  0.17054563277E+04  0.18080424166E+04  0.12699999809E+01 0.  1.
       -4    1    3    3    0  502  0.59451466173E+03  0.83587072904E+02 -0.62671909438E+02  0.60362559828E+03  0.12699999809E+01 0. -1.
</event>
<event>
 5   0  0.9284971E-04  0.1901112E+04  0.7818609E-02  0.8654303E-01
       -2   -1    0    0    0  501  0.00000000000E+00  0.00000000000E+00  0.47520801983E+03  0.47520801984E+03  0.25500000920E-02 0.  1.
        2   -1    0    0  501    0  0.00000000000E+00  0.00000000000E+00 -0.19013916396E+04  0.19013916396E+04  0.25500000920E-02 0. -1.
    10030    2    1    2    0    0  0.00000000000E+00  0.00000000000E+00 -0.14261836197E+04  0.23765996594E+04  0.19011118389E+04 0.  0.
        4    1    3    3  502    0  0.48228625773E+03 -0.77308359183E+03 -0.10515386647E+04  0.13913998170E+04  0.12699999809E+01 0. -1.
       -4    1    3    3    0  502 -0.48228625773E+03  0.77308359183E+03 -0.37464495502E+03  0.98519984245E+03  0.12699999809E+01 0.  1.
</event>
<event>
 5   0  0.5059689E-04  0.1681875E+04  0.7818609E-02  0.8771770E-01
        1   -1    0    0  501    0  0.00000000000E+00  0.00000000000E+00  0.15603824801E+04  0.15603824801E+04  0.50400001928E-02 0. -1.
       -1   -1    0    0    0  501  0.00000000000E+00  0.00000000000E+00 -0.45320661553E+03  0.45320661556E+03  0.50400001928E-02 0.  1.
    10030    2    1    2    0    0  0.00000000000E+00  0.00000000000E+00  0.11071758645E+04  0.20135890956E+04  0.16818747430E+04 0.  0.
        5    1    3    3  502    0 -0.17740171209E+03  0.57646273694E+03 -0.14796464053E+03  0.62104450676E+03  0.46999998093E+01 0.  1.
       -5    1    3    3    0  502  0.17740171209E+03 -0.57646273694E+03  0.12551405051E+04  0.13925445889E+04  0.46999998093E+01 0. -1.
</event>
<event>
 5   0  0.4947006E-04  0.1685955E+04  0.7818609E-02  0.8769416E-01
        1   -1    0    0  501    0  0.00000000000E+00  0.00000000000E+00  0.15316448681E+04  0.15316448682E+04  0.50400001928E-02 0. -1.
       -1   -1    0    0    0  501  0.00000000000E+00  0.00000000000E+00 -0.46395284768E+03  0.46395284771E+03  0.50400001928E-02 0.  1.
    10030    2    1    2    0    0  0.00000000000E+00  0.00000000000E+00  0.10676920205E+04  0.19955977159E+04  0.16859549202E+04 0.  0.
        2    1    3    3  502    0  0.65417040507E+03  0.20763089177E+03  0.11131887180E+04  0.13077609216E+04  0.25500000920E-02 0. -1.
       -2    1    3    3    0  502 -0.65417040507E+03 -0.20763089177E+03 -0.45496697547E+02  0.68783679429E+03  0.25500000920E-02 0.  1.
</event>
<event>
 5   0  0.5035495E-04  0.1721836E+04  0.7818609E-02  0.8749008E-01
        1   -1    0    0  501    0  0.00000000000E+00  0.00000000000E+00  0.15223019870E+04  0.15223019870E+04  0.50400001928E-02 0.  1.
       -1   -1    0    0    0  501  0.00000000000E+00  0.00000000000E+00 -0.48688066117E+03  0.48688066120E+03  0.50400001928E-02 0. -1.
    10030    2    1    2    0    0  0.00000000000E+00  0.00000000000E+00  0.10354213258E+04  0.20091826482E+04  0.17218355299E+04 0.  0.
        4    1    3    3  502    0  0.52436549468E+02 -0.64506869530E+03  0.11801829628E+04  0.13459928128E+04  0.12699999809E+01 0.  1.
       -4    1    3    3    0  502 -0.52436549468E+02  0.64506869530E+03 -0.14476163700E+03  0.66318983543E+03  0.12699999809E+01 0. -1.
</event>
<event>
 5   0  0.5035495E-04  0.1630633E+04  0.7818609E-02  0.8801947E-01
       -1   -1    0    0    0  501  0.00000000000E+00  0.00000000000E+00  0.83989182410E+03  0.83989182411E+03  0.50400001928E-02 0. -1.
        1   -1    0    0  501    0  0.00000000000E+00  0.00000000000E+00 -0.79146013296E+03  0.79146013297E+03  0.50400001928E-02 0.  1.
    10030    2    1    2    0    0  0.00000000000E+00  0.00000000000E+00  0.48431691142E+02  0.16313519571E+04  0.16306328769E+04 0.  0.
        4    1    3    3  502    0  0.53413189133E+03 -0.49021971873E+03 -0.34894600148E+03  0.80459752350E+03  0.12699999809E+01 0.  1.
       -4    1    3    3    0  502 -0.53413189133E+03  0.49021971873E+03  0.39737769262E+03  0.82675443359E+03  0.12699999809E+01 0. -1.
</event>
<event>
 5   0  0.9312096E-04  0.1720098E+04  0.7818609E-02  0.8749984E-01
        2   -1    0    0  501    0  0.00000000000E+00  0.00000000000E+00  0.84489459354E+03  0.84489459354E+03  0.25500000920E-02 0. -1.
       -2   -1    0    0    0  501  0.00000000000E+00  0.00000000000E+00 -0.87547549335E+03  0.87547549335E+03  0.25500000920E-02 0.  1.
    10030    2    1    2    0    0  0.00000000000E+00  0.00000000000E+00 -0.30580899809E+02  0.17203700869E+04  0.17200982659E+04 0.  0.
        3    1    3    3  502    0 -0.13166797665E+03  0.22369727890E+03 -0.83536366234E+03  0.87476247474E+03  0.10100000352E+00 0.  1.
       -3    1    3    3    0  502  0.13166797665E+03 -0.22369727890E+03  0.80478276253E+03  0.84560761215E+03  0.10100000352E+00 0. -1.
</event>
<event>
 5   0  0.4947006E-04  0.1678157E+04  0.7818609E-02  0.8773921E-01
        1   -1    0    0  501    0  0.00000000000E+00  0.00000000000E+00  0.98433511036E+03  0.98433511037E+03  0.50400001928E-02 0.  1.
       -1   -1    0    0    0  501  0.00000000000E+00  0.00000000000E+00 -0.71525722298E+03  0.71525722300E+03  0.50400001928E-02 0. -1.
    10030    2    1    2    0    0  0.00000000000E+00  0.00000000000E+00  0.26907788738E+03  0.16995923334E+04  0.16781570815E+04 0.  0.
        2    1    3    3  502    0 -0.30977183419E+03  0.76314927566E+03  0.29689058092E+03  0.87549952784E+03  0.25500000920E-02 0.  1.
       -2    1    3    3    0  502  0.30977183419E+03 -0.76314927566E+03 -0.27812693541E+02  0.82409280553E+03  0.25500000920E-02 0. -1.
</event>
<event>
 5   0  0.9312096E-04  0.1668234E+04  0.7818609E-02  0.8779692E-01
       -2   -1    0    0    0  501  0.00000000000E+00  0.00000000000E+00  0.59914751451E+03  0.59914751452E+03  0.25500000920E-02 0.  1.
        2   -1    0    0  501    0  0.00000000000E+00  0.00000000000E+00 -0.11612353279E+04  0.11612353279E+04  0.25500000920E-02 0. -1.
    10030    2    1    2    0    0  0.00000000000E+00  0.00000000000E+00 -0.56208781343E+03  0.17603828425E+04  0.16682341089E+04 0.  0.
        3    1    3    3  502    0  0.27970231313E+03 -0.23129717038E+03  0.51145228596E+03  0.62714848004E+03  0.10100000352E+00 0.  1.
       -3    1    3    3    0  502 -0.27970231313E+03  0.23129717038E+03 -0.10735400994E+04  0.11332343624E+04  0.10100000352E+00 0. -1.
</event>
<event>
 5   0  0.5059689E-04  0.1634404E+04  0.7818609E-02  0.8799687E-01
       -1   -1    0    0    0  501  0.00000000000E+00  0.00000000000E+00  0.98947658479E+03  0.98947658480E+03  0.50400001928E-02 0.  1.
        1   -1    0    0  501    0  0.00000000000E+00  0.00000000000E+00 -0.67492167358E+03  0.67492167359E+03  0.50400001928E-02 0. -1.
    10030    2    1    2    0    0  0.00000000000E+00  0.00000000000E+00  0.31455491122E+03  0.16643982584E+04  0.16344041025E+04 0.  0.
        5    1    3    3  502    0 -0.31489240693E+03 -0.67847164490E+03  0.49243138821E+03  0.89553992818E+03  0.46999998093E+01 0.  1.
       -5    1    3    3    0  502  0.31489240693E+03  0.67847164490E+03 -0.17787647699E+03  0.76885833022E+03  0.46999998093E+01 0. -1.
</event>
<event>
 5   0  0.9312096E-04  0.1802414E+04  0.7818609E-02  0.8705017E-01
        2   -1    0    0  501    0  0.00000000000E+00  0.00000000000E+00  0.14687803548E+04  0.14687803548E+04  0.25500000920E-02 0.  1.
       -2   -1    0    0    0  501  0.00000000000E+00  0.00000000000E+00 -0.55295809611E+03  0.55295809611E+03  0.25500000920E-02 0. -1.
    10030    2    1    2    0    0  0.00000000000E+00  0.00000000000E+00  0.91582225864E+03  0.20217384509E+04  0.18024139242E+04 0.  0.
        3    1    3    3  502    0  0.35780884031E+03  0.77136913357E+03  0.12302423080E+03  0.85916964448E+03  0.10100000352E+00 0.  1.
       -3    1    3    3    0  502 -0.35780884031E+03 -0.77136913357E+03  0.79279802785E+03  0.11625688064E+04  0.10100000352E+00 0. -1.
</event>
<event>
 5   0  0.5009762E-04  0.1748542E+04  0.7818609E-02  0.8734154E-01
       -1   -1    0    0    0  501  0.00000000000E+00  0.00000000000E+00  0.87355923697E+03  0.87355923698E+03  0.50400001928E-02 0. -1.
        1   -1    0    0  501    0  0.00000000000E+00  0.00000000000E+00 -0.87498287060E+03  0.87498287061E+03  0.50400001928E-02 0.  1.
    10030    2    1    2    0    0  0.00000000000E+00  0.00000000000E+00 -0.14236336297E+01  0.17485421076E+04  0.17485415280E+04 0.  0.
        3    1    3    3  502    0 -0.41825166647E+03  0.10061957475E+03  0.76039986179E+03  0.87365136945E+03  0.10100000352E+00 0. -1.
       -3    1    3    3    0  502  0.41825166647E+03 -0.10061957475E+03 -0.76182349541E+03  0.87489073815E+03  0.10100000352E+00 0.  1.
</event>
<event>
 5   0  0.5059689E-04  0.1719103E+04  0.7818609E-02  0.8750543E-01
       -1   -1    0    0    0  501  0.00000000000E+00  0.00000000000E+00  0.72498558339E+03  0.72498558341E+03  0.50400001928E-02 0. -1.
        1   -1    0    0  501    0  0.00000000000E+00  0.00000000000E+00 -0.10190947744E+04  0.10190947745E+04  0.50400001928E-02 0.  1.
    10030    2    1    2    0    0  0.00000000000E+00  0.00000000000E+00 -0.29410919104E+03  0.17440803579E+04  0.17191032774E+04 0.  0.
        5    1    3    3  502    0 -0.69967806022E+03 -0.13777330498E+03  0.33978838883E+03  0.78994247303E+03  0.46999998093E+01 0. -1.
       -5    1    3    3    0  502  0.69967806022E+03  0.13777330498E+03 -0.63389757987E+03  0.95413788484E+03  0.46999998093E+01 0.  1.
</event>
<event>
 5   0  0.1007187E-03  0.1657021E+04  0.7818609E-02  0.8786264E-01
       -2   -1    0    0    0  501  0.00000000000E+00  0.00000000000E+00  0.46341916332E+03  0.46341916333E+03  0.25500000920E-02 0. -1.
        2   -1    0    0  501    0  0.00000000000E+00  0.00000000000E+00 -0.14812288916E+04  0.14812288916E+04  0.25500000920E-02 0.  1.
    10030    2    1    2    0    0  0.00000000000E+00  0.00000000000E+00 -0.10178097282E+04  0.19446480549E+04  0.16570212474E+04 0.  0.
        5    1    3    3  502    0  0.66734059208E+03  0.42090874715E+03 -0.80556813989E+03  0.11275946777E+04  0.46999998093E+01 0.  1.
       -5    1    3    3    0  502 -0.66734059208E+03 -0.42090874715E+03 -0.21224158834E+03  0.81705337714E+03  0.46999998093E+01 0. -1.
</event>
<event>
 5   0  0.5009762E-04  0.1822057E+04  0.7818609E-02  0.8694657E-01
        1   -1    0    0  501    0  0.00000000000E+00  0.00000000000E+00  0.11644280377E+04  0.11644280377E+04  0.50400001928E-02 0. -1.
       -1   -1    0    0    0  501  0.00000000000E+00  0.00000000000E+00 -0.71277331979E+03  0.71277331981E+03  0.50400001928E-02 0.  1.
    10030    2    1    2    0    0  0.00000000000E+00  0.00000000000E+00  0.45165471787E+03  0.18772013575E+04  0.18220573406E+04 0.  0.
        3    1    3    3  502    0  0.87272093392E+03  0.23809388523E+03  0.11466040774E+03  0.91185390606E+03  0.10100000352E+00 0.  1.
       -3    1    3    3    0  502 -0.87272093392E+03 -0.23809388523E+03  0.33699431013E+03  0.96534745142E+03  0.10100000352E+00 0. -1.
</event>
<event>
 5   0  0.4947006E-04  0.1752327E+04  0.7818609E-02  0.8732070E-01
       -1   -1    0    0    0  501  0.00000000000E+00  0.00000000000E+00  0.11607504912E+04  0.11607504912E+04  0.50400001928E-02 0. -1.
        1   -1    0    0  501    0  0.00000000000E+00  0.00000000000E+00 -0.66135034822E+03  0.66135034824E+03  0.50400001928E-02 0.  1.
    10030    2    1    2    0    0  0.00000000000E+00  0.00000000000E+00  0.49940014300E+03  0.18221008395E+04  0.17523273000E+04 0.  0.
        2    1    3    3  502    0  0.18707621520E+03  0.63471264584E+03 -0.34745325676E+03  0.74738304685E+03  0.25500000920E-02 0.  1.
       -2    1    3    3    0  502 -0.18707621520E+03 -0.63471264584E+03  0.84685339976E+03  0.10747177926E+04  0.25500000920E-02 0. -1.
</event>
<event>
 5   0  0.9610114E-04  0.1964981E+04  0.7818609E-02  0.8623170E-01
       -2   -1    0    0    0  501  0.00000000000E+00  0.00000000000E+00  0.66347079144E+03  0.66347079144E+03  0.25500000920E-02 0.  1.
        2   -1    0    0  501    0  0.00000000000E+00  0.00000000000E+00 -0.14549058200E+04  0.14549058200E+04  0.25500000920E-02 0. -1.
    10030    2    1    2    0    0  0.00000000000E+00  0.00000000000E+00 -0.79143502856E+03  0.21183766114E+04  0.19649809321E+04 0.  0.
        2    1    3    3  502    0 -0.89052396041E+02 -0.93044645172E+02 -0.14457657641E+04  0.14514910540E+04  0.25500000920E-02 0. -1.
       -2    1    3    3    0  502  0.89052396041E+02  0.93044645172E+02  0.65433073554E+03  0.66688555743E+03  0.25500000920E-02 0.  1.
</event>
<event>
 5   0  0.9610114E-04  0.1475489E+04  0.7818609E-02  0.8900918E-01
       -2   -1    0    0    0  501  0.00000000000E+00  0.00000000000E+00  0.68626609274E+03  0.68626609275E+03  0.25500000920E-02 0. -1.
        2   -1    0    0  501    0  0.00000000000E+00  0.00000000000E+00 -0.79308420910E+03  0.79308420910E+03  0.25500000920E-02 0.  1.
    10030    2    1    2    0    0  0.00000000000E+00  0.00000000000E+00 -0.10681811636E+03  0.14793503019E+04  0.14754888023E+04 0.  0.
        2    1    3    3  502    0  0.72956286459E+01  0.71116678964E+03  0.14320457029E+03  0.72547844754E+03  0.25500000920E-02 0.  1.
       -2    1    3    3    0  502 -0.72956286459E+01 -0.71116678964E+03 -0.25002268665E+03  0.75387185431E+03  0.25500000920E-02 0. -1.
</event>
<event>
 5   0  0.9284971E-04  0.1711789E+04  0.7818609E-02  0.8754669E-01
        2   -1    0    0  501    0  0.00000000000E+00  0.00000000000E+00  0.16930342712E+04  0.16930342712E+04  0.25500000920E-02 0. -1.
       -2   -1    0    0    0  501  0.00000000000E+00  0.00000000000E+00 -0.43268811755E+03  0.43268811756E+03  0.25500000920E-02 0.  1.
    10030    2    1    2    0    0  0.00000000000E+00  0.00000000000E+00  0.12603461536E+04  0.21257223887E+04  0.17117894868E+04 0.  0.
        4    1    3    3  502    0  0.12616294371E+03 -0.48002990335E+03 -0.23572628951E+03  0.54946728105E+03  0.12699999809E+01 0.  1.
       -4    1    3    3    0  502 -0.12616294371E+03  0.48002990335E+03  0.14960724431E+04  0.15762551077E+04  0.12699999809E+01 0. -1.
</event>
<event>
 5   0  0.9625225E-04  0.1369906E+04  0.7818609E-02  0.8975895E-01
        2   -1    0    0  501    0  0.00000000000E+00  0.00000000000E+00  0.18245922269E+04  0.18245922269E+04  0.25500000920E-02 0.  1.
       -2   -1    0    0    0  501  0.00000000000E+00  0.00000000000E+00 -0.25713163669E+03  0.25713163671E+03  0.25500000920E-02 0. -1.
    10030    2    1    2    0    0  0.00000000000E+00  0.00000000000E+00  0.15674605902E+04  0.20817238636E+04  0.13699056692E+04 0.  0.
        1    1    3    3  502    0 -0.81305141356E+02  0.57788843922E+03  0.13286646402E+04  0.14511772119E+04  0.50400001928E-02 0.  1.
       -1    1    3    3    0  502  0.81305141356E+02 -0.57788843922E+03  0.23879594997E+03  0.63054665168E+03  0.50400001928E-02 0. -1.
</event>
<event>
 5   0  0.3523125E-04  0.1499309E+04  0.7818609E-02  0.8884913E-01
       -4   -1    0    0    0  501  0.00000000000E+00  0.00000000000E+00  0.97832339160E+03  0.97832421592E+03  0.12699999809E+01 0.  1.
        4   -1    0    0  501    0  0.00000000000E+00  0.00000000000E+00 -0.57443189624E+03  0.57443330015E+03  0.12699999809E+01 0. -1.
    10030    2    1    2    0    0  0.00000000000E+00  0.00000000000E+00  0.40389149536E+03  0.15527575161E+04  0.14993090287E+04 0.  0.
        4    1    3    3  502    0  0.13419466431E+03 -0.24384459246E+03  0.92282860999E+03  0.96388933468E+03  0.12699999809E+01 0.  1.
       -4    1    3    3    0  502 -0.13419466431E+03  0.24384459246E+03 -0.51893711463E+03  0.58886818138E+03  0.12699999809E+01 0. -1.
</event>
<event>
 5   0  0.9284971E-04  0.1700618E+04  0.7818609E-02  0.8761012E-01
       -2   -1    0    0    0  501  0.00000000000E+00  0.00000000000E+00  0.67282769671E+03  0.67282769672E+03  0.25500000920E-02 0. -1.
        2   -1    0    0  501    0  0.00000000000E+00  0.00000000000E+00 -0.10746076721E+04  0.10746076721E+04  0.25500000920E-02 0.  1.
    10030    2    1    2    0    0  0.00000000000E+00  0.00000000000E+00 -0.40177997538E+03  0.17474353688E+04  0.17006184815E+04 0.  0.
        4    1    3    3  502    0  0.51318772832E+01 -0.84326335150E+03 -0.88777280828E+02  0.84794011265E+03  0.12699999809E+01 0. -1.
       -4    1    3    3    0  502 -0.51318772832E+01  0.84326335150E+03 -0.31300269455E+03  0.89949525616E+03  0.12699999809E+01 0.  1.
</event>
<event>
 5   0  0.9312096E-04  0.1708685E+04  0.7818609E-02  0.8756426E-01
       -2   -1    0    0    0  501  0.00000000000E+00  0.00000000000E+00  0.47081804440E+03  0.47081804440E+03  0.25500000920E-02 0. -1.
        2   -1    0    0  501    0  0.00000000000E+00  0.00000000000E+00 -0.15502834868E+04  0.15502834868E+04  0.25500000920E-02 0.  1.
    10030    2    1    2    0    0  0.00000000000E+00  0.00000000000E+00 -0.10794654424E+04  0.20211015312E+04  0.17086853889E+04 0.  0.
        3    1    3    3  502    0  0.65596931332E+03 -0.31281036271E+03 -0.84342419675E+01  0.72678553210E+03  0.10100000352E+00 0. -1.
       -3    1    3    3    0  502 -0.65596931332E+03  0.31281036271E+03 -0.10710312005E+04  0.12943159991E+04  0.10100000352E+00 0.  1.
</event>
<event>
 5   0  0.3523125E-04  0.1699627E+04  0.7818609E-02  0.8761577E-01
       -3   -1    0    0    0  501  0.00000000000E+00  0.00000000000E+00  0.66907454264E+03  0.66907455026E+03  0.10100000352E+00 0.  1.
        3   -1    0    0  501    0  0.00000000000E+00  0.00000000000E+00 -0.10793760028E+04  0.10793760075E+04  0.10100000352E+00 0. -1.
    10030    2    1    2    0    0  0.00000000000E+00  0.00000000000E+00 -0.41030146015E+03  0.17484505578E+04  0.16996270370E+04 0.  0.
        5    1    3    3  502    0  0.66891896683E+03  0.41484807993E+03 -0.53467949120E+03  0.95155439252E+03  0.46999998093E+01 0.  1.
       -5    1    3    3    0  502 -0.66891896683E+03 -0.41484807993E+03  0.12437803105E+03  0.79689616527E+03  0.46999998093E+01 0. -1.
</event>
<event>
 5   0  0.3523125E-04  0.1703125E+04  0.7818609E-02  0.8759584E-01
        3   -1    0    0  501    0  0.00000000000E+00  0.00000000000E+00  0.44489490478E+03  0.44489491624E+03  0.10100000352E+00 0. -1.
       -3   -1    0    0    0  501  0.00000000000E+00  0.00000000000E+00 -0.16299553647E+04  0.16299553678E+04  0.10100000352E+00 0.  1.
    10030    2    1    2    0    0  0.00000000000E+00  0.00000000000E+00 -0.11850604599E+04  0.20748502841E+04  0.17031251885E+04 0.  0.
        3    1    3    3  502    0  0.77260135665E+02  0.69981230022E+03 -0.11760916191E+04  0.13707289633E+04  0.10100000352E+00 0.  1.
       -3    1    3    3    0  502 -0.77260135665E+02 -0.69981230022E+03 -0.89688408569E+01  0.70412132080E+03  0.10100000352E+00 0. -1.
</event>
<event>
 5   0  0.5009762E-04  0.1654250E+04  0.7818609E-02  0.8787896E-01
       -1   -1    0    0    0  501  0.00000000000E+00  0.00000000000E+00  0.41952436078E+03  0.41952436081E+03  0.50400001928E-02 0. -1.
        1   -1    0    0  501    0  0.00000000000E+00  0.00000000000E+00 -0.16307418728E+04  0.16307418729E+04  0.50400001928E-02 0.  1.
    10030    2    1    2    0    0  0.00000000000E+00  0.00000000000E+00 -0.12112175121E+04  0.20502662337E+04  0.16542502131E+04 0.  0.
        3    1    3    3  502    0 -0.60752474928E+03  0.52999273289E+03 -0.37654788154E+03  0.88981286527E+03  0.10100000352E+00 0. -1.
       -3    1    3    3    0  502  0.60752474928E+03 -0.52999273289E+03 -0.83466963053E+03  0.11604533684E+04  0.10100000352E+00 0.  1.
</event>
<event>
 5   0  0.1007187E-03  0.1674430E+04  0.7818609E-02  0.8776084E-01
       -2   -1    0    0    0  501  0.00000000000E+00  0.00000000000E+00  0.84404299742E+03  0.84404299742E+03  0.25500000920E-02 0. -1.
        2   -1    0    0  501    0  0.00000000000E+00  0.00000000000E+00 -0.83044249934E+03  0.83044249934E+03  0.25500000920E-02 0.  1.
    10030    2    1    2    0    0  0.00000000000E+00  0.00000000000E+00  0.13600498076E+02  0.16744854968E+04  0.16744302629E+04 0.  0.
        5    1    3    3  502    0  0.40775207344E+03 -0.68498417739E+03  0.26262504681E+03  0.83932060733E+03  0.46999998093E+01 0. -1.
       -5    1    3    3    0  502 -0.40775207344E+03  0.68498417739E+03 -0.24902454873E+03  0.83516488943E+03  0.46999998093E+01 0.  1.
</event>
<event>
 5   0  0.5035495E-04  0.1730558E+04  0.7818609E-02  0.8744126E-01
        1   -1    0    0  501    0  0.00000000000E+00  0.00000000000E+00  0.15217989405E+04  0.15217989405E+04  0.50400001928E-02 0.  1.
       -1   -1    0    0    0  501  0.00000000000E+00  0.00000000000E+00 -0.49198841553E+03  0.49198841555E+03  0.50400001928E-02 0. -1.
    10030    2    1    2    0    0  0.00000000000E+00  0.00000000000E+00  0.10298105250E+04  0.20137873561E+04  0.17305576553E+04 0.  0.
        4    1    3    3  502    0  0.93371630846E+01  0.80706546298E+03  0.15199137864E+03  0.82130678570E+03  0.12699999809E+01 0. -1.
       -4    1    3    3    0  502 -0.93371630846E+01 -0.80706546298E+03  0.87781914637E+03  0.11924805704E+04  0.12699999809E+01 0.  1.
</event>
<event>
 5   0  0.9625225E-04  0.1723635E+04  0.7818609E-02  0.8747998E-01
       -2   -1    0    0    0  501  0.00000000000E+00  0.00000000000E+00  0.42730537582E+03  0.42730537583E+03  0.25500000920E-02 0. -1.
        2   -1    0    0  501    0  0.00000000000E+00  0.00000000000E+00 -0.17381697047E+04  0.17381697047E+04  0.25500000920E-02 0.  1.
    10030    2    1    2    0    0  0.00000000000E+00  0.00000000000E+00 -0.13108643289E+04  0.21654750805E+04  0.17236348325E+04 0.  0.
        1    1    3    3  502    0 -0.72418448258E+03 -0.46062454118E+03 -0.75364506855E+03  0.11421904491E+04  0.50400001928E-02 0. -1.
       -1    1    3    3    0  502  0.72418448258E+03  0.46062454118E+03 -0.55721926035E+03  0.10232846314E+04  0.50400001928E-02 0.  1.
</event>
<event>
 5   0  0.9610114E-04  0.1318277E+04  0.7818609E-02  0.9015195E-01
        2   -1    0    0  501    0  0.00000000000E+00  0.00000000000E+00  0.41406667216E+03  0.41406667216E+03  0.25500000920E-02 0. -1.
       -2   -1    0    0    0  501  0.00000000000E+00  0.00000000000E+00 -0.10492605257E+04  0.10492605257E+04  0.25500000920E-02 0.  1.
    10030    2    1    2    0    0  0.00000000000E+00  0.00000000000E+00 -0.63519385351E+03  0.14633271978E+04  0.13182773822E+04 0.  0.
        2    1    3    3  502    0 -0.49351593868E+03  0.12213750479E+03  0.14807118081E+03  0.52952868327E+03  0.25500000920E-02 0. -1.
       -2    1    3    3    0  502  0.49351593868E+03 -0.12213750479E+03 -0.78326503432E+03  0.93379851456E+03  0.25500000920E-02 0.  1.
</event>
<event>
 5   0  0.5059689E-04  0.1656884E+04  0.7818609E-02  0.8786344E-01
       -1   -1    0    0    0  501  0.00000000000E+00  0.00000000000E+00  0.12512718329E+04  0.12512718329E+04  0.50400001928E-02 0.  1.
        1   -1    0    0  501    0  0.00000000000E+00  0.00000000000E+00 -0.54849507524E+03  0.54849507527E+03  0.50400001928E-02 0. -1.
    10030    2    1    2    0    0  0.00000000000E+00  0.00000000000E+00  0.70277675763E+03  0.17997669081E+04  0.16568843510E+04 0.  0.
        5    1    3    3  502    0 -0.90690942028E+02 -0.79986129067E+03  0.13883168589E+03  0.81688387075E+03  0.46999998093E+01 0. -1.
       -5    1    3    3    0  502  0.90690942028E+02  0.79986129067E+03  0.56394507173E+03  0.98288303740E+03  0.46999998093E+01 0.  1.
</event>
<event>
 5   0  0.9284971E-04  0.1579390E+04  0.7818609E-02  0.8833311E-01
       -2   -1    0    0    0  501  0.00000000000E+00  0.00000000000E+00  0.58798599153E+03  0.58798599154E+03  0.25500000920E-02 0. -1.
        2   -1    0    0  501    0  0.00000000000E+00  0.00000000000E+00 -0.10606003705E+04  0.10606003705E+04  0.25500000920E-02 0.  1.
    10030    2    1    2    0    0  0.00000000000E+00  0.00000000000E+00 -0.47261437901E+03  0.16485863621E+04  0.15793899588E+04 0.  0.
        4    1    3    3  502    0  0.71224076760E+03  0.27965576002E+03 -0.32503597280E+02  0.76586705888E+03  0.12699999809E+01 0.  1.
       -4    1    3    3    0  502 -0.71224076760E+03 -0.27965576002E+03 -0.44011078173E+03  0.88271930320E+03  0.12699999809E+01 0. -1.
</event>
<event>
 5   0  0.1007187E-03  0.1736907E+04  0.7818609E-02  0.8740591E-01
        2   -1    0    0  501    0  0.00000000000E+00  0.00000000000E+00  0.11229110681E+04  0.11229110681E+04  0.25500000920E-02 0.  1.
       -2   -1    0    0    0  501  0.00000000000E+00  0.00000000000E+00 -0.67165710581E+03  0.67165710582E+03  0.25500000920E-02 0. -1.
    10030    2    1    2    0    0  0.00000000000E+00  0.00000000000E+00  0.45125396226E+03  0.17945681739E+04  0.17369066734E+04 0.  0.
        5    1    3    3  502    0 -0.65632458399E+02  0.34652204940E+03  0.10455747158E+04  0.11034644202E+04  0.46999998093E+01 0.  1.
       -5    1    3    3    0  502  0.65632458399E+02 -0.34652204940E+03 -0.59432075353E+03  0.69110375371E+03  0.46999998093E+01 0. -1.
</event>
<event>
 5   0  0.5035495E-04  0.1684875E+04  0.7818609E-02  0.8770038E-01
       -1   -1    0    0    0  501  0.00000000000E+00  0.00000000000E+00  0.86081175185E+03  0.86081175186E+03  0.50400001928E-02 0.  1.
        1   -1    0    0  501    0  0.00000000000E+00  0.00000000000E+00 -0.82445531261E+03  0.82445531263E+03  0.50400001928E-02 0. -1.
    10030    2    1    2    0    0  0.00000000000E+00  0.00000000000E+00  0.36356439240E+02  0.16852670645E+04  0.16848748583E+04 0.  0.
        4    1    3    3  502    0  0.21776559078E+03  0.61488496242E+03  0.55140065407E+03  0.85413679452E+03  0.12699999809E+01 0.  1.
       -4    1    3    3    0  502 -0.21776559078E+03 -0.61488496242E+03 -0.51504421483E+03  0.83113026997E+03  0.12699999809E+01 0. -1.
</event>
<event>
 5   0  0.9312096E-04  0.1674820E+04  0.7818609E-02  0.8775857E-01
       -2   -1    0    0    0  501  0.00000000000E+00  0.00000000000E+00  0.49026106043E+03  0.49026106043E+03  0.25500000920E-02 0.  1.
        2   -1    0    0  501    0  0.00000000000E+00  0.00000000000E+00 -0.14303722634E+04  0.14303722634E+04  0.25500000920E-02 0. -1.
    10030    2    1    2    0    0  0.00000000000E+00  0.00000000000E+00 -0.94011120301E+03  0.19206333239E+04  0.16748203757E+04 0.  0.
        3    1    3    3  502    0  0.14251721942E+03 -0.41140622658E+03  0.35025723370E+03  0.55879010465E+03  0.10100000352E+00 0.  1.
       -3    1    3    3    0  502 -0.14251721942E+03  0.41140622658E+03 -0.12903684367E+04  0.13618432192E+04  0.10100000352E+00 0. -1.
</event>
<event>
 5   0  0.3523125E-04  0.1709451E+04  0.7818609E-02  0.8755993E-01
       -3   -1    0    0    0  501  0.00000000000E+00  0.00000000000E+00  0.12553709409E+04  0.12553709450E+04  0.10100000352E+00 0. -1.
        3   -1    0    0  501    0  0.00000000000E+00  0.00000000000E+00 -0.58194391767E+03  0.58194392643E+03  0.10100000352E+00 0.  1.
    10030    2    1    2    0    0  0.00000000000E+00  0.00000000000E+00  0.67342702325E+03  0.18373148714E+04  0.17094507835E+04 0.  0.
        2    1    3    3  502    0  0.13943189216E+03  0.63784866815E+03 -0.25614599470E+03  0.70135793046E+03  0.25500000920E-02 0.  1.
       -2    1    3    3    0  502 -0.13943189216E+03 -0.63784866815E+03  0.92957301794E+03  0.11359569410E+04  0.25500000920E-02 0. -1.
</event>
<event>
 5   0  0.5009762E-04  0.1539864E+04  0.7818609E-02  0.8858368E-01
       -1   -1    0    0    0  501  0.00000000000E+00  0.00000000000E+00  0.96030412463E+03  0.96030412465E+03  0.50400001928E-02 0.  1.
        1   -1    0    0  501    0  0.00000000000E+00  0.00000000000E+00 -0.61729935752E+03  0.61729935754E+03  0.50400001928E-02 0. -1.
    10030    2    1    2    0    0  0.00000000000E+00  0.00000000000E+00  0.34300476712E+03  0.15776034822E+04  0.15398637851E+04 0.  0.
        3    1    3    3  502    0  0.27981747172E+03 -0.71339133016E+03  0.24796463961E+03  0.80542627230E+03  0.10100000352E+00 0.  1.
       -3    1    3    3    0  502 -0.27981747172E+03  0.71339133016E+03  0.95040127508E+02  0.77217720988E+03  0.10100000352E+00 0. -1.
</event>
<event>
 5   0  0.5009762E-04  0.1734313E+04  0.7818609E-02  0.8742033E-01
       -1   -1    0    0    0  501  0.00000000000E+00  0.00000000000E+00  0.84500551706E+03  0.84500551707E+03  0.50400001928E-02 0.  1.
        1   -1    0    0  501    0  0.00000000000E+00  0.00000000000E+00 -0.88988852058E+03  0.88988852059E+03  0.50400001928E-02 0. -1.
    10030    2    1    2    0    0  0.00000000000E+00  0.00000000000E+00 -0.44883003517E+02  0.17348940377E+04  0.17343133621E+04 0.  0.
        3    1    3    3  502    0 -0.21200360022E+03  0.73373609608E+03 -0.43324493898E+03  0.87807481034E+03  0.10100000352E+00 0. -1.
       -3    1    3    3    0  502  0.21200360022E+03 -0.73373609608E+03  0.38836193547E+03  0.85681922733E+03  0.10100000352E+00 0.  1.
</event>
<event>
 5   0  0.5074133E-04  0.1558076E+04  0.7818609E-02  0.8846726E-01
        1   -1    0    0  501    0  0.00000000000E+00  0.00000000000E+00  0.79649301694E+03  0.79649301695E+03  0.50400001928E-02 0. -1.
       -1   -1    0    0    0  501  0.00000000000E+00  0.00000000000E+00 -0.76196565767E+03  0.76196565769E+03  0.50400001928E-02 0.  1.
    10030    2    1    2    0    0  0.00000000000E+00  0.00000000000E+00  0.34527359266E+02  0.15584586746E+04  0.15580761541E+04 0.  0.
        1    1    3    3  502    0  0.23549478523E+03  0.73768547010E+03  0.10250595403E+03  0.78111786390E+03  0.50400001928E-02 0. -1.
       -1    1    3    3    0  502 -0.23549478523E+03 -0.73768547010E+03 -0.67978594764E+02  0.77734081074E+03  0.50400001928E-02 0.  1.
</event>
<event>
 5   0  0.9312096E-04  0.1616007E+04  0.7818609E-02  0.8810774E-01
       -2   -1    0    0    0  501  0.00000000000E+00  0.00000000000E+00  0.67840109131E+03  0.67840109131E+03  0.25500000920E-02 0.  1.
        2   -1    0    0  501    0  0.00000000000E+00  0.00000000000E+00 -0.96236518125E+03  0.96236518126E+03  0.25500000920E-02 0. -1.
    10030    2    1    2    0    0  0.00000000000E+00  0.00000000000E+00 -0.28396408995E+03  0.16407662726E+04  0.16160069173E+04 0.  0.
        3    1    3    3  502    0 -0.34475710254E+03 -0.26912324298E+03 -0.83179167645E+03  0.93976708969E+03  0.10100000352E+00 0. -1.
       -3    1    3    3    0  502  0.34475710254E+03  0.26912324298E+03  0.54782758650E+03  0.70099918288E+03  0.10100000352E+00 0.  1.
</event>
<event>
 5   0  0.3523125E-04  0.1649826E+04  0.7818609E-02  0.8790509E-01
       -3   -1    0    0    0  501  0.00000000000E+00  0.00000000000E+00  0.97963745217E+03  0.97963745738E+03  0.10100000352E+00 0.  1.
        3   -1    0    0  501    0  0.00000000000E+00  0.00000000000E+00 -0.69462588761E+03  0.69462589495E+03  0.10100000352E+00 0. -1.
    10030    2    1    2    0    0  0.00000000000E+00  0.00000000000E+00  0.28501156456E+03  0.16742633523E+04  0.16498261063E+04 0.  0.
        1    1    3    3  502    0 -0.24553421788E+03  0.25546932846E+03 -0.61346440429E+03  0.70844209735E+03  0.50400001928E-02 0. -1.
       -1    1    3    3    0  502  0.24553421788E+03 -0.25546932846E+03  0.89847596885E+03  0.96582125498E+03  0.50400001928E-02 0.  1.
</event>
<event>
 5   0  0.9312096E-04  0.1743302E+04  0.7818609E-02  0.8737046E-01
        2   -1    0    0  501    0  0.00000000000E+00  0.00000000000E+00  0.24022011890E+04  0.24022011890E+04  0.25500000920E-02 0. -1.
       -2   -1    0    0    0  501  0.00000000000E+00  0.00000000000E+00 -0.31628318542E+03  0.31628318543E+03  0.25500000920E-02 0.  1.
    10030    2    1    2    0    0  0.00000000000E+00  0.00000000000E+00  0.20859180035E+04  0.27184843744E+04  0.17433024340E+04 0.  0.
        3    1    3    3  502    0 -0.79866278444E+03 -0.23397102346E+03  0.63880628830E+03  0.10491321019E+04  0.10100000352E+00 0.  1.
       -3    1    3    3    0  502  0.79866278444E+03  0.23397102346E+03  0.14471117152E+04  0.16693522725E+04  0.10100000352E+00 0. -1.
</event>
<event>
 5   0  0.1007187E-03  0.1657828E+04  0.7818609E-02  0.8785789E-01
        2   -1    0    0  501    0  0.00000000000E+00  0.00000000000E+00  0.72481994422E+03  0.72481994422E+03  0.25500000920E-02 0.  1.
       -2   -1    0    0    0  501  0.00000000000E+00  0.00000000000E+00 -0.94795726003E+03  0.94795726003E+03  0.25500000920E-02 0. -1.
    10030    2    1    2    0    0  0.00000000000E+00  0.00000000000E+00 -0.22313731581E+03  0.16727772043E+04  0.16578278901E+04 0.  0.
        5    1    3    3  502    0  0.11334874425E+02  0.25773833743E+03 -0.90640204201E+03  0.94241407127E+03  0.46999998093E+01 0. -1.
       -5    1    3    3    0  502 -0.11334874425E+02 -0.25773833743E+03  0.68326472620E+03  0.73036313299E+03  0.46999998093E+01 0.  1.
</event>
<event>
 5   0  0.4947006E-04  0.1724725E+04  0.7818609E-02  0.8747387E-01
        1   -1    0    0  501    0  0.00000000000E+00  0.00000000000E+00  0.48355225229E+03  0.48355225231E+03  0.50400001928E-02 0. -1.
       -1   -1    0    0    0  501  0.00000000000E+00  0.00000000000E+00 -0.15379297403E+04  0.15379297403E+04  0.50400001928E-02 0.  1.
    10030    2    1    2    0    0  0.00000000000E+00  0.00000000000E+00 -0.10543774880E+04  0.20214819926E+04  0.17247253576E+04 0.  0.
        2    1    3    3  502    0  0.15677591269E+03 -0.27235060419E+03  0.41405359457E+03  0.51980180606E+03  0.25500000920E-02 0. -1.
       -2    1    3    3    0  502 -0.15677591269E+03  0.27235060419E+03 -0.14684310826E+04  0.15016801866E+04  0.25500000920E-02 0.  1.
</event>
<event>
 5   0  0.5035495E-04  0.1715274E+04  0.7818609E-02  0.8752701E-01
        1   -1    0    0  501    0  0.00000000000E+00  0.00000000000E+00  0.85272842075E+03  0.85272842076E+03  0.50400001928E-02 0.  1.
       -1   -1    0    0    0  501  0.00000000000E+00  0.00000000000E+00 -0.86257365761E+03  0.86257365762E+03  0.50400001928E-02 0. -1.
    10030    2    1    2    0    0  0.00000000000E+00  0.00000000000E+00 -0.98452368633E+01  0.17153020784E+04  0.17152738240E+04 0.  0.
        4    1    3    3  502    0 -0.83283814008E+03 -0.16051150398E+03  0.12218631807E+03  0.85692147814E+03  0.12699999809E+01 0. -1.
       -4    1    3    3    0  502  0.83283814008E+03  0.16051150398E+03 -0.13203155494E+03  0.85838060024E+03  0.12699999809E+01 0.  1.
</event>
<event>
 5   0  0.9610114E-04  0.1783051E+04  0.7818609E-02  0.8715365E-01
        2   -1    0    0  501    0  0.00000000000E+00  0.00000000000E+00  0.16970030889E+04  0.16970030889E+04  0.25500000920E-02 0. -1.
       -2   -1    0    0    0  501  0.00000000000E+00  0.00000000000E+00 -0.46836550693E+03  0.46836550694E+03  0.25500000920E-02 0.  1.
    10030    2    1    2    0    0  0.00000000000E+00  0.00000000000E+00  0.12286375820E+04  0.21653685959E+04  0.17830509942E+04 0.  0.
        2    1    3    3  502    0 -0.27838656311E+03  0.49224532632E+03 -0.22267241777E+03  0.60777260998E+03  0.25500000920E-02 0.  1.
       -2    1    3    3    0  502  0.27838656311E+03 -0.49224532632E+03  0.14513099998E+04  0.15575959859E+04  0.25500000920E-02 0. -1.
</event>
<event>
 5   0  0.9312096E-04  0.1809123E+04  0.7818609E-02  0.8701463E-01
       -2   -1    0    0    0  501  0.00000000000E+00  0.00000000000E+00  0.53538440644E+03  0.53538440644E+03  0.25500000920E-02 0.  1.
        2   -1    0    0  501    0  0.00000000000E+00  0.00000000000E+00 -0.15283060405E+04  0.15283060405E+04  0.25500000920E-02 0. -1.
    10030    2    1    2    0    0  0.00000000000E+00  0.00000000000E+00 -0.99292163403E+03  0.20636904469E+04  0.18091226850E+04 0.  0.
        3    1    3    3  502    0  0.77161061646E+03  0.33666478571E+03 -0.87394059342E+03  0.12134654063E+04  0.10100000352E+00 0. -1.
       -3    1    3    3    0  502 -0.77161061646E+03 -0.33666478571E+03 -0.11898104061E+03  0.85022504056E+03  0.10100000352E+00 0.  1.
</event>
<event>
 5   0  0.5074133E-04  0.1633516E+04  0.7818609E-02  0.8800218E-01
       -1   -1    0    0    0  501  0.00000000000E+00  0.00000000000E+00  0.78854219024E+03  0.78854219025E+03  0.50400001928E-02 0. -1.
        1   -1    0    0  501    0  0.00000000000E+00  0.00000000000E+00 -0.84598389347E+03  0.84598389348E+03  0.50400001928E-02 0.  1.
    10030    2    1    2    0    0  0.00000000000E+00  0.00000000000E+00 -0.57441703227E+02  0.16345260837E+04  0.16335164429E+04 0.  0.
        1    1    3    3  502    0 -0.70641423841E+03 -0.40773985677E+03  0.13980168523E+02  0.81576241159E+03  0.50400001928E-02 0. -1.
       -1    1    3    3    0  502  0.70641423841E+03  0.40773985677E+03 -0.71421871750E+02  0.81876367214E+03  0.50400001928E-02 0.  1.
</event>
<event>
 5   0  0.1007187E-03  0.1211159E+04  0.7818609E-02  0.9103145E-01
       -2   -1    0    0    0  501  0.00000000000E+00  0.00000000000E+00  0.14078622356E+04  0.14078622356E+04  0.25500000920E-02 0.  1.
        2   -1    0    0  501    0  0.00000000000E+00  0.00000000000E+00 -0.26048460243E+03  0.26048460244E+03  0.25500000920E-02 0. -1.
    10030    2    1    2    0    0  0.00000000000E+00  0.00000000000E+00  0.11473776332E+04  0.16683468381E+04  0.12111588413E+04 0.  0.
        5    1    3    3  502    0 -0.40049583575E+03  0.22067691862E+03  0.11205485189E+04  0.12102670325E+04  0.46999998093E+01 0.  1.
       -5    1    3    3    0  502  0.40049583575E+03 -0.22067691862E+03  0.26829114311E+02  0.45807980553E+03  0.46999998093E+01 0. -1.
</event>
<event>
 5   0  0.5035495E-04  0.9145508E+03  0.7818609E-02  0.9407573E-01
        1   -1    0    0  501    0  0.00000000000E+00  0.00000000000E+00  0.52660750783E+03  0.52660750786E+03  0.50400001928E-02 0.  1.
       -1   -1    0    0    0  501  0.00000000000E+00  0.00000000000E+00 -0.39707138115E+03  0.39707138118E+03  0.50400001928E-02 0. -1.
    10030    2    1    2    0    0  0.00000000000E+00  0.00000000000E+00  0.12953612669E+03  0.92367888904E+03  0.91455075416E+03 0.  0.
        4    1    3    3  502    0  0.20058454276E+03 -0.38336506455E+03 -0.84682597518E+02  0.44088058103E+03  0.12699999809E+01 0. -1.
       -4    1    3    3    0  502 -0.20058454276E+03  0.38336506455E+03  0.21421872420E+03  0.48279830800E+03  0.12699999809E+01 0.  1.
</event>
<event>
 5   0  0.5059689E-04  0.1681601E+04  0.7818609E-02  0.8771928E-01
       -1   -1    0    0    0  501  0.00000000000E+00  0.00000000000E+00  0.34660381428E+03  0.34660381432E+03  0.50400001928E-02 0. -1.
        1   -1    0    0  501    0  0.00000000000E+00  0.00000000000E+00 -0.20396362473E+04  0.20396362473E+04  0.50400001928E-02 0.  1.
    10030    2    1    2    0    0  0.00000000000E+00  0.00000000000E+00 -0.16930324330E+04  0.23862400616E+04  0.16816012644E+04 0.  0.
        5    1    3    3  502    0  0.69297294951E+03  0.17446628910E+03 -0.21784717857E+03  0.74708063688E+03  0.46999998093E+01 0. -1.
       -5    1    3    3    0  502 -0.69297294951E+03 -0.17446628910E+03 -0.14751852544E+04  0.16391594247E+04  0.46999998093E+01 0.  1.
</event>
<event>
 5   0  0.9610114E-04  0.1677499E+04  0.7818609E-02  0.8774303E-01
        2   -1    0    0  501    0  0.00000000000E+00  0.00000000000E+00  0.11886660656E+04  0.11886660656E+04  0.25500000920E-02 0. -1.
       -2   -1    0    0    0  501  0.00000000000E+00  0.00000000000E+00 -0.59184052295E+03  0.59184052295E+03  0.25500000920E-02 0.  1.
    10030    2    1    2    0    0  0.00000000000E+00  0.00000000000E+00  0.59682554263E+03  0.17805065885E+04  0.16774990264E+04 0.  0.
        2    1    3    3  502    0  0.80996298412E+03 -0.20757653819E+03  0.22822592917E+03  0.86672667526E+03  0.25500000920E-02 0. -1.
       -2    1    3    3    0  502 -0.80996298412E+03  0.20757653819E+03  0.36859961346E+03  0.91377991327E+03  0.25500000920E-02 0.  1.
</event>
<event>
 5   0  0.5074133E-04  0.1705820E+04  0.7818609E-02  0.8758052E-01
        1   -1    0    0  501    0  0.00000000000E+00  0.00000000000E+00  0.12500322088E+04  0.12500322088E+04  0.50400001928E-02 0. -1.
       -1   -1    0    0    0  501  0.00000000000E+00  0.00000000000E+00 -0.58194926189E+03  0.58194926191E+03  0.50400001928E-02 0.  1.
    10030    2    1    2    0    0  0.00000000000E+00  0.00000000000E+00  0.66808294695E+03  0.18319814708E+04  0.17058198279E+04 0.  0.
        1    1    3    3  502    0  0.32481788945E+03  0.13301443103E+03 -0.50078908929E+03  0.61154657398E+03  0.50400001928E-02 0.  1.
       -1    1    3    3    0  502 -0.32481788945E+03 -0.13301443103E+03  0.11688720362E+04  0.12204348968E+04  0.50400001928E-02 0. -1.
</event>
<event>
 5   0  0.4947006E-04  0.1687932E+04  0.7818609E-02  0.8768277E-01
       -1   -1    0    0    0  501  0.00000000000E+00  0.00000000000E+00  0.40653013611E+03  0.40653013614E+03  0.50400001928E-02 0. -1.
        1   -1    0    0  501    0  0.00000000000E+00  0.00000000000E+00 -0.17520934517E+04  0.17520934517E+04  0.50400001928E-02 0.  1.
    10030    2    1    2    0    0  0.00000000000E+00  0.00000000000E+00 -0.13455633156E+04  0.21586235878E+04  0.16879322136E+04 0.  0.
        2    1    3    3  502    0 -0.20714926050E+03  0.21436295102E+03 -0.16825251494E+04  0.17087285241E+04  0.25500000920E-02 0.  1.
       -2    1    3    3    0  502  0.20714926050E+03 -0.21436295102E+03  0.33696183380E+03  0.44989506370E+03  0.25500000920E-02 0. -1.
</event>
<event>
 5   0  0.1007187E-03  0.8989966E+03  0.7818609E-02  0.9426837E-01
       -2   -1    0    0    0  501  0.00000000000E+00  0.00000000000E+00  0.18141622685E+03  0.18141622686E+03  0.25500000920E-02 0. -1.
        2   -1    0    0  501    0  0.00000000000E+00  0.00000000000E+00 -0.11137301827E+04  0.11137301827E+04  0.25500000920E-02 0.  1.
    10030    2    1    2    0    0  0.00000000000E+00  0.00000000000E+00 -0.93231395586E+03  0.12951464096E+04  0.89899661286E+03 0.  0.
        5    1    3    3  502    0 -0.23803353835E+03  0.37562835883E+03 -0.56029718790E+03  0.71534023940E+03  0.46999998093E+01 0.  1.
       -5    1    3    3    0  502  0.23803353835E+03 -0.37562835883E+03 -0.37201676796E+03  0.57980617017E+03  0.46999998093E+01 0. -1.
</event>
<event>
 5   0  0.9284971E-04  0.1672489E+04  0.7818609E-02  0.8777212E-01
        2   -1    0    0  501    0  0.00000000000E+00  0.00000000000E+00  0.65440254720E+03  0.65440254721E+03  0.25500000920E-02 0. -1.
       -2   -1    0    0    0  501  0.00000000000E+00  0.00000000000E+00 -0.10686159710E+04  0.10686159710E+04  0.25500000920E-02 0.  1.
    10030    2    1    2    0    0  0.00000000000E+00  0.00000000000E+00 -0.41421342381E+03  0.17230185182E+04  0.16724891789E+04 0.  0.
        4    1    3    3  502    0  0.12382362747E+03  0.20317759609E+03 -0.10330065692E+04  0.10600554755E+04  0.12699999809E+01 0.  1.
       -4    1    3    3    0  502 -0.12382362747E+03 -0.20317759609E+03  0.61879314540E+03  0.66296304269E+03  0.12699999809E+01 0. -1.
</event>
<event>
 5   0  0.4947006E-04  0.1721061E+04  0.7818609E-02  0.8749443E-01
       -1   -1    0    0    0  501  0.00000000000E+00  0.00000000000E+00  0.94882203109E+03  0.94882203111E+03  0.50400001928E-02 0.  1.
        1   -1    0    0  501    0  0.00000000000E+00  0.00000000000E+00 -0.78045514003E+03  0.78045514005E+03  0.50400001928E-02 0. -1.
    10030    2    1    2    0    0  0.00000000000E+00  0.00000000000E+00  0.16836689106E+03  0.17292771712E+04  0.17210613367E+04 0.  0.
        2    1    3    3  502    0  0.28272701045E+03 -0.36710119715E+03  0.81277615235E+03  0.93557625303E+03  0.25500000920E-02 0.  1.
       -2    1    3    3    0  502 -0.28272701045E+03  0.36710119715E+03 -0.64440926129E+03  0.79370091813E+03  0.25500000920E-02 0. -1.
</event>
<event>
 5   0  0.5009762E-04  0.1720570E+04  0.7818609E-02  0.8749719E-01
       -1   -1    0    0    0  501  0.00000000000E+00  0.00000000000E+00  0.85146355982E+03  0.85146355984E+03  0.50400001928E-02 0.  1.
        1   -1    0    0  501    0  0.00000000000E+00  0.00000000000E+00 -0.86919807557E+03  0.86919807558E+03  0.50400001928E-02 0. -1.
    10030    2    1    2    0    0  0.00000000000E+00  0.00000000000E+00 -0.17734515748E+02  0.17206616354E+04  0.17205702399E+04 0.  0.
        3    1    3    3  502    0 -0.43927393955E+03  0.70613102434E+03  0.21138944117E+03  0.85806067591E+03  0.10100000352E+00 0.  1.
       -3    1    3    3    0  502  0.43927393955E+03 -0.70613102434E+03 -0.22912395692E+03  0.86260095951E+03  0.10100000352E+00 0. -1.
</event>
<event>
 5   0  0.4947006E-04  0.1763451E+04  0.7818609E-02  0.8725981E-01
       -1   -1    0    0    0  501  0.00000000000E+00  0.00000000000E+00  0.67417899941E+03  0.67417899943E+03  0.50400001928E-02 0.  1.
        1   -1    0    0  501    0  0.00000000000E+00  0.00000000000E+00 -0.11531647172E+04  0.11531647172E+04  0.50400001928E-02 0. -1.
    10030    2    1    2    0    0  0.00000000000E+00  0.00000000000E+00 -0.47898571781E+03  0.18273437167E+04  0.17634505213E+04 0.  0.
        2    1    3    3  502    0  0.21486267989E+03 -0.26574442351E+03 -0.10817482341E+04  0.11344449355E+04  0.25500000920E-02 0. -1.
       -2    1    3    3    0  502 -0.21486267989E+03  0.26574442351E+03  0.60276251627E+03  0.69289878111E+03  0.25500000920E-02 0.  1.
</event>
<event>
 5   0  0.9312096E-04  0.1487899E+04  0.7818609E-02  0.8892540E-01
        2   -1    0    0  501    0  0.00000000000E+00  0.00000000000E+00  0.14242619530E+04  0.14242619530E+04  0.25500000920E-02 0.  1.
       -2   -1    0    0    0  501  0.00000000000E+00  0.00000000000E+00 -0.38859496312E+03  0.38859496313E+03  0.25500000920E-02 0. -1.
    10030    2    1    2    0    0  0.00000000000E+00  0.00000000000E+00  0.10356669899E+04  0.18128569161E+04  0.14878992185E+04 0.  0.
        3    1    3    3  502    0 -0.24034157844E+03 -0.65510748028E+03  0.83210314968E+03  0.10859675626E+04  0.10100000352E+00 0. -1.
       -3    1    3    3    0  502  0.24034157844E+03  0.65510748028E+03  0.20356384017E+03  0.72688935353E+03  0.10100000352E+00 0.  1.
</event>
<event>
 5   0  0.3523125E-04  0.1531880E+04  0.7818609E-02  0.8863526E-01
        3   -1    0    0  501    0  0.00000000000E+00  0.00000000000E+00  0.87990517811E+03  0.87990518391E+03  0.10100000352E+00 0.  1.
       -3   -1    0    0    0  501  0.00000000000E+00  0.00000000000E+00 -0.66673543140E+03  0.66673543905E+03  0.10100000352E+00 0. -1.
    10030    2    1    2    0    0  0.00000000000E+00  0.00000000000E+00  0.21316974671E+03  0.15466406230E+04  0.15318798503E+04 0.  0.
        2    1    3    3  502    0 -0.51961979485E+03  0.36231335103E+03  0.54130108760E+03  0.83323619879E+03  0.25500000920E-02 0.  1.
       -2    1    3    3    0  502  0.51961979485E+03 -0.36231335103E+03 -0.32813134089E+03  0.71340442416E+03  0.25500000920E-02 0. -1.
</event>
<event>
 5   0  0.5035495E-04  0.1708319E+04  0.7818609E-02  0.8756634E-01
       -1   -1    0    0    0  501  0.00000000000E+00  0.00000000000E+00  0.57976190265E+03  0.57976190268E+03  0.50400001928E-02 0. -1.
        1   -1    0    0  501    0  0.00000000000E+00  0.00000000000E+00 -0.12584280082E+04  0.12584280082E+04  0.50400001928E-02 0.  1.
    10030    2    1    2    0    0  0.00000000000E+00  0.00000000000E+00 -0.67866610550E+03  0.18381899108E+04  0.17083191931E+04 0.  0.
        4    1    3    3  502    0 -0.70762843330E+03 -0.35056981635E+03  0.10911544165E+02  0.78978343262E+03  0.12699999809E+01 0.  1.
       -4    1    3    3    0  502  0.70762843330E+03  0.35056981635E+03 -0.68957764966E+03  0.10484064782E+04  0.12699999809E+01 0. -1.
</event>
<event>
 5   0  0.5009762E-04  0.1737767E+04  0.7818609E-02  0.8740113E-01
       -1   -1    0    0    0  501  0.00000000000E+00  0.00000000000E+00  0.73718680077E+03  0.73718680079E+03  0.50400001928E-02 0.  1.
        1   -1    0    0  501    0  0.00000000000E+00  0.00000000000E+00 -0.10241072657E+04  0.10241072657E+04  0.50400001928E-02 0. -1.
    10030    2    1    2    0    0  0.00000000000E+00  0.00000000000E+00 -0.28692046490E+03  0.17612940665E+04  0.17377667955E+04 0.  0.
        3    1    3    3  502    0 -0.35645320035E+03 -0.59108449338E+03  0.39143344989E+03  0.79351113303E+03  0.10100000352E+00 0.  1.
       -3    1    3    3    0  502  0.35645320035E+03  0.59108449338E+03 -0.67835391478E+03  0.96778293344E+03  0.10100000352E+00 0. -1.
</event>
<event>
 5   0  0.9625225E-04  0.1068831E+04  0.7818609E-02  0.9236115E-01
        2   -1    0    0  501    0  0.00000000000E+00  0.00000000000E+00  0.10277534648E+04  0.10277534648E+04  0.25500000920E-02 0.  1.
       -2   -1    0    0    0  501  0.00000000000E+00  0.00000000000E+00 -0.27788761819E+03  0.27788761820E+03  0.25500000920E-02 0. -1.
    10030    2    1    2    0    0  0.00000000000E+00  0.00000000000E+00  0.74986584661E+03  0.13056410830E+04  0.10688310670E+04 0.  0.
        1    1    3    3  502    0  0.32682147980E+03 -0.99731706853E+02  0.87687550801E+03  0.94110007416E+03  0.50400001928E-02 0.  1.
       -1    1    3    3    0  502 -0.32682147980E+03  0.99731706853E+02 -0.12700966140E+03  0.36454100884E+03  0.50400001928E-02 0. -1.
</event>
<event>
 5   0  0.5074133E-04  0.1197466E+04  0.7818609E-02  0.9115077E-01
       -1   -1    0    0    0  501  0.00000000000E+00  0.00000000000E+00  0.12926048123E+04  0.12926048123E+04  0.50400001928E-02 0. -1.
        1   -1    0    0  501    0  0.00000000000E+00  0.00000000000E+00 -0.27733256634E+03  0.27733256638E+03  0.50400001928E-02 0.  1.
    10030    2    1    2    0    0  0.00000000000E+00  0.00000000000E+00  0.10152722459E+04  0.15699373787E+04  0.11974663417E+04 0.  0.
        1    1    3    3  502    0  0.32129137193E+03 -0.45902405788E+03  0.23091409058E+03  0.60601365384E+03  0.50400001928E-02 0.  1.
       -1    1    3    3    0  502 -0.32129137193E+03  0.45902405788E+03  0.78435815535E+03  0.96392372483E+03  0.50400001928E-02 0. -1.
</event>
<event>
 5   0  0.9312096E-04  0.1684042E+04  0.7818609E-02  0.8770519E-01
       -2   -1    0    0    0  501  0.00000000000E+00  0.00000000000E+00  0.35376779535E+03  0.35376779536E+03  0.25500000920E-02 0.  1.
        2   -1    0    0  501    0  0.00000000000E+00  0.00000000000E+00 -0.20041372257E+04  0.20041372257E+04  0.25500000920E-02 0. -1.
    10030    2    1    2    0    0  0.00000000000E+00  0.00000000000E+00 -0.16503694303E+04  0.23579050210E+04  0.16840418141E+04 0.  0.
        3    1    3    3  502    0 -0.13974233257E+03  0.61306941931E+03 -0.16092881370E+04  0.17277703408E+04  0.10100000352E+00 0. -1.
       -3    1    3    3    0  502  0.13974233257E+03 -0.61306941931E+03 -0.41081293347E+02  0.63013468026E+03  0.10100000352E+00 0.  1.
</event>
<event>
 5   0  0.9312096E-04  0.1436761E+04  0.7818609E-02  0.8927630E-01
       -2   -1    0    0    0  501  0.00000000000E+00  0.00000000000E+00  0.28868006746E+03  0.28868006747E+03  0.25500000920E-02 0.  1.
        2   -1    0    0  501    0  0.00000000000E+00  0.00000000000E+00 -0.17876911028E+04  0.17876911028E+04  0.25500000920E-02 0. -1.
    10030    2    1    2    0    0  0.00000000000E+00  0.00000000000E+00 -0.14990110354E+04  0.20763711703E+04  0.14367613416E+04 0.  0.
        3    1    3    3  502    0  0.29529263921E+03  0.30729966535E+03  0.86250344716E+02  0.43482175573E+03  0.10100000352E+00 0.  1.
       -3    1    3    3    0  502 -0.29529263921E+03 -0.30729966535E+03 -0.15852613801E+04  0.16415494146E+04  0.10100000352E+00 0. -1.
</event>
<event>
 5   0  0.9284971E-04  0.1752117E+04  0.7818609E-02  0.8732186E-01
       -2   -1    0    0    0  501  0.00000000000E+00  0.00000000000E+00  0.31853337418E+03  0.31853337419E+03  0.25500000920E-02 0. -1.
        2   -1    0    0  501    0  0.00000000000E+00  0.00000000000E+00 -0.24094127763E+04  0.24094127763E+04  0.25500000920E-02 0.  1.
    10030    2    1    2    0    0  0.00000000000E+00  0.00000000000E+00 -0.20908794022E+04  0.27279461505E+04  0.17521168699E+04 0.  0.
        4    1    3    3  502    0 -0.14760010702E+03 -0.62881526358E+03 -0.12396833619E+03  0.65769612176E+03  0.12699999809E+01 0. -1.
       -4    1    3    3    0  502  0.14760010702E+03  0.62881526358E+03 -0.19669110660E+04  0.20702500288E+04  0.12699999809E+01 0.  1.
</event>
<event>
 5   0  0.5009762E-04  0.1710178E+04  0.7818609E-02  0.8755581E-01
       -1   -1    0    0    0  501  0.00000000000E+00  0.00000000000E+00  0.73482216585E+03  0.73482216587E+03  0.50400001928E-02 0. -1.
        1   -1    0    0  501    0  0.00000000000E+00  0.00000000000E+00 -0.99503960328E+03  0.99503960329E+03  0.50400001928E-02 0.  1.
    10030    2    1    2    0    0  0.00000000000E+00  0.00000000000E+00 -0.26021743743E+03  0.17298617692E+04  0.17101779515E+04 0.  0.
        3    1    3    3  502    0  0.12396315099E+03  0.73371850370E+03  0.29600885044E+03  0.80083141498E+03  0.10100000352E+00 0. -1.
       -3    1    3    3    0  502 -0.12396315099E+03 -0.73371850370E+03 -0.55622628787E+03  0.92903035418E+03  0.10100000352E+00 0.  1.
</event>
<event>
 5   0  0.9284971E-04  0.1711145E+04  0.7818609E-02  0.8755034E-01
       -2   -1    0    0    0  501  0.00000000000E+00  0.00000000000E+00  0.43740958808E+03  0.43740958809E+03  0.25500000920E-02 0.  1.
        2   -1    0    0  501    0  0.00000000000E+00  0.00000000000E+00 -0.16734977589E+04  0.16734977589E+04  0.25500000920E-02 0. -1.
    10030    2    1    2    0    0  0.00000000000E+00  0.00000000000E+00 -0.12360881708E+04  0.21109073470E+04  0.17111446057E+04 0.  0.
        4    1    3    3  502    0  0.10954142081E+03  0.84852992263E+03 -0.61804420004E+03  0.10554537406E+04  0.12699999809E+01 0.  1.
       -4    1    3    3    0  502 -0.10954142081E+03 -0.84852992263E+03 -0.61804397074E+03  0.10554536063E+04  0.12699999809E+01 0. -1.
</event>
<event>
 5   0  0.5059689E-04  0.1666451E+04  0.7818609E-02  0.8780733E-01
       -1   -1    0    0    0  501  0.00000000000E+00  0.00000000000E+00  0.12176497870E+04  0.12176497870E+04  0.50400001928E-02 0.  1.
        1   -1    0    0  501    0  0.00000000000E+00  0.00000000000E+00 -0.57016799369E+03  0.57016799371E+03  0.50400001928E-02 0. -1.
    10030    2    1    2    0    0  0.00000000000E+00  0.00000000000E+00  0.64748179327E+03  0.17878177807E+04  0.16664512427E+04 0.  0.
        5    1    3    3  502    0  0.41475536305E+03 -0.58334124902E+03 -0.13386052221E+03  0.72818250006E+03  0.46999998093E+01 0. -1.
       -5    1    3    3    0  502 -0.41475536305E+03  0.58334124902E+03  0.78134231548E+03  0.10596352806E+04  0.46999998093E+01 0.  1.
</event>
<event>
 5   0  0.9625225E-04  0.1214507E+04  0.7818609E-02  0.9100253E-01
       -2   -1    0    0    0  501  0.00000000000E+00  0.00000000000E+00  0.61675716812E+03  0.61675716812E+03  0.25500000920E-02 0. -1.
        2   -1    0    0  501    0  0.00000000000E+00  0.00000000000E+00 -0.59789583744E+03  0.59789583744E+03  0.25500000920E-02 0.  1.
    10030    2    1    2    0    0  0.00000000000E+00  0.00000000000E+00  0.18861330678E+02  0.12146530056E+04  0.12145065558E+04 0.  0.
        1    1    3    3  502    0  0.36705394871E+03  0.47816883706E+03  0.82805072799E+02  0.60846587259E+03  0.50400001928E-02 0.  1.
       -1    1    3    3    0  502 -0.36705394871E+03 -0.47816883706E+03 -0.63943742121E+02  0.60618713298E+03  0.50400001928E-02 0. -1.
</event>
<event>
 5   0  0.4947006E-04  0.1749210E+04  0.7818609E-02  0.8733785E-01
        1   -1    0    0  501    0  0.00000000000E+00  0.00000000000E+00  0.10952205659E+04  0.10952205659E+04  0.50400001928E-02 0.  1.
       -1   -1    0    0    0  501  0.00000000000E+00  0.00000000000E+00 -0.69842877550E+03  0.69842877552E+03  0.50400001928E-02 0. -1.
    10030    2    1    2    0    0  0.00000000000E+00  0.00000000000E+00  0.39679179038E+03  0.17936493414E+04  0.17492096029E+04 0.  0.
        2    1    3    3  502    0  0.40286976437E+03  0.38742555263E+03 -0.49139877521E+03  0.74422803102E+03  0.25500000920E-02 0. -1.
       -2    1    3    3    0  502 -0.40286976437E+03 -0.38742555263E+03  0.88819056559E+03  0.10494213104E+04  0.25500000920E-02 0.  1.
</event>
<event>
 5   0  0.1007187E-03  0.1660485E+04  0.7818609E-02  0.8784228E-01
       -2   -1    0    0    0  501  0.00000000000E+00  0.00000000000E+00  0.55295198732E+03  0.55295198732E+03  0.25500000920E-02 0.  1.
        2   -1    0    0  501    0  0.00000000000E+00  0.00000000000E+00 -0.12465865492E+04  0.12465865492E+04  0.25500000920E-02 0. -1.
    10030    2    1    2    0    0  0.00000000000E+00  0.00000000000E+00 -0.69363456186E+03  0.17995385365E+04  0.16604848807E+04 0.  0.
        5    1    3    3  502    0  0.75865775636E+03 -0.25166170727E+03 -0.10355331788E+03  0.80600284480E+03  0.46999998093E+01 0.  1.
       -5    1    3    3    0  502 -0.75865775636E+03  0.25166170727E+03 -0.59008124398E+03  0.99353569170E+03  0.46999998093E+01 0. -1.
</event>
<event>
 5   0  0.5009762E-04  0.1887024E+04  0.7818609E-02  0.8661343E-01
        1   -1    0    0  501    0  0.00000000000E+00  0.00000000000E+00  0.76310575937E+03  0.76310575938E+03  0.50400001928E-02 0. -1.
       -1   -1    0    0    0  501  0.00000000000E+00  0.00000000000E+00 -0.11665678668E+04  0.11665678668E+04  0.50400001928E-02 0.  1.
    10030    2    1    2    0    0  0.00000000000E+00  0.00000000000E+00 -0.40346210745E+03  0.19296736262E+04  0.18870237496E+04 0.  0.
        3    1    3    3  502    0  0.34950733284E+03 -0.15874505634E+03  0.67964200536E+03  0.78055661824E+03  0.10100000352E+00 0. -1.
       -3    1    3    3    0  502 -0.34950733284E+03  0.15874505634E+03 -0.10831041128E+04  0.11491170080E+04  0.10100000352E+00 0.  1.
</event>
<event>
 5   0  0.5009762E-04  0.1686699E+04  0.7818609E-02  0.8768987E-01
       -1   -1    0    0    0  501  0.00000000000E+00  0.00000000000E+00  0.79838102332E+03  0.79838102333E+03  0.50400001928E-02 0.  1.
        1   -1    0    0  501    0  0.00000000000E+00  0.00000000000E+00 -0.89085081541E+03  0.89085081543E+03  0.50400001928E-02 0. -1.
    10030    2    1    2    0    0  0.00000000000E+00  0.00000000000E+00 -0.92469792098E+02  0.16892318388E+04  0.16866990077E+04 0.  0.
        3    1    3    3  502    0  0.36980820997E+03  0.12356440776E+03  0.70269289939E+03  0.80361906155E+03  0.10100000352E+00 0.  1.
       -3    1    3    3    0  502 -0.36980820997E+03 -0.12356440776E+03 -0.79516269149E+03  0.88561277721E+03  0.10100000352E+00 0. -1.
</event>
<event>
 5   0  0.3523125E-04  0.1651872E+04  0.7818609E-02  0.8789300E-01
       -3   -1    0    0    0  501  0.00000000000E+00  0.00000000000E+00  0.73793362673E+03  0.73793363364E+03  0.10100000352E+00 0. -1.
        3   -1    0    0  501    0  0.00000000000E+00  0.00000000000E+00 -0.92443284401E+03  0.92443284953E+03  0.10100000352E+00 0.  1.
    10030    2    1    2    0    0  0.00000000000E+00  0.00000000000E+00 -0.18649921728E+03  0.16623664832E+04  0.16518717766E+04 0.  0.
        3    1    3    3  502    0 -0.31825104118E+03  0.18171621848E+03  0.65163233370E+03  0.74761568857E+03  0.10100000352E+00 0. -1.
       -3    1    3    3    0  502  0.31825104118E+03 -0.18171621848E+03 -0.83813155099E+03  0.91475079460E+03  0.10100000352E+00 0.  1.
</event>
<event>
 5   0  0.5009762E-04  0.1599160E+04  0.7818609E-02  0.8821064E-01
       -1   -1    0    0    0  501  0.00000000000E+00  0.00000000000E+00  0.47917487079E+03  0.47917487081E+03  0.50400001928E-02 0. -1.
        1   -1    0    0  501    0  0.00000000000E+00  0.00000000000E+00 -0.13342269125E+04  0.13342269125E+04  0.50400001928E-02 0.  1.
    10030    2    1    2    0    0  0.00000000000E+00  0.00000000000E+00 -0.85505204169E+03  0.18134017833E+04  0.15991597899E+04 0.  0.
        3    1    3    3  502    0 -0.48112154294E+03 -0.62144907729E+03 -0.59438216184E+03  0.98537660783E+03  0.10100000352E+00 0.  1.
       -3    1    3    3    0  502  0.48112154294E+03  0.62144907729E+03 -0.26066987985E+03  0.82802517547E+03  0.10100000352E+00 0. -1.
</event>
<event>
 5   0  0.4947006E-04  0.1707016E+04  0.7818609E-02  0.8757373E-01
        1   -1    0    0  501    0  0.00000000000E+00  0.00000000000E+00  0.17695477550E+04  0.17695477550E+04  0.50400001928E-02 0. -1.
       -1   -1    0    0    0  501  0.00000000000E+00  0.00000000000E+00 -0.41167339258E+03  0.41167339262E+03  0.50400001928E-02 0.  1.
    10030    2    1    2    0    0  0.00000000000E+00  0.00000000000E+00  0.13578743624E+04  0.21812211476E+04  0.17070157910E+04 0.  0.
        2    1    3    3  502    0 -0.59355970673E+03  0.43348949037E+03  0.12452975989E+03  0.74547563664E+03  0.25500000920E-02 0.  1.
       -2    1    3    3    0  502  0.59355970673E+03 -0.43348949037E+03  0.12333446025E+04  0.14357455110E+04  0.25500000920E-02 0. -1.
</event>
<event>
 5   0  0.5059689E-04  0.1694026E+04  0.7818609E-02  0.8764779E-01
       -1   -1    0    0    0  501  0.00000000000E+00  0.00000000000E+00  0.89214482152E+03  0.89214482153E+03  0.50400001928E-02 0.  1.
        1   -1    0    0  501    0  0.00000000000E+00  0.00000000000E+00 -0.80416386681E+03  0.80416386682E+03  0.50400001928E-02 0. -1.
    10030    2    1    2    0    0  0.00000000000E+00  0.00000000000E+00  0.87980954711E+02  0.16963086884E+04  0.16940255363E+04 0.  0.
        5    1    3    3  502    0 -0.13410622217E+03 -0.10615731046E+03 -0.78667845831E+03  0.80507076717E+03  0.46999998093E+01 0. -1.
       -5    1    3    3    0  502  0.13410622217E+03  0.10615731046E+03  0.87465941302E+03  0.89123792119E+03  0.46999998093E+01 0.  1.
</event>
<event>
 5   0  0.1007187E-03  0.1859858E+04  0.7818609E-02  0.8675100E-01
       -2   -1    0    0    0  501  0.00000000000E+00  0.00000000000E+00  0.88177164469E+03  0.88177164469E+03  0.25500000920E-02 0.  1.
        2   -1    0    0  501    0  0.00000000000E+00  0.00000000000E+00 -0.98071619110E+03  0.98071619110E+03  0.25500000920E-02 0. -1.
    10030    2    1    2    0    0  0.00000000000E+00  0.00000000000E+00 -0.98944546408E+02  0.18624878358E+04  0.18598577675E+04 0.  0.
        5    1    3    3  502    0 -0.11683044405E+03  0.12749168277E+03 -0.96446132562E+03  0.97985265242E+03  0.46999998093E+01 0. -1.
       -5    1    3    3    0  502  0.11683044405E+03 -0.12749168277E+03  0.86551677921E+03  0.88263518338E+03  0.46999998093E+01 0.  1.
</event>
<event>
 5   0  0.3523125E-04  0.1649451E+04  0.7818609E-02  0.8790732E-01
       -3   -1    0    0    0  501  0.00000000000E+00  0.00000000000E+00  0.45891187708E+03  0.45891188820E+03  0.10100000352E+00 0.  1.
        3   -1    0    0  501    0  0.00000000000E+00  0.00000000000E+00 -0.14821404555E+04  0.14821404590E+04  0.10100000352E+00 0. -1.
    10030    2    1    2    0    0  0.00000000000E+00  0.00000000000E+00 -0.10232285785E+04  0.19410523472E+04  0.16494506633E+04 0.  0.
        2    1    3    3  502    0 -0.56340625451E+03 -0.63212179902E+02 -0.12164591885E+04  0.13420861912E+04  0.25500000920E-02 0. -1.
       -2    1    3    3    0  502  0.56340625451E+03  0.63212179902E+02  0.19323061007E+03  0.59896615596E+03  0.25500000920E-02 0.  1.
</event>
<event>
 5   0  0.9625225E-04  0.1660712E+04  0.7818609E-02  0.8784094E-01
       -2   -1    0    0    0  501  0.00000000000E+00  0.00000000000E+00  0.10766228679E+04  0.10766228679E+04  0.25500000920E-02 0. -1.
        2   -1    0    0  501    0  0.00000000000E+00  0.00000000000E+00 -0.64042052870E+03  0.64042052870E+03  0.25500000920E-02 0.  1.
    10030    2    1    2    0    0  0.00000000000E+00  0.00000000000E+00  0.43620233921E+03  0.17170433966E+04  0.16607123607E+04 0.  0.
        1    1    3    3  502    0 -0.81966202524E+03 -0.95874842042E+02  0.31316313945E+03  0.88267149773E+03  0.50400001928E-02 0. -1.
       -1    1    3    3    0  502  0.81966202524E+03  0.95874842042E+02  0.12303919976E+03  0.83437189889E+03  0.50400001928E-02 0.  1.
</event>
<event>
 5   0  0.5074133E-04  0.1650026E+04  0.7818609E-02  0.8790391E-01
       -1   -1    0    0    0  501  0.00000000000E+00  0.00000000000E+00  0.54742353922E+03  0.54742353924E+03  0.50400001928E-02 0.  1.
        1   -1    0    0  501    0  0.00000000000E+00  0.00000000000E+00 -0.12433641911E+04  0.12433641911E+04  0.50400001928E-02 0. -1.
    10030    2    1    2    0    0  0.00000000000E+00  0.00000000000E+00 -0.69594065188E+03  0.17907877304E+04  0.16500264556E+04 0.  0.
        1    1    3    3  502    0  0.18495825016E+03 -0.73482866889E+03  0.61532119141E+01  0.75777344172E+03  0.50400001928E-02 0.  1.
       -1    1    3    3    0  502 -0.18495825016E+03  0.73482866889E+03 -0.70209386379E+03  0.10330142886E+04  0.50400001928E-02 0. -1.
</event>
<event>
 5   0  0.9284971E-04  0.1623061E+04  0.7818609E-02  0.8806505E-01
        2   -1    0    0  501    0  0.00000000000E+00  0.00000000000E+00  0.14293401673E+04  0.14293401673E+04  0.25500000920E-02 0.  1.
       -2   -1    0    0    0  501  0.00000000000E+00  0.00000000000E+00 -0.46075915566E+03  0.46075915566E+03  0.25500000920E-02 0. -1.
    10030    2    1    2    0    0  0.00000000000E+00  0.00000000000E+00  0.96858101166E+03  0.18900993230E+04  0.16230607735E+04 0.  0.
        4    1    3    3  502    0 -0.37608377685E+03 -0.43109732748E+03 -0.18599213027E+03  0.60156346165E+03  0.12699999809E+01 0. -1.
       -4    1    3    3    0  502  0.37608377685E+03  0.43109732748E+03  0.11545731419E+04  0.12885358613E+04  0.12699999809E+01 0.  1.
</event>
<event>
 5   0  0.9312096E-04  0.1604285E+04  0.7818609E-02  0.8817920E-01
       -2   -1    0    0    0  501  0.00000000000E+00  0.00000000000E+00  0.97445472759E+03  0.97445472759E+03  0.25500000920E-02 0.  1.
        2   -1    0    0  501    0  0.00000000000E+00  0.00000000000E+00 -0.66030013952E+03  0.66030013953E+03  0.25500000920E-02 0. -1.
    10030    2    1    2    0    0  0.00000000000E+00  0.00000000000E+00  0.31415458806E+03  0.16347548671E+04  0.16042850028E+04 0.  0.
        3    1    3    3  502    0 -0.51368002318E+03  0.14629244131E+03  0.76691186923E+03  0.93457074101E+03  0.10100000352E+00 0.  1.
       -3    1    3    3    0  502  0.51368002318E+03 -0.14629244131E+03 -0.45275728116E+03  0.70018412610E+03  0.10100000352E+00 0. -1.
</event>
<event>
 5   0  0.5009762E-04  0.1721777E+04  0.7818609E-02  0.8749041E-01
       -1   -1    0    0    0  501  0.00000000000E+00  0.00000000000E+00  0.84064714940E+03  0.84064714941E+03  0.50400001928E-02 0. -1.
        1   -1    0    0  501    0  0.00000000000E+00  0.00000000000E+00 -0.88161741672E+03  0.88161741674E+03  0.50400001928E-02 0.  1.
    10030    2    1    2    0    0  0.00000000000E+00  0.00000000000E+00 -0.40970267327E+02  0.17222645662E+04  0.17217771845E+04 0.  0.
        3    1    3    3  502    0  0.22118550571E+03 -0.77420736409E+02 -0.84909885874E+03  0.88084384569E+03  0.10100000352E+00 0.  1.
       -3    1    3    3    0  502 -0.22118550571E+03  0.77420736409E+02  0.80812859142E+03  0.84142072046E+03  0.10100000352E+00 0. -1.
</event>
<event>
 5   0  0.5059689E-04  0.1757731E+04  0.7818609E-02  0.8729106E-01
        1   -1    0    0  501    0  0.00000000000E+00  0.00000000000E+00  0.49754546866E+03  0.49754546869E+03  0.50400001928E-02 0. -1.
       -1   -1    0    0    0  501  0.00000000000E+00  0.00000000000E+00 -0.15524302450E+04  0.15524302450E+04  0.50400001928E-02 0.  1.
    10030    2    1    2    0    0  0.00000000000E+00  0.00000000000E+00 -0.10548847764E+04  0.20499757137E+04  0.17577310760E+04 0.  0.
        5    1    3    3  502    0 -0.20853348641E+03  0.14831068566E+03 -0.15080050649E+04  0.15295697565E+04  0.46999998093E+01 0.  1.
       -5    1    3    3    0  502  0.20853348641E+03 -0.14831068566E+03  0.45312028850E+03  0.52040595720E+03  0.46999998093E+01 0. -1.
</event>
<event>
 5   0  0.3523125E-04  0.1967973E+04  0.7818609E-02  0.8621742E-01
       -3   -1    0    0    0  501  0.00000000000E+00  0.00000000000E+00  0.14078225726E+04  0.14078225762E+04  0.10100000352E+00 0.  1.
        3   -1    0    0  501    0  0.00000000000E+00  0.00000000000E+00 -0.68774963136E+03  0.68774963877E+03  0.10100000352E+00 0. -1.
    10030    2    1    2    0    0  0.00000000000E+00  0.00000000000E+00  0.72007294120E+03  0.20955722150E+04  0.19679730352E+04 0.  0.
        5    1    3    3  502    0  0.40788338238E+03 -0.73764856178E+03  0.90060623974E+03  0.12335347354E+04  0.46999998093E+01 0.  1.
       -5    1    3    3    0  502 -0.40788338238E+03  0.73764856178E+03 -0.18053329854E+03  0.86203747958E+03  0.46999998093E+01 0. -1.
</event>
<event>
 5   0  0.5035495E-04  0.1178779E+04  0.7818609E-02  0.9131637E-01
       -1   -1    0    0    0  501  0.00000000000E+00  0.00000000000E+00  0.30266190331E+03  0.30266190336E+03  0.50400001928E-02 0.  1.
        1   -1    0    0  501    0  0.00000000000E+00  0.00000000000E+00 -0.11477495873E+04  0.11477495873E+04  0.50400001928E-02 0. -1.
    10030    2    1    2    0    0  0.00000000000E+00  0.00000000000E+00 -0.84508768396E+03  0.14504114906E+04  0.11787791560E+04 0.  0.
        4    1    3    3  502    0 -0.53929217106E+03 -0.54090684057E+02 -0.13763332847E+03  0.55920156820E+03  0.12699999809E+01 0.  1.
       -4    1    3    3    0  502  0.53929217106E+03  0.54090684057E+02 -0.70745435549E+03  0.89120992245E+03  0.12699999809E+01 0. -1.
</event>
<event>
 5   0  0.9312096E-04  0.1604065E+04  0.7818609E-02  0.8818054E-01
        2   -1    0    0  501    0  0.00000000000E+00  0.00000000000E+00  0.89590818637E+03  0.89590818637E+03  0.25500000920E-02 0. -1.
       -2   -1    0    0    0  501  0.00000000000E+00  0.00000000000E+00 -0.71799371793E+03  0.71799371793E+03  0.25500000920E-02 0.  1.
    10030    2    1    2    0    0  0.00000000000E+00  0.00000000000E+00  0.17791446844E+03  0.16139019043E+04  0.16040653972E+04 0.  0.
        3    1    3    3  502    0 -0.45657450546E+03 -0.20100908842E+03 -0.54289982316E+03  0.73729584350E+03  0.10100000352E+00 0.  1.
       -3    1    3    3    0  502  0.45657450546E+03  0.20100908842E+03  0.72081429159E+03  0.87660606080E+03  0.10100000352E+00 0. -1.
</event>
<event>
 5   0  0.9610114E-04  0.1681662E+04  0.7818609E-02  0.8771893E-01
       -2   -1    0    0    0  501  0.00000000000E+00  0.00000000000E+00  0.57460533801E+03  0.57460533801E+03  0.25500000920E-02 0.  1.
        2   -1    0    0  501    0  0.00000000000E+00  0.00000000000E+00 -0.12304041736E+04  0.12304041736E+04  0.25500000920E-02 0. -1.
    10030    2    1    2    0    0  0.00000000000E+00  0.00000000000E+00 -0.65579883558E+03  0.18050095116E+04  0.16816620422E+04 0.  0.
        2    1    3    3  502    0  0.75034101057E+03 -0.28448998613E+03 -0.59741598089E+03  0.10004259286E+04  0.25500000920E-02 0. -1.
       -2    1    3    3    0  502 -0.75034101057E+03  0.28448998613E+03 -0.58382854691E+02  0.80458358303E+03  0.25500000920E-02 0.  1.
</event>
<event>
 5   0  0.9312096E-04  0.1737379E+04  0.7818609E-02  0.8740328E-01
       -2   -1    0    0    0  501  0.00000000000E+00  0.00000000000E+00  0.59755558575E+03  0.59755558576E+03  0.25500000920E-02 0.  1.
        2   -1    0    0  501    0  0.00000000000E+00  0.00000000000E+00 -0.12628475673E+04  0.12628475673E+04  0.25500000920E-02 0. -1.
    10030    2    1    2    0    0  0.00000000000E+00  0.00000000000E+00 -0.66529198155E+03  0.18604031531E+04  0.17373791962E+04 0.  0.
        3    1    3    3  502    0 -0.36767795140E+03  0.83888650092E+02  0.50532514115E+03  0.63053777844E+03  0.10100000352E+00 0.  1.
       -3    1    3    3    0  502  0.36767795140E+03 -0.83888650092E+02 -0.11706171227E+04  0.12298653746E+04  0.10100000352E+00 0. -1.
</event>
<event>
 5   0  0.9610114E-04  0.1702332E+04  0.7818609E-02  0.8760036E-01
        2   -1    0    0  501    0  0.00000000000E+00  0.00000000000E+00  0.21308183580E+04  0.21308183580E+04  0.25500000920E-02 0.  1.
       -2   -1    0    0    0  501  0.00000000000E+00  0.00000000000E+00 -0.34000237621E+03  0.34000237622E+03  0.25500000920E-02 0. -1.
    10030    2    1    2    0    0  0.00000000000E+00  0.00000000000E+00  0.17908159818E+04  0.24708207342E+04  0.17023317009E+04 0.  0.
        2    1    3    3  502    0  0.23703659744E+03 -0.26518583016E+03  0.20177830172E+04  0.20488919390E+04  0.25500000920E-02 0.  1.
       -2    1    3    3    0  502 -0.23703659744E+03  0.26518583016E+03 -0.22696703545E+03  0.42192879521E+03  0.25500000920E-02 0. -1.
</event>
<event>
 5   0  0.9312096E-04  0.1691525E+04  0.7818609E-02  0.8766213E-01
        2   -1    0    0  501    0  0.00000000000E+00  0.00000000000E+00  0.61803353228E+03  0.61803353228E+03  0.25500000920E-02 0. -1.
       -2   -1    0    0    0  501  0.00000000000E+00  0.00000000000E+00 -0.11574038297E+04  0.11574038297E+04  0.25500000920E-02 0.  1.
    10030    2    1    2    0    0  0.00000000000E+00  0.00000000000E+00 -0.53937029739E+03  0.17754373620E+04  0.16915252019E+04 0.  0.
        3    1    3    3  502    0 -0.48843619583E+03 -0.38555256253E+03  0.33152431552E+03  0.70507381022E+03  0.10100000352E+00 0. -1.
       -3    1    3    3    0  502  0.48843619583E+03  0.38555256253E+03 -0.87089461291E+03  0.10703635517E+04  0.10100000352E+00 0.  1.
</event>
<event>
 5   0  0.1007187E-03  0.1289392E+04  0.7818609E-02  0.9038020E-01
       -2   -1    0    0    0  501  0.00000000000E+00  0.00000000000E+00  0.19502881466E+03  0.19502881468E+03  0.25500000920E-02 0. -1.
        2   -1    0    0  501    0  0.00000000000E+00  0.00000000000E+00 -0.21311346572E+04  0.21311346572E+04  0.25500000920E-02 0.  1.
    10030    2    1    2    0    0  0.00000000000E+00  0.00000000000E+00 -0.19361058425E+04  0.23261634719E+04  0.12893915869E+04 0.  0.
        5    1    3    3  502    0 -0.21617123178E+03  0.40767516240E+03 -0.15585384060E+03  0.48707448005E+03  0.46999998093E+01 0. -1.
       -5    1    3    3    0  502  0.21617123178E+03 -0.40767516240E+03 -0.17802520019E+04  0.18390889918E+04  0.46999998093E+01 0.  1.
</event>
<event>
 5   0  0.9284971E-04  0.1683551E+04  0.7818609E-02  0.8770802E-01
       -2   -1    0    0    0  501  0.00000000000E+00  0.00000000000E+00  0.86252759028E+03  0.86252759028E+03  0.25500000920E-02 0.  1.
        2   -1    0    0  501    0  0.00000000000E+00  0.00000000000E+00 -0.82152307979E+03  0.82152307980E+03  0.25500000920E-02 0. -1.
    10030    2    1    2    0    0  0.00000000000E+00  0.00000000000E+00  0.41004510485E+02  0.16840506701E+04  0.16835513920E+04 0.  0.
        4    1    3    3  502    0 -0.37364543148E+03 -0.64463261862E+03  0.41231037189E+03  0.85156536867E+03  0.12699999809E+01 0.  1.
       -4    1    3    3    0  502  0.37364543148E+03  0.64463261862E+03 -0.37130586141E+03  0.83248530141E+03  0.12699999809E+01 0. -1.
</event>
<event>
 5   0  0.9284971E-04  0.1611096E+04  0.7818609E-02  0.8813760E-01
       -2   -1    0    0    0  501  0.00000000000E+00  0.00000000000E+00  0.56413663268E+03  0.56413663268E+03  0.25500000920E-02 0.  1.
        2   -1    0    0  501    0  0.00000000000E+00  0.00000000000E+00 -0.11502672322E+04  0.11502672322E+04  0.25500000920E-02 0. -1.
    10030    2    1    2    0    0  0.00000000000E+00  0.00000000000E+00 -0.58613059952E+03  0.17144038649E+04  0.16110963758E+04 0.  0.
        4    1    3    3  502    0  0.27605205684E+03  0.11093452443E+03 -0.10896624837E+04  0.11295473200E+04  0.12699999809E+01 0. -1.
       -4    1    3    3    0  502 -0.27605205684E+03 -0.11093452443E+03  0.50353188420E+03  0.58485654488E+03  0.12699999809E+01 0.  1.
</event>
<event>
 5   0  0.5074133E-04  0.1679989E+04  0.7818609E-02  0.8772860E-01
       -1   -1    0    0    0  501  0.00000000000E+00  0.00000000000E+00  0.73048161922E+03  0.73048161924E+03  0.50400001928E-02 0.  1.
        1   -1    0    0  501    0  0.00000000000E+00  0.00000000000E+00 -0.96592541741E+03  0.96592541743E+03  0.50400001928E-02 0. -1.
    10030    2    1    2    0    0  0.00000000000E+00  0.00000000000E+00 -0.23544379819E+03  0.16964070367E+04  0.16799890035E+04 0.  0.
        1    1    3    3  502    0  0.19279580317E+03  0.51404161859E+03  0.52424402958E+03  0.75910526933E+03  0.50400001928E-02 0.  1.
       -1    1    3    3    0  502 -0.19279580317E+03 -0.51404161859E+03 -0.75968782777E+03  0.93730176733E+03  0.50400001928E-02 0. -1.
</event>
<event>
 5   0  0.9610114E-04  0.1636720E+04  0.7818609E-02  0.8798302E-01
        2   -1    0    0  501    0  0.00000000000E+00  0.00000000000E+00  0.75947989509E+03  0.75947989509E+03  0.25500000920E-02 0.  1.
       -2   -1    0    0    0  501  0.00000000000E+00  0.00000000000E+00 -0.88180525656E+03  0.88180525657E+03  0.25500000920E-02 0. -1.
    10030    2    1    2    0    0  0.00000000000E+00  0.00000000000E+00 -0.12232536148E+03  0.16412851517E+04  0.16367203350E+04 0.  0.
        2    1    3    3  502    0 -0.40573523591E+03  0.69615333075E+03  0.82284602443E+02  0.80995141668E+03  0.25500000920E-02 0. -1.
       -2    1    3    3    0  502  0.40573523591E+03 -0.69615333075E+03 -0.20460996392E+03  0.83133373498E+03  0.25500000920E-02 0.  1.
</event>
<event>
 5   0  0.5059689E-04  0.1487897E+04  0.7818609E-02  0.8892541E-01
        1   -1    0    0  501    0  0.00000000000E+00  0.00000000000E+00  0.96006714563E+03  0.96006714564E+03  0.50400001928E-02 0.  1.
       -1   -1    0    0    0  501  0.00000000000E+00  0.00000000000E+00 -0.57647991053E+03  0.57647991056E+03  0.50400001928E-02 0. -1.
    10030    2    1    2    0    0  0.00000000000E+00  0.00000000000E+00  0.38358723510E+03  0.15365470562E+04  0.14878970694E+04 0.  0.
        5    1    3    3  502    0  0.27247676701E+03 -0.24777770075E+03  0.85930268698E+03  0.93491206827E+03  0.46999998093E+01 0.  1.
       -5    1    3    3    0  502 -0.27247676701E+03  0.24777770075E+03 -0.47571545188E+03  0.60163498793E+03  0.46999998093E+01 0. -1.
</event>
<event>
 5   0  0.5035495E-04  0.1238833E+04  0.7818609E-02  0.9079529E-01
       -1   -1    0    0    0  501  0.00000000000E+00  0.00000000000E+00  0.62432559959E+03  0.62432559961E+03  0.50400001928E-02 0.  1.
        1   -1    0    0  501    0  0.00000000000E+00  0.00000000000E+00 -0.61454627199E+03  0.61454627201E+03  0.50400001928E-02 0. -1.
    10030    2    1    2    0    0  0.00000000000E+00  0.00000000000E+00  0.97793276007E+01  0.12388718716E+04  0.12388332733E+04 0.  0.
        4    1    3    3  502    0 -0.37420432648E+03  0.43723225956E+03  0.23396978091E+03  0.62124423380E+03  0.12699999809E+01 0. -1.
       -4    1    3    3    0  502  0.37420432648E+03 -0.43723225956E+03 -0.22419045331E+03  0.61762763783E+03  0.12699999809E+01 0.  1.
</event>
<event>
 5   0  0.5059689E-04  0.1612946E+04  0.7818609E-02  0.8812634E-01
       -1   -1    0    0    0  501  0.00000000000E+00  0.00000000000E+00  0.44300944244E+03  0.44300944247E+03  0.50400001928E-02 0. -1.
        1   -1    0    0  501    0  0.00000000000E+00  0.00000000000E+00 -0.14681369094E+04  0.14681369094E+04  0.50400001928E-02 0.  1.
    10030    2    1    2    0    0  0.00000000000E+00  0.00000000000E+00 -0.10251274669E+04  0.19111463519E+04  0.16129457693E+04 0.  0.
        5    1    3    3  502    0 -0.57479216865E+03  0.10437652392E+03 -0.11713140270E+04  0.13089228915E+04  0.46999998093E+01 0.  1.
       -5    1    3    3    0  502  0.57479216865E+03 -0.10437652392E+03  0.14618656009E+03  0.60222346039E+03  0.46999998093E+01 0. -1.
</event>
<event>
 5   0  0.9625225E-04  0.1678144E+04  0.7818609E-02  0.8773929E-01
        2   -1    0    0  501    0  0.00000000000E+00  0.00000000000E+00  0.17715840085E+04  0.17715840085E+04  0.25500000920E-02 0. -1.
       -2   -1    0    0    0  501  0.00000000000E+00  0.00000000000E+00 -0.39740811478E+03  0.39740811479E+03  0.25500000920E-02 0.  1.
    10030    2    1    2    0    0  0.00000000000E+00  0.00000000000E+00  0.13741758938E+04  0.21689921233E+04  0.16781440475E+04 0.  0.
        1    1    3    3  502    0  0.24752569489E+03  0.50981899642E+03 -0.11264927113E+03  0.57781851567E+03  0.50400001928E-02 0.  1.
       -1    1    3    3    0  502 -0.24752569489E+03 -0.50981899642E+03  0.14868251649E+04  0.15911736076E+04  0.50400001928E-02 0. -1.
</event>
<event>
 5   0  0.9312096E-04  0.1644468E+04  0.7818609E-02  0.8793686E-01
        2   -1    0    0  501    0  0.00000000000E+00  0.00000000000E+00  0.55943948992E+03  0.55943948993E+03  0.25500000920E-02 0.  1.
       -2   -1    0    0    0  501  0.00000000000E+00  0.00000000000E+00 -0.12084750178E+04  0.12084750178E+04  0.25500000920E-02 0. -1.
    10030    2    1    2    0    0  0.00000000000E+00  0.00000000000E+00 -0.64903552788E+03  0.17679145077E+04  0.16444678745E+04 0.  0.
        3    1    3    3  502    0 -0.12752554766E+03  0.60568310413E+03  0.25736496973E+03  0.67033687485E+03  0.10100000352E+00 0.  1.
       -3    1    3    3    0  502  0.12752554766E+03 -0.60568310413E+03 -0.90640049761E+03  0.10975776329E+04  0.10100000352E+00 0. -1.
</event>
<event>
 5   0  0.1007187E-03  0.1692010E+04  0.7818609E-02  0.8765934E-01
        2   -1    0    0  501    0  0.00000000000E+00  0.00000000000E+00  0.19490287900E+04  0.19490287900E+04  0.25500000920E-02 0.  1.
       -2   -1    0    0    0  501  0.00000000000E+00  0.00000000000E+00 -0.36722124447E+03  0.36722124448E+03  0.25500000920E-02 0. -1.
    10030    2    1    2    0    0  0.00000000000E+00  0.00000000000E+00  0.15818075455E+04  0.23162500345E+04  0.16920103756E+04 0.  0.
        5    1    3    3  502    0 -0.42462600670E+03 -0.61856127433E+03  0.13259754499E+04  0.15235347976E+04  0.46999998093E+01 0.  1.
       -5    1    3    3    0  502  0.42462600670E+03  0.61856127433E+03  0.25583209563E+03  0.79271523690E+03  0.46999998093E+01 0. -1.
</event>
<event>
 5   0  0.5059689E-04  0.1729365E+04  0.7818609E-02  0.8744792E-01
        1   -1    0    0  501    0  0.00000000000E+00  0.00000000000E+00  0.98329017419E+03  0.98329017420E+03  0.50400001928E-02 0.  1.
       -1   -1    0    0    0  501  0.00000000000E+00  0.00000000000E+00 -0.76038133063E+03  0.76038133064E+03  0.50400001928E-02 0. -1.
    10030    2    1    2    0    0  0.00000000000E+00  0.00000000000E+00  0.22290884356E+03  0.17436715048E+04  0.17293646129E+04 0.  0.
        5    1    3    3  502    0  0.64442158382E+03 -0.34150563378E+03 -0.35687518940E+03  0.81196506477E+03  0.46999998093E+01 0. -1.
       -5    1    3    3    0  502 -0.64442158382E+03  0.34150563378E+03  0.57978403297E+03  0.93170644008E+03  0.46999998093E+01 0.  1.
</event>
<event>
 5   0  0.9312096E-04  0.1704760E+04  0.7818609E-02  0.8758654E-01
        2   -1    0    0  501    0  0.00000000000E+00  0.00000000000E+00  0.49570884141E+03  0.49570884142E+03  0.25500000920E-02 0. -1.
       -2   -1    0    0    0  501  0.00000000000E+00  0.00000000000E+00 -0.14656829346E+04  0.14656829346E+04  0.25500000920E-02 0.  1.
    10030    2    1    2    0    0  0.00000000000E+00  0.00000000000E+00 -0.96997409317E+03  0.19613917760E+04  0.17047603813E+04 0.  0.
        3    1    3    3  502    0 -0.27601392220E+03 -0.68484662363E+03 -0.97495068672E+03  0.12229993601E+04  0.10100000352E+00 0.  1.
       -3    1    3    3    0  502  0.27601392220E+03  0.68484662363E+03  0.49765935462E+01  0.73839241588E+03  0.10100000352E+00 0. -1.
</event>
<event>
 5   0  0.9284971E-04  0.1692789E+04  0.7818609E-02  0.8765488E-01
       -2   -1    0    0    0  501  0.00000000000E+00  0.00000000000E+00  0.45052608457E+03  0.45052608458E+03  0.25500000920E-02 0. -1.
        2   -1    0    0  501    0  0.00000000000E+00  0.00000000000E+00 -0.15901045744E+04  0.15901045744E+04  0.25500000920E-02 0.  1.
    10030    2    1    2    0    0  0.00000000000E+00  0.00000000000E+00 -0.11395784898E+04  0.20406306590E+04  0.16927889271E+04 0.  0.
        4    1    3    3  502    0 -0.21881276874E+03 -0.42413822296E+03  0.27285187176E+03  0.54974722988E+03  0.12699999809E+01 0. -1.
       -4    1    3    3    0  502  0.21881276874E+03  0.42413822296E+03 -0.14124303616E+04  0.14908834291E+04  0.12699999809E+01 0.  1.
</event>
<event>
 5   0  0.1007187E-03  0.1651995E+04  0.7818609E-02  0.8789227E-01
        2   -1    0    0  501    0  0.00000000000E+00  0.00000000000E+00  0.10048420927E+04  0.10048420927E+04  0.25500000920E-02 0. -1.
       -2   -1    0    0    0  501  0.00000000000E+00  0.00000000000E+00 -0.67898446329E+03  0.67898446330E+03  0.25500000920E-02 0.  1.
    10030    2    1    2    0    0  0.00000000000E+00  0.00000000000E+00  0.32585762942E+03  0.16838265560E+04  0.16519953620E+04 0.  0.
        5    1    3    3  502    0  0.21079080800E+03 -0.57134682976E+03  0.73169526107E+03  0.95198214778E+03  0.46999998093E+01 0. -1.
       -5    1    3    3    0  502 -0.21079080800E+03  0.57134682976E+03 -0.40583763164E+03  0.73184440824E+03  0.46999998093E+01 0.  1.
</event>
<event>
 5   0  0.5059689E-04  0.1666302E+04  0.7818609E-02  0.8780820E-01
        1   -1    0    0  501    0  0.00000000000E+00  0.00000000000E+00  0.49262369888E+03  0.49262369891E+03  0.50400001928E-02 0.  1.
       -1   -1    0    0    0  501  0.00000000000E+00  0.00000000000E+00 -0.14090683523E+04  0.14090683523E+04  0.50400001928E-02 0. -1.
    10030    2    1    2    0    0  0.00000000000E+00  0.00000000000E+00 -0.91644465346E+03  0.19016920513E+04  0.16663018499E+04 0.  0.
        5    1    3    3  502    0  0.60409561497E+03  0.50672771209E+03 -0.76533479346E+03  0.10988466328E+04  0.46999998093E+01 0. -1.
       -5    1    3    3    0  502 -0.60409561497E+03 -0.50672771209E+03 -0.15110985999E+03  0.80284541850E+03  0.46999998093E+01 0.  1.
</event>
<event>
 5   0  0.9312096E-04  0.1700562E+04  0.7818609E-02  0.8761044E-01
       -2   -1    0    0    0  501  0.00000000000E+00  0.00000000000E+00  0.53941363716E+03  0.53941363716E+03  0.25500000920E-02 0.  1.
        2   -1    0    0  501    0  0.00000000000E+00  0.00000000000E+00 -0.13403033033E+04  0.13403033033E+04  0.25500000920E-02 0. -1.
    10030    2    1    2    0    0  0.00000000000E+00  0.00000000000E+00 -0.80088966616E+03  0.18797169405E+04  0.17005621185E+04 0.  0.
        3    1    3    3  502    0 -0.59552368585E+03 -0.50733378598E+03 -0.76861418635E+03  0.10967241260E+04  0.10100000352E+00 0. -1.
       -3    1    3    3    0  502  0.59552368585E+03  0.50733378598E+03 -0.32275479812E+02  0.78299281453E+03  0.10100000352E+00 0.  1.
</event>
<event>
 5   0  0.9625225E-04  0.1701961E+04  0.7818609E-02  0.8760247E-01
        2   -1    0    0  501    0  0.00000000000E+00  0.00000000000E+00  0.22643789557E+04  0.22643789557E+04  0.25500000920E-02 0. -1.
       -2   -1    0    0    0  501  0.00000000000E+00  0.00000000000E+00 -0.31980847093E+03  0.31980847094E+03  0.25500000920E-02 0.  1.
    10030    2    1    2    0    0  0.00000000000E+00  0.00000000000E+00  0.19445704848E+04  0.25841874267E+04  0.17019607181E+04 0.  0.
        1    1    3    3  502    0  0.62228928461E+03 -0.16824822115E+03  0.12878773387E+03  0.65737181114E+03  0.50400001928E-02 0.  1.
       -1    1    3    3    0  502 -0.62228928461E+03  0.16824822115E+03  0.18157827509E+04  0.19268156155E+04  0.50400001928E-02 0. -1.
</event>
<event>
 5   0  0.9284971E-04  0.1697955E+04  0.7818609E-02  0.8762532E-01
        2   -1    0    0  501    0  0.00000000000E+00  0.00000000000E+00  0.14129550634E+04  0.14129550634E+04  0.25500000920E-02 0.  1.
       -2   -1    0    0    0  501  0.00000000000E+00  0.00000000000E+00 -0.51011018818E+03  0.51011018819E+03  0.25500000920E-02 0. -1.
    10030    2    1    2    0    0  0.00000000000E+00  0.00000000000E+00  0.90284487522E+03  0.19230652516E+04  0.16979549738E+04 0.  0.
        4    1    3    3  502    0  0.28653358654E+02 -0.82406640752E+03  0.22249973126E+03  0.85405749354E+03  0.12699999809E+01 0. -1.
       -4    1    3    3    0  502 -0.28653358654E+02  0.82406640752E+03  0.68034514396E+03  0.10690077581E+04  0.12699999809E+01 0.  1.
</event>
<event>
 5   0  0.9625225E-04  0.1827687E+04  0.7818609E-02  0.8691713E-01
        2   -1    0    0  501    0  0.00000000000E+00  0.00000000000E+00  0.46078106683E+03  0.46078106684E+03  0.25500000920E-02 0.  1.
       -2   -1    0    0    0  501  0.00000000000E+00  0.00000000000E+00 -0.18123787053E+04  0.18123787053E+04  0.25500000920E-02 0. -1.
    10030    2    1    2    0    0  0.00000000000E+00  0.00000000000E+00 -0.13515976385E+04  0.22731597722E+04  0.18276868368E+04 0.  0.
        1    1    3    3  502    0 -0.47057418369E+03  0.64649033106E+03 -0.12260307154E+04  0.14637421650E+04  0.50400001928E-02 0. -1.
       -1    1    3    3    0  502  0.47057418369E+03 -0.64649033106E+03 -0.12556692304E+03  0.80941760711E+03  0.50400001928E-02 0.  1.
</event>
<event>
 5   0  0.9312096E-04  0.1676859E+04  0.7818609E-02  0.8774674E-01
        2   -1    0    0  501    0  0.00000000000E+00  0.00000000000E+00  0.84305668341E+03  0.84305668341E+03  0.25500000920E-02 0.  1.
       -2   -1    0    0    0  501  0.00000000000E+00  0.00000000000E+00 -0.83382750640E+03  0.83382750641E+03  0.25500000920E-02 0. -1.
    10030    2    1    2    0    0  0.00000000000E+00  0.00000000000E+00  0.92291770046E+01  0.16768841898E+04  0.16768587920E+04 0.  0.
        3    1    3    3  502    0  0.62963746429E+03 -0.49509312572E+03  0.25241523896E+03  0.83980593153E+03  0.10100000352E+00 0.  1.
       -3    1    3    3    0  502 -0.62963746429E+03  0.49509312572E+03 -0.24318606195E+03  0.83707825829E+03  0.10100000352E+00 0. -1.
</event>
<event>
 5   0  0.9610114E-04  0.1683509E+04  0.7818609E-02  0.8770826E-01
        2   -1    0    0  501    0  0.00000000000E+00  0.00000000000E+00  0.27270802678E+04  0.27270802678E+04  0.25500000920E-02 0. -1.
       -2   -1    0    0    0  501  0.00000000000E+00  0.00000000000E+00 -0.25982032741E+03  0.25982032742E+03  0.25500000920E-02 0.  1.
    10030    2    1    2    0    0  0.00000000000E+00  0.00000000000E+00  0.24672599404E+04  0.29869005953E+04  0.16835092968E+04 0.  0.
        2    1    3    3  502    0  0.79176999914E+03 -0.20871487927E+02  0.72800930938E+03  0.10757940812E+04  0.25500000920E-02 0.  1.
       -2    1    3    3    0  502 -0.79176999914E+03  0.20871487927E+02  0.17392506310E+04  0.19111065141E+04  0.25500000920E-02 0. -1.
</event>
<event>
 5   0  0.9625225E-04  0.1685964E+04  0.7818609E-02  0.8769411E-01
        2   -1    0    0  501    0  0.00000000000E+00  0.00000000000E+00  0.61504105863E+03  0.61504105863E+03  0.25500000920E-02 0. -1.
       -2   -1    0    0    0  501  0.00000000000E+00  0.00000000000E+00 -0.11553997982E+04  0.11553997982E+04  0.25500000920E-02 0.  1.
    10030    2    1    2    0    0  0.00000000000E+00  0.00000000000E+00 -0.54035873955E+03  0.17704408568E+04  0.16859635999E+04 0.  0.
        1    1    3    3  502    0 -0.78645470452E+03  0.30065621663E+03 -0.31364352003E+03  0.89848618273E+03  0.50400001928E-02 0.  1.
       -1    1    3    3    0  502  0.78645470452E+03 -0.30065621663E+03 -0.22671521952E+03  0.87195467408E+03  0.50400001928E-02 0. -1.
</event>
<event>
 5   0  0.9610114E-04  0.1808861E+04  0.7818609E-02  0.8701602E-01
        2   -1    0    0  501    0  0.00000000000E+00  0.00000000000E+00  0.12291258057E+04  0.12291258057E+04  0.25500000920E-02 0.  1.
       -2   -1    0    0    0  501  0.00000000000E+00  0.00000000000E+00 -0.66550895981E+03  0.66550895982E+03  0.25500000920E-02 0. -1.
    10030    2    1    2    0    0  0.00000000000E+00  0.00000000000E+00  0.56361684586E+03  0.18946347655E+04  0.18088606761E+04 0.  0.
        2    1    3    3  502    0  0.74427334822E+03  0.50210175422E+03  0.16733149426E+03  0.91326273188E+03  0.25500000920E-02 0. -1.
       -2    1    3    3    0  502 -0.74427334822E+03 -0.50210175422E+03  0.39628535160E+03  0.98137203361E+03  0.25500000920E-02 0.  1.
</event>
<event>
 5   0  0.5074133E-04  0.1346149E+04  0.7818609E-02  0.8993748E-01
       -1   -1    0    0    0  501  0.00000000000E+00  0.00000000000E+00  0.46288043241E+03  0.46288043244E+03  0.50400001928E-02 0. -1.
        1   -1    0    0  501    0  0.00000000000E+00  0.00000000000E+00 -0.97871838152E+03  0.97871838153E+03  0.50400001928E-02 0.  1.
    10030    2    1    2    0    0  0.00000000000E+00  0.00000000000E+00 -0.51583794911E+03  0.14415988140E+04  0.13461494533E+04 0.  0.
        1    1    3    3  502    0 -0.49730263521E+03 -0.17247716751E+03  0.19131445070E+03  0.56005312549E+03  0.50400001928E-02 0. -1.
       -1    1    3    3    0  502  0.49730263521E+03  0.17247716751E+03 -0.70715239981E+03  0.88154568848E+03  0.50400001928E-02 0.  1.
</event>
<event>
 5   0  0.4947006E-04  0.1437694E+04  0.7818609E-02  0.8926977E-01
        1   -1    0    0  501    0  0.00000000000E+00  0.00000000000E+00  0.63830497441E+03  0.63830497443E+03  0.50400001928E-02 0.  1.
       -1   -1    0    0    0  501  0.00000000000E+00  0.00000000000E+00 -0.80955187774E+03  0.80955187776E+03  0.50400001928E-02 0. -1.
    10030    2    1    2    0    0  0.00000000000E+00  0.00000000000E+00 -0.17124690333E+03  0.14478568522E+04  0.14376939739E+04 0.  0.
        2    1    3    3  502    0 -0.22276465533E+03 -0.23044693202E+03 -0.73360877818E+03  0.80056962194E+03  0.25500000920E-02 0. -1.
       -2    1    3    3    0  502  0.22276465533E+03  0.23044693202E+03  0.56236187486E+03  0.64728723025E+03  0.25500000920E-02 0.  1.
</event>
<event>
 5   0  0.5035495E-04  0.1667735E+04  0.7818609E-02  0.8779983E-01
        1   -1    0    0  501    0  0.00000000000E+00  0.00000000000E+00  0.27765901012E+04  0.27765901012E+04  0.50400001928E-02 0. -1.
       -1   -1    0    0    0  501  0.00000000000E+00  0.00000000000E+00 -0.25042769443E+03  0.25042769448E+03  0.50400001928E-02 0.  1.
    10030    2    1    2    0    0  0.00000000000E+00  0.00000000000E+00  0.25261624067E+04  0.30270177957E+04  0.16677350599E+04 0.  0.
        4    1    3    3  502    0 -0.12886483194E+03  0.16690908797E+03  0.27273964833E+04  0.27355361410E+04  0.12699999809E+01 0. -1.
       -4    1    3    3    0  502  0.12886483194E+03 -0.16690908797E+03 -0.20123407655E+03  0.29148165469E+03  0.12699999809E+01 0.  1.
</event>
<event>
 5   0  0.5059689E-04  0.1656479E+04  0.7818609E-02  0.8786583E-01
        1   -1    0    0  501    0  0.00000000000E+00  0.00000000000E+00  0.10608206200E+04  0.10608206200E+04  0.50400001928E-02 0.  1.
       -1   -1    0    0    0  501  0.00000000000E+00  0.00000000000E+00 -0.64665110130E+03  0.64665110132E+03  0.50400001928E-02 0. -1.
    10030    2    1    2    0    0  0.00000000000E+00  0.00000000000E+00  0.41416951873E+03  0.17074717214E+04  0.16564791846E+04 0.  0.
        5    1    3    3  502    0 -0.27866818658E+03  0.27555471350E+03 -0.54501472732E+03  0.67130432841E+03  0.46999998093E+01 0. -1.
       -5    1    3    3    0  502  0.27866818658E+03 -0.27555471350E+03  0.95918424606E+03  0.10361673930E+04  0.46999998093E+01 0.  1.
</event>
<event>
 5   0  0.9312096E-04  0.1184399E+04  0.7818609E-02  0.9126623E-01
        2   -1    0    0  501    0  0.00000000000E+00  0.00000000000E+00  0.89384932337E+03  0.89384932337E+03  0.25500000920E-02 0.  1.
       -2   -1    0    0    0  501  0.00000000000E+00  0.00000000000E+00 -0.39234835683E+03  0.39234835683E+03  0.25500000920E-02 0. -1.
    10030    2    1    2    0    0  0.00000000000E+00  0.00000000000E+00  0.50150096655E+03  0.12861976802E+04  0.11843991106E+04 0.  0.
        3    1    3    3  502    0 -0.15020173307E+03  0.51293936805E+03 -0.26183573257E+02  0.53511956199E+03  0.10100000352E+00 0. -1.
       -3    1    3    3    0  502  0.15020173307E+03 -0.51293936805E+03  0.52768453980E+03  0.75107811822E+03  0.10100000352E+00 0.  1.
</event>
<event>
 5   0  0.9312096E-04  0.1626116E+04  0.7818609E-02  0.8804662E-01
        2   -1    0    0  501    0  0.00000000000E+00  0.00000000000E+00  0.10934837593E+04  0.10934837593E+04  0.25500000920E-02 0.  1.
       -2   -1    0    0    0  501  0.00000000000E+00  0.00000000000E+00 -0.60454819617E+03  0.60454819618E+03  0.25500000920E-02 0. -1.
    10030    2    1    2    0    0  0.00000000000E+00  0.00000000000E+00  0.48893556310E+03  0.16980319555E+04  0.16261163971E+04 0.  0.
        3    1    3    3  502    0  0.38398070566E+03 -0.55225828360E+03  0.72143218773E+03  0.98635430034E+03  0.10100000352E+00 0.  1.
       -3    1    3    3    0  502 -0.38398070566E+03  0.55225828360E+03 -0.23249662462E+03  0.71167765511E+03  0.10100000352E+00 0. -1.
</event>
<event>
 5   0  0.5009762E-04  0.1719316E+04  0.7818609E-02  0.8750424E-01
        1   -1    0    0  501    0  0.00000000000E+00  0.00000000000E+00  0.95258580999E+03  0.95258581000E+03  0.50400001928E-02 0.  1.
       -1   -1    0    0    0  501  0.00000000000E+00  0.00000000000E+00 -0.77579533347E+03  0.77579533349E+03  0.50400001928E-02 0. -1.
    10030    2    1    2    0    0  0.00000000000E+00  0.00000000000E+00  0.17679047652E+03  0.17283811435E+04  0.17193157082E+04 0.  0.
        3    1    3    3  502    0 -0.59904889519E+03  0.23339207193E+03 -0.48529776303E+03  0.80550938360E+03  0.10100000352E+00 0.  1.
       -3    1    3    3    0  502  0.59904889519E+03 -0.23339207193E+03  0.66208823955E+03  0.92287175989E+03  0.10100000352E+00 0. -1.
</event>
<event>
 5   0  0.5035495E-04  0.1725606E+04  0.7818609E-02  0.8746893E-01
        1   -1    0    0  501    0  0.00000000000E+00  0.00000000000E+00  0.15978216458E+04  0.15978216458E+04  0.50400001928E-02 0. -1.
       -1   -1    0    0    0  501  0.00000000000E+00  0.00000000000E+00 -0.46590270357E+03  0.46590270360E+03  0.50400001928E-02 0.  1.
    10030    2    1    2    0    0  0.00000000000E+00  0.00000000000E+00  0.11319189422E+04  0.20637243494E+04  0.17256064727E+04 0.  0.
        4    1    3    3  502    0 -0.59120688063E+03  0.31730723203E+03 -0.82741890995E+02  0.67606012205E+03  0.12699999809E+01 0.  1.
       -4    1    3    3    0  502  0.59120688063E+03 -0.31730723203E+03  0.12146608332E+04  0.13876642273E+04  0.12699999809E+01 0. -1.
</event>
<event>
 5   0  0.5059689E-04  0.1536280E+04  0.7818609E-02  0.8860679E-01
       -1   -1    0    0    0  501  0.00000000000E+00  0.00000000000E+00  0.35125105837E+03  0.35125105841E+03  0.50400001928E-02 0.  1.
        1   -1    0    0  501    0  0.00000000000E+00  0.00000000000E+00 -0.16798217544E+04  0.16798217544E+04  0.50400001928E-02 0. -1.
    10030    2    1    2    0    0  0.00000000000E+00  0.00000000000E+00 -0.13285706961E+04  0.20310728128E+04  0.15362801426E+04 0.  0.
        5    1    3    3  502    0 -0.68953222729E+03  0.19850185631E+03 -0.10267341990E+04  0.12526224031E+04  0.46999998093E+01 0. -1.
       -5    1    3    3    0  502  0.68953222729E+03 -0.19850185631E+03 -0.30183649704E+03  0.77845040970E+03  0.46999998093E+01 0.  1.
</event>
<event>
 5   0  0.9284971E-04  0.1679069E+04  0.7818609E-02  0.8773393E-01
       -2   -1    0    0    0  501  0.00000000000E+00  0.00000000000E+00  0.59885739795E+03  0.59885739795E+03  0.25500000920E-02 0. -1.
        2   -1    0    0  501    0  0.00000000000E+00  0.00000000000E+00 -0.11769377383E+04  0.11769377383E+04  0.25500000920E-02 0.  1.
    10030    2    1    2    0    0  0.00000000000E+00  0.00000000000E+00 -0.57808034034E+03  0.17757951362E+04  0.16790686365E+04 0.  0.
        4    1    3    3  502    0  0.62495789775E+03 -0.38612157591E+03 -0.71884271092E+03  0.10278125808E+04  0.12699999809E+01 0.  1.
       -4    1    3    3    0  502 -0.62495789775E+03  0.38612157591E+03  0.14076237058E+03  0.74798255543E+03  0.12699999809E+01 0. -1.
</event>
<event>
 5   0  0.9284971E-04  0.1701347E+04  0.7818609E-02  0.8760597E-01
       -2   -1    0    0    0  501  0.00000000000E+00  0.00000000000E+00  0.40097887953E+03  0.40097887954E+03  0.25500000920E-02 0. -1.
        2   -1    0    0  501    0  0.00000000000E+00  0.00000000000E+00 -0.18046969234E+04  0.18046969234E+04  0.25500000920E-02 0.  1.
    10030    2    1    2    0    0  0.00000000000E+00  0.00000000000E+00 -0.14037180439E+04  0.22056758029E+04  0.17013469373E+04 0.  0.
        4    1    3    3  502    0 -0.65399321726E+03 -0.38125021216E+03 -0.12049418410E+04  0.14230057292E+04  0.12699999809E+01 0.  1.
       -4    1    3    3    0  502  0.65399321726E+03  0.38125021216E+03 -0.19877620290E+03  0.78267007368E+03  0.12699999809E+01 0. -1.
</event>
<event>
 5   0  0.9312096E-04  0.1679915E+04  0.7818609E-02  0.8772903E-01
        2   -1    0    0  501    0  0.00000000000E+00  0.00000000000E+00  0.12963648163E+04  0.12963648163E+04  0.25500000920E-02 0. -1.
       -2   -1    0    0    0  501  0.00000000000E+00  0.00000000000E+00 -0.54423630624E+03  0.54423630624E+03  0.25500000920E-02 0.  1.
    10030    2    1    2    0    0  0.00000000000E+00  0.00000000000E+00  0.75212851002E+03  0.18406011225E+04  0.16799152349E+04 0.  0.
        3    1    3    3  502    0  0.34438160092E+03  0.57446975155E+03 -0.17928566276E+03  0.69336681603E+03  0.10100000352E+00 0.  1.
       -3    1    3    3    0  502 -0.34438160092E+03 -0.57446975155E+03  0.93141417277E+03  0.11472343065E+04  0.10100000352E+00 0. -1.
</event>
<event>
 5   0  0.5074133E-04  0.1158755E+04  0.7818609E-02  0.9149745E-01
       -1   -1    0    0    0  501  0.00000000000E+00  0.00000000000E+00  0.24323460210E+03  0.24323460215E+03  0.50400001928E-02 0.  1.
        1   -1    0    0  501    0  0.00000000000E+00  0.00000000000E+00 -0.13800585770E+04  0.13800585770E+04  0.50400001928E-02 0. -1.
    10030    2    1    2    0    0  0.00000000000E+00  0.00000000000E+00 -0.11368239749E+04  0.16232931791E+04  0.11587545019E+04 0.  0.
        1    1    3    3  502    0 -0.51356110250E+03 -0.18249219548E+03 -0.84374962824E+03  0.10044709267E+04  0.50400001928E-02 0. -1.
       -1    1    3    3    0  502  0.51356110250E+03  0.18249219548E+03 -0.29307434661E+03  0.61882225241E+03  0.50400001928E-02 0.  1.
</event>
<event>
 5   0  0.9284971E-04  0.1722859E+04  0.7818609E-02  0.8748433E-01
        2   -1    0    0  501    0  0.00000000000E+00  0.00000000000E+00  0.79932371821E+03  0.79932371821E+03  0.25500000920E-02 0.  1.
       -2   -1    0    0    0  501  0.00000000000E+00  0.00000000000E+00 -0.92836102487E+03  0.92836102487E+03  0.25500000920E-02 0. -1.
    10030    2    1    2    0    0  0.00000000000E+00  0.00000000000E+00 -0.12903730666E+03  0.17276847431E+04  0.17228592354E+04 0.  0.
        4    1    3    3  502    0 -0.98629125667E+02 -0.14432102271E+03 -0.91038764487E+03  0.92701862918E+03  0.12699999809E+01 0. -1.
       -4    1    3    3    0  502  0.98629125667E+02  0.14432102271E+03  0.78135033821E+03  0.80066611390E+03  0.12699999809E+01 0.  1.
</event>
<event>
 5   0  0.5035495E-04  0.1698539E+04  0.7818609E-02  0.8762198E-01
        1   -1    0    0  501    0  0.00000000000E+00  0.00000000000E+00  0.10078771377E+04  0.10078771377E+04  0.50400001928E-02 0. -1.
       -1   -1    0    0    0  501  0.00000000000E+00  0.00000000000E+00 -0.71562182839E+03  0.71562182840E+03  0.50400001928E-02 0.  1.
    10030    2    1    2    0    0  0.00000000000E+00  0.00000000000E+00  0.29225530933E+03  0.17234989661E+04  0.16985392314E+04 0.  0.
        4    1    3    3  502    0 -0.72743025641E+03 -0.32903634073E+03 -0.14767438119E+03  0.81192920086E+03  0.12699999809E+01 0. -1.
       -4    1    3    3    0  502  0.72743025641E+03  0.32903634073E+03  0.43992969052E+03  0.91156976527E+03  0.12699999809E+01 0.  1.
</event>
<event>
 5   0  0.9625225E-04  0.1722422E+04  0.7818609E-02  0.8748678E-01
        2   -1    0    0  501    0  0.00000000000E+00  0.00000000000E+00  0.52840803118E+03  0.52840803119E+03  0.25500000920E-02 0.  1.
       -2   -1    0    0    0  501  0.00000000000E+00  0.00000000000E+00 -0.14036212852E+04  0.14036212852E+04  0.25500000920E-02 0. -1.
    10030    2    1    2    0    0  0.00000000000E+00  0.00000000000E+00 -0.87521325398E+03  0.19320293164E+04  0.17224224335E+04 0.  0.
        1    1    3    3  502    0 -0.79522171615E+03  0.28405499046E+03 -0.24784498421E+03  0.88005224371E+03  0.50400001928E-02 0.  1.
       -1    1    3    3    0  502  0.79522171615E+03 -0.28405499046E+03 -0.62736826977E+03  0.10519770726E+04  0.50400001928E-02 0. -1.
</event>
<event>
 5   0  0.1007187E-03  0.1494150E+04  0.7818609E-02  0.8888352E-01
        2   -1    0    0  501    0  0.00000000000E+00  0.00000000000E+00  0.77811554369E+03  0.77811554370E+03  0.25500000920E-02 0. -1.
       -2   -1    0    0    0  501  0.00000000000E+00  0.00000000000E+00 -0.71727297473E+03  0.71727297473E+03  0.25500000920E-02 0.  1.
    10030    2    1    2    0    0  0.00000000000E+00  0.00000000000E+00  0.60842568965E+02  0.14953885184E+04  0.14941502611E+04 0.  0.
        5    1    3    3  502    0  0.65924017498E+03  0.29069387369E+03  0.22806563724E+03  0.75573577486E+03  0.46999998093E+01 0. -1.
       -5    1    3    3    0  502 -0.65924017498E+03 -0.29069387369E+03 -0.16722306827E+03  0.73965274357E+03  0.46999998093E+01 0.  1.
</event>
<event>
 5   0  0.5074133E-04  0.1709867E+04  0.7818609E-02  0.8755757E-01
        1   -1    0    0  501    0  0.00000000000E+00  0.00000000000E+00  0.11103251974E+04  0.11103251974E+04  0.50400001928E-02 0.  1.
       -1   -1    0    0    0  501  0.00000000000E+00  0.00000000000E+00 -0.65828577334E+03  0.65828577336E+03  0.50400001928E-02 0. -1.
    10030    2    1    2    0    0  0.00000000000E+00  0.00000000000E+00  0.45203942407E+03  0.17686109708E+04  0.17098669905E+04 0.  0.
        1    1    3    3  502    0 -0.43710602090E+03  0.37858756702E+03 -0.42531333939E+03  0.71783121700E+03  0.50400001928E-02 0. -1.
       -1    1    3    3    0  502  0.43710602090E+03 -0.37858756702E+03  0.87735276346E+03  0.10507797538E+04  0.50400001928E-02 0.  1.
</event>
<event>
 5   0  0.5074133E-04  0.1547602E+04  0.7818609E-02  0.8853401E-01
        1   -1    0    0  501    0  0.00000000000E+00  0.00000000000E+00  0.24856946355E+04  0.24856946355E+04  0.50400001928E-02 0.  1.
       -1   -1    0    0    0  501  0.00000000000E+00  0.00000000000E+00 -0.24088556395E+03  0.24088556400E+03  0.50400001928E-02 0. -1.
    10030    2    1    2    0    0  0.00000000000E+00  0.00000000000E+00  0.22448090716E+04  0.27265801995E+04  0.15476019568E+04 0.  0.
        1    1    3    3  502    0 -0.34636941684E+03 -0.19443724802E+03 -0.47562278761E+02  0.40004973032E+03  0.50400001928E-02 0. -1.
       -1    1    3    3    0  502  0.34636941684E+03  0.19443724802E+03  0.22923713503E+04  0.23265304692E+04  0.50400001928E-02 0.  1.
</event>
<event>
 5   0  0.5035495E-04  0.1717723E+04  0.7818609E-02  0.8751320E-01
       -1   -1    0    0    0  501  0.00000000000E+00  0.00000000000E+00  0.68234930316E+03  0.68234930318E+03  0.50400001928E-02 0. -1.
        1   -1    0    0  501    0  0.00000000000E+00  0.00000000000E+00 -0.10810342146E+04  0.10810342146E+04  0.50400001928E-02 0.  1.
    10030    2    1    2    0    0  0.00000000000E+00  0.00000000000E+00 -0.39868491139E+03  0.17633835177E+04  0.17177228450E+04 0.  0.
        4    1    3    3  502    0 -0.39857860531E+03  0.18228437438E+03  0.55890419535E+03  0.71025911485E+03  0.12699999809E+01 0. -1.
       -4    1    3    3    0  502  0.39857860531E+03 -0.18228437438E+03 -0.95758910673E+03  0.10531244029E+04  0.12699999809E+01 0.  1.
</event>
<event>
 5   0  0.9284971E-04  0.1680689E+04  0.7818609E-02  0.8772455E-01
        2   -1    0    0  501    0  0.00000000000E+00  0.00000000000E+00  0.25431847162E+04  0.25431847162E+04  0.25500000920E-02 0. -1.
       -2   -1    0    0    0  501  0.00000000000E+00  0.00000000000E+00 -0.27767518732E+03  0.27767518733E+03  0.25500000920E-02 0.  1.
    10030    2    1    2    0    0  0.00000000000E+00  0.00000000000E+00  0.22655095289E+04  0.28208599036E+04  0.16806894924E+04 0.  0.
        4    1    3    3  502    0 -0.68834029407E+03 -0.12804115438E+03  0.19127492515E+04  0.20368647991E+04  0.12699999809E+01 0. -1.
       -4    1    3    3    0  502  0.68834029407E+03  0.12804115438E+03  0.35276027743E+03  0.78399510450E+03  0.12699999809E+01 0.  1.
</event>
<event>
 5   0  0.5074133E-04  0.1695493E+04  0.7818609E-02  0.8763939E-01
       -1   -1    0    0    0  501  0.00000000000E+00  0.00000000000E+00  0.86389939018E+03  0.86389939019E+03  0.50400001928E-02 0. -1.
        1   -1    0    0  501    0  0.00000000000E+00  0.00000000000E+00 -0.83189602134E+03  0.83189602135E+03  0.50400001928E-02 0.  1.
    10030    2    1    2    0    0  0.00000000000E+00  0.00000000000E+00  0.32003368842E+02  0.16957954115E+04  0.16954933979E+04 0.  0.
        1    1    3    3  502    0 -0.77320596255E+03  0.18158943762E+03 -0.28044996715E+03  0.84230301464E+03  0.50400001928E-02 0.  1.
       -1    1    3    3    0  502  0.77320596255E+03 -0.18158943762E+03  0.31245333599E+03  0.85349239690E+03  0.50400001928E-02 0. -1.
</event>
<event>
 5   0  0.9625225E-04  0.1696478E+04  0.7818609E-02  0.8763376E-01
        2   -1    0    0  501    0  0.00000000000E+00  0.00000000000E+00  0.12832585093E+04  0.12832585093E+04  0.25500000920E-02 0.  1.
       -2   -1    0    0    0  501  0.00000000000E+00  0.00000000000E+00 -0.56068918215E+03  0.56068918216E+03  0.25500000920E-02 0. -1.
    10030    2    1    2    0    0  0.00000000000E+00  0.00000000000E+00  0.72256932719E+03  0.18439476915E+04  0.16964777206E+04 0.  0.
        1    1    3    3  502    0 -0.33561946334E+03 -0.79387135586E+02  0.12036121258E+04  0.12520482781E+04  0.50400001928E-02 0.  1.
       -1    1    3    3    0  502  0.33561946334E+03  0.79387135586E+02 -0.48104279857E+03  0.59189941337E+03  0.50400001928E-02 0. -1.
</event>
<event>
 5   0  0.3523125E-04  0.8780141E+03  0.7818609E-02  0.9453490E-01
       -3   -1    0    0    0  501  0.00000000000E+00  0.00000000000E+00  0.10592662291E+04  0.10592662339E+04  0.10100000352E+00 0. -1.
        3   -1    0    0  501    0  0.00000000000E+00  0.00000000000E+00 -0.18194404135E+03  0.18194406939E+03  0.10100000352E+00 0.  1.
    10030    2    1    2    0    0  0.00000000000E+00  0.00000000000E+00  0.87732218773E+03  0.12412103033E+04  0.87801412055E+03 0.  0.
        5    1    3    3  502    0  0.10841298741E+03  0.40267558418E+03  0.63251306837E+03  0.75762515375E+03  0.46999998093E+01 0. -1.
       -5    1    3    3    0  502 -0.10841298741E+03 -0.40267558418E+03  0.24480911936E+03  0.48358514954E+03  0.46999998093E+01 0.  1.
</event>
<event>
 5   0  0.5059689E-04  0.1730912E+04  0.7818609E-02  0.8743928E-01
        1   -1    0    0  501    0  0.00000000000E+00  0.00000000000E+00  0.18449807174E+04  0.18449807174E+04  0.50400001928E-02 0. -1.
       -1   -1    0    0    0  501  0.00000000000E+00  0.00000000000E+00 -0.40597398389E+03  0.40597398392E+03  0.50400001928E-02 0.  1.
    10030    2    1    2    0    0  0.00000000000E+00  0.00000000000E+00  0.14390067335E+04  0.22509547013E+04  0.17309120972E+04 0.  0.
        5    1    3    3  502    0  0.17704346255E+03 -0.76845480637E+03  0.11831713012E+04  0.14218943685E+04  0.46999998093E+01 0. -1.
       -5    1    3    3    0  502 -0.17704346255E+03  0.76845480637E+03  0.25583543225E+03  0.82906033282E+03  0.46999998093E+01 0.  1.
</event>
<event>
 5   0  0.9312096E-04  0.1726138E+04  0.7818609E-02  0.8746596E-01
       -2   -1    0    0    0  501  0.00000000000E+00  0.00000000000E+00  0.58071642008E+03  0.58071642009E+03  0.25500000920E-02 0. -1.
        2   -1    0    0  501    0  0.00000000000E+00  0.00000000000E+00 -0.12827053427E+04  0.12827053427E+04  0.25500000920E-02 0.  1.
    10030    2    1    2    0    0  0.00000000000E+00  0.00000000000E+00 -0.70198892263E+03  0.18634217628E+04  0.17261379489E+04 0.  0.
        3    1    3    3  502    0  0.81315571301E+03  0.17121439552E+03 -0.99318766337E+02  0.83689952227E+03  0.10100000352E+00 0.  1.
       -3    1    3    3    0  502 -0.81315571301E+03 -0.17121439552E+03 -0.60267015630E+03  0.10265222405E+04  0.10100000352E+00 0. -1.
</event>
<event>
 5   0  0.5074133E-04  0.1588199E+04  0.7818609E-02  0.8827831E-01
       -1   -1    0    0    0  501  0.00000000000E+00  0.00000000000E+00  0.11207031099E+04  0.11207031099E+04  0.50400001928E-02 0.  1.
        1   -1    0    0  501    0  0.00000000000E+00  0.00000000000E+00 -0.56267728737E+03  0.56267728739E+03  0.50400001928E-02 0. -1.
    10030    2    1    2    0    0  0.00000000000E+00  0.00000000000E+00  0.55802582256E+03  0.16833803973E+04  0.15881992140E+04 0.  0.
        1    1    3    3  502    0  0.60493723573E+03  0.47871688788E+03  0.79376326854E+02  0.77551242363E+03  0.50400001928E-02 0. -1.
       -1    1    3    3    0  502 -0.60493723573E+03 -0.47871688788E+03  0.47864949571E+03  0.90786797371E+03  0.50400001928E-02 0.  1.
</event>
<event>
 5   0  0.5059689E-04  0.1684388E+04  0.7818609E-02  0.8770319E-01
        1   -1    0    0  501    0  0.00000000000E+00  0.00000000000E+00  0.79961140713E+03  0.79961140715E+03  0.50400001928E-02 0.  1.
       -1   -1    0    0    0  501  0.00000000000E+00  0.00000000000E+00 -0.88704456385E+03  0.88704456387E+03  0.50400001928E-02 0. -1.
    10030    2    1    2    0    0  0.00000000000E+00  0.00000000000E+00 -0.87433156720E+02  0.16866559710E+04  0.16843882592E+04 0.  0.
        5    1    3    3  502    0  0.55554423423E+02  0.19737151746E+03 -0.86165597268E+03  0.88572846580E+03  0.46999998093E+01 0. -1.
       -5    1    3    3    0  502 -0.55554423423E+02 -0.19737151746E+03  0.77422281596E+03  0.80092750522E+03  0.46999998093E+01 0.  1.
</event>
<event>
 5   0  0.1007187E-03  0.1572769E+04  0.7818609E-02  0.8837454E-01
        2   -1    0    0  501    0  0.00000000000E+00  0.00000000000E+00  0.11538477226E+04  0.11538477226E+04  0.25500000920E-02 0.  1.
       -2   -1    0    0    0  501  0.00000000000E+00  0.00000000000E+00 -0.53594675757E+03  0.53594675758E+03  0.25500000920E-02 0. -1.
    10030    2    1    2    0    0  0.00000000000E+00  0.00000000000E+00  0.61790096498E+03  0.16897944801E+04  0.15727694626E+04 0.  0.
        5    1    3    3  502    0 -0.36854957142E+02  0.75773221473E+03  0.53138765090E+03  0.92623502559E+03  0.46999998093E+01 0.  1.
       -5    1    3    3    0  502  0.36854957142E+02 -0.75773221473E+03  0.86513314077E+02  0.76355945454E+03  0.46999998093E+01 0. -1.
</event>
<event>
 5   0  0.5074133E-04  0.1696346E+04  0.7818609E-02  0.8763451E-01
       -1   -1    0    0    0  501  0.00000000000E+00  0.00000000000E+00  0.86310168636E+03  0.86310168638E+03  0.50400001928E-02 0.  1.
        1   -1    0    0  501    0  0.00000000000E+00  0.00000000000E+00 -0.83350221935E+03  0.83350221936E+03  0.50400001928E-02 0. -1.
    10030    2    1    2    0    0  0.00000000000E+00  0.00000000000E+00  0.29599467015E+02  0.16966039057E+04  0.16963456854E+04 0.  0.
        1    1    3    3  502    0 -0.67481951311E+03  0.32372424381E+03 -0.38428282239E+03  0.84133943740E+03  0.50400001928E-02 0.  1.
       -1    1    3    3    0  502  0.67481951311E+03 -0.32372424381E+03  0.41388228940E+03  0.85526446835E+03  0.50400001928E-02 0. -1.
</event>
<event>
 5   0  0.5059689E-04  0.1343692E+04  0.7818609E-02  0.8995617E-01
        1   -1    0    0  501    0  0.00000000000E+00  0.00000000000E+00  0.16070977968E+04  0.16070977968E+04  0.50400001928E-02 0.  1.
       -1   -1    0    0    0  501  0.00000000000E+00  0.00000000000E+00 -0.28086451753E+03  0.28086451757E+03  0.50400001928E-02 0. -1.
    10030    2    1    2    0    0  0.00000000000E+00  0.00000000000E+00  0.13262332792E+04  0.18879623144E+04  0.13436915529E+04 0.  0.
        5    1    3    3  502    0  0.22139697075E+03 -0.31931466884E+02 -0.22698229462E+03  0.31871505973E+03  0.46999998093E+01 0. -1.
       -5    1    3    3    0  502 -0.22139697075E+03  0.31931466884E+02  0.15532155739E+04  0.15692472546E+04  0.46999998093E+01 0.  1.
</event>
<event>
 5   0  0.5009762E-04  0.1738717E+04  0.7818609E-02  0.8739586E-01
        1   -1    0    0  501    0  0.00000000000E+00  0.00000000000E+00  0.10586164169E+04  0.10586164169E+04  0.50400001928E-02 0.  1.
       -1   -1    0    0    0  501  0.00000000000E+00  0.00000000000E+00 -0.71393548329E+03  0.71393548330E+03  0.50400001928E-02 0. -1.
    10030    2    1    2    0    0  0.00000000000E+00  0.00000000000E+00  0.34468093357E+03  0.17725519002E+04  0.17387165648E+04 0.  0.
        3    1    3    3  502    0 -0.29758912016E+03 -0.80641774133E+03  0.39752047696E+02  0.86049351739E+03  0.10100000352E+00 0.  1.
       -3    1    3    3    0  502  0.29758912016E+03  0.80641774133E+03  0.30492888588E+03  0.91205838279E+03  0.10100000352E+00 0. -1.
</event>
<event>
 5   0  0.9284971E-04  0.1669452E+04  0.7818609E-02  0.8778981E-01
        2   -1    0    0  501    0  0.00000000000E+00  0.00000000000E+00  0.11392727537E+04  0.11392727537E+04  0.25500000920E-02 0. -1.
       -2   -1    0    0    0  501  0.00000000000E+00  0.00000000000E+00 -0.61158962604E+03  0.61158962605E+03  0.25500000920E-02 0.  1.
    10030    2    1    2    0    0  0.00000000000E+00  0.00000000000E+00  0.52768312766E+03  0.17508623798E+04  0.16694518830E+04 0.  0.
        4    1    3    3  502    0 -0.27801632353E+03  0.48373527163E+03  0.91498254243E+03  0.10716751164E+04  0.12699999809E+01 0. -1.
       -4    1    3    3    0  502  0.27801632353E+03 -0.48373527163E+03 -0.38729941477E+03  0.67918726339E+03  0.12699999809E+01 0.  1.
</event>
<event>
 5   0  0.4947006E-04  0.1655645E+04  0.7818609E-02  0.8787074E-01
       -1   -1    0    0    0  501  0.00000000000E+00  0.00000000000E+00  0.91635217457E+03  0.91635217458E+03  0.50400001928E-02 0.  1.
        1   -1    0    0  501    0  0.00000000000E+00  0.00000000000E+00 -0.74784537471E+03  0.74784537472E+03  0.50400001928E-02 0. -1.
    10030    2    1    2    0    0  0.00000000000E+00  0.00000000000E+00  0.16850679986E+03  0.16641975493E+04  0.16556445698E+04 0.  0.
        2    1    3    3  502    0  0.63946520627E+02 -0.82518274706E+03  0.10089221582E+03  0.83378352273E+03  0.25500000920E-02 0.  1.
       -2    1    3    3    0  502 -0.63946520627E+02  0.82518274706E+03  0.67614584043E+02  0.83041402658E+03  0.25500000920E-02 0. -1.
</event>
<event>
 5   0  0.3523125E-04  0.1686083E+04  0.7818609E-02  0.8769342E-01
       -3   -1    0    0    0  501  0.00000000000E+00  0.00000000000E+00  0.76343905741E+03  0.76343906409E+03  0.10100000352E+00 0.  1.
        3   -1    0    0  501    0  0.00000000000E+00  0.00000000000E+00 -0.93094403400E+03  0.93094403948E+03  0.10100000352E+00 0. -1.
    10030    2    1    2    0    0  0.00000000000E+00  0.00000000000E+00 -0.16750497659E+03  0.16943831036E+04  0.16860830894E+04 0.  0.
        1    1    3    3  502    0  0.27750055076E+03  0.78658688680E+03  0.39298475405E+02  0.83502685966E+03  0.50400001928E-02 0.  1.
       -1    1    3    3    0  502 -0.27750055076E+03 -0.78658688680E+03 -0.20680345199E+03  0.85935624391E+03  0.50400001928E-02 0. -1.
</event>
<event>
 5   0  0.9625225E-04  0.1742043E+04  0.7818609E-02  0.8737742E-01
        2   -1    0    0  501    0  0.00000000000E+00  0.00000000000E+00  0.12577841484E+04  0.12577841484E+04  0.25500000920E-02 0.  1.
       -2   -1    0    0    0  501  0.00000000000E+00  0.00000000000E+00 -0.60318650092E+03  0.60318650093E+03  0.25500000920E-02 0. -1.
    10030    2    1    2    0    0  0.00000000000E+00  0.00000000000E+00  0.65459764743E+03  0.18609706493E+04  0.17420429609E+04 0.  0.
        1    1    3    3  502    0 -0.12873380869E+03 -0.58062445729E+03 -0.35252773815E+03  0.69135588527E+03  0.50400001928E-02 0. -1.
       -1    1    3    3    0  502  0.12873380869E+03  0.58062445729E+03  0.10071253856E+04  0.11696147640E+04  0.50400001928E-02 0.  1.
</event>
<event>
 5   0  0.9284971E-04  0.1700634E+04  0.7818609E-02  0.8761003E-01
        2   -1    0    0  501    0  0.00000000000E+00  0.00000000000E+00  0.85121722932E+03  0.85121722933E+03  0.25500000920E-02 0. -1.
       -2   -1    0    0    0  501  0.00000000000E+00  0.00000000000E+00 -0.84941747353E+03  0.84941747353E+03  0.25500000920E-02 0.  1.
    10030    2    1    2    0    0  0.00000000000E+00  0.00000000000E+00  0.17997557977E+01  0.17006347029E+04  0.17006337505E+04 0.  0.
        4    1    3    3  502    0 -0.67061518590E+03 -0.43829569760E+03 -0.28407278800E+03  0.85001576920E+03  0.12699999809E+01 0.  1.
       -4    1    3    3    0  502  0.67061518590E+03  0.43829569760E+03  0.28587254380E+03  0.85061893366E+03  0.12699999809E+01 0. -1.
</event>
<event>
 5   0  0.9284971E-04  0.1655518E+04  0.7818609E-02  0.8787149E-01
        2   -1    0    0  501    0  0.00000000000E+00  0.00000000000E+00  0.10973655181E+04  0.10973655181E+04  0.25500000920E-02 0. -1.
       -2   -1    0    0    0  501  0.00000000000E+00  0.00000000000E+00 -0.62439100190E+03  0.62439100191E+03  0.25500000920E-02 0.  1.
    10030    2    1    2    0    0  0.00000000000E+00  0.00000000000E+00  0.47297451619E+03  0.17217565200E+04  0.16555182334E+04 0.  0.
        4    1    3    3  502    0 -0.38344948975E+03 -0.65832282530E+03 -0.10013107873E+03  0.76840763878E+03  0.12699999809E+01 0.  1.
       -4    1    3    3    0  502  0.38344948975E+03  0.65832282530E+03  0.57310559492E+03  0.95334888122E+03  0.12699999809E+01 0. -1.
</event>
<event>
 5   0  0.9610114E-04  0.1679798E+04  0.7818609E-02  0.8772971E-01
        2   -1    0    0  501    0  0.00000000000E+00  0.00000000000E+00  0.14176219827E+04  0.14176219827E+04  0.25500000920E-02 0.  1.
       -2   -1    0    0    0  501  0.00000000000E+00  0.00000000000E+00 -0.49761501557E+03  0.49761501558E+03  0.25500000920E-02 0. -1.
    10030    2    1    2    0    0  0.00000000000E+00  0.00000000000E+00  0.92000696718E+03  0.19152369983E+04  0.16797975890E+04 0.  0.
        2    1    3    3  502    0 -0.56581373031E+03 -0.27243553170E+03 -0.17589857080E+03  0.65215535231E+03  0.25500000920E-02 0. -1.
       -2    1    3    3    0  502  0.56581373031E+03  0.27243553170E+03  0.10959055380E+04  0.12630816460E+04  0.25500000920E-02 0.  1.
</event>
<event>
 5   0  0.9312096E-04  0.1709304E+04  0.7818609E-02  0.8756076E-01
        2   -1    0    0  501    0  0.00000000000E+00  0.00000000000E+00  0.15171650055E+04  0.15171650055E+04  0.25500000920E-02 0.  1.
       -2   -1    0    0    0  501  0.00000000000E+00  0.00000000000E+00 -0.48144416814E+03  0.48144416815E+03  0.25500000920E-02 0. -1.
    10030    2    1    2    0    0  0.00000000000E+00  0.00000000000E+00  0.10357208373E+04  0.19986091736E+04  0.17093042374E+04 0.  0.
        3    1    3    3  502    0  0.62858424434E+03 -0.11925503682E+03  0.11804156879E+04  0.13426545060E+04  0.10100000352E+00 0.  1.
       -3    1    3    3    0  502 -0.62858424434E+03  0.11925503682E+03 -0.14469485053E+03  0.65595466765E+03  0.10100000352E+00 0. -1.
</event>
<event>
 5   0  0.5009762E-04  0.1808199E+04  0.7818609E-02  0.8701951E-01
        1   -1    0    0  501    0  0.00000000000E+00  0.00000000000E+00  0.16059315708E+04  0.16059315708E+04  0.50400001928E-02 0.  1.
       -1   -1    0    0    0  501  0.00000000000E+00  0.00000000000E+00 -0.50898573846E+03  0.50898573848E+03  0.50400001928E-02 0. -1.
    10030    2    1    2    0    0  0.00000000000E+00  0.00000000000E+00  0.10969458324E+04  0.21149173093E+04  0.18081993989E+04 0.  0.
        3    1    3    3  502    0  0.28924403386E+03 -0.49255485464E+03  0.13681496126E+04  0.14826010146E+04  0.10100000352E+00 0.  1.
       -3    1    3    3    0  502 -0.28924403386E+03  0.49255485464E+03 -0.27120378020E+03  0.63231629470E+03  0.10100000352E+00 0. -1.
</event>
<event>
 5   0  0.5035495E-04  0.1731535E+04  0.7818609E-02  0.8743580E-01
        1   -1    0    0  501    0  0.00000000000E+00  0.00000000000E+00  0.13195429486E+04  0.13195429486E+04  0.50400001928E-02 0.  1.
       -1   -1    0    0    0  501  0.00000000000E+00  0.00000000000E+00 -0.56804016596E+03  0.56804016598E+03  0.50400001928E-02 0. -1.
    10030    2    1    2    0    0  0.00000000000E+00  0.00000000000E+00  0.75150278268E+03  0.18875831146E+04  0.17315350364E+04 0.  0.
        4    1    3    3  502    0 -0.72367326246E+03 -0.45922379906E+03  0.24240726336E+03  0.89070330787E+03  0.12699999809E+01 0.  1.
       -4    1    3    3    0  502  0.72367326246E+03  0.45922379906E+03  0.50909551932E+03  0.99687980675E+03  0.12699999809E+01 0. -1.
</event>
<event>
 5   0  0.9312096E-04  0.1711132E+04  0.7818609E-02  0.8755041E-01
       -2   -1    0    0    0  501  0.00000000000E+00  0.00000000000E+00  0.12621069104E+04  0.12621069104E+04  0.25500000920E-02 0. -1.
        2   -1    0    0  501    0  0.00000000000E+00  0.00000000000E+00 -0.57997727728E+03  0.57997727729E+03  0.25500000920E-02 0.  1.
    10030    2    1    2    0    0  0.00000000000E+00  0.00000000000E+00  0.68212963315E+03  0.18420841877E+04  0.17111321744E+04 0.  0.
        3    1    3    3  502    0 -0.33049684587E+03 -0.11058766568E+03 -0.50010055536E+03  0.60955588145E+03  0.10100000352E+00 0.  1.
       -3    1    3    3    0  502  0.33049684587E+03  0.11058766568E+03  0.11822301885E+04  0.12325283063E+04  0.10100000352E+00 0. -1.
</event>
<event>
 5   0  0.9610114E-04  0.1673753E+04  0.7818609E-02  0.8776477E-01
       -2   -1    0    0    0  501  0.00000000000E+00  0.00000000000E+00  0.39577173536E+03  0.39577173536E+03  0.25500000920E-02 0. -1.
        2   -1    0    0  501    0  0.00000000000E+00  0.00000000000E+00 -0.17696116206E+04  0.17696116206E+04  0.25500000920E-02 0.  1.
    10030    2    1    2    0    0  0.00000000000E+00  0.00000000000E+00 -0.13738398852E+04  0.21653833560E+04  0.16737529830E+04 0.  0.
        2    1    3    3  502    0 -0.23496148767E+03 -0.22259234353E+03 -0.16853639049E+04  0.17161601743E+04  0.25500000920E-02 0.  1.
       -2    1    3    3    0  502  0.23496148767E+03  0.22259234353E+03  0.31152401964E+03  0.44922318163E+03  0.25500000920E-02 0. -1.
</event>
<event>
 5   0  0.5074133E-04  0.1772005E+04  0.7818609E-02  0.8721330E-01
        1   -1    0    0  501    0  0.00000000000E+00  0.00000000000E+00  0.21889566537E+04  0.21889566537E+04  0.50400001928E-02 0. -1.
       -1   -1    0    0    0  501  0.00000000000E+00  0.00000000000E+00 -0.35861840142E+03  0.35861840146E+03  0.50400001928E-02 0.  1.
    10030    2    1    2    0    0  0.00000000000E+00  0.00000000000E+00  0.18303382523E+04  0.25475750552E+04  0.17720046682E+04 0.  0.
        1    1    3    3  502    0  0.28194133363E+03 -0.42549807485E+03 -0.12599348393E+03  0.52575078253E+03  0.50400001928E-02 0.  1.
       -1    1    3    3    0  502 -0.28194133363E+03  0.42549807485E+03  0.19563317362E+04  0.20218242727E+04  0.50400001928E-02 0. -1.
</event>
<event>
 5   0  0.9625225E-04  0.1619438E+04  0.7818609E-02  0.8808695E-01
        2   -1    0    0  501    0  0.00000000000E+00  0.00000000000E+00  0.63992636263E+03  0.63992636264E+03  0.25500000920E-02 0. -1.
       -2   -1    0    0    0  501  0.00000000000E+00  0.00000000000E+00 -0.10245627563E+04  0.10245627563E+04  0.25500000920E-02 0.  1.
    10030    2    1    2    0    0  0.00000000000E+00  0.00000000000E+00 -0.38463639364E+03  0.16644891189E+04  0.16194378258E+04 0.  0.
        1    1    3    3  502    0 -0.33061489921E+03  0.42759426999E+03  0.42736521766E+03  0.68904578992E+03  0.50400001928E-02 0. -1.
       -1    1    3    3    0  502  0.33061489921E+03 -0.42759426999E+03 -0.81200161130E+03  0.97544332900E+03  0.50400001928E-02 0.  1.
</event>
<event>
 5   0  0.4947006E-04  0.1618753E+04  0.7818609E-02  0.8809109E-01
        1   -1    0    0  501    0  0.00000000000E+00  0.00000000000E+00  0.10359608670E+04  0.10359608670E+04  0.50400001928E-02 0.  1.
       -1   -1    0    0    0  501  0.00000000000E+00  0.00000000000E+00 -0.63235064794E+03  0.63235064796E+03  0.50400001928E-02 0. -1.
    10030    2    1    2    0    0  0.00000000000E+00  0.00000000000E+00  0.40361021909E+03  0.16683115150E+04  0.16187532555E+04 0.  0.
        2    1    3    3  502    0  0.20569007708E+03 -0.12224160580E+03  0.99867726715E+03  0.10269409437E+04  0.25500000920E-02 0.  1.
       -2    1    3    3    0  502 -0.20569007708E+03  0.12224160580E+03 -0.59506704805E+03  0.64137057127E+03  0.25500000920E-02 0. -1.
</event>
<event>
 5   0  0.1007187E-03  0.1636046E+04  0.7818609E-02  0.8798704E-01
       -2   -1    0    0    0  501  0.00000000000E+00  0.00000000000E+00  0.73668511512E+03  0.73668511512E+03  0.25500000920E-02 0. -1.
        2   -1    0    0  501    0  0.00000000000E+00  0.00000000000E+00 -0.90834195238E+03  0.90834195238E+03  0.25500000920E-02 0.  1.
    10030    2    1    2    0    0  0.00000000000E+00  0.00000000000E+00 -0.17165683726E+03  0.16450270675E+04  0.16360464489E+04 0.  0.
        5    1    3    3  502    0  0.10652332185E+03 -0.48572806319E+03  0.56724510129E+03  0.75436600162E+03  0.46999998093E+01 0. -1.
       -5    1    3    3    0  502 -0.10652332185E+03  0.48572806319E+03 -0.73890193856E+03  0.89066106588E+03  0.46999998093E+01 0.  1.
</event>
<event>
 5   0  0.4947006E-04  0.1693229E+04  0.7818609E-02  0.8765236E-01
       -1   -1    0    0    0  501  0.00000000000E+00  0.00000000000E+00  0.10776530619E+04  0.10776530619E+04  0.50400001928E-02 0. -1.
        1   -1    0    0  501    0  0.00000000000E+00  0.00000000000E+00 -0.66510839210E+03  0.66510839212E+03  0.50400001928E-02 0.  1.
    10030    2    1    2    0    0  0.00000000000E+00  0.00000000000E+00  0.41254466976E+03  0.17427614540E+04  0.16932289807E+04 0.  0.
        2    1    3    3  502    0  0.73399848818E+03  0.15553140407E+02  0.64022242180E+03  0.97410493798E+03  0.25500000920E-02 0. -1.
       -2    1    3    3    0  502 -0.73399848818E+03 -0.15553140407E+02 -0.22767775204E+03  0.76865651601E+03  0.25500000920E-02 0.  1.
</event>
<event>
 5   0  0.5009762E-04  0.1756802E+04  0.7818609E-02  0.8729615E-01
        1   -1    0    0  501    0  0.00000000000E+00  0.00000000000E+00  0.70299462370E+03  0.70299462372E+03  0.50400001928E-02 0. -1.
       -1   -1    0    0    0  501  0.00000000000E+00  0.00000000000E+00 -0.10975734252E+04  0.10975734252E+04  0.50400001928E-02 0.  1.
    10030    2    1    2    0    0  0.00000000000E+00  0.00000000000E+00 -0.39457880153E+03  0.18005680490E+04  0.17568018865E+04 0.  0.
        3    1    3    3  502    0 -0.78984618322E+03 -0.27169735869E+03 -0.47592943785E+03  0.96134556112E+03  0.10100000352E+00 0.  1.
       -3    1    3    3    0  502  0.78984618322E+03  0.27169735869E+03  0.81350636328E+02  0.83922248784E+03  0.10100000352E+00 0. -1.
</event>
<event>
 5   0  0.5059689E-04  0.1551305E+04  0.7818609E-02  0.8851035E-01
        1   -1    0    0  501    0  0.00000000000E+00  0.00000000000E+00  0.50082614641E+03  0.50082614644E+03  0.50400001928E-02 0.  1.
       -1   -1    0    0    0  501  0.00000000000E+00  0.00000000000E+00 -0.12012887597E+04  0.12012887597E+04  0.50400001928E-02 0. -1.
    10030    2    1    2    0    0  0.00000000000E+00  0.00000000000E+00 -0.70046261325E+03  0.17021149061E+04  0.15513050252E+04 0.  0.
        5    1    3    3  502    0 -0.49061526579E+03 -0.51488839063E+03 -0.68983895264E+03  0.99081444499E+03  0.46999998093E+01 0. -1.
       -5    1    3    3    0  502  0.49061526579E+03  0.51488839063E+03 -0.10623660609E+02  0.71130046112E+03  0.46999998093E+01 0.  1.
</event>
<event>
 5   0  0.9625225E-04  0.1094945E+04  0.7818609E-02  0.9210133E-01
       -2   -1    0    0    0  501  0.00000000000E+00  0.00000000000E+00  0.27214629246E+03  0.27214629247E+03  0.25500000920E-02 0.  1.
        2   -1    0    0  501    0  0.00000000000E+00  0.00000000000E+00 -0.11013424244E+04  0.11013424244E+04  0.25500000920E-02 0. -1.
    10030    2    1    2    0    0  0.00000000000E+00  0.00000000000E+00 -0.82919613191E+03  0.13734887168E+04  0.10949452179E+04 0.  0.
        1    1    3    3  502    0  0.14690088674E+03 -0.33076065870E+03 -0.92988197810E+03  0.99782913221E+03  0.50400001928E-02 0. -1.
       -1    1    3    3    0  502 -0.14690088674E+03  0.33076065870E+03  0.10068584619E+03  0.37565958463E+03  0.50400001928E-02 0.  1.
</event>
<event>
 5   0  0.5009762E-04  0.1714676E+04  0.7818609E-02  0.8753038E-01
       -1   -1    0    0    0  501  0.00000000000E+00  0.00000000000E+00  0.42179089210E+03  0.42179089213E+03  0.50400001928E-02 0. -1.
        1   -1    0    0  501    0  0.00000000000E+00  0.00000000000E+00 -0.17426379895E+04  0.17426379895E+04  0.50400001928E-02 0.  1.
    10030    2    1    2    0    0  0.00000000000E+00  0.00000000000E+00 -0.13208470974E+04  0.21644288817E+04  0.17146764502E+04 0.  0.
        3    1    3    3  502    0  0.80351673596E+03 -0.20272566771E+03 -0.93781856014E+03  0.12514953069E+04  0.10100000352E+00 0.  1.
       -3    1    3    3    0  502 -0.80351673596E+03  0.20272566771E+03 -0.38302853730E+03  0.91293357475E+03  0.10100000352E+00 0. -1.
</event>
<event>
 5   0  0.9610114E-04  0.1675253E+04  0.7818609E-02  0.8775606E-01
        2   -1    0    0  501    0  0.00000000000E+00  0.00000000000E+00  0.78630613831E+03  0.78630613831E+03  0.25500000920E-02 0. -1.
       -2   -1    0    0    0  501  0.00000000000E+00  0.00000000000E+00 -0.89229600392E+03  0.89229600393E+03  0.25500000920E-02 0.  1.
    10030    2    1    2    0    0  0.00000000000E+00  0.00000000000E+00 -0.10598986562E+03  0.16786021422E+04  0.16752526079E+04 0.  0.
        2    1    3    3  502    0  0.20585074483E+03 -0.65620247915E+02  0.75790511479E+03  0.78809942845E+03  0.25500000920E-02 0. -1.
       -2    1    3    3    0  502 -0.20585074483E+03  0.65620247915E+02 -0.86389498041E+03  0.89050271379E+03  0.25500000920E-02 0.  1.
</event>
<event>
 5   0  0.5035495E-04  0.1651423E+04  0.7818609E-02  0.8789565E-01
        1   -1    0    0  501    0  0.00000000000E+00  0.00000000000E+00  0.74694491015E+03  0.74694491017E+03  0.50400001928E-02 0.  1.
       -1   -1    0    0    0  501  0.00000000000E+00  0.00000000000E+00 -0.91278361518E+03  0.91278361519E+03  0.50400001928E-02 0. -1.
    10030    2    1    2    0    0  0.00000000000E+00  0.00000000000E+00 -0.16583870502E+03  0.16597285254E+04  0.16514225086E+04 0.  0.
        4    1    3    3  502    0  0.75011080868E+03  0.34466607267E+03 -0.64482177904E+02  0.82802203540E+03  0.12699999809E+01 0.  1.
       -4    1    3    3    0  502 -0.75011080868E+03 -0.34466607267E+03 -0.10135652712E+03  0.83170648996E+03  0.12699999809E+01 0. -1.
</event>
<event>
 5   0  0.5059689E-04  0.1280927E+04  0.7818609E-02  0.9044829E-01
       -1   -1    0    0    0  501  0.00000000000E+00  0.00000000000E+00  0.42101284171E+03  0.42101284174E+03  0.50400001928E-02 0.  1.
        1   -1    0    0  501    0  0.00000000000E+00  0.00000000000E+00 -0.97430100439E+03  0.97430100440E+03  0.50400001928E-02 0. -1.
    10030    2    1    2    0    0  0.00000000000E+00  0.00000000000E+00 -0.55328816268E+03  0.13953138461E+04  0.12809265936E+04 0.  0.
        5    1    3    3  502    0 -0.26561057421E+03  0.33322584138E+03  0.24415396518E+03  0.49114324510E+03  0.46999998093E+01 0.  1.
       -5    1    3    3    0  502  0.26561057421E+03 -0.33322584138E+03 -0.79744212786E+03  0.90417060104E+03  0.46999998093E+01 0. -1.
</event>
<event>
 5   0  0.1007187E-03  0.1637420E+04  0.7818609E-02  0.8797884E-01
       -2   -1    0    0    0  501  0.00000000000E+00  0.00000000000E+00  0.63580762310E+03  0.63580762311E+03  0.25500000920E-02 0.  1.
        2   -1    0    0  501    0  0.00000000000E+00  0.00000000000E+00 -0.10542280231E+04  0.10542280231E+04  0.25500000920E-02 0. -1.
    10030    2    1    2    0    0  0.00000000000E+00  0.00000000000E+00 -0.41842040004E+03  0.16900356463E+04  0.16374201826E+04 0.  0.
        5    1    3    3  502    0 -0.66734183517E+03  0.16446836913E+03  0.24990828047E+03  0.73134889626E+03  0.46999998093E+01 0.  1.
       -5    1    3    3    0  502  0.66734183517E+03 -0.16446836913E+03 -0.66832868051E+03  0.95868674999E+03  0.46999998093E+01 0. -1.
</event>
<event>
 5   0  0.5059689E-04  0.1686236E+04  0.7818609E-02  0.8769254E-01
        1   -1    0    0  501    0  0.00000000000E+00  0.00000000000E+00  0.82366337039E+03  0.82366337040E+03  0.50400001928E-02 0.  1.
       -1   -1    0    0    0  501  0.00000000000E+00  0.00000000000E+00 -0.86303231173E+03  0.86303231174E+03  0.50400001928E-02 0. -1.
    10030    2    1    2    0    0  0.00000000000E+00  0.00000000000E+00 -0.39368941343E+02  0.16866956821E+04  0.16862361669E+04 0.  0.
        5    1    3    3  502    0 -0.29733134080E+02  0.46742656577E+03  0.68154462697E+03  0.82698054524E+03  0.46999998093E+01 0.  1.
       -5    1    3    3    0  502  0.29733134080E+02 -0.46742656577E+03 -0.72091356832E+03  0.85971513691E+03  0.46999998093E+01 0. -1.
</event>
<event>
 5   0  0.4947006E-04  0.1713878E+04  0.7818609E-02  0.8753489E-01
       -1   -1    0    0    0  501  0.00000000000E+00  0.00000000000E+00  0.11378366263E+04  0.11378366263E+04  0.50400001928E-02 0.  1.
        1   -1    0    0  501    0  0.00000000000E+00  0.00000000000E+00 -0.64538639639E+03  0.64538639641E+03  0.50400001928E-02 0. -1.
    10030    2    1    2    0    0  0.00000000000E+00  0.00000000000E+00  0.49245022988E+03  0.17832230227E+04  0.17138778019E+04 0.  0.
        2    1    3    3  502    0 -0.63759558323E+03 -0.27122085988E+03 -0.27841428087E+03  0.74672846094E+03  0.25500000920E-02 0. -1.
       -2    1    3    3    0  502  0.63759558323E+03  0.27122085988E+03  0.77086451075E+03  0.10364945617E+04  0.25500000920E-02 0.  1.
</event>
<event>
 5   0  0.9625225E-04  0.1617286E+04  0.7818609E-02  0.8809998E-01
       -2   -1    0    0    0  501  0.00000000000E+00  0.00000000000E+00  0.66775698874E+03  0.66775698875E+03  0.25500000920E-02 0.  1.
        2   -1    0    0  501    0  0.00000000000E+00  0.00000000000E+00 -0.97925428824E+03  0.97925428825E+03  0.25500000920E-02 0. -1.
    10030    2    1    2    0    0  0.00000000000E+00  0.00000000000E+00 -0.31149729950E+03  0.16470112770E+04  0.16172864864E+04 0.  0.
        1    1    3    3  502    0  0.51550051916E+02  0.55285004159E+03  0.44293661201E+03  0.71027700133E+03  0.50400001928E-02 0.  1.
       -1    1    3    3    0  502 -0.51550051916E+02 -0.55285004159E+03 -0.75443391151E+03  0.93673427566E+03  0.50400001928E-02 0. -1.
</event>
<event>
 5   0  0.5035495E-04  0.1798257E+04  0.7818609E-02  0.8707227E-01
        1   -1    0    0  501    0  0.00000000000E+00  0.00000000000E+00  0.45510373998E+03  0.45510374001E+03  0.50400001928E-02 0.  1.
       -1   -1    0    0    0  501  0.00000000000E+00  0.00000000000E+00 -0.17763684011E+04  0.17763684011E+04  0.50400001928E-02 0. -1.
    10030    2    1    2    0    0  0.00000000000E+00  0.00000000000E+00 -0.13212646611E+04  0.22314721411E+04  0.17982568259E+04 0.  0.
        4    1    3    3  502    0 -0.22300532317E+03  0.22330049796E+03 -0.17053827993E+04  0.17343375080E+04  0.12699999809E+01 0. -1.
       -4    1    3    3    0  502  0.22300532317E+03 -0.22330049796E+03  0.38411813814E+03  0.49713463317E+03  0.12699999809E+01 0.  1.
</event>
<event>
 5   0  0.9625225E-04  0.1746977E+04  0.7818609E-02  0.8735016E-01
        2   -1    0    0  501    0  0.00000000000E+00  0.00000000000E+00  0.12080920917E+04  0.12080920917E+04  0.25500000920E-02 0. -1.
       -2   -1    0    0    0  501  0.00000000000E+00  0.00000000000E+00 -0.63155976933E+03  0.63155976933E+03  0.25500000920E-02 0.  1.
    10030    2    1    2    0    0  0.00000000000E+00  0.00000000000E+00  0.57653232234E+03  0.18396518610E+04  0.17469772325E+04 0.  0.
        1    1    3    3  502    0 -0.21455585950E+03 -0.42142821750E+02  0.11788066907E+04  0.11989142790E+04  0.50400001928E-02 0. -1.
       -1    1    3    3    0  502  0.21455585950E+03  0.42142821750E+02 -0.60227436834E+03  0.64073758205E+03  0.50400001928E-02 0.  1.
</event>
<event>
 5   0  0.9625225E-04  0.1767205E+04  0.7818609E-02  0.8723937E-01
       -2   -1    0    0    0  501  0.00000000000E+00  0.00000000000E+00  0.11439685156E+04  0.11439685156E+04  0.25500000920E-02 0. -1.
        2   -1    0    0  501    0  0.00000000000E+00  0.00000000000E+00 -0.68249515155E+03  0.68249515156E+03  0.25500000920E-02 0.  1.
    10030    2    1    2    0    0  0.00000000000E+00  0.00000000000E+00  0.46147336404E+03  0.18264636672E+04  0.17672045331E+04 0.  0.
        1    1    3    3  502    0 -0.47810245691E+03  0.65040305191E+03 -0.14068407726E+03  0.81938885693E+03  0.50400001928E-02 0.  1.
       -1    1    3    3    0  502  0.47810245691E+03 -0.65040305191E+03  0.60215744130E+03  0.10070748102E+04  0.50400001928E-02 0. -1.
</event>
<event>
 5   0  0.5035495E-04  0.1650261E+04  0.7818609E-02  0.8790252E-01
       -1   -1    0    0    0  501  0.00000000000E+00  0.00000000000E+00  0.48597161490E+03  0.48597161493E+03  0.50400001928E-02 0. -1.
        1   -1    0    0  501    0  0.00000000000E+00  0.00000000000E+00 -0.14009886395E+04  0.14009886395E+04  0.50400001928E-02 0.  1.
    10030    2    1    2    0    0  0.00000000000E+00  0.00000000000E+00 -0.91501702457E+03  0.18869602544E+04  0.16502614479E+04 0.  0.
        4    1    3    3  502    0  0.45041913625E+03  0.64452500804E+03 -0.17153821408E+03  0.80480858351E+03  0.12699999809E+01 0. -1.
       -4    1    3    3    0  502 -0.45041913625E+03 -0.64452500804E+03 -0.74347881048E+03  0.10821516709E+04  0.12699999809E+01 0.  1.
</event>
<event>
 5   0  0.5009762E-04  0.1698545E+04  0.7818609E-02  0.8762195E-01
        1   -1    0    0  501    0  0.00000000000E+00  0.00000000000E+00  0.59188423644E+03  0.59188423647E+03  0.50400001928E-02 0.  1.
       -1   -1    0    0    0  501  0.00000000000E+00  0.00000000000E+00 -0.12185891595E+04  0.12185891595E+04  0.50400001928E-02 0. -1.
    10030    2    1    2    0    0  0.00000000000E+00  0.00000000000E+00 -0.62670492305E+03  0.18104733960E+04  0.16985449234E+04 0.  0.
        3    1    3    3  502    0 -0.61046454859E+03 -0.94525505100E+02  0.30785745332E+03  0.69020160675E+03  0.10100000352E+00 0.  1.
       -3    1    3    3    0  502  0.61046454859E+03  0.94525505100E+02 -0.93456237637E+03  0.11202717892E+04  0.10100000352E+00 0. -1.
</event>
<event>
 5   0  0.9284971E-04  0.1656987E+04  0.7818609E-02  0.8786284E-01
       -2   -1    0    0    0  501  0.00000000000E+00  0.00000000000E+00  0.69944250264E+03  0.69944250265E+03  0.25500000920E-02 0. -1.
        2   -1    0    0  501    0  0.00000000000E+00  0.00000000000E+00 -0.98135521370E+03  0.98135521370E+03  0.25500000920E-02 0.  1.
    10030    2    1    2    0    0  0.00000000000E+00  0.00000000000E+00 -0.28191271106E+03  0.16807977164E+04  0.16569870810E+04 0.  0.
        4    1    3    3  502    0 -0.58275257902E+03 -0.57570090351E+03 -0.26670481489E+03  0.86149008691E+03  0.12699999809E+01 0. -1.
       -4    1    3    3    0  502  0.58275257902E+03  0.57570090351E+03 -0.15207896166E+02  0.81930762944E+03  0.12699999809E+01 0.  1.
</event>
<event>
 5   0  0.5035495E-04  0.1358777E+04  0.7818609E-02  0.8984210E-01
        1   -1    0    0  501    0  0.00000000000E+00  0.00000000000E+00  0.12498776855E+04  0.12498776855E+04  0.50400001928E-02 0.  1.
       -1   -1    0    0    0  501  0.00000000000E+00  0.00000000000E+00 -0.36929137258E+03  0.36929137261E+03  0.50400001928E-02 0. -1.
    10030    2    1    2    0    0  0.00000000000E+00  0.00000000000E+00  0.88058631289E+03  0.16191690581E+04  0.13587774594E+04 0.  0.
        4    1    3    3  502    0  0.49787726659E+03 -0.13967623702E+03  0.96539297903E+03  0.10951604634E+04  0.12699999809E+01 0.  1.
       -4    1    3    3    0  502 -0.49787726659E+03  0.13967623702E+03 -0.84806666133E+02  0.52400859468E+03  0.12699999809E+01 0. -1.
</event>
<event>
 5   0  0.5074133E-04  0.1725688E+04  0.7818609E-02  0.8746848E-01
        1   -1    0    0  501    0  0.00000000000E+00  0.00000000000E+00  0.12384051048E+04  0.12384051048E+04  0.50400001928E-02 0.  1.
       -1   -1    0    0    0  501  0.00000000000E+00  0.00000000000E+00 -0.60117629732E+03  0.60117629734E+03  0.50400001928E-02 0. -1.
    10030    2    1    2    0    0  0.00000000000E+00  0.00000000000E+00  0.63722880745E+03  0.18395814021E+04  0.17256880315E+04 0.  0.
        1    1    3    3  502    0 -0.67485531057E+03  0.14265571748E+03 -0.23397973668E+03  0.72837274876E+03  0.50400001928E-02 0. -1.
       -1    1    3    3    0  502  0.67485531057E+03 -0.14265571748E+03  0.87120854413E+03  0.11112086534E+04  0.50400001928E-02 0.  1.
</event>
<event>
 5   0  0.5059689E-04  0.1733338E+04  0.7818609E-02  0.8742576E-01
       -1   -1    0    0    0  501  0.00000000000E+00  0.00000000000E+00  0.23589927754E+03  0.23589927760E+03  0.50400001928E-02 0. -1.
        1   -1    0    0  501    0  0.00000000000E+00  0.00000000000E+00 -0.31840500643E+04  0.31840500643E+04  0.50400001928E-02 0.  1.
    10030    2    1    2    0    0  0.00000000000E+00  0.00000000000E+00 -0.29481507867E+04  0.34199493419E+04  0.17333379473E+04 0.  0.
        5    1    3    3  502    0 -0.40814786636E+03  0.38593883564E+03 -0.17192783641E+03  0.58746466839E+03  0.46999998093E+01 0. -1.
       -5    1    3    3    0  502  0.40814786636E+03 -0.38593883564E+03 -0.27762229503E+04  0.28324846735E+04  0.46999998093E+01 0.  1.
</event>
<event>
 5   0  0.9284971E-04  0.1733678E+04  0.7818609E-02  0.8742386E-01
       -2   -1    0    0    0  501  0.00000000000E+00  0.00000000000E+00  0.52468137931E+03  0.52468137932E+03  0.25500000920E-02 0. -1.
        2   -1    0    0  501    0  0.00000000000E+00  0.00000000000E+00 -0.14321268135E+04  0.14321268135E+04  0.25500000920E-02 0.  1.
    10030    2    1    2    0    0  0.00000000000E+00  0.00000000000E+00 -0.90744543416E+03  0.19568081928E+04  0.17336784844E+04 0.  0.
        4    1    3    3  502    0  0.13185712366E+02  0.84443437754E+03 -0.67422570690E+03  0.10806596123E+04  0.12699999809E+01 0. -1.
       -4    1    3    3    0  502 -0.13185712366E+02 -0.84443437754E+03 -0.23321972726E+03  0.87614858047E+03  0.12699999809E+01 0.  1.
</event>
<event>
 5   0  0.9610114E-04  0.1638846E+04  0.7818609E-02  0.8797032E-01
        2   -1    0    0  501    0  0.00000000000E+00  0.00000000000E+00  0.71668206678E+03  0.71668206679E+03  0.25500000920E-02 0.  1.
       -2   -1    0    0    0  501  0.00000000000E+00  0.00000000000E+00 -0.93689267348E+03  0.93689267348E+03  0.25500000920E-02 0. -1.
    10030    2    1    2    0    0  0.00000000000E+00  0.00000000000E+00 -0.22021060670E+03  0.16535747403E+04  0.16388461521E+04 0.  0.
        2    1    3    3  502    0  0.78032914386E+03  0.19574550486E+03 -0.26714566298E+03  0.84770082027E+03  0.25500000920E-02 0. -1.
       -2    1    3    3    0  502 -0.78032914386E+03 -0.19574550486E+03  0.46935056284E+02  0.80587392000E+03  0.25500000920E-02 0.  1.
</event>
<event>
 5   0  0.5059689E-04  0.1655988E+04  0.7818609E-02  0.8786872E-01
        1   -1    0    0  501    0  0.00000000000E+00  0.00000000000E+00  0.47555001307E+03  0.47555001310E+03  0.50400001928E-02 0.  1.
       -1   -1    0    0    0  501  0.00000000000E+00  0.00000000000E+00 -0.14416439618E+04  0.14416439618E+04  0.50400001928E-02 0. -1.
    10030    2    1    2    0    0  0.00000000000E+00  0.00000000000E+00 -0.96609394872E+03  0.19171939749E+04  0.16559876871E+04 0.  0.
        5    1    3    3  502    0 -0.24618390039E+03 -0.74396177984E+03 -0.79254573139E+03  0.11145566244E+04  0.46999998093E+01 0. -1.
       -5    1    3    3    0  502  0.24618390039E+03  0.74396177984E+03 -0.17354821733E+03  0.80263735050E+03  0.46999998093E+01 0.  1.
</event>
<event>
 5   0  0.5074133E-04  0.1742154E+04  0.7818609E-02  0.8737681E-01
       -1   -1    0    0    0  501  0.00000000000E+00  0.00000000000E+00  0.11604138684E+04  0.11604138684E+04  0.50400001928E-02 0.  1.
        1   -1    0    0  501    0  0.00000000000E+00  0.00000000000E+00 -0.65388312812E+03  0.65388312814E+03  0.50400001928E-02 0. -1.
    10030    2    1    2    0    0  0.00000000000E+00  0.00000000000E+00  0.50653074027E+03  0.18142969965E+04  0.17421538970E+04 0.  0.
        1    1    3    3  502    0 -0.13568664180E+03 -0.40673999238E+03 -0.53637279032E+03  0.68669065553E+03  0.50400001928E-02 0. -1.
       -1    1    3    3    0  502  0.13568664180E+03  0.40673999238E+03  0.10429035306E+04  0.11276063410E+04  0.50400001928E-02 0.  1.
</event>
<event>
 5   0  0.9312096E-04  0.1683170E+04  0.7818609E-02  0.8771022E-01
       -2   -1    0    0    0  501  0.00000000000E+00  0.00000000000E+00  0.10023479194E+04  0.10023479194E+04  0.25500000920E-02 0.  1.
        2   -1    0    0  501    0  0.00000000000E+00  0.00000000000E+00 -0.70660607681E+03  0.70660607682E+03  0.25500000920E-02 0. -1.
    10030    2    1    2    0    0  0.00000000000E+00  0.00000000000E+00  0.29574184263E+03  0.17089539963E+04  0.16831697846E+04 0.  0.
        3    1    3    3  502    0  0.70089024224E+03  0.71210624731E+02 -0.31955858054E+03  0.77358631150E+03  0.10100000352E+00 0.  1.
       -3    1    3    3    0  502 -0.70089024224E+03 -0.71210624731E+02  0.61530042317E+03  0.93536768476E+03  0.10100000352E+00 0. -1.
</event>
<event>
 5   0  0.9284971E-04  0.1724694E+04  0.7818609E-02  0.8747404E-01
       -2   -1    0    0    0  501  0.00000000000E+00  0.00000000000E+00  0.43682880785E+03  0.43682880786E+03  0.25500000920E-02 0. -1.
        2   -1    0    0  501    0  0.00000000000E+00  0.00000000000E+00 -0.17023659501E+04  0.17023659501E+04  0.25500000920E-02 0.  1.
    10030    2    1    2    0    0  0.00000000000E+00  0.00000000000E+00 -0.12655371423E+04  0.21391947580E+04  0.17246941625E+04 0.  0.
        4    1    3    3  502    0 -0.36411819900E+03 -0.24037114963E+03 -0.15553632032E+04  0.16153998450E+04  0.12699999809E+01 0.  1.
       -4    1    3    3    0  502  0.36411819900E+03  0.24037114963E+03  0.28982606091E+03  0.52379491301E+03  0.12699999809E+01 0. -1.
</event>
<event>
 5   0  0.9284971E-04  0.1706806E+04  0.7818609E-02  0.8757492E-01
        2   -1    0    0  501    0  0.00000000000E+00  0.00000000000E+00  0.98158164530E+03  0.98158164530E+03  0.25500000920E-02 0. -1.
       -2   -1    0    0    0  501  0.00000000000E+00  0.00000000000E+00 -0.74196207079E+03  0.74196207080E+03  0.25500000920E-02 0.  1.
    10030    2    1    2    0    0  0.00000000000E+00  0.00000000000E+00  0.23961957451E+03  0.17235437161E+04  0.17068056131E+04 0.  0.
        4    1    3    3  502    0 -0.55817235881E+03 -0.22467467131E+02 -0.53167876961E+03  0.77119718372E+03  0.12699999809E+01 0.  1.
       -4    1    3    3    0  502  0.55817235881E+03  0.22467467131E+02  0.77129834411E+03  0.95234653239E+03  0.12699999809E+01 0. -1.
</event>
<event>
 5   0  0.5009762E-04  0.1711107E+04  0.7818609E-02  0.8755055E-01
       -1   -1    0    0    0  501  0.00000000000E+00  0.00000000000E+00  0.75341519384E+03  0.75341519386E+03  0.50400001928E-02 0. -1.
        1   -1    0    0  501    0  0.00000000000E+00  0.00000000000E+00 -0.97153820280E+03  0.97153820281E+03  0.50400001928E-02 0.  1.
    10030    2    1    2    0    0  0.00000000000E+00  0.00000000000E+00 -0.21812300896E+03  0.17249533967E+04  0.17111068271E+04 0.  0.
        3    1    3    3  502    0 -0.64043315077E+03  0.37103743629E+02  0.46159375424E+03  0.79031646354E+03  0.10100000352E+00 0. -1.
       -3    1    3    3    0  502  0.64043315077E+03 -0.37103743629E+02 -0.67971676320E+03  0.93463693313E+03  0.10100000352E+00 0.  1.
</event>
<event>
 5   0  0.5009762E-04  0.1698977E+04  0.7818609E-02  0.8761948E-01
       -1   -1    0    0    0  501  0.00000000000E+00  0.00000000000E+00  0.10337117144E+04  0.10337117144E+04  0.50400001928E-02 0. -1.
        1   -1    0    0  501    0  0.00000000000E+00  0.00000000000E+00 -0.69809649049E+03  0.69809649051E+03  0.50400001928E-02 0.  1.
    10030    2    1    2    0    0  0.00000000000E+00  0.00000000000E+00  0.33561522388E+03  0.17318082049E+04  0.16989767744E+04 0.  0.
        3    1    3    3  502    0 -0.58980753693E+03  0.34974794617E+03  0.67892930405E+03  0.96495676927E+03  0.10100000352E+00 0. -1.
       -3    1    3    3    0  502  0.58980753693E+03 -0.34974794617E+03 -0.34331408017E+03  0.76685143562E+03  0.10100000352E+00 0.  1.
</event>
<event>
 5   0  0.5074133E-04  0.1722584E+04  0.7818609E-02  0.8748587E-01
        1   -1    0    0  501    0  0.00000000000E+00  0.00000000000E+00  0.10302935322E+04  0.10302935322E+04  0.50400001928E-02 0. -1.
       -1   -1    0    0    0  501  0.00000000000E+00  0.00000000000E+00 -0.72001260713E+03  0.72001260715E+03  0.50400001928E-02 0.  1.
    10030    2    1    2    0    0  0.00000000000E+00  0.00000000000E+00  0.31028092508E+03  0.17503061394E+04  0.17225844911E+04 0.  0.
        1    1    3    3  502    0  0.85862628569E+02 -0.38654436653E+03 -0.62204479505E+03  0.73737959380E+03  0.50400001928E-02 0.  1.
       -1    1    3    3    0  502 -0.85862628569E+02  0.38654436653E+03  0.93232572013E+03  0.10129265456E+04  0.50400001928E-02 0. -1.
</event>
<event>
 5   0  0.4947006E-04  0.1738939E+04  0.7818609E-02  0.8739463E-01
        1   -1    0    0  501    0  0.00000000000E+00  0.00000000000E+00  0.13908988665E+04  0.13908988665E+04  0.50400001928E-02 0. -1.
       -1   -1    0    0    0  501  0.00000000000E+00  0.00000000000E+00 -0.54351688977E+03  0.54351688980E+03  0.50400001928E-02 0.  1.
    10030    2    1    2    0    0  0.00000000000E+00  0.00000000000E+00  0.84738197676E+03  0.19344157563E+04  0.17389387867E+04 0.  0.
        2    1    3    3  502    0  0.41411106415E+03  0.29612383702E+03  0.12077634491E+04  0.13106753409E+04  0.25500000920E-02 0. -1.
       -2    1    3    3    0  502 -0.41411106415E+03 -0.29612383702E+03 -0.36038147230E+03  0.62374041546E+03  0.25500000920E-02 0.  1.
</event>
<event>
 5   0  0.9312096E-04  0.1715150E+04  0.7818609E-02  0.8752771E-01
        2   -1    0    0  501    0  0.00000000000E+00  0.00000000000E+00  0.14968573043E+04  0.14968573043E+04  0.25500000920E-02 0.  1.
       -2   -1    0    0    0  501  0.00000000000E+00  0.00000000000E+00 -0.49131904659E+03  0.49131904659E+03  0.25500000920E-02 0. -1.
    10030    2    1    2    0    0  0.00000000000E+00  0.00000000000E+00  0.10055382578E+04  0.19881763509E+04  0.17151495604E+04 0.  0.
        3    1    3    3  502    0  0.58836589092E+02 -0.27429823859E+03  0.14421623062E+04  0.14691948120E+04  0.10100000352E+00 0.  1.
       -3    1    3    3    0  502 -0.58836589092E+02  0.27429823859E+03 -0.43662404844E+03  0.51898153897E+03  0.10100000352E+00 0. -1.
</event>
<event>
 5   0  0.9312096E-04  0.1671489E+04  0.7818609E-02  0.8777794E-01
       -2   -1    0    0    0  501  0.00000000000E+00  0.00000000000E+00  0.38337855085E+03  0.38337855086E+03  0.25500000920E-02 0.  1.
        2   -1    0    0  501    0  0.00000000000E+00  0.00000000000E+00 -0.18218780856E+04  0.18218780857E+04  0.25500000920E-02 0. -1.
    10030    2    1    2    0    0  0.00000000000E+00  0.00000000000E+00 -0.14384995348E+04  0.22052566365E+04  0.16714891329E+04 0.  0.
        3    1    3    3  502    0  0.61336360796E+03  0.52224515803E+02  0.26527474783E+02  0.61615422804E+03  0.10100000352E+00 0.  1.
       -3    1    3    3    0  502 -0.61336360796E+03 -0.52224515803E+02 -0.14650270096E+04  0.15891024085E+04  0.10100000352E+00 0. -1.
</event>
<event>
 5   0  0.5009762E-04  0.1515501E+04  0.7818609E-02  0.8874210E-01
       -1   -1    0    0    0  501  0.00000000000E+00  0.00000000000E+00  0.99732897479E+03  0.99732897481E+03  0.50400001928E-02 0.  1.
        1   -1    0    0  501    0  0.00000000000E+00  0.00000000000E+00 -0.57572327005E+03  0.57572327007E+03  0.50400001928E-02 0. -1.
    10030    2    1    2    0    0  0.00000000000E+00  0.00000000000E+00  0.42160570475E+03  0.15730522449E+04  0.15155005757E+04 0.  0.
        3    1    3    3  502    0  0.62421399172E+03  0.42669007540E+03  0.15913335460E+03  0.77267778708E+03  0.10100000352E+00 0. -1.
       -3    1    3    3    0  502 -0.62421399172E+03 -0.42669007540E+03  0.26247235014E+03  0.80037445779E+03  0.10100000352E+00 0.  1.
</event>
<event>
 5   0  0.9610114E-04  0.1515411E+04  0.7818609E-02  0.8874269E-01
       -2   -1    0    0    0  501  0.00000000000E+00  0.00000000000E+00  0.71024372452E+03  0.71024372453E+03  0.25500000920E-02 0.  1.
        2   -1    0    0  501    0  0.00000000000E+00  0.00000000000E+00 -0.80833851883E+03  0.80833851884E+03  0.25500000920E-02 0. -1.
    10030    2    1    2    0    0  0.00000000000E+00  0.00000000000E+00 -0.98094794310E+02  0.15185822434E+04  0.15154106510E+04 0.  0.
        2    1    3    3  502    0 -0.64900088233E+03 -0.33476334293E+03 -0.25158105404E+03  0.77237404656E+03  0.25500000920E-02 0. -1.
       -2    1    3    3    0  502  0.64900088233E+03  0.33476334293E+03  0.15348625973E+03  0.74620819680E+03  0.25500000920E-02 0.  1.
</event>
<event>
 5   0  0.9625225E-04  0.1699112E+04  0.7818609E-02  0.8761871E-01
       -2   -1    0    0    0  501  0.00000000000E+00  0.00000000000E+00  0.78777770339E+03  0.78777770339E+03  0.25500000920E-02 0.  1.
        2   -1    0    0  501    0  0.00000000000E+00  0.00000000000E+00 -0.91617878824E+03  0.91617878824E+03  0.25500000920E-02 0. -1.
    10030    2    1    2    0    0  0.00000000000E+00  0.00000000000E+00 -0.12840108485E+03  0.17039564916E+04  0.16991117935E+04 0.  0.
        1    1    3    3  502    0 -0.82418702859E+03  0.16957139047E+03 -0.18160915200E+03  0.86082553324E+03  0.50400001928E-02 0. -1.
       -1    1    3    3    0  502  0.82418702859E+03 -0.16957139047E+03  0.53208067151E+02  0.84313095839E+03  0.50400001928E-02 0.  1.
</event>
<event>
 5   0  0.9284971E-04  0.1664355E+04  0.7818609E-02  0.8781959E-01
        2   -1    0    0  501    0  0.00000000000E+00  0.00000000000E+00  0.17045897548E+04  0.17045897548E+04  0.25500000920E-02 0. -1.
       -2   -1    0    0    0  501  0.00000000000E+00  0.00000000000E+00 -0.40626753456E+03  0.40626753457E+03  0.25500000920E-02 0.  1.
    10030    2    1    2    0    0  0.00000000000E+00  0.00000000000E+00  0.12983222202E+04  0.21108572893E+04  0.16643551029E+04 0.  0.
        4    1    3    3  502    0 -0.46870121244E+03 -0.43885505751E+03  0.13205597875E+04  0.14683849473E+04  0.12699999809E+01 0. -1.
       -4    1    3    3    0  502  0.46870121244E+03  0.43885505751E+03 -0.22237567305E+02  0.64247234209E+03  0.12699999809E+01 0.  1.
</event>
<event>
 5   0  0.5059689E-04  0.1768177E+04  0.7818609E-02  0.8723408E-01
        1   -1    0    0  501    0  0.00000000000E+00  0.00000000000E+00  0.11163203573E+04  0.11163203573E+04  0.50400001928E-02 0. -1.
       -1   -1    0    0    0  501  0.00000000000E+00  0.00000000000E+00 -0.70016844721E+03  0.70016844723E+03  0.50400001928E-02 0.  1.
    10030    2    1    2    0    0  0.00000000000E+00  0.00000000000E+00  0.41615191012E+03  0.18164888046E+04  0.17681767912E+04 0.  0.
        5    1    3    3  502    0  0.74280247768E+02 -0.87728961504E+03  0.29048991771E+03  0.92712518365E+03  0.46999998093E+01 0. -1.
       -5    1    3    3    0  502 -0.74280247768E+02  0.87728961504E+03  0.12566199241E+03  0.88936362092E+03  0.46999998093E+01 0.  1.
</event>
<event>
 5   0  0.9625225E-04  0.1704349E+04  0.7818609E-02  0.8758888E-01
       -2   -1    0    0    0  501  0.00000000000E+00  0.00000000000E+00  0.39774435599E+03  0.39774435599E+03  0.25500000920E-02 0. -1.
        2   -1    0    0  501    0  0.00000000000E+00  0.00000000000E+00 -0.18257992503E+04  0.18257992503E+04  0.25500000920E-02 0.  1.
    10030    2    1    2    0    0  0.00000000000E+00  0.00000000000E+00 -0.14280548944E+04  0.22235436063E+04  0.17043489631E+04 0.  0.
        1    1    3    3  502    0 -0.18469631946E+03 -0.69870091604E+03 -0.13031447199E+04  0.14901281359E+04  0.50400001928E-02 0.  1.
       -1    1    3    3    0  502  0.18469631946E+03  0.69870091604E+03 -0.12491017445E+03  0.73341547039E+03  0.50400001928E-02 0. -1.
</event>
<event>
 5   0  0.9312096E-04  0.1675757E+04  0.7818609E-02  0.8775313E-01
       -2   -1    0    0    0  501  0.00000000000E+00  0.00000000000E+00  0.27965702899E+03  0.27965702901E+03  0.25500000920E-02 0.  1.
        2   -1    0    0  501    0  0.00000000000E+00  0.00000000000E+00 -0.25103613404E+04  0.25103613404E+04  0.25500000920E-02 0. -1.
    10030    2    1    2    0    0  0.00000000000E+00  0.00000000000E+00 -0.22307043114E+04  0.27900183694E+04  0.16757567773E+04 0.  0.
        3    1    3    3  502    0  0.11307191878E+03 -0.60653432585E+03 -0.17150983848E+03  0.64037862405E+03  0.10100000352E+00 0.  1.
       -3    1    3    3    0  502 -0.11307191878E+03  0.60653432585E+03 -0.20591944729E+04  0.21496397454E+04  0.10100000352E+00 0. -1.
</event>
<event>
 5   0  0.5035495E-04  0.1660360E+04  0.7818609E-02  0.8784301E-01
       -1   -1    0    0    0  501  0.00000000000E+00  0.00000000000E+00  0.36230021586E+03  0.36230021590E+03  0.50400001928E-02 0. -1.
        1   -1    0    0  501    0  0.00000000000E+00  0.00000000000E+00 -0.19022873587E+04  0.19022873587E+04  0.50400001928E-02 0.  1.
    10030    2    1    2    0    0  0.00000000000E+00  0.00000000000E+00 -0.15399871428E+04  0.22645875746E+04  0.16603603473E+04 0.  0.
        4    1    3    3  502    0  0.21300470460E+03 -0.70363972284E+03 -0.12959720997E+04  0.14899748856E+04  0.12699999809E+01 0. -1.
       -4    1    3    3    0  502 -0.21300470460E+03  0.70363972284E+03 -0.24401504316E+03  0.77461268898E+03  0.12699999809E+01 0.  1.
</event>
<event>
 5   0  0.1007187E-03  0.1728630E+04  0.7818609E-02  0.8745202E-01
       -2   -1    0    0    0  501  0.00000000000E+00  0.00000000000E+00  0.56261353086E+03  0.56261353087E+03  0.25500000920E-02 0.  1.
        2   -1    0    0  501    0  0.00000000000E+00  0.00000000000E+00 -0.13278039767E+04  0.13278039767E+04  0.25500000920E-02 0. -1.
    10030    2    1    2    0    0  0.00000000000E+00  0.00000000000E+00 -0.76519044581E+03  0.18904175075E+04  0.17286300745E+04 0.  0.
        5    1    3    3  502    0 -0.32862951658E+03  0.25478866901E+02  0.49116553147E+03  0.59153377007E+03  0.46999998093E+01 0.  1.
       -5    1    3    3    0  502  0.32862951658E+03 -0.25478866901E+02 -0.12563559773E+04  0.12988837375E+04  0.46999998093E+01 0. -1.
</event>
<event>
 5   0  0.9610114E-04  0.1480266E+04  0.7818609E-02  0.8897683E-01
       -2   -1    0    0    0  501  0.00000000000E+00  0.00000000000E+00  0.37511169429E+03  0.37511169430E+03  0.25500000920E-02 0. -1.
        2   -1    0    0  501    0  0.00000000000E+00  0.00000000000E+00 -0.14603572549E+04  0.14603572549E+04  0.25500000920E-02 0.  1.
    10030    2    1    2    0    0  0.00000000000E+00  0.00000000000E+00 -0.10852455606E+04  0.18354689492E+04  0.14802663060E+04 0.  0.
        2    1    3    3  502    0  0.62228696277E+03  0.31201779515E+03 -0.23089976165E+03  0.73342407137E+03  0.25500000920E-02 0. -1.
       -2    1    3    3    0  502 -0.62228696277E+03 -0.31201779515E+03 -0.85434579892E+03  0.11020448778E+04  0.25500000920E-02 0.  1.
</event>
<event>
 5   0  0.9610114E-04  0.1690005E+04  0.7818609E-02  0.8767085E-01
       -2   -1    0    0    0  501  0.00000000000E+00  0.00000000000E+00  0.52519985962E+03  0.52519985962E+03  0.25500000920E-02 0.  1.
        2   -1    0    0  501    0  0.00000000000E+00  0.00000000000E+00 -0.13595388901E+04  0.13595388901E+04  0.25500000920E-02 0. -1.
    10030    2    1    2    0    0  0.00000000000E+00  0.00000000000E+00 -0.83433903048E+03  0.18847387497E+04  0.16900054843E+04 0.  0.
        2    1    3    3  502    0  0.39640107144E+02 -0.64129777778E+03 -0.10292200105E+04  0.12133128236E+04  0.25500000920E-02 0. -1.
       -2    1    3    3    0  502 -0.39640107144E+02  0.64129777778E+03  0.19488098003E+03  0.67142592612E+03  0.25500000920E-02 0.  1.
</event>
<event>
 5   0  0.5009762E-04  0.1709381E+04  0.7818609E-02  0.8756032E-01
        1   -1    0    0  501    0  0.00000000000E+00  0.00000000000E+00  0.80322493359E+03  0.80322493360E+03  0.50400001928E-02 0.  1.
       -1   -1    0    0    0  501  0.00000000000E+00  0.00000000000E+00 -0.90945391280E+03  0.90945391282E+03  0.50400001928E-02 0. -1.
    10030    2    1    2    0    0  0.00000000000E+00  0.00000000000E+00 -0.10622897922E+03  0.17126788464E+04  0.17093812433E+04 0.  0.
        3    1    3    3  502    0 -0.53642789391E+03  0.33777007440E+03 -0.62750267201E+03  0.89196587496E+03  0.10100000352E+00 0. -1.
       -3    1    3    3    0  502  0.53642789391E+03 -0.33777007440E+03  0.52127369279E+03  0.82071297146E+03  0.10100000352E+00 0.  1.
</event>
<event>
 5   0  0.4947006E-04  0.1812101E+04  0.7818609E-02  0.8699891E-01
       -1   -1    0    0    0  501  0.00000000000E+00  0.00000000000E+00  0.85260808599E+03  0.85260808601E+03  0.50400001928E-02 0.  1.
        1   -1    0    0  501    0  0.00000000000E+00  0.00000000000E+00 -0.96284222466E+03  0.96284222467E+03  0.50400001928E-02 0. -1.
    10030    2    1    2    0    0  0.00000000000E+00  0.00000000000E+00 -0.11023413867E+03  0.18154503107E+04  0.18121005119E+04 0.  0.
        2    1    3    3  502    0  0.97164008010E+02 -0.42926553991E+03 -0.84855161265E+03  0.95590249898E+03  0.25500000920E-02 0. -1.
       -2    1    3    3    0  502 -0.97164008010E+02  0.42926553991E+03  0.73831747398E+03  0.85954781170E+03  0.25500000920E-02 0.  1.
</event>
<event>
 5   0  0.9625225E-04  0.1782435E+04  0.7818609E-02  0.8715696E-01
       -2   -1    0    0    0  501  0.00000000000E+00  0.00000000000E+00  0.26644188547E+04  0.26644188547E+04  0.25500000920E-02 0.  1.
        2   -1    0    0  501    0  0.00000000000E+00  0.00000000000E+00 -0.29810214512E+03  0.29810214514E+03  0.25500000920E-02 0. -1.
    10030    2    1    2    0    0  0.00000000000E+00  0.00000000000E+00  0.23663167096E+04  0.29625209999E+04  0.17824353858E+04 0.  0.
        1    1    3    3  502    0 -0.15548629592E+03 -0.27445118497E+03 -0.20221881199E+03  0.37468905655E+03  0.50400001928E-02 0. -1.
       -1    1    3    3    0  502  0.15548629592E+03  0.27445118497E+03  0.25685355216E+04  0.25878319433E+04  0.50400001928E-02 0.  1.
</event>
<event>
 5   0  0.4947006E-04  0.1757736E+04  0.7818609E-02  0.8729103E-01
       -1   -1    0    0    0  501  0.00000000000E+00  0.00000000000E+00  0.82190343996E+03  0.82190343998E+03  0.50400001928E-02 0.  1.
        1   -1    0    0  501    0  0.00000000000E+00  0.00000000000E+00 -0.93978100189E+03  0.93978100190E+03  0.50400001928E-02 0. -1.
    10030    2    1    2    0    0  0.00000000000E+00  0.00000000000E+00 -0.11787756192E+03  0.17616844419E+04  0.17577363150E+04 0.  0.
        2    1    3    3  502    0  0.69386351128E+03 -0.29473808541E+03 -0.51171907738E+03  0.91113858739E+03  0.25500000920E-02 0. -1.
       -2    1    3    3    0  502 -0.69386351128E+03  0.29473808541E+03  0.39384151545E+03  0.85054585448E+03  0.25500000920E-02 0.  1.
</event>
<event>
 5   0  0.5059689E-04  0.1697289E+04  0.7818609E-02  0.8762912E-01
        1   -1    0    0  501    0  0.00000000000E+00  0.00000000000E+00  0.17551795549E+04  0.17551795549E+04  0.50400001928E-02 0.  1.
       -1   -1    0    0    0  501  0.00000000000E+00  0.00000000000E+00 -0.41032693444E+03  0.41032693447E+03  0.50400001928E-02 0. -1.
    10030    2    1    2    0    0  0.00000000000E+00  0.00000000000E+00  0.13448526205E+04  0.21655064894E+04  0.16972889515E+04 0.  0.
        5    1    3    3  502    0 -0.15499707180E+02  0.19009071319E+03  0.17274651686E+04  0.17379679856E+04  0.46999998093E+01 0.  1.
       -5    1    3    3    0  502  0.15499707180E+02 -0.19009071319E+03 -0.38261254819E+03  0.42753850375E+03  0.46999998093E+01 0. -1.
</event>
<event>
 5   0  0.1007187E-03  0.1733271E+04  0.7818609E-02  0.8742613E-01
        2   -1    0    0  501    0  0.00000000000E+00  0.00000000000E+00  0.23748107708E+04  0.23748107708E+04  0.25500000920E-02 0.  1.
       -2   -1    0    0    0  501  0.00000000000E+00  0.00000000000E+00 -0.31625977614E+03  0.31625977615E+03  0.25500000920E-02 0. -1.
    10030    2    1    2    0    0  0.00000000000E+00  0.00000000000E+00  0.20585509946E+04  0.26910705469E+04  0.17332710380E+04 0.  0.
        5    1    3    3  502    0 -0.29053404542E+03 -0.18950164190E+03 -0.20375802183E+03  0.40231868623E+03  0.46999998093E+01 0. -1.
       -5    1    3    3    0  502  0.29053404542E+03  0.18950164190E+03  0.22623090165E+04  0.22887518607E+04  0.46999998093E+01 0.  1.
</event>
<event>
 5   0  0.4947006E-04  0.1712341E+04  0.7818609E-02  0.8754357E-01
       -1   -1    0    0    0  501  0.00000000000E+00  0.00000000000E+00  0.48926986842E+03  0.48926986845E+03  0.50400001928E-02 0. -1.
        1   -1    0    0  501    0  0.00000000000E+00  0.00000000000E+00 -0.14982072820E+04  0.14982072820E+04  0.50400001928E-02 0.  1.
    10030    2    1    2    0    0  0.00000000000E+00  0.00000000000E+00 -0.10089374135E+04  0.19874771504E+04  0.17123407135E+04 0.  0.
        2    1    3    3  502    0  0.78472842740E+03  0.15465833719E+03 -0.85901710664E+03  0.11737241139E+04  0.25500000920E-02 0.  1.
       -2    1    3    3    0  502 -0.78472842740E+03 -0.15465833719E+03 -0.14992030690E+03  0.81375303653E+03  0.25500000920E-02 0. -1.
</event>
<event>
 5   0  0.5009762E-04  0.1681435E+04  0.7818609E-02  0.8772024E-01
       -1   -1    0    0    0  501  0.00000000000E+00  0.00000000000E+00  0.55531853699E+03  0.55531853702E+03  0.50400001928E-02 0.  1.
        1   -1    0    0  501    0  0.00000000000E+00  0.00000000000E+00 -0.12727941887E+04  0.12727941887E+04  0.50400001928E-02 0. -1.
    10030    2    1    2    0    0  0.00000000000E+00  0.00000000000E+00 -0.71747565172E+03  0.18281127257E+04  0.16814353473E+04 0.  0.
        3    1    3    3  502    0  0.31420921890E+03  0.77439797271E+03 -0.25917108455E+03  0.87497960814E+03  0.10100000352E+00 0. -1.
       -3    1    3    3    0  502 -0.31420921890E+03 -0.77439797271E+03 -0.45830456717E+03  0.95313311760E+03  0.10100000352E+00 0.  1.
</event>
<event>
 5   0  0.5059689E-04  0.1676806E+04  0.7818609E-02  0.8774704E-01
        1   -1    0    0  501    0  0.00000000000E+00  0.00000000000E+00  0.11787680056E+04  0.11787680056E+04  0.50400001928E-02 0.  1.
       -1   -1    0    0    0  501  0.00000000000E+00  0.00000000000E+00 -0.59631737625E+03  0.59631737627E+03  0.50400001928E-02 0. -1.
    10030    2    1    2    0    0  0.00000000000E+00  0.00000000000E+00  0.58245062932E+03  0.17750853818E+04  0.16768063028E+04 0.  0.
        5    1    3    3  502    0 -0.22571597484E+03  0.26864764691E+03 -0.51483474246E+03  0.62305389937E+03  0.46999998093E+01 0. -1.
       -5    1    3    3    0  502  0.22571597484E+03 -0.26864764691E+03  0.10972853718E+04  0.11520314825E+04  0.46999998093E+01 0.  1.
</event>
<event>
 5   0  0.9610114E-04  0.1651640E+04  0.7818609E-02  0.8789437E-01
       -2   -1    0    0    0  501  0.00000000000E+00  0.00000000000E+00  0.71588163273E+03  0.71588163274E+03  0.25500000920E-02 0. -1.
        2   -1    0    0  501    0  0.00000000000E+00  0.00000000000E+00 -0.95264182489E+03  0.95264182489E+03  0.25500000920E-02 0.  1.
    10030    2    1    2    0    0  0.00000000000E+00  0.00000000000E+00 -0.23676019216E+03  0.16685234576E+04  0.16516401364E+04 0.  0.
        2    1    3    3  502    0  0.35165174934E+00 -0.27769809550E+03 -0.90405918293E+03  0.94574804369E+03  0.25500000920E-02 0.  1.
       -2    1    3    3    0  502 -0.35165174934E+00  0.27769809550E+03  0.66729899077E+03  0.72277541394E+03  0.25500000920E-02 0. -1.
</event>
<event>
 5   0  0.9625225E-04  0.1725465E+04  0.7818609E-02  0.8746973E-01
        2   -1    0    0  501    0  0.00000000000E+00  0.00000000000E+00  0.22971768654E+04  0.22971768654E+04  0.25500000920E-02 0.  1.
       -2   -1    0    0    0  501  0.00000000000E+00  0.00000000000E+00 -0.32400951176E+03  0.32400951177E+03  0.25500000920E-02 0. -1.
    10030    2    1    2    0    0  0.00000000000E+00  0.00000000000E+00  0.19731673536E+04  0.26211863772E+04  0.17254647543E+04 0.  0.
        1    1    3    3  502    0  0.85709564266E+03 -0.98416164669E+02  0.98216190940E+03  0.13072645862E+04  0.50400001928E-02 0.  1.
       -1    1    3    3    0  502 -0.85709564266E+03  0.98416164669E+02  0.99100544423E+03  0.13139217909E+04  0.50400001928E-02 0. -1.
</event>
<event>
 5   0  0.5009762E-04  0.1694567E+04  0.7818609E-02  0.8764469E-01
       -1   -1    0    0    0  501  0.00000000000E+00  0.00000000000E+00  0.50149608180E+03  0.50149608182E+03  0.50400001928E-02 0.  1.
        1   -1    0    0  501    0  0.00000000000E+00  0.00000000000E+00 -0.14314950657E+04  0.14314950657E+04  0.50400001928E-02 0. -1.
    10030    2    1    2    0    0  0.00000000000E+00  0.00000000000E+00 -0.92999898387E+03  0.19329911475E+04  0.16945668079E+04 0.  0.
        3    1    3    3  502    0  0.38124516078E+03  0.12697874959E+03 -0.13158859866E+04  0.13758733282E+04  0.10100000352E+00 0. -1.
       -3    1    3    3    0  502 -0.38124516078E+03 -0.12697874959E+03  0.38588700272E+03  0.55711781926E+03  0.10100000352E+00 0.  1.
</event>
<event>
 5   0  0.9625225E-04  0.1694303E+04  0.7818609E-02  0.8764620E-01
        2   -1    0    0  501    0  0.00000000000E+00  0.00000000000E+00  0.44558364711E+03  0.44558364712E+03  0.25500000920E-02 0.  1.
       -2   -1    0    0    0  501  0.00000000000E+00  0.00000000000E+00 -0.16106194146E+04  0.16106194146E+04  0.25500000920E-02 0. -1.
    10030    2    1    2    0    0  0.00000000000E+00  0.00000000000E+00 -0.11650357675E+04  0.20562030617E+04  0.16943030105E+04 0.  0.
        1    1    3    3  502    0  0.84393467738E+03  0.73609913317E+02 -0.57688885332E+03  0.10249121465E+04  0.50400001928E-02 0.  1.
       -1    1    3    3    0  502 -0.84393467738E+03 -0.73609913317E+02 -0.58814691414E+03  0.10312909151E+04  0.50400001928E-02 0. -1.
</event>
<event>
 5   0  0.9625225E-04  0.1574816E+04  0.7818609E-02  0.8836171E-01
       -2   -1    0    0    0  501  0.00000000000E+00  0.00000000000E+00  0.35493170499E+03  0.35493170500E+03  0.25500000920E-02 0. -1.
        2   -1    0    0  501    0  0.00000000000E+00  0.00000000000E+00 -0.17468463321E+04  0.17468463321E+04  0.25500000920E-02 0.  1.
    10030    2    1    2    0    0  0.00000000000E+00  0.00000000000E+00 -0.13919146271E+04  0.21017780371E+04  0.15748157315E+04 0.  0.
        1    1    3    3  502    0  0.51334712234E+03  0.10481287855E+03  0.88521499001E+02  0.53136340044E+03  0.50400001928E-02 0. -1.
       -1    1    3    3    0  502 -0.51334712234E+03 -0.10481287855E+03 -0.14804361261E+04  0.15704146367E+04  0.50400001928E-02 0.  1.
</event>
<event>
 5   0  0.1007187E-03  0.1258715E+04  0.7818609E-02  0.9062961E-01
        2   -1    0    0  501    0  0.00000000000E+00  0.00000000000E+00  0.14317782604E+04  0.14317782604E+04  0.25500000920E-02 0.  1.
       -2   -1    0    0    0  501  0.00000000000E+00  0.00000000000E+00 -0.27664270013E+03  0.27664270014E+03  0.25500000920E-02 0. -1.
    10030    2    1    2    0    0  0.00000000000E+00  0.00000000000E+00  0.11551355602E+04  0.17084209605E+04  0.12587152243E+04 0.  0.
        5    1    3    3  502    0 -0.15829369038E+03  0.62439888231E+02 -0.24480259061E+03  0.29817114284E+03  0.46999998093E+01 0. -1.
       -5    1    3    3    0  502  0.15829369038E+03 -0.62439888231E+02  0.13999381508E+04  0.14102498177E+04  0.46999998093E+01 0.  1.
</event>
<event>
 5   0  0.9312096E-04  0.1881120E+04  0.7818609E-02  0.8664311E-01
       -2   -1    0    0    0  501  0.00000000000E+00  0.00000000000E+00  0.79325034678E+03  0.79325034679E+03  0.25500000920E-02 0. -1.
        2   -1    0    0  501    0  0.00000000000E+00  0.00000000000E+00 -0.11152261156E+04  0.11152261156E+04  0.25500000920E-02 0.  1.
    10030    2    1    2    0    0  0.00000000000E+00  0.00000000000E+00 -0.32197576883E+03  0.19084764624E+04  0.18811204140E+04 0.  0.
        3    1    3    3  502    0 -0.47173292784E+03 -0.25559407966E+03 -0.94474617195E+03  0.10864647387E+04  0.10100000352E+00 0.  1.
       -3    1    3    3    0  502  0.47173292784E+03  0.25559407966E+03  0.62277040312E+03  0.82201172374E+03  0.10100000352E+00 0. -1.
</event>
<event>
 5   0  0.5074133E-04  0.1632570E+04  0.7818609E-02  0.8800785E-01
       -1   -1    0    0    0  501  0.00000000000E+00  0.00000000000E+00  0.48618757961E+03  0.48618757963E+03  0.50400001928E-02 0. -1.
        1   -1    0    0  501    0  0.00000000000E+00  0.00000000000E+00 -0.13705024279E+04  0.13705024279E+04  0.50400001928E-02 0.  1.
    10030    2    1    2    0    0  0.00000000000E+00  0.00000000000E+00 -0.88431484830E+03  0.18566900076E+04  0.16325700699E+04 0.  0.
        1    1    3    3  502    0 -0.28789654597E+03 -0.63459723085E+03  0.41318123240E+02  0.69807252770E+03  0.50400001928E-02 0. -1.
       -1    1    3    3    0  502  0.28789654597E+03  0.63459723085E+03 -0.92563297154E+03  0.11586174799E+04  0.50400001928E-02 0.  1.
</event>
<event>
 5   0  0.5074133E-04  0.1096217E+04  0.7818609E-02  0.9208887E-01
       -1   -1    0    0    0  501  0.00000000000E+00  0.00000000000E+00  0.56953964057E+03  0.56953964060E+03  0.50400001928E-02 0.  1.
        1   -1    0    0  501    0  0.00000000000E+00  0.00000000000E+00 -0.52748343001E+03  0.52748343004E+03  0.50400001928E-02 0. -1.
    10030    2    1    2    0    0  0.00000000000E+00  0.00000000000E+00  0.42056210560E+02  0.10970230706E+04  0.10962166267E+04 0.  0.
        1    1    3    3  502    0  0.32487252594E+03 -0.44025637605E+03 -0.11474833453E+02  0.54726548091E+03  0.50400001928E-02 0.  1.
       -1    1    3    3    0  502 -0.32487252594E+03  0.44025637605E+03  0.53531044013E+02  0.54975758973E+03  0.50400001928E-02 0. -1.
</event>
<event>
 5   0  0.5074133E-04  0.1746760E+04  0.7818609E-02  0.8735136E-01
       -1   -1    0    0    0  501  0.00000000000E+00  0.00000000000E+00  0.11418012128E+04  0.11418012128E+04  0.50400001928E-02 0.  1.
        1   -1    0    0  501    0  0.00000000000E+00  0.00000000000E+00 -0.66806065749E+03  0.66806065751E+03  0.50400001928E-02 0. -1.
    10030    2    1    2    0    0  0.00000000000E+00  0.00000000000E+00  0.47374055528E+03  0.18098618703E+04  0.17467598220E+04 0.  0.
        1    1    3    3  502    0 -0.60312523580E+03  0.21184784965E+03  0.85347612990E+03  0.10663306550E+04  0.50400001928E-02 0.  1.
       -1    1    3    3    0  502  0.60312523580E+03 -0.21184784965E+03 -0.37973557462E+03  0.74353121530E+03  0.50400001928E-02 0. -1.
</event>
<event>
 5   0  0.1007187E-03  0.1710370E+04  0.7818609E-02  0.8755472E-01
        2   -1    0    0  501    0  0.00000000000E+00  0.00000000000E+00  0.16764174987E+04  0.16764174987E+04  0.25500000920E-02 0. -1.
       -2   -1    0    0    0  501  0.00000000000E+00  0.00000000000E+00 -0.43625265460E+03  0.43625265461E+03  0.25500000920E-02 0.  1.
    10030    2    1    2    0    0  0.00000000000E+00  0.00000000000E+00  0.12401648441E+04  0.21126701533E+04  0.17103702337E+04 0.  0.
        5    1    3    3  502    0  0.52101236994E+03 -0.61602975522E+03  0.26989825335E+03  0.85077241734E+03  0.46999998093E+01 0.  1.
       -5    1    3    3    0  502 -0.52101236994E+03  0.61602975522E+03  0.97026659078E+03  0.12618977360E+04  0.46999998093E+01 0. -1.
</event>
<event>
 5   0  0.9625225E-04  0.1729619E+04  0.7818609E-02  0.8744649E-01
        2   -1    0    0  501    0  0.00000000000E+00  0.00000000000E+00  0.83470730090E+03  0.83470730090E+03  0.25500000920E-02 0.  1.
       -2   -1    0    0    0  501  0.00000000000E+00  0.00000000000E+00 -0.89599763875E+03  0.89599763875E+03  0.25500000920E-02 0. -1.
    10030    2    1    2    0    0  0.00000000000E+00  0.00000000000E+00 -0.61290337851E+02  0.17307049397E+04  0.17296193462E+04 0.  0.
        1    1    3    3  502    0  0.70824677053E+03 -0.32948619005E+03  0.34069573711E+03  0.85220198469E+03  0.50400001928E-02 0.  1.
       -1    1    3    3    0  502 -0.70824677053E+03  0.32948619005E+03 -0.40198607497E+03  0.87850295497E+03  0.50400001928E-02 0. -1.
</event>
<event>
 5   0  0.5059689E-04  0.1650167E+04  0.7818609E-02  0.8790308E-01
       -1   -1    0    0    0  501  0.00000000000E+00  0.00000000000E+00  0.16877209856E+04  0.16877209856E+04  0.50400001928E-02 0.  1.
        1   -1    0    0  501    0  0.00000000000E+00  0.00000000000E+00 -0.40336202741E+03  0.40336202744E+03  0.50400001928E-02 0. -1.
    10030    2    1    2    0    0  0.00000000000E+00  0.00000000000E+00  0.12843589582E+04  0.20910830131E+04  0.16501667292E+04 0.  0.
        5    1    3    3  502    0 -0.81832683102E+02  0.36600928360E+03  0.15734437288E+04  0.16175310325E+04  0.46999998093E+01 0.  1.
       -5    1    3    3    0  502  0.81832683102E+02 -0.36600928360E+03 -0.28908477054E+03  0.47355198052E+03  0.46999998093E+01 0. -1.
</event>
<event>
 5   0  0.5059689E-04  0.1473274E+04  0.7818609E-02  0.8902423E-01
       -1   -1    0    0    0  501  0.00000000000E+00  0.00000000000E+00  0.46229787247E+03  0.46229787249E+03  0.50400001928E-02 0. -1.
        1   -1    0    0  501    0  0.00000000000E+00  0.00000000000E+00 -0.11737757932E+04  0.11737757932E+04  0.50400001928E-02 0.  1.
    10030    2    1    2    0    0  0.00000000000E+00  0.00000000000E+00 -0.71147792077E+03  0.16360736657E+04  0.14732739759E+04 0.  0.
        5    1    3    3  502    0  0.59343331541E+03  0.43112287474E+03 -0.28056913942E+03  0.78534779872E+03  0.46999998093E+01 0.  1.
       -5    1    3    3    0  502 -0.59343331541E+03 -0.43112287474E+03 -0.43090878134E+03  0.85072586701E+03  0.46999998093E+01 0. -1.
</event>
<event>
 5   0  0.9625225E-04  0.1741096E+04  0.7818609E-02  0.8738267E-01
       -2   -1    0    0    0  501  0.00000000000E+00  0.00000000000E+00  0.48408242562E+03  0.48408242563E+03  0.25500000920E-02 0.  1.
        2   -1    0    0  501    0  0.00000000000E+00  0.00000000000E+00 -0.15655465317E+04  0.15655465317E+04  0.25500000920E-02 0. -1.
    10030    2    1    2    0    0  0.00000000000E+00  0.00000000000E+00 -0.10814641061E+04  0.20496289574E+04  0.17410957039E+04 0.  0.
        1    1    3    3  502    0 -0.58825513722E+03 -0.21351137385E+03 -0.12531338831E+04  0.14007054445E+04  0.50400001928E-02 0. -1.
       -1    1    3    3    0  502  0.58825513722E+03  0.21351137385E+03  0.17166977697E+03  0.64892351289E+03  0.50400001928E-02 0.  1.
</event>
<event>
 5   0  0.5074133E-04  0.9366826E+03  0.7818609E-02  0.9380853E-01
        1   -1    0    0  501    0  0.00000000000E+00  0.00000000000E+00  0.63097288026E+03  0.63097288028E+03  0.50400001928E-02 0. -1.
       -1   -1    0    0    0  501  0.00000000000E+00  0.00000000000E+00 -0.34762754841E+03  0.34762754844E+03  0.50400001928E-02 0.  1.
    10030    2    1    2    0    0  0.00000000000E+00  0.00000000000E+00  0.28334533186E+03  0.97860042872E+03  0.93668256203E+03 0.  0.
        1    1    3    3  502    0 -0.19063628732E+01 -0.43566834763E+03 -0.37869656431E+02  0.43731528015E+03  0.50400001928E-02 0.  1.
       -1    1    3    3    0  502  0.19063628732E+01  0.43566834763E+03  0.32121498829E+03  0.54128514858E+03  0.50400001928E-02 0. -1.
</event>
<event>
 5   0  0.4947006E-04  0.1494733E+04  0.7818609E-02  0.8887963E-01
        1   -1    0    0  501    0  0.00000000000E+00  0.00000000000E+00  0.46096184599E+03  0.46096184602E+03  0.50400001928E-02 0.  1.
       -1   -1    0    0    0  501  0.00000000000E+00  0.00000000000E+00 -0.12117199540E+04  0.12117199540E+04  0.50400001928E-02 0. -1.
    10030    2    1    2    0    0  0.00000000000E+00  0.00000000000E+00 -0.75075810797E+03  0.16726818000E+04  0.14947329753E+04 0.  0.
        2    1    3    3  502    0  0.18474922158E+03 -0.59865316763E+03 -0.83136817206E+03  0.10410047682E+04  0.25500000920E-02 0. -1.
       -2    1    3    3    0  502 -0.18474922158E+03  0.59865316763E+03  0.80610064092E+02  0.63167703174E+03  0.25500000920E-02 0.  1.
</event>
<event>
 5   0  0.5035495E-04  0.1608214E+04  0.7818609E-02  0.8815518E-01
        1   -1    0    0  501    0  0.00000000000E+00  0.00000000000E+00  0.11423750414E+04  0.11423750414E+04  0.50400001928E-02 0.  1.
       -1   -1    0    0    0  501  0.00000000000E+00  0.00000000000E+00 -0.56600311644E+03  0.56600311646E+03  0.50400001928E-02 0. -1.
    10030    2    1    2    0    0  0.00000000000E+00  0.00000000000E+00  0.57637192498E+03  0.17083781579E+04  0.16082137092E+04 0.  0.
        4    1    3    3  502    0  0.33087592445E+03 -0.28502218506E+03 -0.42904761439E+03  0.61220910779E+03  0.12699999809E+01 0. -1.
       -4    1    3    3    0  502 -0.33087592445E+03  0.28502218506E+03  0.10054195394E+04  0.10961690501E+04  0.12699999809E+01 0.  1.
</event>
<event>
 5   0  0.5035495E-04  0.1654138E+04  0.7818609E-02  0.8787962E-01
        1   -1    0    0  501    0  0.00000000000E+00  0.00000000000E+00  0.88792721308E+03  0.88792721309E+03  0.50400001928E-02 0.  1.
       -1   -1    0    0    0  501  0.00000000000E+00  0.00000000000E+00 -0.77038206126E+03  0.77038206128E+03  0.50400001928E-02 0. -1.
    10030    2    1    2    0    0  0.00000000000E+00  0.00000000000E+00  0.11754515182E+03  0.16583092744E+04  0.16541380797E+04 0.  0.
        4    1    3    3  502    0  0.79101783717E+03 -0.17359175335E+03 -0.10957427182E+03  0.81722178721E+03  0.12699999809E+01 0. -1.
       -4    1    3    3    0  502 -0.79101783717E+03  0.17359175335E+03  0.22711942363E+03  0.84108748715E+03  0.12699999809E+01 0.  1.
</event>
<event>
 5   0  0.5074133E-04  0.1657166E+04  0.7818609E-02  0.8786178E-01
       -1   -1    0    0    0  501  0.00000000000E+00  0.00000000000E+00  0.44518296985E+03  0.44518296988E+03  0.50400001928E-02 0.  1.
        1   -1    0    0  501    0  0.00000000000E+00  0.00000000000E+00 -0.15421746412E+04  0.15421746412E+04  0.50400001928E-02 0. -1.
    10030    2    1    2    0    0  0.00000000000E+00  0.00000000000E+00 -0.10969916713E+04  0.19873576111E+04  0.16571661194E+04 0.  0.
        1    1    3    3  502    0 -0.31136029926E+01 -0.77887254576E+03 -0.88747831416E+03  0.11807920626E+04  0.50400001928E-02 0. -1.
       -1    1    3    3    0  502  0.31136029926E+01  0.77887254576E+03 -0.20951335717E+03  0.80656554843E+03  0.50400001928E-02 0.  1.
</event>
<event>
 5   0  0.5009762E-04  0.1733858E+04  0.7818609E-02  0.8742286E-01
        1   -1    0    0  501    0  0.00000000000E+00  0.00000000000E+00  0.12444062674E+04  0.12444062674E+04  0.50400001928E-02 0. -1.
       -1   -1    0    0    0  501  0.00000000000E+00  0.00000000000E+00 -0.60395571345E+03  0.60395571347E+03  0.50400001928E-02 0.  1.
    10030    2    1    2    0    0  0.00000000000E+00  0.00000000000E+00  0.64045055399E+03  0.18483619809E+04  0.17338584430E+04 0.  0.
        3    1    3    3  502    0 -0.74303287506E+03  0.29965209594E+03 -0.32820674567E+02  0.80185188090E+03  0.10100000352E+00 0.  1.
       -3    1    3    3    0  502  0.74303287506E+03 -0.29965209594E+03  0.67327122855E+03  0.10465101000E+04  0.10100000352E+00 0. -1.
</event>
<event>
 5   0  0.5035495E-04  0.1721293E+04  0.7818609E-02  0.8749312E-01
        1   -1    0    0  501    0  0.00000000000E+00  0.00000000000E+00  0.13600949516E+04  0.13600949516E+04  0.50400001928E-02 0. -1.
       -1   -1    0    0    0  501  0.00000000000E+00  0.00000000000E+00 -0.54460370886E+03  0.54460370888E+03  0.50400001928E-02 0.  1.
    10030    2    1    2    0    0  0.00000000000E+00  0.00000000000E+00  0.81549124278E+03  0.19046986605E+04  0.17212934149E+04 0.  0.
        4    1    3    3  502    0 -0.83155481486E+03 -0.16778026839E+03  0.24709549992E+03  0.88356744370E+03  0.12699999809E+01 0.  1.
       -4    1    3    3    0  502  0.83155481486E+03  0.16778026839E+03  0.56839574285E+03  0.10211312168E+04  0.12699999809E+01 0. -1.
</event>
<event>
 5   0  0.9312096E-04  0.1738962E+04  0.7818609E-02  0.8739450E-01
        2   -1    0    0  501    0  0.00000000000E+00  0.00000000000E+00  0.11400251126E+04  0.11400251126E+04  0.25500000920E-02 0.  1.
       -2   -1    0    0    0  501  0.00000000000E+00  0.00000000000E+00 -0.66314087547E+03  0.66314087548E+03  0.25500000920E-02 0. -1.
    10030    2    1    2    0    0  0.00000000000E+00  0.00000000000E+00  0.47688423715E+03  0.18031659881E+04  0.17389620482E+04 0.  0.
        3    1    3    3  502    0  0.14440408936E+03 -0.44184937203E+03  0.10003594106E+04  0.11030876525E+04  0.10100000352E+00 0.  1.
       -3    1    3    3    0  502 -0.14440408936E+03  0.44184937203E+03 -0.52347517342E+03  0.70007833560E+03  0.10100000352E+00 0. -1.
</event>
<event>
 5   0  0.4947006E-04  0.1688735E+04  0.7818609E-02  0.8767815E-01
        1   -1    0    0  501    0  0.00000000000E+00  0.00000000000E+00  0.14123333805E+04  0.14123333805E+04  0.50400001928E-02 0. -1.
       -1   -1    0    0    0  501  0.00000000000E+00  0.00000000000E+00 -0.50480767873E+03  0.50480767875E+03  0.50400001928E-02 0.  1.
    10030    2    1    2    0    0  0.00000000000E+00  0.00000000000E+00  0.90752570179E+03  0.19171410593E+04  0.16887353084E+04 0.  0.
        2    1    3    3  502    0  0.44998016464E+03  0.31855745630E+03 -0.27226264779E+03  0.61488856789E+03  0.25500000920E-02 0.  1.
       -2    1    3    3    0  502 -0.44998016464E+03 -0.31855745630E+03  0.11797883496E+04  0.13022524914E+04  0.25500000920E-02 0. -1.
</event>
<event>
 5   0  0.5009762E-04  0.1701938E+04  0.7818609E-02  0.8760260E-01
        1   -1    0    0  501    0  0.00000000000E+00  0.00000000000E+00  0.13511034845E+04  0.13511034845E+04  0.50400001928E-02 0. -1.
       -1   -1    0    0    0  501  0.00000000000E+00  0.00000000000E+00 -0.53596794975E+03  0.53596794977E+03  0.50400001928E-02 0.  1.
    10030    2    1    2    0    0  0.00000000000E+00  0.00000000000E+00  0.81513553479E+03  0.18870714343E+04  0.17019379125E+04 0.  0.
        3    1    3    3  502    0  0.73994974287E+02  0.82937857861E+03  0.60217038999E+03  0.10275958698E+04  0.10100000352E+00 0. -1.
       -3    1    3    3    0  502 -0.73994974287E+02 -0.82937857861E+03  0.21296514480E+03  0.85947556450E+03  0.10100000352E+00 0.  1.
</event>
<event>
 5   0  0.4947006E-04  0.1727293E+04  0.7818609E-02  0.8745950E-01
        1   -1    0    0  501    0  0.00000000000E+00  0.00000000000E+00  0.10350318760E+04  0.10350318760E+04  0.50400001928E-02 0.  1.
       -1   -1    0    0    0  501  0.00000000000E+00  0.00000000000E+00 -0.72063960394E+03  0.72063960396E+03  0.50400001928E-02 0. -1.
    10030    2    1    2    0    0  0.00000000000E+00  0.00000000000E+00  0.31439227209E+03  0.17556714800E+04  0.17272926344E+04 0.  0.
        2    1    3    3  502    0 -0.63663485700E+03 -0.58146112592E+03  0.10653775521E+03  0.86876422313E+03  0.25500000920E-02 0. -1.
       -2    1    3    3    0  502  0.63663485700E+03  0.58146112592E+03  0.20785451689E+03  0.88690725687E+03  0.25500000920E-02 0.  1.
</event>
<event>
 5   0  0.9625225E-04  0.1694597E+04  0.7818609E-02  0.8764452E-01
       -2   -1    0    0    0  501  0.00000000000E+00  0.00000000000E+00  0.43587970186E+03  0.43587970186E+03  0.25500000920E-02 0.  1.
        2   -1    0    0  501    0  0.00000000000E+00  0.00000000000E+00 -0.16470471471E+04  0.16470471471E+04  0.25500000920E-02 0. -1.
    10030    2    1    2    0    0  0.00000000000E+00  0.00000000000E+00 -0.12111674453E+04  0.20829268490E+04  0.16945966121E+04 0.  0.
        1    1    3    3  502    0  0.84186271734E+03 -0.36990670752E+02 -0.71423234777E+03  0.11046397563E+04  0.50400001928E-02 0. -1.
       -1    1    3    3    0  502 -0.84186271734E+03  0.36990670752E+02 -0.49693509750E+03  0.97828709269E+03  0.50400001928E-02 0.  1.
</event>
<event>
 5   0  0.5074133E-04  0.1723953E+04  0.7818609E-02  0.8747820E-01
       -1   -1    0    0    0  501  0.00000000000E+00  0.00000000000E+00  0.56603009330E+03  0.56603009332E+03  0.50400001928E-02 0.  1.
        1   -1    0    0  501    0  0.00000000000E+00  0.00000000000E+00 -0.13126578289E+04  0.13126578289E+04  0.50400001928E-02 0. -1.
    10030    2    1    2    0    0  0.00000000000E+00  0.00000000000E+00 -0.74662773561E+03  0.18786879222E+04  0.17239534024E+04 0.  0.
        1    1    3    3  502    0 -0.58818659846E+03 -0.15306193765E+03  0.29278663665E+03  0.67462244700E+03  0.50400001928E-02 0. -1.
       -1    1    3    3    0  502  0.58818659846E+03  0.15306193765E+03 -0.10394143723E+04  0.12040654752E+04  0.50400001928E-02 0.  1.
</event>
<event>
 5   0  0.9610114E-04  0.1696952E+04  0.7818609E-02  0.8763104E-01
       -2   -1    0    0    0  501  0.00000000000E+00  0.00000000000E+00  0.17925035631E+04  0.17925035631E+04  0.25500000920E-02 0. -1.
        2   -1    0    0  501    0  0.00000000000E+00  0.00000000000E+00 -0.40162366417E+03  0.40162366418E+03  0.25500000920E-02 0.  1.
    10030    2    1    2    0    0  0.00000000000E+00  0.00000000000E+00  0.13908798989E+04  0.21941272273E+04  0.16969523848E+04 0.  0.
        2    1    3    3  502    0 -0.71654548466E+03 -0.45419206568E+03  0.71297807928E+03  0.11081812152E+04  0.25500000920E-02 0. -1.
       -2    1    3    3    0  502  0.71654548466E+03  0.45419206568E+03  0.67790181962E+03  0.10859460121E+04  0.25500000920E-02 0.  1.
</event>
<event>
 5   0  0.3523125E-04  0.1642748E+04  0.7818609E-02  0.8794708E-01
       -3   -1    0    0    0  501  0.00000000000E+00  0.00000000000E+00  0.38832818879E+03  0.38832820192E+03  0.10100000352E+00 0. -1.
        3   -1    0    0  501    0  0.00000000000E+00  0.00000000000E+00 -0.17373322055E+04  0.17373322085E+04  0.10100000352E+00 0.  1.
    10030    2    1    2    0    0  0.00000000000E+00  0.00000000000E+00 -0.13490040167E+04  0.21256604104E+04  0.16427478027E+04 0.  0.
        2    1    3    3  502    0  0.24463106310E+03  0.12235308861E+03 -0.16766707755E+04  0.16988347550E+04  0.25500000920E-02 0.  1.
       -2    1    3    3    0  502 -0.24463106310E+03 -0.12235308861E+03  0.32766675875E+03  0.42682565541E+03  0.25500000920E-02 0. -1.
</event>
<event>
 5   0  0.5035495E-04  0.1713081E+04  0.7818609E-02  0.8753939E-01
       -1   -1    0    0    0  501  0.00000000000E+00  0.00000000000E+00  0.50800389762E+03  0.50800389764E+03  0.50400001928E-02 0.  1.
        1   -1    0    0  501    0  0.00000000000E+00  0.00000000000E+00 -0.14442051113E+04  0.14442051113E+04  0.50400001928E-02 0. -1.
    10030    2    1    2    0    0  0.00000000000E+00  0.00000000000E+00 -0.93620121367E+03  0.19522090089E+04  0.17130812305E+04 0.  0.
        4    1    3    3  502    0  0.19773141009E+03 -0.81707646834E+03 -0.28102548674E+03  0.88639077317E+03  0.12699999809E+01 0. -1.
       -4    1    3    3    0  502 -0.19773141009E+03  0.81707646834E+03 -0.65517572693E+03  0.10658182358E+04  0.12699999809E+01 0.  1.
</event>
<event>
 5   0  0.5009762E-04  0.1739679E+04  0.7818609E-02  0.8739052E-01
       -1   -1    0    0    0  501  0.00000000000E+00  0.00000000000E+00  0.97865833847E+03  0.97865833848E+03  0.50400001928E-02 0. -1.
        1   -1    0    0  501    0  0.00000000000E+00  0.00000000000E+00 -0.77312047475E+03  0.77312047477E+03  0.50400001928E-02 0.  1.
    10030    2    1    2    0    0  0.00000000000E+00  0.00000000000E+00  0.20553786372E+03  0.17517788132E+04  0.17396790500E+04 0.  0.
        3    1    3    3  502    0  0.32900861548E+03  0.25187752596E+03 -0.66735880307E+03  0.78552959166E+03  0.10100000352E+00 0.  1.
       -3    1    3    3    0  502 -0.32900861548E+03 -0.25187752596E+03  0.87289666678E+03  0.96624922159E+03  0.10100000352E+00 0. -1.
</event>
<event>
 5   0  0.9312096E-04  0.1394770E+04  0.7818609E-02  0.8957613E-01
        2   -1    0    0  501    0  0.00000000000E+00  0.00000000000E+00  0.43416758913E+03  0.43416758914E+03  0.25500000920E-02 0.  1.
       -2   -1    0    0    0  501  0.00000000000E+00  0.00000000000E+00 -0.11201804298E+04  0.11201804298E+04  0.25500000920E-02 0. -1.
    10030    2    1    2    0    0  0.00000000000E+00  0.00000000000E+00 -0.68601284067E+03  0.15543480190E+04  0.13947702845E+04 0.  0.
        3    1    3    3  502    0 -0.18161067196E+03  0.82223890125E+02 -0.10877492137E+04  0.11058668846E+04  0.10100000352E+00 0. -1.
       -3    1    3    3    0  502  0.18161067196E+03 -0.82223890125E+02  0.40173637303E+03  0.44848113438E+03  0.10100000352E+00 0.  1.
</event>
<event>
 5   0  0.9284971E-04  0.1301858E+04  0.7818609E-02  0.9028093E-01
       -2   -1    0    0    0  501  0.00000000000E+00  0.00000000000E+00  0.55718972075E+03  0.55718972076E+03  0.25500000920E-02 0.  1.
        2   -1    0    0  501    0  0.00000000000E+00  0.00000000000E+00 -0.76043887542E+03  0.76043887542E+03  0.25500000920E-02 0. -1.
    10030    2    1    2    0    0  0.00000000000E+00  0.00000000000E+00 -0.20324915466E+03  0.13176285962E+04  0.13018582483E+04 0.  0.
        4    1    3    3  502    0  0.18205709306E+03 -0.62484763494E+03 -0.90184569827E+02  0.65704963401E+03  0.12699999809E+01 0.  1.
       -4    1    3    3    0  502 -0.18205709306E+03  0.62484763494E+03 -0.11306458484E+03  0.66057896217E+03  0.12699999809E+01 0. -1.
</event>
<event>
 5   0  0.5074133E-04  0.1517434E+04  0.7818609E-02  0.8872942E-01
       -1   -1    0    0    0  501  0.00000000000E+00  0.00000000000E+00  0.15150183750E+04  0.15150183750E+04  0.50400001928E-02 0. -1.
        1   -1    0    0  501    0  0.00000000000E+00  0.00000000000E+00 -0.37996322870E+03  0.37996322873E+03  0.50400001928E-02 0.  1.
    10030    2    1    2    0    0  0.00000000000E+00  0.00000000000E+00  0.11350551463E+04  0.18949816037E+04  0.15174337196E+04 0.  0.
        1    1    3    3  502    0  0.68224937110E+03 -0.28663533678E+03  0.77659459462E+03  0.10727176633E+04  0.50400001928E-02 0.  1.
       -1    1    3    3    0  502 -0.68224937110E+03  0.28663533678E+03  0.35846055168E+03  0.82226394047E+03  0.50400001928E-02 0. -1.
</event>
<event>
 5   0  0.5059689E-04  0.2084399E+04  0.7818609E-02  0.8568147E-01
        1   -1    0    0  501    0  0.00000000000E+00  0.00000000000E+00  0.16822172669E+04  0.16822172669E+04  0.50400001928E-02 0.  1.
       -1   -1    0    0    0  501  0.00000000000E+00  0.00000000000E+00 -0.64568365413E+03  0.64568365415E+03  0.50400001928E-02 0. -1.
    10030    2    1    2    0    0  0.00000000000E+00  0.00000000000E+00  0.10365336127E+04  0.23279009210E+04  0.20843993782E+04 0.  0.
        5    1    3    3  502    0  0.87584337365E+03  0.54021222038E+03  0.70254985861E+03  0.12460053178E+04  0.46999998093E+01 0.  1.
       -5    1    3    3    0  502 -0.87584337365E+03 -0.54021222038E+03  0.33398375412E+03  0.10818956032E+04  0.46999998093E+01 0. -1.
</event>
<event>
 5   0  0.9312096E-04  0.1709256E+04  0.7818609E-02  0.8756103E-01
       -2   -1    0    0    0  501  0.00000000000E+00  0.00000000000E+00  0.89081497249E+03  0.89081497249E+03  0.25500000920E-02 0. -1.
        2   -1    0    0  501    0  0.00000000000E+00  0.00000000000E+00 -0.81991092039E+03  0.81991092039E+03  0.25500000920E-02 0.  1.
    10030    2    1    2    0    0  0.00000000000E+00  0.00000000000E+00  0.70904052101E+02  0.17107258929E+04  0.17092558896E+04 0.  0.
        3    1    3    3  502    0  0.57524782906E+03 -0.59108909867E+03  0.25945810884E+03  0.86464727366E+03  0.10100000352E+00 0. -1.
       -3    1    3    3    0  502 -0.57524782906E+03  0.59108909867E+03 -0.18855405674E+03  0.84607861923E+03  0.10100000352E+00 0.  1.
</event>
<event>
 5   0  0.5035495E-04  0.1647000E+04  0.7818609E-02  0.8792183E-01
        1   -1    0    0  501    0  0.00000000000E+00  0.00000000000E+00  0.95941606730E+03  0.95941606731E+03  0.50400001928E-02 0. -1.
       -1   -1    0    0    0  501  0.00000000000E+00  0.00000000000E+00 -0.70683848816E+03  0.70683848818E+03  0.50400001928E-02 0.  1.
    10030    2    1    2    0    0  0.00000000000E+00  0.00000000000E+00  0.25257757914E+03  0.16662545555E+04  0.16469999424E+04 0.  0.
        4    1    3    3  502    0  0.58429592918E+02 -0.65066662522E+03 -0.38094020326E+03  0.75623946330E+03  0.12699999809E+01 0.  1.
       -4    1    3    3    0  502 -0.58429592918E+02  0.65066662522E+03  0.63351778239E+03  0.91001509219E+03  0.12699999809E+01 0. -1.
</event>
<event>
 5   0  0.9312096E-04  0.1627483E+04  0.7818609E-02  0.8803840E-01
        2   -1    0    0  501    0  0.00000000000E+00  0.00000000000E+00  0.14001899016E+04  0.14001899016E+04  0.25500000920E-02 0.  1.
       -2   -1    0    0    0  501  0.00000000000E+00  0.00000000000E+00 -0.47291806828E+03  0.47291806828E+03  0.25500000920E-02 0. -1.
    10030    2    1    2    0    0  0.00000000000E+00  0.00000000000E+00  0.92727183328E+03  0.18731079698E+04  0.16274828460E+04 0.  0.
        3    1    3    3  502    0 -0.53024119796E+03  0.53340083675E+03  0.82116930329E+03  0.11135489282E+04  0.10100000352E+00 0.  1.
       -3    1    3    3    0  502  0.53024119796E+03 -0.53340083675E+03  0.10610252999E+03  0.75955904163E+03  0.10100000352E+00 0. -1.
</event>
<event>
 5   0  0.3523125E-04  0.1600869E+04  0.7818609E-02  0.8820014E-01
       -3   -1    0    0    0  501  0.00000000000E+00  0.00000000000E+00  0.10727862635E+04  0.10727862683E+04  0.10100000352E+00 0.  1.
        3   -1    0    0  501    0  0.00000000000E+00  0.00000000000E+00 -0.59722559165E+03  0.59722560019E+03  0.10100000352E+00 0. -1.
    10030    2    1    2    0    0  0.00000000000E+00  0.00000000000E+00  0.47556067185E+03  0.16700118684E+04  0.16008690415E+04 0.  0.
        2    1    3    3  502    0  0.53674173812E+03 -0.46808506748E+03  0.61893790115E+03  0.94354620943E+03  0.25500000920E-02 0.  1.
       -2    1    3    3    0  502 -0.53674173812E+03  0.46808506748E+03 -0.14337722930E+03  0.72646565901E+03  0.25500000920E-02 0. -1.
</event>
<event>
 5   0  0.4947006E-04  0.1417062E+04  0.7818609E-02  0.8941560E-01
        1   -1    0    0  501    0  0.00000000000E+00  0.00000000000E+00  0.10918670365E+04  0.10918670365E+04  0.50400001928E-02 0. -1.
       -1   -1    0    0    0  501  0.00000000000E+00  0.00000000000E+00 -0.45977798435E+03  0.45977798437E+03  0.50400001928E-02 0.  1.
    10030    2    1    2    0    0  0.00000000000E+00  0.00000000000E+00  0.63208905212E+03  0.15516450208E+04  0.14170623490E+04 0.  0.
        2    1    3    3  502    0 -0.39868530476E+03  0.64332417602E+02  0.95351049488E+03  0.10355051405E+04  0.25500000920E-02 0. -1.
       -2    1    3    3    0  502  0.39868530476E+03 -0.64332417602E+02 -0.32142144276E+03  0.51613988033E+03  0.25500000920E-02 0.  1.
</event>
<event>
 5   0  0.1007187E-03  0.1641695E+04  0.7818609E-02  0.8795335E-01
        2   -1    0    0  501    0  0.00000000000E+00  0.00000000000E+00  0.63562161298E+03  0.63562161299E+03  0.25500000920E-02 0. -1.
       -2   -1    0    0    0  501  0.00000000000E+00  0.00000000000E+00 -0.10600503324E+04  0.10600503324E+04  0.25500000920E-02 0.  1.
    10030    2    1    2    0    0  0.00000000000E+00  0.00000000000E+00 -0.42442871940E+03  0.16956719454E+04  0.16416953458E+04 0.  0.
        5    1    3    3  502    0 -0.27280653974E+03 -0.42689768123E+03 -0.87928423351E+03  0.10148043613E+04  0.46999998093E+01 0.  1.
       -5    1    3    3    0  502  0.27280653974E+03  0.42689768123E+03  0.45485551411E+03  0.68086758410E+03  0.46999998093E+01 0. -1.
</event>
<event>
 5   0  0.5074133E-04  0.1601483E+04  0.7818609E-02  0.8819638E-01
        1   -1    0    0  501    0  0.00000000000E+00  0.00000000000E+00  0.70043431721E+03  0.70043431723E+03  0.50400001928E-02 0. -1.
       -1   -1    0    0    0  501  0.00000000000E+00  0.00000000000E+00 -0.91541305126E+03  0.91541305128E+03  0.50400001928E-02 0.  1.
    10030    2    1    2    0    0  0.00000000000E+00  0.00000000000E+00 -0.21497873405E+03  0.16158473685E+04  0.16014827074E+04 0.  0.
        1    1    3    3  502    0 -0.64835395829E+03 -0.14233779887E+03 -0.55934985676E+03  0.86804099357E+03  0.50400001928E-02 0.  1.
       -1    1    3    3    0  502  0.64835395829E+03  0.14233779887E+03  0.34437112271E+03  0.74780637494E+03  0.50400001928E-02 0. -1.
</event>
<event>
 5   0  0.5074133E-04  0.1718935E+04  0.7818609E-02  0.8750638E-01
       -1   -1    0    0    0  501  0.00000000000E+00  0.00000000000E+00  0.10035482200E+04  0.10035482200E+04  0.50400001928E-02 0.  1.
        1   -1    0    0  501    0  0.00000000000E+00  0.00000000000E+00 -0.73607274288E+03  0.73607274290E+03  0.50400001928E-02 0. -1.
    10030    2    1    2    0    0  0.00000000000E+00  0.00000000000E+00  0.26747547707E+03  0.17396209629E+04  0.17189351249E+04 0.  0.
        1    1    3    3  502    0 -0.38326799382E+03 -0.66856302549E+03 -0.25138560768E+03  0.81059582895E+03  0.50400001928E-02 0. -1.
       -1    1    3    3    0  502  0.38326799382E+03  0.66856302549E+03  0.51886108475E+03  0.92902513391E+03  0.50400001928E-02 0.  1.
</event>
<event>
 5   0  0.9312096E-04  0.1668554E+04  0.7818609E-02  0.8779505E-01
       -2   -1    0    0    0  501  0.00000000000E+00  0.00000000000E+00  0.65868082410E+03  0.65868082411E+03  0.25500000920E-02 0. -1.
        2   -1    0    0  501    0  0.00000000000E+00  0.00000000000E+00 -0.10566851298E+04  0.10566851298E+04  0.25500000920E-02 0.  1.
    10030    2    1    2    0    0  0.00000000000E+00  0.00000000000E+00 -0.39800430573E+03  0.17153659539E+04  0.16685541431E+04 0.  0.
        3    1    3    3  502    0 -0.15569931336E+03  0.80694600058E+03 -0.51397975174E+02  0.82343541707E+03  0.10100000352E+00 0. -1.
       -3    1    3    3    0  502  0.15569931336E+03 -0.80694600058E+03 -0.34660633056E+03  0.89193053688E+03  0.10100000352E+00 0.  1.
</event>
<event>
 5   0  0.5035495E-04  0.1698734E+04  0.7818609E-02  0.8762087E-01
       -1   -1    0    0    0  501  0.00000000000E+00  0.00000000000E+00  0.62405317917E+03  0.62405317919E+03  0.50400001928E-02 0. -1.
        1   -1    0    0  501    0  0.00000000000E+00  0.00000000000E+00 -0.11560305214E+04  0.11560305214E+04  0.50400001928E-02 0.  1.
    10030    2    1    2    0    0  0.00000000000E+00  0.00000000000E+00 -0.53197734223E+03  0.17800837006E+04  0.16987342607E+04 0.  0.
        4    1    3    3  502    0 -0.38491716957E+03  0.64575141109E+03 -0.68022514168E+03  0.10138362632E+04  0.12699999809E+01 0. -1.
       -4    1    3    3    0  502  0.38491716957E+03 -0.64575141109E+03  0.14824779945E+03  0.76624743738E+03  0.12699999809E+01 0.  1.
</event>
<event>
 5   0  0.5074133E-04  0.1656709E+04  0.7818609E-02  0.8786447E-01
        1   -1    0    0  501    0  0.00000000000E+00  0.00000000000E+00  0.16542996415E+04  0.16542996415E+04  0.50400001928E-02 0.  1.
       -1   -1    0    0    0  501  0.00000000000E+00  0.00000000000E+00 -0.41478065900E+03  0.41478065903E+03  0.50400001928E-02 0. -1.
    10030    2    1    2    0    0  0.00000000000E+00  0.00000000000E+00  0.12395189825E+04  0.20690803005E+04  0.16567093837E+04 0.  0.
        1    1    3    3  502    0 -0.70389919488E+02 -0.74667590749E+03  0.10589991501E+04  0.12976744012E+04  0.50400001928E-02 0.  1.
       -1    1    3    3    0  502  0.70389919488E+02  0.74667590749E+03  0.18051983238E+03  0.77140589932E+03  0.50400001928E-02 0. -1.
</event>
<event>
 5   0  0.1007187E-03  0.1519267E+04  0.7818609E-02  0.8871740E-01
        2   -1    0    0  501    0  0.00000000000E+00  0.00000000000E+00  0.14555685488E+04  0.14555685488E+04  0.25500000920E-02 0.  1.
       -2   -1    0    0    0  501  0.00000000000E+00  0.00000000000E+00 -0.39643845756E+03  0.39643845757E+03  0.25500000920E-02 0. -1.
    10030    2    1    2    0    0  0.00000000000E+00  0.00000000000E+00  0.10591300912E+04  0.18520070064E+04  0.15192673897E+04 0.  0.
        5    1    3    3  502    0 -0.71514499431E+03 -0.30522471637E+02  0.21959686659E+03  0.74873817718E+03  0.46999998093E+01 0. -1.
       -5    1    3    3    0  502  0.71514499431E+03  0.30522471637E+02  0.83953322464E+03  0.11032688292E+04  0.46999998093E+01 0.  1.
</event>
<event>
 5   0  0.5059689E-04  0.1705151E+04  0.7818609E-02  0.8758432E-01
       -1   -1    0    0    0  501  0.00000000000E+00  0.00000000000E+00  0.98560258944E+03  0.98560258945E+03  0.50400001928E-02 0.  1.
        1   -1    0    0  501    0  0.00000000000E+00  0.00000000000E+00 -0.73750296194E+03  0.73750296195E+03  0.50400001928E-02 0. -1.
    10030    2    1    2    0    0  0.00000000000E+00  0.00000000000E+00  0.24809962750E+03  0.17231055514E+04  0.17051508192E+04 0.  0.
        5    1    3    3  502    0  0.38977230155E+03 -0.59011514032E+03 -0.35709861380E+03  0.79227510113E+03  0.46999998093E+01 0. -1.
       -5    1    3    3    0  502 -0.38977230155E+03  0.59011514032E+03  0.60519824130E+03  0.93083045028E+03  0.46999998093E+01 0.  1.
</event>
<event>
 5   0  0.9312096E-04  0.1701893E+04  0.7818609E-02  0.8760286E-01
        2   -1    0    0  501    0  0.00000000000E+00  0.00000000000E+00  0.65781257709E+03  0.65781257710E+03  0.25500000920E-02 0.  1.
       -2   -1    0    0    0  501  0.00000000000E+00  0.00000000000E+00 -0.11007844128E+04  0.11007844128E+04  0.25500000920E-02 0. -1.
    10030    2    1    2    0    0  0.00000000000E+00  0.00000000000E+00 -0.44297183567E+03  0.17585969899E+04  0.17018928655E+04 0.  0.
        3    1    3    3  502    0 -0.58518738768E+03 -0.29945834484E+03  0.33687919706E+03  0.73865227448E+03  0.10100000352E+00 0.  1.
       -3    1    3    3    0  502  0.58518738768E+03  0.29945834484E+03 -0.77985103273E+03  0.10199447154E+04  0.10100000352E+00 0. -1.
</event>
<event>
 5   0  0.4947006E-04  0.1695218E+04  0.7818609E-02  0.8764096E-01
        1   -1    0    0  501    0  0.00000000000E+00  0.00000000000E+00  0.62626694726E+03  0.62626694728E+03  0.50400001928E-02 0.  1.
       -1   -1    0    0    0  501  0.00000000000E+00  0.00000000000E+00 -0.11471808168E+04  0.11471808169E+04  0.50400001928E-02 0. -1.
    10030    2    1    2    0    0  0.00000000000E+00  0.00000000000E+00 -0.52091386959E+03  0.17734477641E+04  0.16952184852E+04 0.  0.
        2    1    3    3  502    0  0.19027712903E+03  0.33875309376E+03 -0.10485344085E+04  0.11182054597E+04  0.25500000920E-02 0. -1.
       -2    1    3    3    0  502 -0.19027712903E+03 -0.33875309376E+03  0.52762053892E+03  0.65524230439E+03  0.25500000920E-02 0.  1.
</event>
<event>
 5   0  0.5035495E-04  0.1620804E+04  0.7818609E-02  0.8807868E-01
        1   -1    0    0  501    0  0.00000000000E+00  0.00000000000E+00  0.52237602759E+03  0.52237602761E+03  0.50400001928E-02 0.  1.
       -1   -1    0    0    0  501  0.00000000000E+00  0.00000000000E+00 -0.12572393178E+04  0.12572393178E+04  0.50400001928E-02 0. -1.
    10030    2    1    2    0    0  0.00000000000E+00  0.00000000000E+00 -0.73486329020E+03  0.17796153454E+04  0.16208043443E+04 0.  0.
        4    1    3    3  502    0 -0.44826318501E+03  0.67258923961E+03 -0.43177287149E+03  0.91637633848E+03  0.12699999809E+01 0. -1.
       -4    1    3    3    0  502  0.44826318501E+03 -0.67258923961E+03 -0.30309041871E+03  0.86323900693E+03  0.12699999809E+01 0.  1.
</event>
<event>
 5   0  0.5074133E-04  0.1497836E+04  0.7818609E-02  0.8885893E-01
        1   -1    0    0  501    0  0.00000000000E+00  0.00000000000E+00  0.73367698945E+03  0.73367698947E+03  0.50400001928E-02 0.  1.
       -1   -1    0    0    0  501  0.00000000000E+00  0.00000000000E+00 -0.76447589105E+03  0.76447589107E+03  0.50400001928E-02 0. -1.
    10030    2    1    2    0    0  0.00000000000E+00  0.00000000000E+00 -0.30798901599E+02  0.14981528805E+04  0.14978362665E+04 0.  0.
        1    1    3    3  502    0  0.38076045971E+03 -0.71902777829E+02 -0.65641699533E+03  0.76225442533E+03  0.50400001928E-02 0. -1.
       -1    1    3    3    0  502 -0.38076045971E+03  0.71902777829E+02  0.62561809374E+03  0.73589845521E+03  0.50400001928E-02 0.  1.
</event>
<event>
 5   0  0.5035495E-04  0.1722317E+04  0.7818609E-02  0.8748737E-01
        1   -1    0    0  501    0  0.00000000000E+00  0.00000000000E+00  0.10631452751E+04  0.10631452752E+04  0.50400001928E-02 0. -1.
       -1   -1    0    0    0  501  0.00000000000E+00  0.00000000000E+00 -0.69754726710E+03  0.69754726712E+03  0.50400001928E-02 0.  1.
    10030    2    1    2    0    0  0.00000000000E+00  0.00000000000E+00  0.36559800804E+03  0.17606925423E+04  0.17223171383E+04 0.  0.
        4    1    3    3  502    0  0.56635067210E+03 -0.61222204863E+03 -0.36512012617E+02  0.83480755901E+03  0.12699999809E+01 0.  1.
       -4    1    3    3    0  502 -0.56635067210E+03  0.61222204863E+03  0.40211002065E+03  0.92588498326E+03  0.12699999809E+01 0. -1.
</event>
<event>
 5   0  0.9610114E-04  0.1688474E+04  0.7818609E-02  0.8767965E-01
        2   -1    0    0  501    0  0.00000000000E+00  0.00000000000E+00  0.16149113754E+04  0.16149113754E+04  0.25500000920E-02 0.  1.
       -2   -1    0    0    0  501  0.00000000000E+00  0.00000000000E+00 -0.44134703827E+03  0.44134703828E+03  0.25500000920E-02 0. -1.
    10030    2    1    2    0    0  0.00000000000E+00  0.00000000000E+00  0.11735643371E+04  0.20562584136E+04  0.16884742848E+04 0.  0.
        2    1    3    3  502    0  0.44879511277E+03 -0.70963315727E+03  0.47964109173E+03  0.96698078989E+03  0.25500000920E-02 0.  1.
       -2    1    3    3    0  502 -0.44879511277E+03  0.70963315727E+03  0.69392324536E+03  0.10892776237E+04  0.25500000920E-02 0. -1.
</event>
<event>
 5   0  0.9625225E-04  0.1704575E+04  0.7818609E-02  0.8758759E-01
        2   -1    0    0  501    0  0.00000000000E+00  0.00000000000E+00  0.74859270286E+03  0.74859270287E+03  0.25500000920E-02 0.  1.
       -2   -1    0    0    0  501  0.00000000000E+00  0.00000000000E+00 -0.97034624881E+03  0.97034624881E+03  0.25500000920E-02 0. -1.
    10030    2    1    2    0    0  0.00000000000E+00  0.00000000000E+00 -0.22175354594E+03  0.17189389517E+04  0.17045751625E+04 0.  0.
        1    1    3    3  502    0 -0.13046646197E+02  0.83333798118E+03 -0.29062500510E+03  0.88265808752E+03  0.50400001928E-02 0. -1.
       -1    1    3    3    0  502  0.13046646197E+02 -0.83333798118E+03  0.68871459157E+02  0.83628086416E+03  0.50400001928E-02 0.  1.
</event>
<event>
 5   0  0.9312096E-04  0.1706728E+04  0.7818609E-02  0.8757537E-01
       -2   -1    0    0    0  501  0.00000000000E+00  0.00000000000E+00  0.54503026845E+03  0.54503026846E+03  0.25500000920E-02 0.  1.
        2   -1    0    0  501    0  0.00000000000E+00  0.00000000000E+00 -0.13361271226E+04  0.13361271226E+04  0.25500000920E-02 0. -1.
    10030    2    1    2    0    0  0.00000000000E+00  0.00000000000E+00 -0.79109685418E+03  0.18811573911E+04  0.17067275405E+04 0.  0.
        3    1    3    3  502    0 -0.27586006492E+03 -0.24160620167E+02 -0.12852285325E+04  0.13147223669E+04  0.10100000352E+00 0. -1.
       -3    1    3    3    0  502  0.27586006492E+03  0.24160620167E+02  0.49413167831E+03  0.56643502424E+03  0.10100000352E+00 0.  1.
</event>
<event>
 5   0  0.9625225E-04  0.1865035E+04  0.7818609E-02  0.8672459E-01
       -2   -1    0    0    0  501  0.00000000000E+00  0.00000000000E+00  0.69797178543E+03  0.69797178543E+03  0.25500000920E-02 0. -1.
        2   -1    0    0  501    0  0.00000000000E+00  0.00000000000E+00 -0.12458800594E+04  0.12458800594E+04  0.25500000920E-02 0.  1.
    10030    2    1    2    0    0  0.00000000000E+00  0.00000000000E+00 -0.54790827394E+03  0.19438518448E+04  0.18650352592E+04 0.  0.
        1    1    3    3  502    0 -0.55778554418E+03  0.33903027028E+03 -0.96807346006E+03  0.11675754629E+04  0.50400001928E-02 0.  1.
       -1    1    3    3    0  502  0.55778554418E+03 -0.33903027028E+03  0.42016518612E+03  0.77627638191E+03  0.50400001928E-02 0. -1.
</event>
<event>
 5   0  0.9284971E-04  0.1714557E+04  0.7818609E-02  0.8753105E-01
        2   -1    0    0  501    0  0.00000000000E+00  0.00000000000E+00  0.11042097953E+04  0.11042097953E+04  0.25500000920E-02 0. -1.
       -2   -1    0    0    0  501  0.00000000000E+00  0.00000000000E+00 -0.66556795070E+03  0.66556795070E+03  0.25500000920E-02 0.  1.
    10030    2    1    2    0    0  0.00000000000E+00  0.00000000000E+00  0.43864184456E+03  0.17697777460E+04  0.17145572613E+04 0.  0.
        4    1    3    3  502    0  0.53480832596E+03  0.43654677447E+02  0.90943388840E+03  0.10559343193E+04  0.12699999809E+01 0. -1.
       -4    1    3    3    0  502 -0.53480832596E+03 -0.43654677447E+02 -0.47079204384E+03  0.71384342668E+03  0.12699999809E+01 0.  1.
</event>
<event>
 5   0  0.5009762E-04  0.1704379E+04  0.7818609E-02  0.8758871E-01
       -1   -1    0    0    0  501  0.00000000000E+00  0.00000000000E+00  0.72005048639E+03  0.72005048641E+03  0.50400001928E-02 0. -1.
        1   -1    0    0  501    0  0.00000000000E+00  0.00000000000E+00 -0.10085778667E+04  0.10085778667E+04  0.50400001928E-02 0.  1.
    10030    2    1    2    0    0  0.00000000000E+00  0.00000000000E+00 -0.28852738026E+03  0.17286283531E+04  0.17043790464E+04 0.  0.
        3    1    3    3  502    0  0.79000254400E+03 -0.11980810493E+03 -0.44473703452E+03  0.91446653389E+03  0.10100000352E+00 0.  1.
       -3    1    3    3    0  502 -0.79000254400E+03  0.11980810493E+03  0.15620965426E+03  0.81416181919E+03  0.10100000352E+00 0. -1.
</event>
<event>
 5   0  0.5074133E-04  0.1609728E+04  0.7818609E-02  0.8814594E-01
       -1   -1    0    0    0  501  0.00000000000E+00  0.00000000000E+00  0.28473990653E+03  0.28473990658E+03  0.50400001928E-02 0. -1.
        1   -1    0    0  501    0  0.00000000000E+00  0.00000000000E+00 -0.22750798448E+04  0.22750798448E+04  0.50400001928E-02 0.  1.
    10030    2    1    2    0    0  0.00000000000E+00  0.00000000000E+00 -0.19903399383E+04  0.25598197514E+04  0.16097279552E+04 0.  0.
        1    1    3    3  502    0  0.63140394722E+03  0.31328162035E+03 -0.37725236727E+03  0.79945960926E+03  0.50400001928E-02 0. -1.
       -1    1    3    3    0  502 -0.63140394722E+03 -0.31328162035E+03 -0.16130875710E+04  0.17603601421E+04  0.50400001928E-02 0.  1.
</event>
<event>
 5   0  0.3523125E-04  0.1205547E+04  0.7818609E-02  0.9108015E-01
       -3   -1    0    0    0  501  0.00000000000E+00  0.00000000000E+00  0.57834932790E+03  0.57834933672E+03  0.10100000352E+00 0. -1.
        3   -1    0    0  501    0  0.00000000000E+00  0.00000000000E+00 -0.62822910616E+03  0.62822911427E+03  0.10100000352E+00 0.  1.
    10030    2    1    2    0    0  0.00000000000E+00  0.00000000000E+00 -0.49879778257E+02  0.12065784510E+04  0.12055469987E+04 0.  0.
        4    1    3    3  502    0 -0.33366715451E+03 -0.33205818001E+03 -0.40174290941E+03  0.61886620773E+03  0.12699999809E+01 0.  1.
       -4    1    3    3    0  502  0.33366715451E+03  0.33205818001E+03  0.35186313115E+03  0.58771224326E+03  0.12699999809E+01 0. -1.
</event>
<event>
 5   0  0.5074133E-04  0.1485564E+04  0.7818609E-02  0.8894110E-01
        1   -1    0    0  501    0  0.00000000000E+00  0.00000000000E+00  0.16689669537E+04  0.16689669537E+04  0.50400001928E-02 0.  1.
       -1   -1    0    0    0  501  0.00000000000E+00  0.00000000000E+00 -0.33057858429E+03  0.33057858433E+03  0.50400001928E-02 0. -1.
    10030    2    1    2    0    0  0.00000000000E+00  0.00000000000E+00  0.13383883694E+04  0.19995455380E+04  0.14855635063E+04 0.  0.
        1    1    3    3  502    0  0.71316059387E+02 -0.55125291423E+03  0.60198254158E+01  0.55587947803E+03  0.50400001928E-02 0. -1.
       -1    1    3    3    0  502 -0.71316059387E+02  0.55125291423E+03  0.13323685440E+04  0.14436660600E+04  0.50400001928E-02 0.  1.
</event>
<event>
 5   0  0.5035495E-04  0.1702416E+04  0.7818609E-02  0.8759988E-01
       -1   -1    0    0    0  501  0.00000000000E+00  0.00000000000E+00  0.18553443011E+04  0.18553443011E+04  0.50400001928E-02 0.  1.
        1   -1    0    0  501    0  0.00000000000E+00  0.00000000000E+00 -0.39052310955E+03  0.39052310958E+03  0.50400001928E-02 0. -1.
    10030    2    1    2    0    0  0.00000000000E+00  0.00000000000E+00  0.14648211915E+04  0.22458674107E+04  0.17024157257E+04 0.  0.
        4    1    3    3  502    0  0.20787927960E+03 -0.34405864361E+03  0.17222356519E+04  0.17685269007E+04  0.12699999809E+01 0.  1.
       -4    1    3    3    0  502 -0.20787927960E+03  0.34405864361E+03 -0.25741446035E+03  0.47734050994E+03  0.12699999809E+01 0. -1.
</event>
<event>
 5   0  0.5009762E-04  0.1671499E+04  0.7818609E-02  0.8777788E-01
        1   -1    0    0  501    0  0.00000000000E+00  0.00000000000E+00  0.94245823432E+03  0.94245823433E+03  0.50400001928E-02 0.  1.
       -1   -1    0    0    0  501  0.00000000000E+00  0.00000000000E+00 -0.74112286911E+03  0.74112286912E+03  0.50400001928E-02 0. -1.
    10030    2    1    2    0    0  0.00000000000E+00  0.00000000000E+00  0.20133536521E+03  0.16835811035E+04  0.16714991483E+04 0.  0.
        3    1    3    3  502    0 -0.82274340502E+03  0.14449250863E+03  0.74161215205E+02  0.83862070782E+03  0.10100000352E+00 0.  1.
       -3    1    3    3    0  502  0.82274340502E+03 -0.14449250863E+03  0.12717415001E+03  0.84496039563E+03  0.10100000352E+00 0. -1.
</event>
<event>
 5   0  0.9284971E-04  0.1746752E+04  0.7818609E-02  0.8735140E-01
        2   -1    0    0  501    0  0.00000000000E+00  0.00000000000E+00  0.29733187339E+03  0.29733187341E+03  0.25500000920E-02 0.  1.
       -2   -1    0    0    0  501  0.00000000000E+00  0.00000000000E+00 -0.25654350433E+04  0.25654350433E+04  0.25500000920E-02 0. -1.
    10030    2    1    2    0    0  0.00000000000E+00  0.00000000000E+00 -0.22681031699E+04  0.28627669167E+04  0.17467519658E+04 0.  0.
        4    1    3    3  502    0 -0.35462287024E+03 -0.26685116098E+03 -0.23668520020E+04  0.24081023513E+04  0.12699999809E+01 0. -1.
       -4    1    3    3    0  502  0.35462287024E+03  0.26685116098E+03  0.98748832146E+02  0.45466456533E+03  0.12699999809E+01 0.  1.
</event>
<event>
 5   0  0.4947006E-04  0.1732037E+04  0.7818609E-02  0.8743300E-01
       -1   -1    0    0    0  501  0.00000000000E+00  0.00000000000E+00  0.56558122025E+03  0.56558122028E+03  0.50400001928E-02 0.  1.
        1   -1    0    0  501    0  0.00000000000E+00  0.00000000000E+00 -0.13260488158E+04  0.13260488158E+04  0.50400001928E-02 0. -1.
    10030    2    1    2    0    0  0.00000000000E+00  0.00000000000E+00 -0.76046759554E+03  0.18916300361E+04  0.17320373060E+04 0.  0.
        2    1    3    3  502    0 -0.11884998678E+03 -0.59489816676E+03  0.29474079210E+03  0.67446370007E+03  0.25500000920E-02 0.  1.
       -2    1    3    3    0  502  0.11884998678E+03  0.59489816676E+03 -0.10552083876E+04  0.12171663360E+04  0.25500000920E-02 0. -1.
</event>
<event>
 5   0  0.5009762E-04  0.1687689E+04  0.7818609E-02  0.8768417E-01
        1   -1    0    0  501    0  0.00000000000E+00  0.00000000000E+00  0.11154751536E+04  0.11154751536E+04  0.50400001928E-02 0.  1.
       -1   -1    0    0    0  501  0.00000000000E+00  0.00000000000E+00 -0.63835894659E+03  0.63835894661E+03  0.50400001928E-02 0. -1.
    10030    2    1    2    0    0  0.00000000000E+00  0.00000000000E+00  0.47711620703E+03  0.17538341002E+04  0.16876890046E+04 0.  0.
        3    1    3    3  502    0 -0.52671202187E+02 -0.40793938129E+03  0.10042426921E+04  0.10852152732E+04  0.10100000352E+00 0.  1.
       -3    1    3    3    0  502  0.52671202187E+02  0.40793938129E+03 -0.52712648510E+03  0.66861882701E+03  0.10100000352E+00 0. -1.
</event>
<event>
 5   0  0.1007187E-03  0.1702014E+04  0.7818609E-02  0.8760217E-01
       -2   -1    0    0    0  501  0.00000000000E+00  0.00000000000E+00  0.49267855671E+03  0.49267855672E+03  0.25500000920E-02 0.  1.
        2   -1    0    0  501    0  0.00000000000E+00  0.00000000000E+00 -0.14699496913E+04  0.14699496913E+04  0.25500000920E-02 0. -1.
    10030    2    1    2    0    0  0.00000000000E+00  0.00000000000E+00 -0.97727113459E+03  0.19626282480E+04  0.17020137395E+04 0.  0.
        5    1    3    3  502    0  0.60888243624E+03 -0.45908740167E+03 -0.92422174952E+03  0.11982099131E+04  0.46999998093E+01 0. -1.
       -5    1    3    3    0  502 -0.60888243624E+03  0.45908740167E+03 -0.53049385078E+02  0.76441833494E+03  0.46999998093E+01 0.  1.
</event>
<event>
 5   0  0.4947006E-04  0.1703915E+04  0.7818609E-02  0.8759135E-01
       -1   -1    0    0    0  501  0.00000000000E+00  0.00000000000E+00  0.79500104836E+03  0.79500104838E+03  0.50400001928E-02 0.  1.
        1   -1    0    0  501    0  0.00000000000E+00  0.00000000000E+00 -0.91299448491E+03  0.91299448493E+03  0.50400001928E-02 0. -1.
    10030    2    1    2    0    0  0.00000000000E+00  0.00000000000E+00 -0.11799343656E+03  0.17079955333E+04  0.17039149893E+04 0.  0.
        2    1    3    3  502    0  0.44443165404E+03 -0.72270978607E+03  0.18665546815E+02  0.84863262525E+03  0.25500000920E-02 0.  1.
       -2    1    3    3    0  502 -0.44443165404E+03  0.72270978607E+03 -0.13665898337E+03  0.85936290805E+03  0.25500000920E-02 0. -1.
</event>
<event>
 5   0  0.5059689E-04  0.1705859E+04  0.7818609E-02  0.8758030E-01
        1   -1    0    0  501    0  0.00000000000E+00  0.00000000000E+00  0.67852424638E+03  0.67852424640E+03  0.50400001928E-02 0.  1.
       -1   -1    0    0    0  501  0.00000000000E+00  0.00000000000E+00 -0.10721635575E+04  0.10721635575E+04  0.50400001928E-02 0. -1.
    10030    2    1    2    0    0  0.00000000000E+00  0.00000000000E+00 -0.39363931115E+03  0.17506878039E+04  0.17058592790E+04 0.  0.
        5    1    3    3  502    0  0.61447396283E+03  0.58918311098E+03 -0.25065668513E+03  0.88744907068E+03  0.46999998093E+01 0. -1.
       -5    1    3    3    0  502 -0.61447396283E+03 -0.58918311098E+03 -0.14298262602E+03  0.86323873326E+03  0.46999998093E+01 0.  1.
</event>
<event>
 5   0  0.5059689E-04  0.1625424E+04  0.7818609E-02  0.8805080E-01
        1   -1    0    0  501    0  0.00000000000E+00  0.00000000000E+00  0.13047152473E+04  0.13047152474E+04  0.50400001928E-02 0.  1.
       -1   -1    0    0    0  501  0.00000000000E+00  0.00000000000E+00 -0.50624118354E+03  0.50624118356E+03  0.50400001928E-02 0. -1.
    10030    2    1    2    0    0  0.00000000000E+00  0.00000000000E+00  0.79847406381E+03  0.18109564309E+04  0.16254237491E+04 0.  0.
        5    1    3    3  502    0  0.62698378801E+03 -0.50345820117E+03  0.53059113705E+03  0.96339393576E+03  0.46999998093E+01 0.  1.
       -5    1    3    3    0  502 -0.62698378801E+03  0.50345820117E+03  0.26788292676E+03  0.84756249516E+03  0.46999998093E+01 0. -1.
</event>
<event>
 5   0  0.9610114E-04  0.1634129E+04  0.7818609E-02  0.8799851E-01
        2   -1    0    0  501    0  0.00000000000E+00  0.00000000000E+00  0.10558152829E+04  0.10558152829E+04  0.25500000920E-02 0.  1.
       -2   -1    0    0    0  501  0.00000000000E+00  0.00000000000E+00 -0.63230254360E+03  0.63230254361E+03  0.25500000920E-02 0. -1.
    10030    2    1    2    0    0  0.00000000000E+00  0.00000000000E+00  0.42351273926E+03  0.16881178265E+04  0.16341293571E+04 0.  0.
        2    1    3    3  502    0  0.10649417789E+03 -0.17591197708E+03  0.10286463024E+04  0.10489991654E+04  0.25500000920E-02 0.  1.
       -2    1    3    3    0  502 -0.10649417789E+03  0.17591197708E+03 -0.60513356316E+03  0.63911866103E+03  0.25500000920E-02 0. -1.
</event>
<event>
 5   0  0.9610114E-04  0.1680454E+04  0.7818609E-02  0.8772591E-01
       -2   -1    0    0    0  501  0.00000000000E+00  0.00000000000E+00  0.79261051823E+03  0.79261051823E+03  0.25500000920E-02 0.  1.
        2   -1    0    0  501    0  0.00000000000E+00  0.00000000000E+00 -0.89070384625E+03  0.89070384625E+03  0.25500000920E-02 0. -1.
    10030    2    1    2    0    0  0.00000000000E+00  0.00000000000E+00 -0.98093328017E+02  0.16833143645E+04  0.16804537925E+04 0.  0.
        2    1    3    3  502    0  0.77109799768E+02  0.62024124068E+03 -0.61155053261E+03  0.87443648815E+03  0.25500000920E-02 0. -1.
       -2    1    3    3    0  502 -0.77109799768E+02 -0.62024124068E+03  0.51345720460E+03  0.80887787633E+03  0.25500000920E-02 0.  1.
</event>
<event>
 5   0  0.9312096E-04  0.1730606E+04  0.7818609E-02  0.8744099E-01
       -2   -1    0    0    0  501  0.00000000000E+00  0.00000000000E+00  0.10297389488E+04  0.10297389488E+04  0.25500000920E-02 0. -1.
        2   -1    0    0  501    0  0.00000000000E+00  0.00000000000E+00 -0.72712518864E+03  0.72712518864E+03  0.25500000920E-02 0.  1.
    10030    2    1    2    0    0  0.00000000000E+00  0.00000000000E+00  0.30261376012E+03  0.17568641374E+04  0.17306058215E+04 0.  0.
        3    1    3    3  502    0  0.10956534133E+03  0.93116416290E+02 -0.71491219813E+03  0.72922883394E+03  0.10100000352E+00 0.  1.
       -3    1    3    3    0  502 -0.10956534133E+03 -0.93116416290E+02  0.10175259583E+04  0.10276353035E+04  0.10100000352E+00 0. -1.
</event>
<event>
 5   0  0.9284971E-04  0.1676358E+04  0.7818609E-02  0.8774964E-01
        2   -1    0    0  501    0  0.00000000000E+00  0.00000000000E+00  0.11186999867E+04  0.11186999867E+04  0.25500000920E-02 0.  1.
       -2   -1    0    0    0  501  0.00000000000E+00  0.00000000000E+00 -0.62800055845E+03  0.62800055846E+03  0.25500000920E-02 0. -1.
    10030    2    1    2    0    0  0.00000000000E+00  0.00000000000E+00  0.49069942829E+03  0.17467005452E+04  0.16763582152E+04 0.  0.
        4    1    3    3  502    0  0.68138660931E+02  0.53636721992E+03 -0.42200189846E+03  0.68587162569E+03  0.12699999809E+01 0. -1.
       -4    1    3    3    0  502 -0.68138660931E+02 -0.53636721992E+03  0.91270132676E+03  0.10608289195E+04  0.12699999809E+01 0.  1.
</event>
<event>
 5   0  0.5074133E-04  0.1682858E+04  0.7818609E-02  0.8771202E-01
       -1   -1    0    0    0  501  0.00000000000E+00  0.00000000000E+00  0.75774876995E+03  0.75774876997E+03  0.50400001928E-02 0. -1.
        1   -1    0    0  501    0  0.00000000000E+00  0.00000000000E+00 -0.93434981438E+03  0.93434981440E+03  0.50400001928E-02 0.  1.
    10030    2    1    2    0    0  0.00000000000E+00  0.00000000000E+00 -0.17660104443E+03  0.16920985844E+04  0.16828575966E+04 0.  0.
        1    1    3    3  502    0  0.34837337661E+02 -0.73109152274E+03 -0.50566293169E+03  0.88960859665E+03  0.50400001928E-02 0.  1.
       -1    1    3    3    0  502 -0.34837337661E+02  0.73109152274E+03  0.32906188726E+03  0.80248998772E+03  0.50400001928E-02 0. -1.
</event>
<event>
 5   0  0.9284971E-04  0.1463445E+04  0.7818609E-02  0.8909132E-01
        2   -1    0    0  501    0  0.00000000000E+00  0.00000000000E+00  0.16816740341E+04  0.16816740341E+04  0.25500000920E-02 0.  1.
       -2   -1    0    0    0  501  0.00000000000E+00  0.00000000000E+00 -0.31838377697E+03  0.31838377698E+03  0.25500000920E-02 0. -1.
    10030    2    1    2    0    0  0.00000000000E+00  0.00000000000E+00  0.13632902572E+04  0.20000578111E+04  0.14634448820E+04 0.  0.
        4    1    3    3  502    0 -0.33430877894E+03  0.63402619453E+03  0.48048544586E+03  0.86291335116E+03  0.12699999809E+01 0. -1.
       -4    1    3    3    0  502  0.33430877894E+03 -0.63402619453E+03  0.88280481132E+03  0.11371444600E+04  0.12699999809E+01 0.  1.
</event>
<event>
 5   0  0.5035495E-04  0.1633738E+04  0.7818609E-02  0.8800085E-01
        1   -1    0    0  501    0  0.00000000000E+00  0.00000000000E+00  0.13907030726E+04  0.13907030726E+04  0.50400001928E-02 0. -1.
       -1   -1    0    0    0  501  0.00000000000E+00  0.00000000000E+00 -0.47981119562E+03  0.47981119565E+03  0.50400001928E-02 0.  1.
    10030    2    1    2    0    0  0.00000000000E+00  0.00000000000E+00  0.91089187693E+03  0.18705142682E+04  0.16337379276E+04 0.  0.
        4    1    3    3  502    0 -0.20103425563E+03 -0.97290459682E+02 -0.44417491638E+03  0.49716513828E+03  0.12699999809E+01 0.  1.
       -4    1    3    3    0  502  0.20103425563E+03  0.97290459682E+02  0.13550667933E+04  0.13733491299E+04  0.12699999809E+01 0. -1.
</event>
<event>
 5   0  0.9625225E-04  0.1706964E+04  0.7818609E-02  0.8757403E-01
        2   -1    0    0  501    0  0.00000000000E+00  0.00000000000E+00  0.65484034689E+03  0.65484034690E+03  0.25500000920E-02 0.  1.
       -2   -1    0    0    0  501  0.00000000000E+00  0.00000000000E+00 -0.11123799499E+04  0.11123799499E+04  0.25500000920E-02 0. -1.
    10030    2    1    2    0    0  0.00000000000E+00  0.00000000000E+00 -0.45753960299E+03  0.17672202968E+04  0.17069637047E+04 0.  0.
        1    1    3    3  502    0 -0.55210378799E+03  0.63373005997E+03 -0.75213800195E+02  0.84385395501E+03  0.50400001928E-02 0.  1.
       -1    1    3    3    0  502  0.55210378799E+03 -0.63373005997E+03 -0.38232580280E+03  0.92336634178E+03  0.50400001928E-02 0. -1.
</event>
<event>
 5   0  0.5009762E-04  0.1704606E+04  0.7818609E-02  0.8758742E-01
        1   -1    0    0  501    0  0.00000000000E+00  0.00000000000E+00  0.16106784544E+04  0.16106784544E+04  0.50400001928E-02 0.  1.
       -1   -1    0    0    0  501  0.00000000000E+00  0.00000000000E+00 -0.45100252866E+03  0.45100252869E+03  0.50400001928E-02 0. -1.
    10030    2    1    2    0    0  0.00000000000E+00  0.00000000000E+00  0.11596759258E+04  0.20616809831E+04  0.17046055917E+04 0.  0.
        3    1    3    3  502    0  0.50184783377E+03 -0.65547523688E+03  0.32349445780E+03  0.88664971035E+03  0.10100000352E+00 0. -1.
       -3    1    3    3    0  502 -0.50184783377E+03  0.65547523688E+03  0.83618146798E+03  0.11750312728E+04  0.10100000352E+00 0.  1.
</event>
<event>
 5   0  0.9312096E-04  0.1680265E+04  0.7818609E-02  0.8772701E-01
        2   -1    0    0  501    0  0.00000000000E+00  0.00000000000E+00  0.10726746805E+04  0.10726746805E+04  0.25500000920E-02 0.  1.
       -2   -1    0    0    0  501  0.00000000000E+00  0.00000000000E+00 -0.65800241509E+03  0.65800241509E+03  0.25500000920E-02 0. -1.
    10030    2    1    2    0    0  0.00000000000E+00  0.00000000000E+00  0.41467226545E+03  0.17306770956E+04  0.16802648963E+04 0.  0.
        3    1    3    3  502    0  0.29103059400E+03  0.88567617116E+02 -0.59928113036E+03  0.67207210390E+03  0.10100000352E+00 0. -1.
       -3    1    3    3    0  502 -0.29103059400E+03 -0.88567617116E+02  0.10139533958E+04  0.10586049917E+04  0.10100000352E+00 0.  1.
</event>
<event>
 5   0  0.5059689E-04  0.1687748E+04  0.7818609E-02  0.8768383E-01
       -1   -1    0    0    0  501  0.00000000000E+00  0.00000000000E+00  0.83640740356E+03  0.83640740358E+03  0.50400001928E-02 0.  1.
        1   -1    0    0  501    0  0.00000000000E+00  0.00000000000E+00 -0.85140751377E+03  0.85140751378E+03  0.50400001928E-02 0. -1.
    10030    2    1    2    0    0  0.00000000000E+00  0.00000000000E+00 -0.15000110206E+02  0.16878149174E+04  0.16877482608E+04 0.  0.
        5    1    3    3  502    0 -0.57208352651E+03  0.19994044799E+03  0.57975879191E+03  0.83868831567E+03  0.46999998093E+01 0.  1.
       -5    1    3    3    0  502  0.57208352651E+03 -0.19994044799E+03 -0.59475890211E+03  0.84912660169E+03  0.46999998093E+01 0. -1.
</event>
<event>
 5   0  0.9625225E-04  0.1032351E+04  0.7818609E-02  0.9273757E-01
        2   -1    0    0  501    0  0.00000000000E+00  0.00000000000E+00  0.77266190906E+03  0.77266190906E+03  0.25500000920E-02 0.  1.
       -2   -1    0    0    0  501  0.00000000000E+00  0.00000000000E+00 -0.34483027559E+03  0.34483027560E+03  0.25500000920E-02 0. -1.
    10030    2    1    2    0    0  0.00000000000E+00  0.00000000000E+00  0.42783163347E+03  0.11174921847E+04  0.10323511400E+04 0.  0.
        1    1    3    3  502    0 -0.71578868072E+02 -0.23808991401E+03  0.70358005970E+03  0.74621393845E+03  0.50400001928E-02 0.  1.
       -1    1    3    3    0  502  0.71578868072E+02  0.23808991401E+03 -0.27574842623E+03  0.37127824621E+03  0.50400001928E-02 0. -1.
</event>
<event>
 5   0  0.9312096E-04  0.1669531E+04  0.7818609E-02  0.8778935E-01
       -2   -1    0    0    0  501  0.00000000000E+00  0.00000000000E+00  0.48473192369E+03  0.48473192370E+03  0.25500000920E-02 0.  1.
        2   -1    0    0  501    0  0.00000000000E+00  0.00000000000E+00 -0.14375639613E+04  0.14375639613E+04  0.25500000920E-02 0. -1.
    10030    2    1    2    0    0  0.00000000000E+00  0.00000000000E+00 -0.95283203762E+03  0.19222958850E+04  0.16695306459E+04 0.  0.
        3    1    3    3  502    0 -0.54870716471E+03 -0.26984281917E+03 -0.11307292594E+04  0.12854739857E+04  0.10100000352E+00 0. -1.
       -3    1    3    3    0  502  0.54870716471E+03  0.26984281917E+03  0.17789722182E+03  0.63682189927E+03  0.10100000352E+00 0.  1.
</event>
<event>
 5   0  0.3523125E-04  0.1610917E+04  0.7818609E-02  0.8813869E-01
       -3   -1    0    0    0  501  0.00000000000E+00  0.00000000000E+00  0.53119149236E+03  0.53119150196E+03  0.10100000352E+00 0.  1.
        3   -1    0    0  501    0  0.00000000000E+00  0.00000000000E+00 -0.12213358654E+04  0.12213358696E+04  0.10100000352E+00 0. -1.
    10030    2    1    2    0    0  0.00000000000E+00  0.00000000000E+00 -0.69014437308E+03  0.17525273716E+04  0.16109167987E+04 0.  0.
        4    1    3    3  502    0  0.34397896850E+03  0.25615024977E+03 -0.10867878278E+04  0.11683509219E+04  0.12699999809E+01 0. -1.
       -4    1    3    3    0  502 -0.34397896850E+03 -0.25615024977E+03  0.39664345473E+03  0.58417644963E+03  0.12699999809E+01 0.  1.
</event>
<event>
 5   0  0.5035495E-04  0.1732687E+04  0.7818609E-02  0.8742938E-01
       -1   -1    0    0    0  501  0.00000000000E+00  0.00000000000E+00  0.10383200248E+04  0.10383200248E+04  0.50400001928E-02 0.  1.
        1   -1    0    0  501    0  0.00000000000E+00  0.00000000000E+00 -0.72285150561E+03  0.72285150563E+03  0.50400001928E-02 0. -1.
    10030    2    1    2    0    0  0.00000000000E+00  0.00000000000E+00  0.31546851919E+03  0.17611715304E+04  0.17326871538E+04 0.  0.
        4    1    3    3  502    0  0.43943132675E+02 -0.22252263815E+03 -0.69213447596E+03  0.72835367034E+03  0.12699999809E+01 0. -1.
       -4    1    3    3    0  502 -0.43943132675E+02  0.22252263815E+03  0.10076029951E+04  0.10328178601E+04  0.12699999809E+01 0.  1.
</event>
<event>
 5   0  0.4947006E-04  0.1776749E+04  0.7818609E-02  0.8718763E-01
       -1   -1    0    0    0  501  0.00000000000E+00  0.00000000000E+00  0.59658990410E+03  0.59658990412E+03  0.50400001928E-02 0. -1.
        1   -1    0    0  501    0  0.00000000000E+00  0.00000000000E+00 -0.13228668665E+04  0.13228668665E+04  0.50400001928E-02 0.  1.
    10030    2    1    2    0    0  0.00000000000E+00  0.00000000000E+00 -0.72627696241E+03  0.19194567706E+04  0.17767487353E+04 0.  0.
        2    1    3    3  502    0 -0.35514513360E+03 -0.18336450336E+03 -0.12202470576E+04  0.12840379623E+04  0.25500000920E-02 0.  1.
       -2    1    3    3    0  502  0.35514513360E+03  0.18336450336E+03  0.49397009521E+03  0.63541880833E+03  0.25500000920E-02 0. -1.
</event>
<event>
 5   0  0.9284971E-04  0.1694616E+04  0.7818609E-02  0.8764441E-01
       -2   -1    0    0    0  501  0.00000000000E+00  0.00000000000E+00  0.42566576709E+03  0.42566576710E+03  0.25500000920E-02 0. -1.
        2   -1    0    0  501    0  0.00000000000E+00  0.00000000000E+00 -0.16866065447E+04  0.16866065447E+04  0.25500000920E-02 0.  1.
    10030    2    1    2    0    0  0.00000000000E+00  0.00000000000E+00 -0.12609407776E+04  0.21122723118E+04  0.16946157896E+04 0.  0.
        4    1    3    3  502    0  0.52308458603E+03 -0.54786601208E+03 -0.11037225605E+04  0.13386484807E+04  0.12699999809E+01 0.  1.
       -4    1    3    3    0  502 -0.52308458603E+03  0.54786601208E+03 -0.15721821703E+03  0.77362383107E+03  0.12699999809E+01 0. -1.
</event>
<event>
 5   0  0.9625225E-04  0.1716094E+04  0.7818609E-02  0.8752238E-01
        2   -1    0    0  501    0  0.00000000000E+00  0.00000000000E+00  0.10498292893E+04  0.10498292893E+04  0.25500000920E-02 0.  1.
       -2   -1    0    0    0  501  0.00000000000E+00  0.00000000000E+00 -0.70129954783E+03  0.70129954784E+03  0.25500000920E-02 0. -1.
    10030    2    1    2    0    0  0.00000000000E+00  0.00000000000E+00  0.34852974149E+03  0.17511288372E+04  0.17160941768E+04 0.  0.
        1    1    3    3  502    0 -0.24996594010E+03  0.30833950506E+03 -0.60198124479E+03  0.72106701540E+03  0.50400001928E-02 0. -1.
       -1    1    3    3    0  502  0.24996594010E+03 -0.30833950506E+03  0.95051098628E+03  0.10300618218E+04  0.50400001928E-02 0.  1.
</event>
<event>
 5   0  0.5074133E-04  0.1773617E+04  0.7818609E-02  0.8720457E-01
       -1   -1    0    0    0  501  0.00000000000E+00  0.00000000000E+00  0.10781682471E+04  0.10781682471E+04  0.50400001928E-02 0.  1.
        1   -1    0    0  501    0  0.00000000000E+00  0.00000000000E+00 -0.72941239628E+03  0.72941239629E+03  0.50400001928E-02 0. -1.
    10030    2    1    2    0    0  0.00000000000E+00  0.00000000000E+00  0.34875585078E+03  0.18075806434E+04  0.17736169651E+04 0.  0.
        1    1    3    3  502    0 -0.47414675389E+01 -0.56581949838E+03 -0.52152657429E+03  0.76952202956E+03  0.50400001928E-02 0. -1.
       -1    1    3    3    0  502  0.47414675389E+01  0.56581949838E+03  0.87028242507E+03  0.10380586138E+04  0.50400001928E-02 0.  1.
</event>
<event>
 5   0  0.1007187E-03  0.1601691E+04  0.7818609E-02  0.8819510E-01
       -2   -1    0    0    0  501  0.00000000000E+00  0.00000000000E+00  0.93511442899E+03  0.93511442899E+03  0.25500000920E-02 0.  1.
        2   -1    0    0  501    0  0.00000000000E+00  0.00000000000E+00 -0.68585552016E+03  0.68585552016E+03  0.25500000920E-02 0. -1.
    10030    2    1    2    0    0  0.00000000000E+00  0.00000000000E+00  0.24925890883E+03  0.16209699492E+04  0.16016908480E+04 0.  0.
        5    1    3    3  502    0  0.68751608163E+03  0.35111098694E+03  0.34020519014E+03  0.84363436929E+03  0.46999998093E+01 0.  1.
       -5    1    3    3    0  502 -0.68751608163E+03 -0.35111098694E+03 -0.90946281311E+02  0.77733557987E+03  0.46999998093E+01 0. -1.
</event>
<event>
 5   0  0.5035495E-04  0.1504865E+04  0.7818609E-02  0.8881224E-01
       -1   -1    0    0    0  501  0.00000000000E+00  0.00000000000E+00  0.12282721081E+04  0.12282721081E+04  0.50400001928E-02 0. -1.
        1   -1    0    0  501    0  0.00000000000E+00  0.00000000000E+00 -0.46093577729E+03  0.46093577732E+03  0.50400001928E-02 0.  1.
    10030    2    1    2    0    0  0.00000000000E+00  0.00000000000E+00  0.76733633081E+03  0.16892078854E+04  0.15048648563E+04 0.  0.
        4    1    3    3  502    0  0.39488247056E+03  0.49131300595E+03  0.84489374169E+03  0.10541193875E+04  0.12699999809E+01 0. -1.
       -4    1    3    3    0  502 -0.39488247056E+03 -0.49131300595E+03 -0.77557410880E+02  0.63508849797E+03  0.12699999809E+01 0.  1.
</event>
<event>
 5   0  0.5009762E-04  0.1716892E+04  0.7818609E-02  0.8751789E-01
        1   -1    0    0  501    0  0.00000000000E+00  0.00000000000E+00  0.10463691363E+04  0.10463691363E+04  0.50400001928E-02 0. -1.
       -1   -1    0    0    0  501  0.00000000000E+00  0.00000000000E+00 -0.70427261939E+03  0.70427261940E+03  0.50400001928E-02 0.  1.
    10030    2    1    2    0    0  0.00000000000E+00  0.00000000000E+00  0.34209651689E+03  0.17506417557E+04  0.17168915312E+04 0.  0.
        3    1    3    3  502    0  0.34251449176E+03 -0.17905438694E+03 -0.61053950832E+03  0.72258920000E+03  0.10100000352E+00 0.  1.
       -3    1    3    3    0  502 -0.34251449176E+03  0.17905438694E+03  0.95263602520E+03  0.10280525557E+04  0.10100000352E+00 0. -1.
</event>
<event>
 5   0  0.4947006E-04  0.1734571E+04  0.7818609E-02  0.8741889E-01
        1   -1    0    0  501    0  0.00000000000E+00  0.00000000000E+00  0.11716282638E+04  0.11716282638E+04  0.50400001928E-02 0.  1.
       -1   -1    0    0    0  501  0.00000000000E+00  0.00000000000E+00 -0.64199922366E+03  0.64199922368E+03  0.50400001928E-02 0. -1.
    10030    2    1    2    0    0  0.00000000000E+00  0.00000000000E+00  0.52962904017E+03  0.18136274875E+04  0.17345713428E+04 0.  0.
        2    1    3    3  502    0  0.61284410826E+03 -0.54613715856E+03 -0.27836305663E+02  0.82135166458E+03  0.25500000920E-02 0. -1.
       -2    1    3    3    0  502 -0.61284410826E+03  0.54613715856E+03  0.55746534583E+03  0.99227582294E+03  0.25500000920E-02 0.  1.
</event>
<event>
 5   0  0.9284971E-04  0.1653060E+04  0.7818609E-02  0.8788598E-01
       -2   -1    0    0    0  501  0.00000000000E+00  0.00000000000E+00  0.33506356644E+03  0.33506356645E+03  0.25500000920E-02 0.  1.
        2   -1    0    0  501    0  0.00000000000E+00  0.00000000000E+00 -0.20388728641E+04  0.20388728641E+04  0.25500000920E-02 0. -1.
    10030    2    1    2    0    0  0.00000000000E+00  0.00000000000E+00 -0.17038092977E+04  0.23739364306E+04  0.16530602087E+04 0.  0.
        4    1    3    3  502    0  0.42350704797E+03 -0.65060665207E+03 -0.44444285670E+03  0.89452685883E+03  0.12699999809E+01 0.  1.
       -4    1    3    3    0  502 -0.42350704797E+03  0.65060665207E+03 -0.12593664410E+04  0.14794095717E+04  0.12699999809E+01 0. -1.
</event>
<event>
 5   0  0.5074133E-04  0.1712511E+04  0.7818609E-02  0.8754261E-01
        1   -1    0    0  501    0  0.00000000000E+00  0.00000000000E+00  0.67472779330E+03  0.67472779332E+03  0.50400001928E-02 0. -1.
       -1   -1    0    0    0  501  0.00000000000E+00  0.00000000000E+00 -0.10866213633E+04  0.10866213633E+04  0.50400001928E-02 0.  1.
    10030    2    1    2    0    0  0.00000000000E+00  0.00000000000E+00 -0.41189357001E+03  0.17613491566E+04  0.17125111791E+04 0.  0.
        1    1    3    3  502    0  0.35987026269E+03 -0.71090008264E+03  0.11650331283E+03  0.80526924404E+03  0.50400001928E-02 0. -1.
       -1    1    3    3    0  502 -0.35987026269E+03  0.71090008264E+03 -0.52839688284E+03  0.95607991260E+03  0.50400001928E-02 0.  1.
</event>
<event>
 5   0  0.5009762E-04  0.1654138E+04  0.7818609E-02  0.8787962E-01
       -1   -1    0    0    0  501  0.00000000000E+00  0.00000000000E+00  0.69131131294E+03  0.69131131296E+03  0.50400001928E-02 0. -1.
        1   -1    0    0  501    0  0.00000000000E+00  0.00000000000E+00 -0.98948672148E+03  0.98948672149E+03  0.50400001928E-02 0.  1.
    10030    2    1    2    0    0  0.00000000000E+00  0.00000000000E+00 -0.29817540853E+03  0.16807980345E+04  0.16541382827E+04 0.  0.
        3    1    3    3  502    0  0.56694350115E+03 -0.10283241730E+03  0.45380793072E+03  0.73344467257E+03  0.10100000352E+00 0. -1.
       -3    1    3    3    0  502 -0.56694350115E+03  0.10283241730E+03 -0.75198333926E+03  0.94735336188E+03  0.10100000352E+00 0.  1.
</event>
<event>
 5   0  0.9610114E-04  0.1657667E+04  0.7818609E-02  0.8785884E-01
        2   -1    0    0  501    0  0.00000000000E+00  0.00000000000E+00  0.18775978641E+04  0.18775978641E+04  0.25500000920E-02 0.  1.
       -2   -1    0    0    0  501  0.00000000000E+00  0.00000000000E+00 -0.36587439705E+03  0.36587439706E+03  0.25500000920E-02 0. -1.
    10030    2    1    2    0    0  0.00000000000E+00  0.00000000000E+00  0.15117234671E+04  0.22434722612E+04  0.16576670190E+04 0.  0.
        2    1    3    3  502    0 -0.46452421564E+03 -0.36946118802E+03  0.15388201957E+04  0.16493186202E+04  0.25500000920E-02 0.  1.
       -2    1    3    3    0  502  0.46452421564E+03  0.36946118802E+03 -0.27096728613E+02  0.59415364097E+03  0.25500000920E-02 0. -1.
</event>
<event>
 5   0  0.9284971E-04  0.1636866E+04  0.7818609E-02  0.8798215E-01
       -2   -1    0    0    0  501  0.00000000000E+00  0.00000000000E+00  0.13452047679E+04  0.13452047679E+04  0.25500000920E-02 0. -1.
        2   -1    0    0  501    0  0.00000000000E+00  0.00000000000E+00 -0.49794073627E+03  0.49794073628E+03  0.25500000920E-02 0.  1.
    10030    2    1    2    0    0  0.00000000000E+00  0.00000000000E+00  0.84726403165E+03  0.18431455042E+04  0.16368656055E+04 0.  0.
        4    1    3    3  502    0  0.29528333393E+03  0.98431593900E+02  0.12759562041E+04  0.13133723286E+04  0.12699999809E+01 0. -1.
       -4    1    3    3    0  502 -0.29528333393E+03 -0.98431593900E+02 -0.42869217242E+03  0.52977317558E+03  0.12699999809E+01 0.  1.
</event>
<event>
 5   0  0.5059689E-04  0.1744666E+04  0.7818609E-02  0.8736292E-01
        1   -1    0    0  501    0  0.00000000000E+00  0.00000000000E+00  0.98969415685E+03  0.98969415686E+03  0.50400001928E-02 0. -1.
       -1   -1    0    0    0  501  0.00000000000E+00  0.00000000000E+00 -0.76888893256E+03  0.76888893258E+03  0.50400001928E-02 0.  1.
    10030    2    1    2    0    0  0.00000000000E+00  0.00000000000E+00  0.22080522429E+03  0.17585830894E+04  0.17446660240E+04 0.  0.
        5    1    3    3  502    0  0.27608554663E+02 -0.56665672158E+03 -0.55751481267E+03  0.79542877038E+03  0.46999998093E+01 0.  1.
       -5    1    3    3    0  502 -0.27608554663E+02  0.56665672158E+03  0.77832003696E+03  0.96315431906E+03  0.46999998093E+01 0. -1.
</event>
<event>
 5   0  0.9284971E-04  0.1839237E+04  0.7818609E-02  0.8685708E-01
       -2   -1    0    0    0  501  0.00000000000E+00  0.00000000000E+00  0.39303639715E+03  0.39303639716E+03  0.25500000920E-02 0.  1.
        2   -1    0    0  501    0  0.00000000000E+00  0.00000000000E+00 -0.21517045316E+04  0.21517045316E+04  0.25500000920E-02 0. -1.
    10030    2    1    2    0    0  0.00000000000E+00  0.00000000000E+00 -0.17586681344E+04  0.25447409287E+04  0.18392370123E+04 0.  0.
        4    1    3    3  502    0  0.68069408999E+03  0.56562499322E+03 -0.53365783292E+03  0.10334739342E+04  0.12699999809E+01 0.  1.
       -4    1    3    3    0  502 -0.68069408999E+03 -0.56562499322E+03 -0.12250103015E+04  0.15112669945E+04  0.12699999809E+01 0. -1.
</event>
<event>
 5   0  0.4947006E-04  0.1718131E+04  0.7818609E-02  0.8751090E-01
        1   -1    0    0  501    0  0.00000000000E+00  0.00000000000E+00  0.40877490691E+03  0.40877490694E+03  0.50400001928E-02 0. -1.
       -1   -1    0    0    0  501  0.00000000000E+00  0.00000000000E+00 -0.18053797081E+04  0.18053797081E+04  0.50400001928E-02 0.  1.
    10030    2    1    2    0    0  0.00000000000E+00  0.00000000000E+00 -0.13966048011E+04  0.22141546150E+04  0.17181314526E+04 0.  0.
        2    1    3    3  502    0  0.45648562485E+03 -0.38932523263E+03 -0.14906592426E+04  0.16068659683E+04  0.25500000920E-02 0.  1.
       -2    1    3    3    0  502 -0.45648562485E+03  0.38932523263E+03  0.94054441456E+02  0.60728864671E+03  0.25500000920E-02 0. -1.
</event>
<event>
 5   0  0.1007187E-03  0.1697023E+04  0.7818609E-02  0.8763064E-01
       -2   -1    0    0    0  501  0.00000000000E+00  0.00000000000E+00  0.51438220710E+03  0.51438220711E+03  0.25500000920E-02 0.  1.
        2   -1    0    0  501    0  0.00000000000E+00  0.00000000000E+00 -0.13996825716E+04  0.13996825716E+04  0.25500000920E-02 0. -1.
    10030    2    1    2    0    0  0.00000000000E+00  0.00000000000E+00 -0.88530036453E+03  0.19140647787E+04  0.16970230528E+04 0.  0.
        5    1    3    3  502    0  0.49292386039E+02  0.10051851200E+03 -0.13913008833E+04  0.13958058420E+04  0.46999998093E+01 0. -1.
       -5    1    3    3    0  502 -0.49292386039E+02 -0.10051851200E+03  0.50600051877E+03  0.51825893679E+03  0.46999998093E+01 0.  1.
</event>
<event>
 5   0  0.5035495E-04  0.1702342E+04  0.7818609E-02  0.8760030E-01
       -1   -1    0    0    0  501  0.00000000000E+00  0.00000000000E+00  0.57145411911E+03  0.57145411913E+03  0.50400001928E-02 0. -1.
        1   -1    0    0  501    0  0.00000000000E+00  0.00000000000E+00 -0.12678041018E+04  0.12678041018E+04  0.50400001928E-02 0.  1.
    10030    2    1    2    0    0  0.00000000000E+00  0.00000000000E+00 -0.69634998268E+03  0.18392582209E+04  0.17023417709E+04 0.  0.
        4    1    3    3  502    0  0.71075953475E+02  0.39299332963E+03 -0.11602911335E+04  0.12270992933E+04  0.12699999809E+01 0.  1.
       -4    1    3    3    0  502 -0.71075953475E+02 -0.39299332963E+03  0.46394115083E+03  0.61215892759E+03  0.12699999809E+01 0. -1.
</event>
<event>
 5   0  0.9312096E-04  0.1221818E+04  0.7818609E-02  0.9093971E-01
       -2   -1    0    0    0  501  0.00000000000E+00  0.00000000000E+00  0.32942963188E+03  0.32942963189E+03  0.25500000920E-02 0.  1.
        2   -1    0    0  501    0  0.00000000000E+00  0.00000000000E+00 -0.11328964771E+04  0.11328964771E+04  0.25500000920E-02 0. -1.
    10030    2    1    2    0    0  0.00000000000E+00  0.00000000000E+00 -0.80346684517E+03  0.14623261089E+04  0.12218177760E+04 0.  0.
        3    1    3    3  502    0 -0.61067071149E+03 -0.16995440385E+02 -0.40346630224E+03  0.73211517544E+03  0.10100000352E+00 0.  1.
       -3    1    3    3    0  502  0.61067071149E+03  0.16995440385E+02 -0.40000054292E+03  0.73021093350E+03  0.10100000352E+00 0. -1.
</event>
<event>
 5   0  0.3523125E-04  0.1615778E+04  0.7818609E-02  0.8810913E-01
        4   -1    0    0  501    0  0.00000000000E+00  0.00000000000E+00  0.13539432500E+04  0.13539438456E+04  0.12699999809E+01 0.  1.
       -4   -1    0    0    0  501  0.00000000000E+00  0.00000000000E+00 -0.48206039294E+03  0.48206206586E+03  0.12699999809E+01 0. -1.
    10030    2    1    2    0    0  0.00000000000E+00  0.00000000000E+00  0.87188285705E+03  0.18360059115E+04  0.16157778283E+04 0.  0.
        3    1    3    3  502    0 -0.48240352337E+03 -0.40993092881E+03 -0.13439435052E+03  0.64716178611E+03  0.10100000352E+00 0. -1.
       -3    1    3    3    0  502  0.48240352337E+03  0.40993092881E+03  0.10062772076E+04  0.11888441254E+04  0.10100000352E+00 0.  1.
</event>
<event>
 5   0  0.9610114E-04  0.1690678E+04  0.7818609E-02  0.8766699E-01
       -2   -1    0    0    0  501  0.00000000000E+00  0.00000000000E+00  0.85647329659E+03  0.85647329659E+03  0.25500000920E-02 0. -1.
        2   -1    0    0  501    0  0.00000000000E+00  0.00000000000E+00 -0.83434921280E+03  0.83434921281E+03  0.25500000920E-02 0.  1.
    10030    2    1    2    0    0  0.00000000000E+00  0.00000000000E+00  0.22124083784E+02  0.16908225094E+04  0.16906777585E+04 0.  0.
        2    1    3    3  502    0 -0.26475058539E+03  0.51295844135E+03 -0.60654940036E+03  0.83732992906E+03  0.25500000920E-02 0.  1.
       -2    1    3    3    0  502  0.26475058539E+03 -0.51295844135E+03  0.62867348415E+03  0.85349258034E+03  0.25500000920E-02 0. -1.
</event>
<event>
 5   0  0.3523125E-04  0.1675848E+04  0.7818609E-02  0.8775260E-01
       -3   -1    0    0    0  501  0.00000000000E+00  0.00000000000E+00  0.97521713869E+03  0.97521714393E+03  0.10100000352E+00 0.  1.
        3   -1    0    0  501    0  0.00000000000E+00  0.00000000000E+00 -0.71995946764E+03  0.71995947473E+03  0.10100000352E+00 0. -1.
    10030    2    1    2    0    0  0.00000000000E+00  0.00000000000E+00  0.25525767105E+03  0.16951766187E+04  0.16758482299E+04 0.  0.
        1    1    3    3  502    0 -0.19593756413E+03  0.27594596744E+03  0.90300678194E+03  0.96434379463E+03  0.50400001928E-02 0.  1.
       -1    1    3    3    0  502  0.19593756413E+03 -0.27594596744E+03 -0.64774911089E+03  0.73083282402E+03  0.50400001928E-02 0. -1.
</event>
<event>
 5   0  0.9284971E-04  0.1666191E+04  0.7818609E-02  0.8780885E-01
       -2   -1    0    0    0  501  0.00000000000E+00  0.00000000000E+00  0.47762148189E+03  0.47762148190E+03  0.25500000920E-02 0.  1.
        2   -1    0    0  501    0  0.00000000000E+00  0.00000000000E+00 -0.14531348108E+04  0.14531348108E+04  0.25500000920E-02 0. -1.
    10030    2    1    2    0    0  0.00000000000E+00  0.00000000000E+00 -0.97551332891E+03  0.19307562927E+04  0.16661913476E+04 0.  0.
        4    1    3    3  502    0 -0.81803603818E+03  0.10436873120E+03 -0.35078955704E+03  0.89617560670E+03  0.12699999809E+01 0.  1.
       -4    1    3    3    0  502  0.81803603818E+03 -0.10436873120E+03 -0.62472377187E+03  0.10345806860E+04  0.12699999809E+01 0. -1.
</event>
<event>
 5   0  0.1007187E-03  0.1685153E+04  0.7818609E-02  0.8769878E-01
        2   -1    0    0  501    0  0.00000000000E+00  0.00000000000E+00  0.22666211471E+04  0.22666211471E+04  0.25500000920E-02 0. -1.
       -2   -1    0    0    0  501  0.00000000000E+00  0.00000000000E+00 -0.31321301700E+03  0.31321301701E+03  0.25500000920E-02 0.  1.
    10030    2    1    2    0    0  0.00000000000E+00  0.00000000000E+00  0.19534081301E+04  0.25798341641E+04  0.16851531063E+04 0.  0.
        5    1    3    3  502    0 -0.19630155412E+03  0.29828098421E+03 -0.19162675661E+03  0.40527613985E+03  0.46999998093E+01 0.  1.
       -5    1    3    3    0  502  0.19630155412E+03 -0.29828098421E+03  0.21450348867E+04  0.21745580242E+04  0.46999998093E+01 0. -1.
</event>
<event>
 5   0  0.5035495E-04  0.1687253E+04  0.7818609E-02  0.8768668E-01
       -1   -1    0    0    0  501  0.00000000000E+00  0.00000000000E+00  0.38334923571E+03  0.38334923574E+03  0.50400001928E-02 0. -1.
        1   -1    0    0  501    0  0.00000000000E+00  0.00000000000E+00 -0.18565464674E+04  0.18565464674E+04  0.50400001928E-02 0.  1.
    10030    2    1    2    0    0  0.00000000000E+00  0.00000000000E+00 -0.14731972317E+04  0.22398957032E+04  0.16872529975E+04 0.  0.
        4    1    3    3  502    0  0.39235225861E+03  0.73374787819E+03 -0.92139776503E+03  0.12414917228E+04  0.12699999809E+01 0. -1.
       -4    1    3    3    0  502 -0.39235225861E+03 -0.73374787819E+03 -0.55179946668E+03  0.99840398032E+03  0.12699999809E+01 0.  1.
</event>
<event>
 5   0  0.3523125E-04  0.1673338E+04  0.7818609E-02  0.8776718E-01
        4   -1    0    0  501    0  0.00000000000E+00  0.00000000000E+00  0.68841420749E+03  0.68841537895E+03  0.12699999809E+01 0.  1.
       -4   -1    0    0    0  501  0.00000000000E+00  0.00000000000E+00 -0.10168496127E+04  0.10168504057E+04  0.12699999809E+01 0. -1.
    10030    2    1    2    0    0  0.00000000000E+00  0.00000000000E+00 -0.32843540517E+03  0.17052657847E+04  0.16733384538E+04 0.  0.
        5    1    3    3  502    0 -0.16778930593E+03  0.35507119827E+03 -0.91707198938E+03  0.99763316441E+03  0.46999998093E+01 0. -1.
       -5    1    3    3    0  502  0.16778930593E+03 -0.35507119827E+03  0.58863658421E+03  0.70763262029E+03  0.46999998093E+01 0.  1.
</event>
<event>
 5   0  0.1007187E-03  0.1708911E+04  0.7818609E-02  0.8756298E-01
        2   -1    0    0  501    0  0.00000000000E+00  0.00000000000E+00  0.78208937304E+03  0.78208937305E+03  0.25500000920E-02 0.  1.
       -2   -1    0    0    0  501  0.00000000000E+00  0.00000000000E+00 -0.93351774405E+03  0.93351774406E+03  0.25500000920E-02 0. -1.
    10030    2    1    2    0    0  0.00000000000E+00  0.00000000000E+00 -0.15142837101E+03  0.17156071171E+04  0.17089111237E+04 0.  0.
        5    1    3    3  502    0  0.31280113731E+03  0.68251585138E+03  0.33380545393E+03  0.82165723386E+03  0.46999998093E+01 0.  1.
       -5    1    3    3    0  502 -0.31280113731E+03 -0.68251585138E+03 -0.48523382494E+03  0.89394988324E+03  0.46999998093E+01 0. -1.
</event>
<event>
 5   0  0.5009762E-04  0.1299888E+04  0.7818609E-02  0.9029654E-01
        1   -1    0    0  501    0  0.00000000000E+00  0.00000000000E+00  0.81543611711E+03  0.81543611713E+03  0.50400001928E-02 0. -1.
       -1   -1    0    0    0  501  0.00000000000E+00  0.00000000000E+00 -0.51803840439E+03  0.51803840442E+03  0.50400001928E-02 0.  1.
    10030    2    1    2    0    0  0.00000000000E+00  0.00000000000E+00  0.29739771272E+03  0.13334745215E+04  0.12998880337E+04 0.  0.
        3    1    3    3  502    0 -0.64085244578E+03 -0.10818425916E+03  0.14293919656E+03  0.66545271456E+03  0.10100000352E+00 0. -1.
       -3    1    3    3    0  502  0.64085244578E+03  0.10818425916E+03  0.15445851616E+03  0.66802180699E+03  0.10100000352E+00 0.  1.
</event>
<event>
 5   0  0.9625225E-04  0.1695237E+04  0.7818609E-02  0.8764085E-01
        2   -1    0    0  501    0  0.00000000000E+00  0.00000000000E+00  0.72512945615E+03  0.72512945615E+03  0.25500000920E-02 0.  1.
       -2   -1    0    0    0  501  0.00000000000E+00  0.00000000000E+00 -0.99079887643E+03  0.99079887643E+03  0.25500000920E-02 0. -1.
    10030    2    1    2    0    0  0.00000000000E+00  0.00000000000E+00 -0.26566942028E+03  0.17159283326E+04  0.16952373880E+04 0.  0.
        1    1    3    3  502    0  0.65043869971E+03  0.38974321843E+03  0.25058564152E+03  0.79860092797E+03  0.50400001928E-02 0.  1.
       -1    1    3    3    0  502 -0.65043869971E+03 -0.38974321843E+03 -0.51625506181E+03  0.91732740461E+03  0.50400001928E-02 0. -1.
</event>
<event>
 5   0  0.5074133E-04  0.1719831E+04  0.7818609E-02  0.8750134E-01
        1   -1    0    0  501    0  0.00000000000E+00  0.00000000000E+00  0.19235415032E+04  0.19235415032E+04  0.50400001928E-02 0.  1.
       -1   -1    0    0    0  501  0.00000000000E+00  0.00000000000E+00 -0.38442337089E+03  0.38442337093E+03  0.50400001928E-02 0. -1.
    10030    2    1    2    0    0  0.00000000000E+00  0.00000000000E+00  0.15391181323E+04  0.23079648742E+04  0.17198305832E+04 0.  0.
        1    1    3    3  502    0  0.61978336172E+02  0.85539602206E+03  0.85347944732E+03  0.12099466252E+04  0.50400001928E-02 0. -1.
       -1    1    3    3    0  502 -0.61978336172E+02 -0.85539602206E+03  0.68563868501E+03  0.10980182490E+04  0.50400001928E-02 0.  1.
</event>
<event>
 5   0  0.9625225E-04  0.1742646E+04  0.7818609E-02  0.8737409E-01
        2   -1    0    0  501    0  0.00000000000E+00  0.00000000000E+00  0.94364418264E+03  0.94364418264E+03  0.25500000920E-02 0.  1.
       -2   -1    0    0    0  501  0.00000000000E+00  0.00000000000E+00 -0.80454425402E+03  0.80454425402E+03  0.25500000920E-02 0. -1.
    10030    2    1    2    0    0  0.00000000000E+00  0.00000000000E+00  0.13909992862E+03  0.17481884367E+04  0.17426456955E+04 0.  0.
        1    1    3    3  502    0 -0.34005719376E+02 -0.37451907897E+03 -0.71894145744E+03  0.81135550082E+03  0.50400001928E-02 0. -1.
       -1    1    3    3    0  502  0.34005719376E+02  0.37451907897E+03  0.85804138606E+03  0.93683293584E+03  0.50400001928E-02 0.  1.
</event>
<event>
 5   0  0.9625225E-04  0.1562759E+04  0.7818609E-02  0.8843759E-01
        2   -1    0    0  501    0  0.00000000000E+00  0.00000000000E+00  0.10512251572E+04  0.10512251572E+04  0.25500000920E-02 0.  1.
       -2   -1    0    0    0  501  0.00000000000E+00  0.00000000000E+00 -0.58080243943E+03  0.58080243944E+03  0.25500000920E-02 0. -1.
    10030    2    1    2    0    0  0.00000000000E+00  0.00000000000E+00  0.47042271780E+03  0.16320275967E+04  0.15627592722E+04 0.  0.
        1    1    3    3  502    0  0.47754782087E+03  0.39138300493E+03 -0.26488979381E+03  0.67186247154E+03  0.50400001928E-02 0. -1.
       -1    1    3    3    0  502 -0.47754782087E+03 -0.39138300493E+03  0.73531251162E+03  0.96016512514E+03  0.50400001928E-02 0.  1.
</event>
<event>
 5   0  0.1007187E-03  0.1736754E+04  0.7818609E-02  0.8740675E-01
        2   -1    0    0  501    0  0.00000000000E+00  0.00000000000E+00  0.12282425438E+04  0.12282425438E+04  0.25500000920E-02 0. -1.
       -2   -1    0    0    0  501  0.00000000000E+00  0.00000000000E+00 -0.61394947806E+03  0.61394947807E+03  0.25500000920E-02 0.  1.
    10030    2    1    2    0    0  0.00000000000E+00  0.00000000000E+00  0.61429306569E+03  0.18421920218E+04  0.17367542931E+04 0.  0.
        5    1    3    3  502    0 -0.13030579206E+03 -0.56239281330E+03  0.99521237203E+03  0.11505368448E+04  0.46999998093E+01 0. -1.
       -5    1    3    3    0  502  0.13030579206E+03  0.56239281330E+03 -0.38091930634E+03  0.69165517698E+03  0.46999998093E+01 0.  1.
</event>
<event>
 5   0  0.9312096E-04  0.1662541E+04  0.7818609E-02  0.8783022E-01
        2   -1    0    0  501    0  0.00000000000E+00  0.00000000000E+00  0.12068661034E+04  0.12068661034E+04  0.25500000920E-02 0. -1.
       -2   -1    0    0    0  501  0.00000000000E+00  0.00000000000E+00 -0.57256628114E+03  0.57256628115E+03  0.25500000920E-02 0.  1.
    10030    2    1    2    0    0  0.00000000000E+00  0.00000000000E+00  0.63429982226E+03  0.17794323846E+04  0.16625412316E+04 0.  0.
        3    1    3    3  502    0  0.35745764588E+03  0.64064847330E+03  0.73553575659E+03  0.10388547995E+04  0.10100000352E+00 0. -1.
       -3    1    3    3    0  502 -0.35745764588E+03 -0.64064847330E+03 -0.10123593433E+03  0.74057758509E+03  0.10100000352E+00 0.  1.
</event>
<event>
 5   0  0.4947006E-04  0.1806542E+04  0.7818609E-02  0.8702828E-01
       -1   -1    0    0    0  501  0.00000000000E+00  0.00000000000E+00  0.44280475093E+03  0.44280475096E+03  0.50400001928E-02 0.  1.
        1   -1    0    0  501    0  0.00000000000E+00  0.00000000000E+00 -0.18425698832E+04  0.18425698832E+04  0.50400001928E-02 0. -1.
    10030    2    1    2    0    0  0.00000000000E+00  0.00000000000E+00 -0.13997651322E+04  0.22853746341E+04  0.18065422201E+04 0.  0.
        2    1    3    3  502    0 -0.17421646477E+03  0.46550842356E+03 -0.16540132751E+04  0.17270811744E+04  0.25500000920E-02 0. -1.
       -2    1    3    3    0  502  0.17421646477E+03 -0.46550842356E+03  0.25424814282E+03  0.55829345970E+03  0.25500000920E-02 0.  1.
</event>
<event>
 5   0  0.5009762E-04  0.1695717E+04  0.7818609E-02  0.8763811E-01
       -1   -1    0    0    0  501  0.00000000000E+00  0.00000000000E+00  0.67271128429E+03  0.67271128431E+03  0.50400001928E-02 0. -1.
        1   -1    0    0  501    0  0.00000000000E+00  0.00000000000E+00 -0.10686071367E+04  0.10686071367E+04  0.50400001928E-02 0.  1.
    10030    2    1    2    0    0  0.00000000000E+00  0.00000000000E+00 -0.39589585239E+03  0.17413184210E+04  0.16957170511E+04 0.  0.
        3    1    3    3  502    0 -0.65394819065E+03  0.40791622644E+03 -0.56074787628E+03  0.95314326037E+03  0.10100000352E+00 0.  1.
       -3    1    3    3    0  502  0.65394819065E+03 -0.40791622644E+03  0.16485202388E+03  0.78817516063E+03  0.10100000352E+00 0. -1.
</event>
<event>
 5   0  0.3523125E-04  0.1140466E+04  0.7818609E-02  0.9166624E-01
        3   -1    0    0  501    0  0.00000000000E+00  0.00000000000E+00  0.65248933883E+03  0.65248934665E+03  0.10100000352E+00 0.  1.
       -3   -1    0    0    0  501  0.00000000000E+00  0.00000000000E+00 -0.49834637511E+03  0.49834638534E+03  0.10100000352E+00 0. -1.
    10030    2    1    2    0    0  0.00000000000E+00  0.00000000000E+00  0.15414296373E+03  0.11508357320E+04  0.11404660577E+04 0.  0.
        5    1    3    3  502    0 -0.22163594895E+03 -0.21223540749E+03 -0.40789930775E+03  0.51046086757E+03  0.46999998093E+01 0. -1.
       -5    1    3    3    0  502  0.22163594895E+03  0.21223540749E+03  0.56204227148E+03  0.64037486442E+03  0.46999998093E+01 0.  1.
</event>
<event>
 5   0  0.4947006E-04  0.1704689E+04  0.7818609E-02  0.8758695E-01
       -1   -1    0    0    0  501  0.00000000000E+00  0.00000000000E+00  0.25135360002E+03  0.25135360007E+03  0.50400001928E-02 0. -1.
        1   -1    0    0  501    0  0.00000000000E+00  0.00000000000E+00 -0.28903144918E+04  0.28903144918E+04  0.50400001928E-02 0.  1.
    10030    2    1    2    0    0  0.00000000000E+00  0.00000000000E+00 -0.26389608918E+04  0.31416680919E+04  0.17046887725E+04 0.  0.
        2    1    3    3  502    0 -0.23463380365E+03 -0.73932708710E+03 -0.66833114102E+03  0.10238769836E+04  0.25500000920E-02 0. -1.
       -2    1    3    3    0  502  0.23463380365E+03  0.73932708710E+03 -0.19706297508E+04  0.21177911083E+04  0.25500000920E-02 0.  1.
</event>
<event>
 5   0  0.5074133E-04  0.1632390E+04  0.7818609E-02  0.8800893E-01
        1   -1    0    0  501    0  0.00000000000E+00  0.00000000000E+00  0.18196583763E+04  0.18196583763E+04  0.50400001928E-02 0. -1.
       -1   -1    0    0    0  501  0.00000000000E+00  0.00000000000E+00 -0.36609860850E+03  0.36609860853E+03  0.50400001928E-02 0.  1.
    10030    2    1    2    0    0  0.00000000000E+00  0.00000000000E+00  0.14535597678E+04  0.21857569848E+04  0.16323901489E+04 0.  0.
        1    1    3    3  502    0 -0.25093730590E+03 -0.24881009780E+02  0.17661910009E+04  0.17841018043E+04  0.50400001928E-02 0. -1.
       -1    1    3    3    0  502  0.25093730590E+03  0.24881009780E+02 -0.31263123313E+03  0.40165518059E+03  0.50400001928E-02 0.  1.
</event>
<event>
 5   0  0.9284971E-04  0.1650135E+04  0.7818609E-02  0.8790326E-01
       -2   -1    0    0    0  501  0.00000000000E+00  0.00000000000E+00  0.30993439469E+03  0.30993439470E+03  0.25500000920E-02 0.  1.
        2   -1    0    0  501    0  0.00000000000E+00  0.00000000000E+00 -0.21963895185E+04  0.21963895185E+04  0.25500000920E-02 0. -1.
    10030    2    1    2    0    0  0.00000000000E+00  0.00000000000E+00 -0.18864551238E+04  0.25063239132E+04  0.16501353350E+04 0.  0.
        4    1    3    3  502    0 -0.79657162459E+03  0.20976744409E+03 -0.10145704741E+04  0.13068602042E+04  0.12699999809E+01 0. -1.
       -4    1    3    3    0  502  0.79657162459E+03 -0.20976744409E+03 -0.87188464972E+03  0.11994637089E+04  0.12699999809E+01 0.  1.
</event>
<event>
 5   0  0.5009762E-04  0.1700683E+04  0.7818609E-02  0.8760975E-01
       -1   -1    0    0    0  501  0.00000000000E+00  0.00000000000E+00  0.76015729159E+03  0.76015729161E+03  0.50400001928E-02 0.  1.
        1   -1    0    0  501    0  0.00000000000E+00  0.00000000000E+00 -0.95122508469E+03  0.95122508471E+03  0.50400001928E-02 0. -1.
    10030    2    1    2    0    0  0.00000000000E+00  0.00000000000E+00 -0.19106779310E+03  0.17113823763E+04  0.17006830206E+04 0.  0.
        3    1    3    3  502    0 -0.46896573542E+03 -0.28896253373E+03  0.55634747381E+03  0.78291169918E+03  0.10100000352E+00 0.  1.
       -3    1    3    3    0  502  0.46896573542E+03  0.28896253373E+03 -0.74741526691E+03  0.92847067714E+03  0.10100000352E+00 0. -1.
</event>
<event>
 5   0  0.9610114E-04  0.1681183E+04  0.7818609E-02  0.8772169E-01
        2   -1    0    0  501    0  0.00000000000E+00  0.00000000000E+00  0.58960931092E+03  0.58960931092E+03  0.25500000920E-02 0.  1.
       -2   -1    0    0    0  501  0.00000000000E+00  0.00000000000E+00 -0.11984112410E+04  0.11984112411E+04  0.25500000920E-02 0. -1.
    10030    2    1    2    0    0  0.00000000000E+00  0.00000000000E+00 -0.60880193013E+03  0.17880205520E+04  0.16811834237E+04 0.  0.
        2    1    3    3  502    0  0.79444176512E+02  0.78613184453E+03  0.67215699967E+00  0.79013613129E+03  0.25500000920E-02 0.  1.
       -2    1    3    3    0  502 -0.79444176512E+02 -0.78613184453E+03 -0.60947408713E+03  0.99788442069E+03  0.25500000920E-02 0. -1.
</event>
<event>
 5   0  0.5059689E-04  0.1089085E+04  0.7818609E-02  0.9215897E-01
       -1   -1    0    0    0  501  0.00000000000E+00  0.00000000000E+00  0.73266686741E+03  0.73266686743E+03  0.50400001928E-02 0.  1.
        1   -1    0    0  501    0  0.00000000000E+00  0.00000000000E+00 -0.40472189347E+03  0.40472189351E+03  0.50400001928E-02 0. -1.
    10030    2    1    2    0    0  0.00000000000E+00  0.00000000000E+00  0.32794497394E+03  0.11373887609E+04  0.10890846099E+04 0.  0.
        5    1    3    3  502    0  0.27542498225E+02 -0.39070838219E+03  0.55902597727E+03  0.68260073424E+03  0.46999998093E+01 0.  1.
       -5    1    3    3    0  502 -0.27542498225E+02  0.39070838219E+03 -0.23108100333E+03  0.45478802669E+03  0.46999998093E+01 0. -1.
</event>
<event>
 5   0  0.9284971E-04  0.1737381E+04  0.7818609E-02  0.8740327E-01
       -2   -1    0    0    0  501  0.00000000000E+00  0.00000000000E+00  0.33081192979E+03  0.33081192980E+03  0.25500000920E-02 0. -1.
        2   -1    0    0  501    0  0.00000000000E+00  0.00000000000E+00 -0.22811245692E+04  0.22811245692E+04  0.25500000920E-02 0.  1.
    10030    2    1    2    0    0  0.00000000000E+00  0.00000000000E+00 -0.19503126394E+04  0.26119364990E+04  0.17373810415E+04 0.  0.
        4    1    3    3  502    0  0.14896877697E+03  0.20727372719E+03 -0.22234720408E+04  0.22380758753E+04  0.12699999809E+01 0.  1.
       -4    1    3    3    0  502 -0.14896877697E+03 -0.20727372719E+03  0.27315940138E+03  0.37386062371E+03  0.12699999809E+01 0. -1.
</event>
<event>
 5   0  0.9625225E-04  0.1019978E+04  0.7818609E-02  0.9286901E-01
       -2   -1    0    0    0  501  0.00000000000E+00  0.00000000000E+00  0.47007884602E+03  0.47007884602E+03  0.25500000920E-02 0.  1.
        2   -1    0    0  501    0  0.00000000000E+00  0.00000000000E+00 -0.55328719844E+03  0.55328719845E+03  0.25500000920E-02 0. -1.
    10030    2    1    2    0    0  0.00000000000E+00  0.00000000000E+00 -0.83208352425E+02  0.10233660445E+04  0.10199776620E+04 0.  0.
        1    1    3    3  502    0  0.16950022428E+03  0.21578589831E+03  0.38970145713E+03  0.47661421051E+03  0.50400001928E-02 0.  1.
       -1    1    3    3    0  502 -0.16950022428E+03 -0.21578589831E+03 -0.47290980956E+03  0.54675183396E+03  0.50400001928E-02 0. -1.
</event>
<event>
 5   0  0.9625225E-04  0.1712208E+04  0.7818609E-02  0.8754432E-01
        2   -1    0    0  501    0  0.00000000000E+00  0.00000000000E+00  0.11782005498E+04  0.11782005498E+04  0.25500000920E-02 0. -1.
       -2   -1    0    0    0  501  0.00000000000E+00  0.00000000000E+00 -0.62206250654E+03  0.62206250654E+03  0.25500000920E-02 0.  1.
    10030    2    1    2    0    0  0.00000000000E+00  0.00000000000E+00  0.55613804328E+03  0.18002630564E+04  0.17122083836E+04 0.  0.
        1    1    3    3  502    0 -0.81425289923E+03  0.23663771540E+03  0.15406654844E+03  0.86182463044E+03  0.50400001928E-02 0.  1.
       -1    1    3    3    0  502  0.81425289923E+03 -0.23663771540E+03  0.40207149484E+03  0.93843842592E+03  0.50400001928E-02 0. -1.
</event>
<event>
 5   0  0.5035495E-04  0.1841276E+04  0.7818609E-02  0.8684652E-01
        1   -1    0    0  501    0  0.00000000000E+00  0.00000000000E+00  0.85873491174E+03  0.85873491175E+03  0.50400001928E-02 0.  1.
       -1   -1    0    0    0  501  0.00000000000E+00  0.00000000000E+00 -0.98700359117E+03  0.98700359118E+03  0.50400001928E-02 0. -1.
    10030    2    1    2    0    0  0.00000000000E+00  0.00000000000E+00 -0.12826867943E+03  0.18457385029E+04  0.18412761246E+04 0.  0.
        4    1    3    3  502    0 -0.76986547848E+03  0.23288815507E+03 -0.51315191908E+03  0.95407350486E+03  0.12699999809E+01 0. -1.
       -4    1    3    3    0  502  0.76986547848E+03 -0.23288815507E+03  0.38488323965E+03  0.89166499807E+03  0.12699999809E+01 0.  1.
</event>
<event>
 5   0  0.9284971E-04  0.1655384E+04  0.7818609E-02  0.8787228E-01
        2   -1    0    0  501    0  0.00000000000E+00  0.00000000000E+00  0.19929990129E+04  0.19929990129E+04  0.25500000920E-02 0.  1.
       -2   -1    0    0    0  501  0.00000000000E+00  0.00000000000E+00 -0.34374009786E+03  0.34374009787E+03  0.25500000920E-02 0. -1.
    10030    2    1    2    0    0  0.00000000000E+00  0.00000000000E+00  0.16492589151E+04  0.23367391108E+04  0.16553835516E+04 0.  0.
        4    1    3    3  502    0 -0.18094640855E+02  0.48082800570E+03 -0.12602729004E+03  0.49740072158E+03  0.12699999809E+01 0. -1.
       -4    1    3    3    0  502  0.18094640855E+02 -0.48082800570E+03  0.17752862051E+04  0.18393383892E+04  0.12699999809E+01 0.  1.
</event>
<event>
 5   0  0.9284971E-04  0.1719338E+04  0.7818609E-02  0.8750411E-01
       -2   -1    0    0    0  501  0.00000000000E+00  0.00000000000E+00  0.35926638725E+03  0.35926638726E+03  0.25500000920E-02 0.  1.
        2   -1    0    0  501    0  0.00000000000E+00  0.00000000000E+00 -0.20570551798E+04  0.20570551798E+04  0.25500000920E-02 0. -1.
    10030    2    1    2    0    0  0.00000000000E+00  0.00000000000E+00 -0.16977887926E+04  0.24163215671E+04  0.17193379922E+04 0.  0.
        4    1    3    3  502    0  0.36930222149E+03 -0.11155412927E+03 -0.19285701193E+04  0.19667772554E+04  0.12699999809E+01 0. -1.
       -4    1    3    3    0  502 -0.36930222149E+03  0.11155412927E+03  0.23078132667E+03  0.44954431171E+03  0.12699999809E+01 0.  1.
</event>
<event>
 5   0  0.4947006E-04  0.1475379E+04  0.7818609E-02  0.8900992E-01
        1   -1    0    0  501    0  0.00000000000E+00  0.00000000000E+00  0.11256741020E+04  0.11256741020E+04  0.50400001928E-02 0.  1.
       -1   -1    0    0    0  501  0.00000000000E+00  0.00000000000E+00 -0.48343129758E+03  0.48343129761E+03  0.50400001928E-02 0. -1.
    10030    2    1    2    0    0  0.00000000000E+00  0.00000000000E+00  0.64224280441E+03  0.16091053996E+04  0.14753793977E+04 0.  0.
        2    1    3    3  502    0 -0.72954680074E+03  0.56586564449E+02  0.21912765497E+03  0.76384389958E+03  0.25500000920E-02 0. -1.
       -2    1    3    3    0  502  0.72954680074E+03 -0.56586564449E+02  0.42311514944E+03  0.84526150003E+03  0.25500000920E-02 0.  1.
</event>
<event>
 5   0  0.9284971E-04  0.1720956E+04  0.7818609E-02  0.8749502E-01
        2   -1    0    0  501    0  0.00000000000E+00  0.00000000000E+00  0.16014395758E+04  0.16014395758E+04  0.25500000920E-02 0.  1.
       -2   -1    0    0    0  501  0.00000000000E+00  0.00000000000E+00 -0.46234817146E+03  0.46234817147E+03  0.25500000920E-02 0. -1.
    10030    2    1    2    0    0  0.00000000000E+00  0.00000000000E+00  0.11390914044E+04  0.20637877473E+04  0.17209563151E+04 0.  0.
        4    1    3    3  502    0 -0.29553861069E+03 -0.31666334728E+03  0.14611663238E+04  0.15240168584E+04  0.12699999809E+01 0.  1.
       -4    1    3    3    0  502  0.29553861069E+03  0.31666334728E+03 -0.32207491942E+03  0.53977088893E+03  0.12699999809E+01 0. -1.
</event>
<event>
 5   0  0.5059689E-04  0.1658475E+04  0.7818609E-02  0.8785408E-01
        1   -1    0    0  501    0  0.00000000000E+00  0.00000000000E+00  0.24165729366E+04  0.24165729366E+04  0.50400001928E-02 0.  1.
       -1   -1    0    0    0  501  0.00000000000E+00  0.00000000000E+00 -0.28454960898E+03  0.28454960902E+03  0.50400001928E-02 0. -1.
    10030    2    1    2    0    0  0.00000000000E+00  0.00000000000E+00  0.21320233276E+04  0.27011225456E+04  0.16584750637E+04 0.  0.
        5    1    3    3  502    0  0.19121143798E+03  0.65817153345E+03  0.30581615350E+03  0.75053127263E+03  0.46999998093E+01 0. -1.
       -5    1    3    3    0  502 -0.19121143798E+03 -0.65817153345E+03  0.18262071741E+04  0.19505912730E+04  0.46999998093E+01 0.  1.
</event>
<event>
 5   0  0.5059689E-04  0.1452106E+04  0.7818609E-02  0.8916942E-01
        1   -1    0    0  501    0  0.00000000000E+00  0.00000000000E+00  0.18551455789E+04  0.18551455789E+04  0.50400001928E-02 0.  1.
       -1   -1    0    0    0  501  0.00000000000E+00  0.00000000000E+00 -0.28415721467E+03  0.28415721471E+03  0.50400001928E-02 0. -1.
    10030    2    1    2    0    0  0.00000000000E+00  0.00000000000E+00  0.15709883643E+04  0.21393027937E+04  0.14521060575E+04 0.  0.
        5    1    3    3  502    0 -0.79117382310E+02  0.27880103365E+03  0.17662142263E+04  0.17898391994E+04  0.46999998093E+01 0.  1.
       -5    1    3    3    0  502  0.79117382310E+02 -0.27880103365E+03 -0.19522586199E+03  0.34946359429E+03  0.46999998093E+01 0. -1.
</event>
<event>
 5   0  0.5059689E-04  0.1694801E+04  0.7818609E-02  0.8764335E-01
       -1   -1    0    0    0  501  0.00000000000E+00  0.00000000000E+00  0.89657863832E+03  0.89657863834E+03  0.50400001928E-02 0.  1.
        1   -1    0    0  501    0  0.00000000000E+00  0.00000000000E+00 -0.80092003664E+03  0.80092003666E+03  0.50400001928E-02 0. -1.
    10030    2    1    2    0    0  0.00000000000E+00  0.00000000000E+00  0.95658601681E+02  0.16974986750E+04  0.16948012224E+04 0.  0.
        5    1    3    3  502    0  0.64008580100E+03 -0.46314588387E+03 -0.25901064268E+03  0.83145808398E+03  0.46999998093E+01 0. -1.
       -5    1    3    3    0  502 -0.64008580100E+03  0.46314588387E+03  0.35466924436E+03  0.86604059101E+03  0.46999998093E+01 0.  1.
</event>
<event>
 5   0  0.4947006E-04  0.1730135E+04  0.7818609E-02  0.8744361E-01
        1   -1    0    0  501    0  0.00000000000E+00  0.00000000000E+00  0.10323059447E+04  0.10323059447E+04  0.50400001928E-02 0.  1.
       -1   -1    0    0    0  501  0.00000000000E+00  0.00000000000E+00 -0.72492257599E+03  0.72492257600E+03  0.50400001928E-02 0. -1.
    10030    2    1    2    0    0  0.00000000000E+00  0.00000000000E+00  0.30738336868E+03  0.17572285207E+04  0.17301351215E+04 0.  0.
        2    1    3    3  502    0  0.83165746432E+03 -0.18167364615E+03 -0.26091799708E+01  0.85127331656E+03  0.25500000920E-02 0. -1.
       -2    1    3    3    0  502 -0.83165746432E+03  0.18167364615E+03  0.30999254865E+03  0.90595520413E+03  0.25500000920E-02 0.  1.
</event>
<event>
 5   0  0.9312096E-04  0.1680888E+04  0.7818609E-02  0.8772340E-01
       -2   -1    0    0    0  501  0.00000000000E+00  0.00000000000E+00  0.36275476477E+03  0.36275476478E+03  0.25500000920E-02 0. -1.
        2   -1    0    0  501    0  0.00000000000E+00  0.00000000000E+00 -0.19471734175E+04  0.19471734175E+04  0.25500000920E-02 0.  1.
    10030    2    1    2    0    0  0.00000000000E+00  0.00000000000E+00 -0.15844186527E+04  0.23099281823E+04  0.16808883783E+04 0.  0.
        3    1    3    3  502    0 -0.34764551706E+03 -0.70735051486E+03 -0.11932028073E+04  0.14300122748E+04  0.10100000352E+00 0. -1.
       -3    1    3    3    0  502  0.34764551706E+03  0.70735051486E+03 -0.39121584541E+03  0.87991590751E+03  0.10100000352E+00 0.  1.
</event>
<event>
 5   0  0.1007187E-03  0.8403106E+03  0.7818609E-02  0.9503435E-01
        2   -1    0    0  501    0  0.00000000000E+00  0.00000000000E+00  0.13528799339E+04  0.13528799339E+04  0.25500000920E-02 0.  1.
       -2   -1    0    0    0  501  0.00000000000E+00  0.00000000000E+00 -0.13048496649E+03  0.13048496651E+03  0.25500000920E-02 0. -1.
    10030    2    1    2    0    0  0.00000000000E+00  0.00000000000E+00  0.12223949674E+04  0.14833649004E+04  0.84031063985E+03 0.  0.
        5    1    3    3  502    0 -0.18930560002E+03  0.36962488219E+02 -0.47661348652E+02  0.19873733894E+03  0.46999998093E+01 0. -1.
       -5    1    3    3    0  502  0.18930560002E+03 -0.36962488219E+02  0.12700563161E+04  0.12846275615E+04  0.46999998093E+01 0.  1.
</event>
<event>
 5   0  0.9610114E-04  0.1860881E+04  0.7818609E-02  0.8674577E-01
       -2   -1    0    0    0  501  0.00000000000E+00  0.00000000000E+00  0.10899216139E+04  0.10899216139E+04  0.25500000920E-02 0.  1.
        2   -1    0    0  501    0  0.00000000000E+00  0.00000000000E+00 -0.79429504594E+03  0.79429504594E+03  0.25500000920E-02 0. -1.
    10030    2    1    2    0    0  0.00000000000E+00  0.00000000000E+00  0.29562656800E+03  0.18842166599E+04  0.18608808005E+04 0.  0.
        2    1    3    3  502    0  0.56243667491E+03 -0.69551720110E+03 -0.11160289637E+03  0.90140689857E+03  0.25500000920E-02 0.  1.
       -2    1    3    3    0  502 -0.56243667491E+03  0.69551720110E+03  0.40722946437E+03  0.98280976133E+03  0.25500000920E-02 0. -1.
</event>
<event>
 5   0  0.4947006E-04  0.1758959E+04  0.7818609E-02  0.8728434E-01
       -1   -1    0    0    0  501  0.00000000000E+00  0.00000000000E+00  0.45657679082E+03  0.45657679084E+03  0.50400001928E-02 0.  1.
        1   -1    0    0  501    0  0.00000000000E+00  0.00000000000E+00 -0.16940936431E+04  0.16940936431E+04  0.50400001928E-02 0. -1.
    10030    2    1    2    0    0  0.00000000000E+00  0.00000000000E+00 -0.12375168522E+04  0.21506704339E+04  0.17589585998E+04 0.  0.
        2    1    3    3  502    0  0.76792823246E+03  0.35490327097E+03 -0.32476760709E+03  0.90617001748E+03  0.25500000920E-02 0.  1.
       -2    1    3    3    0  502 -0.76792823246E+03 -0.35490327097E+03 -0.91274924516E+03  0.12445004164E+04  0.25500000920E-02 0. -1.
</event>
<event>
 5   0  0.9625225E-04  0.1130221E+04  0.7818609E-02  0.9176227E-01
        2   -1    0    0  501    0  0.00000000000E+00  0.00000000000E+00  0.12128115010E+04  0.12128115010E+04  0.25500000920E-02 0. -1.
       -2   -1    0    0    0  501  0.00000000000E+00  0.00000000000E+00 -0.26331346769E+03  0.26331346770E+03  0.25500000920E-02 0.  1.
    10030    2    1    2    0    0  0.00000000000E+00  0.00000000000E+00  0.94949803333E+03  0.14761249687E+04  0.11302205130E+04 0.  0.
        1    1    3    3  502    0 -0.49025486392E+03 -0.26841962403E+03  0.58363537107E+03  0.80810220427E+03  0.50400001928E-02 0.  1.
       -1    1    3    3    0  502  0.49025486392E+03  0.26841962403E+03  0.36586266226E+03  0.66802276445E+03  0.50400001928E-02 0. -1.
</event>
<event>
 5   0  0.3523125E-04  0.8438068E+03  0.7818609E-02  0.9498687E-01
       -4   -1    0    0    0  501  0.00000000000E+00  0.00000000000E+00  0.29094583752E+03  0.29094860933E+03  0.12699999809E+01 0.  1.
        4   -1    0    0  501    0  0.00000000000E+00  0.00000000000E+00 -0.61179982600E+03  0.61180114416E+03  0.12699999809E+01 0. -1.
    10030    2    1    2    0    0  0.00000000000E+00  0.00000000000E+00 -0.32085398848E+03  0.90274975349E+03  0.84380675246E+03 0.  0.
        5    1    3    3  502    0 -0.15188500512E+03  0.29841008936E+03  0.11413742409E+03  0.35378959536E+03  0.46999998093E+01 0.  1.
       -5    1    3    3    0  502  0.15188500512E+03 -0.29841008936E+03 -0.43499141257E+03  0.54896015813E+03  0.46999998093E+01 0. -1.
</event>
<event>
 5   0  0.5074133E-04  0.1709607E+04  0.7818609E-02  0.8755904E-01
        1   -1    0    0  501    0  0.00000000000E+00  0.00000000000E+00  0.57779291842E+03  0.57779291844E+03  0.50400001928E-02 0. -1.
       -1   -1    0    0    0  501  0.00000000000E+00  0.00000000000E+00 -0.12646215820E+04  0.12646215820E+04  0.50400001928E-02 0.  1.
    10030    2    1    2    0    0  0.00000000000E+00  0.00000000000E+00 -0.68682866360E+03  0.18424145005E+04  0.17096074340E+04 0.  0.
        1    1    3    3  502    0  0.77049588595E+03 -0.34152270580E+03 -0.49729190787E+03  0.97857085104E+03  0.50400001928E-02 0. -1.
       -1    1    3    3    0  502 -0.77049588595E+03  0.34152270580E+03 -0.18953675573E+03  0.86384364942E+03  0.50400001928E-02 0.  1.
</event>
<event>
 5   0  0.5009762E-04  0.1658049E+04  0.7818609E-02  0.8785659E-01
       -1   -1    0    0    0  501  0.00000000000E+00  0.00000000000E+00  0.45890449661E+03  0.45890449663E+03  0.50400001928E-02 0.  1.
        1   -1    0    0  501    0  0.00000000000E+00  0.00000000000E+00 -0.14976580529E+04  0.14976580529E+04  0.50400001928E-02 0. -1.
    10030    2    1    2    0    0  0.00000000000E+00  0.00000000000E+00 -0.10387535563E+04  0.19565625495E+04  0.16580494744E+04 0.  0.
        3    1    3    3  502    0 -0.36464309434E+02  0.74650104194E+02  0.45397971759E+03  0.46151909831E+03  0.10100000352E+00 0.  1.
       -3    1    3    3    0  502  0.36464309434E+02 -0.74650104194E+02 -0.14927332739E+04  0.14950434512E+04  0.10100000352E+00 0. -1.
</event>
<event>
 5   0  0.4947006E-04  0.1569200E+04  0.7818609E-02  0.8839696E-01
        1   -1    0    0  501    0  0.00000000000E+00  0.00000000000E+00  0.10536913456E+04  0.10536913456E+04  0.50400001928E-02 0. -1.
       -1   -1    0    0    0  501  0.00000000000E+00  0.00000000000E+00 -0.58422930570E+03  0.58422930572E+03  0.50400001928E-02 0.  1.
    10030    2    1    2    0    0  0.00000000000E+00  0.00000000000E+00  0.46946203989E+03  0.16379206513E+04  0.15692002591E+04 0.  0.
        2    1    3    3  502    0  0.63851176875E+03 -0.41922171707E+03  0.42189696614E+03  0.87260596889E+03  0.25500000920E-02 0.  1.
       -2    1    3    3    0  502 -0.63851176875E+03  0.41922171707E+03  0.47565073750E+02  0.76531468243E+03  0.25500000920E-02 0. -1.
</event>
<event>
 5   0  0.5009762E-04  0.1715232E+04  0.7818609E-02  0.8752724E-01
        1   -1    0    0  501    0  0.00000000000E+00  0.00000000000E+00  0.11826331188E+04  0.11826331188E+04  0.50400001928E-02 0. -1.
       -1   -1    0    0    0  501  0.00000000000E+00  0.00000000000E+00 -0.62192171391E+03  0.62192171393E+03  0.50400001928E-02 0.  1.
    10030    2    1    2    0    0  0.00000000000E+00  0.00000000000E+00  0.56071140485E+03  0.18045548327E+04  0.17152320148E+04 0.  0.
        3    1    3    3  502    0 -0.10780788275E+03  0.44614070467E+03  0.10425420108E+04  0.11391039998E+04  0.10100000352E+00 0. -1.
       -3    1    3    3    0  502  0.10780788275E+03 -0.44614070467E+03 -0.48183060595E+03  0.66545083288E+03  0.10100000352E+00 0.  1.
</event>
<event>
 5   0  0.5035495E-04  0.1714836E+04  0.7818609E-02  0.8752948E-01
        1   -1    0    0  501    0  0.00000000000E+00  0.00000000000E+00  0.11437036358E+04  0.11437036358E+04  0.50400001928E-02 0. -1.
       -1   -1    0    0    0  501  0.00000000000E+00  0.00000000000E+00 -0.64279415591E+03  0.64279415593E+03  0.50400001928E-02 0.  1.
    10030    2    1    2    0    0  0.00000000000E+00  0.00000000000E+00  0.50090947985E+03  0.17864977917E+04  0.17148364507E+04 0.  0.
        4    1    3    3  502    0 -0.83978678226E+03  0.13740974528E+03  0.35992254042E+03  0.92394216581E+03  0.12699999809E+01 0. -1.
       -4    1    3    3    0  502  0.83978678226E+03 -0.13740974528E+03  0.14098693943E+03  0.86255562589E+03  0.12699999809E+01 0.  1.
</event>
<event>
 5   0  0.4947006E-04  0.1685779E+04  0.7818609E-02  0.8769517E-01
        1   -1    0    0  501    0  0.00000000000E+00  0.00000000000E+00  0.16995435235E+04  0.16995435235E+04  0.50400001928E-02 0. -1.
       -1   -1    0    0    0  501  0.00000000000E+00  0.00000000000E+00 -0.41803137679E+03  0.41803137682E+03  0.50400001928E-02 0.  1.
    10030    2    1    2    0    0  0.00000000000E+00  0.00000000000E+00  0.12815121467E+04  0.21175749003E+04  0.16857787744E+04 0.  0.
        2    1    3    3  502    0 -0.75296863647E+03 -0.24369228919E+03  0.10050688971E+04  0.12792619697E+04  0.25500000920E-02 0. -1.
       -2    1    3    3    0  502  0.75296863647E+03  0.24369228919E+03  0.27644324961E+03  0.83831293058E+03  0.25500000920E-02 0.  1.
</event>
<event>
 5   0  0.9610114E-04  0.1613934E+04  0.7818609E-02  0.8812033E-01
       -2   -1    0    0    0  501  0.00000000000E+00  0.00000000000E+00  0.73346454899E+03  0.73346454900E+03  0.25500000920E-02 0. -1.
        2   -1    0    0  501    0  0.00000000000E+00  0.00000000000E+00 -0.88783551721E+03  0.88783551721E+03  0.25500000920E-02 0.  1.
    10030    2    1    2    0    0  0.00000000000E+00  0.00000000000E+00 -0.15437096821E+03  0.16213000662E+04  0.16139341712E+04 0.  0.
        2    1    3    3  502    0  0.17665605704E+03 -0.32250270179E+03  0.64441071573E+03  0.74194374834E+03  0.25500000920E-02 0. -1.
       -2    1    3    3    0  502 -0.17665605704E+03  0.32250270179E+03 -0.79878168395E+03  0.87935631786E+03  0.25500000920E-02 0.  1.
</event>
<event>
 5   0  0.4947006E-04  0.1736082E+04  0.7818609E-02  0.8741049E-01
        1   -1    0    0  501    0  0.00000000000E+00  0.00000000000E+00  0.64889633717E+03  0.64889633719E+03  0.50400001928E-02 0.  1.
       -1   -1    0    0    0  501  0.00000000000E+00  0.00000000000E+00 -0.11611946401E+04  0.11611946401E+04  0.50400001928E-02 0. -1.
    10030    2    1    2    0    0  0.00000000000E+00  0.00000000000E+00 -0.51229830291E+03  0.18100909773E+04  0.17360817362E+04 0.  0.
        2    1    3    3  502    0 -0.23197263213E+02 -0.84377174164E+03 -0.46728130727E+03  0.96480085258E+03  0.25500000920E-02 0. -1.
       -2    1    3    3    0  502  0.23197263213E+02  0.84377174164E+03 -0.45016995639E+02  0.84529012470E+03  0.25500000920E-02 0.  1.
</event>
<event>
 5   0  0.5059689E-04  0.1669583E+04  0.7818609E-02  0.8778905E-01
        1   -1    0    0  501    0  0.00000000000E+00  0.00000000000E+00  0.60878718683E+03  0.60878718685E+03  0.50400001928E-02 0. -1.
       -1   -1    0    0    0  501  0.00000000000E+00  0.00000000000E+00 -0.11446966884E+04  0.11446966884E+04  0.50400001928E-02 0.  1.
    10030    2    1    2    0    0  0.00000000000E+00  0.00000000000E+00 -0.53590950155E+03  0.17534838752E+04  0.16695827943E+04 0.  0.
        5    1    3    3  502    0  0.13264352649E+03 -0.75896152667E+03  0.69497974416E+02  0.77360775754E+03  0.46999998093E+01 0. -1.
       -5    1    3    3    0  502 -0.13264352649E+03  0.75896152667E+03 -0.60540747597E+03  0.97987611770E+03  0.46999998093E+01 0.  1.
</event>
<event>
 5   0  0.3523125E-04  0.1690271E+04  0.7818609E-02  0.8766932E-01
       -3   -1    0    0    0  501  0.00000000000E+00  0.00000000000E+00  0.14677157346E+04  0.14677157381E+04  0.10100000352E+00 0. -1.
        3   -1    0    0  501    0  0.00000000000E+00  0.00000000000E+00 -0.48664348792E+03  0.48664349840E+03  0.10100000352E+00 0.  1.
    10030    2    1    2    0    0  0.00000000000E+00  0.00000000000E+00  0.98107224667E+03  0.19543592365E+04  0.16902713605E+04 0.  0.
        3    1    3    3  502    0  0.71881550170E+03  0.29824755286E+03  0.87158161756E+03  0.11684613192E+04  0.10100000352E+00 0. -1.
       -3    1    3    3    0  502 -0.71881550170E+03 -0.29824755286E+03  0.10949062911E+03  0.78589791724E+03  0.10100000352E+00 0.  1.
</event>
<event>
 5   0  0.9312096E-04  0.1764092E+04  0.7818609E-02  0.8725632E-01
       -2   -1    0    0    0  501  0.00000000000E+00  0.00000000000E+00  0.64048141179E+03  0.64048141180E+03  0.25500000920E-02 0. -1.
        2   -1    0    0  501    0  0.00000000000E+00  0.00000000000E+00 -0.12147188036E+04  0.12147188036E+04  0.25500000920E-02 0.  1.
    10030    2    1    2    0    0  0.00000000000E+00  0.00000000000E+00 -0.57423739178E+03  0.18552002154E+04  0.17640916238E+04 0.  0.
        3    1    3    3  502    0 -0.14811526596E+03  0.15404343801E+03  0.61284548139E+03  0.64903552065E+03  0.10100000352E+00 0. -1.
       -3    1    3    3    0  502  0.14811526596E+03 -0.15404343801E+03 -0.11870828732E+04  0.12061646947E+04  0.10100000352E+00 0.  1.
</event>
<event>
 5   0  0.9312096E-04  0.1728401E+04  0.7818609E-02  0.8745330E-01
        2   -1    0    0  501    0  0.00000000000E+00  0.00000000000E+00  0.11889971155E+04  0.11889971155E+04  0.25500000920E-02 0.  1.
       -2   -1    0    0    0  501  0.00000000000E+00  0.00000000000E+00 -0.62812811394E+03  0.62812811394E+03  0.25500000920E-02 0. -1.
    10030    2    1    2    0    0  0.00000000000E+00  0.00000000000E+00  0.56086900155E+03  0.18171252294E+04  0.17284010132E+04 0.  0.
        3    1    3    3  502    0 -0.50163472352E+03 -0.58479464219E+03 -0.13109270492E+03  0.78154173072E+03  0.10100000352E+00 0. -1.
       -3    1    3    3    0  502  0.50163472352E+03  0.58479464219E+03  0.69196170648E+03  0.10355834987E+04  0.10100000352E+00 0.  1.
</event>
<event>
 5   0  0.9284971E-04  0.1709388E+04  0.7818609E-02  0.8756028E-01
        2   -1    0    0  501    0  0.00000000000E+00  0.00000000000E+00  0.11000954815E+04  0.11000954815E+04  0.25500000920E-02 0.  1.
       -2   -1    0    0    0  501  0.00000000000E+00  0.00000000000E+00 -0.66403500708E+03  0.66403500708E+03  0.25500000920E-02 0. -1.
    10030    2    1    2    0    0  0.00000000000E+00  0.00000000000E+00  0.43606047441E+03  0.17641304886E+04  0.17093880903E+04 0.  0.
        4    1    3    3  502    0 -0.26516845668E+03  0.37614585048E+02  0.10556700504E+04  0.10891143354E+04  0.12699999809E+01 0.  1.
       -4    1    3    3    0  502  0.26516845668E+03 -0.37614585048E+02 -0.61960957600E+03  0.67501615314E+03  0.12699999809E+01 0. -1.
</event>
<event>
 5   0  0.9312096E-04  0.1209239E+04  0.7818609E-02  0.9104808E-01
        2   -1    0    0  501    0  0.00000000000E+00  0.00000000000E+00  0.43277236698E+03  0.43277236699E+03  0.25500000920E-02 0.  1.
       -2   -1    0    0    0  501  0.00000000000E+00  0.00000000000E+00 -0.84470398509E+03  0.84470398509E+03  0.25500000920E-02 0. -1.
    10030    2    1    2    0    0  0.00000000000E+00  0.00000000000E+00 -0.41193161811E+03  0.12774763521E+04  0.12092386746E+04 0.  0.
        3    1    3    3  502    0 -0.19138193491E+03  0.40303971443E+03 -0.63703140683E+03  0.77773843927E+03  0.10100000352E+00 0. -1.
       -3    1    3    3    0  502  0.19138193491E+03 -0.40303971443E+03  0.22509978872E+03  0.49973791282E+03  0.10100000352E+00 0.  1.
</event>
<event>
 5   0  0.9625225E-04  0.1695352E+04  0.7818609E-02  0.8764020E-01
       -2   -1    0    0    0  501  0.00000000000E+00  0.00000000000E+00  0.26329505273E+03  0.26329505275E+03  0.25500000920E-02 0.  1.
        2   -1    0    0  501    0  0.00000000000E+00  0.00000000000E+00 -0.27290855766E+04  0.27290855766E+04  0.25500000920E-02 0. -1.
    10030    2    1    2    0    0  0.00000000000E+00  0.00000000000E+00 -0.24657905238E+04  0.29923806293E+04  0.16953521532E+04 0.  0.
        1    1    3    3  502    0  0.71079408957E+03 -0.89465797365E+01 -0.20479707249E+04  0.21678312594E+04  0.50400001928E-02 0. -1.
       -1    1    3    3    0  502 -0.71079408957E+03  0.89465797365E+01 -0.41781979893E+03  0.82454936994E+03  0.50400001928E-02 0.  1.
</event>
<event>
 5   0  0.9312096E-04  0.1637252E+04  0.7818609E-02  0.8797984E-01
       -2   -1    0    0    0  501  0.00000000000E+00  0.00000000000E+00  0.45080894523E+03  0.45080894524E+03  0.25500000920E-02 0.  1.
        2   -1    0    0  501    0  0.00000000000E+00  0.00000000000E+00 -0.14865458322E+04  0.14865458322E+04  0.25500000920E-02 0. -1.
    10030    2    1    2    0    0  0.00000000000E+00  0.00000000000E+00 -0.10357368870E+04  0.19373547774E+04  0.16372515490E+04 0.  0.
        3    1    3    3  502    0  0.72724552129E+02  0.39725137999E+03  0.32472759121E+03  0.51821379573E+03  0.10100000352E+00 0.  1.
       -3    1    3    3    0  502 -0.72724552129E+02 -0.39725137999E+03 -0.13604644782E+04  0.14191409817E+04  0.10100000352E+00 0. -1.
</event>
<event>
 5   0  0.1007187E-03  0.1693733E+04  0.7818609E-02  0.8764947E-01
        2   -1    0    0  501    0  0.00000000000E+00  0.00000000000E+00  0.11564584254E+04  0.11564584254E+04  0.25500000920E-02 0.  1.
       -2   -1    0    0    0  501  0.00000000000E+00  0.00000000000E+00 -0.62015432703E+03  0.62015432703E+03  0.25500000920E-02 0. -1.
    10030    2    1    2    0    0  0.00000000000E+00  0.00000000000E+00  0.53630409834E+03  0.17766127524E+04  0.16937327965E+04 0.  0.
        5    1    3    3  502    0 -0.53693222473E+03  0.57292586176E+03 -0.64577053520E+02  0.78786581527E+03  0.46999998093E+01 0. -1.
       -5    1    3    3    0  502  0.53693222473E+03 -0.57292586176E+03  0.60088115186E+03  0.98874693713E+03  0.46999998093E+01 0.  1.
</event>
<event>
 5   0  0.5009762E-04  0.1628445E+04  0.7818609E-02  0.8803261E-01
       -1   -1    0    0    0  501  0.00000000000E+00  0.00000000000E+00  0.45976521676E+03  0.45976521679E+03  0.50400001928E-02 0. -1.
        1   -1    0    0  501    0  0.00000000000E+00  0.00000000000E+00 -0.14419492466E+04  0.14419492466E+04  0.50400001928E-02 0.  1.
    10030    2    1    2    0    0  0.00000000000E+00  0.00000000000E+00 -0.98218402986E+03  0.19017144634E+04  0.16284447893E+04 0.  0.
        3    1    3    3  502    0  0.36353698434E+03  0.13721317429E+02 -0.13417603477E+04  0.13902043930E+04  0.10100000352E+00 0.  1.
       -3    1    3    3    0  502 -0.36353698434E+03 -0.13721317429E+02  0.35957631786E+03  0.51151007038E+03  0.10100000352E+00 0. -1.
</event>
<event>
 5   0  0.5074133E-04  0.1410998E+04  0.7818609E-02  0.8945896E-01
       -1   -1    0    0    0  501  0.00000000000E+00  0.00000000000E+00  0.74766356068E+03  0.74766356069E+03  0.50400001928E-02 0.  1.
        1   -1    0    0  501    0  0.00000000000E+00  0.00000000000E+00 -0.66571276107E+03  0.66571276109E+03  0.50400001928E-02 0. -1.
    10030    2    1    2    0    0  0.00000000000E+00  0.00000000000E+00  0.81950799609E+02  0.14133763218E+04  0.14109984739E+04 0.  0.
        1    1    3    3  502    0 -0.16579146339E+03 -0.10102974027E+03  0.72037748024E+03  0.74608145119E+03  0.50400001928E-02 0.  1.
       -1    1    3    3    0  502  0.16579146339E+03  0.10102974027E+03 -0.63842668063E+03  0.66729487059E+03  0.50400001928E-02 0. -1.
</event>
<event>
 5   0  0.5009762E-04  0.1743801E+04  0.7818609E-02  0.8736770E-01
       -1   -1    0    0    0  501  0.00000000000E+00  0.00000000000E+00  0.48338188230E+03  0.48338188233E+03  0.50400001928E-02 0.  1.
        1   -1    0    0  501    0  0.00000000000E+00  0.00000000000E+00 -0.15726918929E+04  0.15726918930E+04  0.50400001928E-02 0. -1.
    10030    2    1    2    0    0  0.00000000000E+00  0.00000000000E+00 -0.10893100106E+04  0.20560737753E+04  0.17438013276E+04 0.  0.
        3    1    3    3  502    0 -0.33415767370E+03  0.67842278606E+03 -0.33023189689E+02  0.75697382306E+03  0.10100000352E+00 0.  1.
       -3    1    3    3    0  502  0.33415767370E+03 -0.67842278606E+03 -0.10562868210E+04  0.12990999522E+04  0.10100000352E+00 0. -1.
</event>
<event>
 5   0  0.5074133E-04  0.1306831E+04  0.7818609E-02  0.9024165E-01
       -1   -1    0    0    0  501  0.00000000000E+00  0.00000000000E+00  0.38375305833E+03  0.38375305836E+03  0.50400001928E-02 0. -1.
        1   -1    0    0  501    0  0.00000000000E+00  0.00000000000E+00 -0.11125696246E+04  0.11125696247E+04  0.50400001928E-02 0.  1.
    10030    2    1    2    0    0  0.00000000000E+00  0.00000000000E+00 -0.72881656632E+03  0.14963226830E+04  0.13068312762E+04 0.  0.
        1    1    3    3  502    0  0.46517794173E+03  0.39058490296E+03 -0.64017263655E+03  0.88247837849E+03  0.50400001928E-02 0. -1.
       -1    1    3    3    0  502 -0.46517794173E+03 -0.39058490296E+03 -0.88643929779E+02  0.61384430453E+03  0.50400001928E-02 0.  1.
</event>
<event>
 5   0  0.5035495E-04  0.1713877E+04  0.7818609E-02  0.8753489E-01
        1   -1    0    0  501    0  0.00000000000E+00  0.00000000000E+00  0.88572360225E+03  0.88572360226E+03  0.50400001928E-02 0. -1.
       -1   -1    0    0    0  501  0.00000000000E+00  0.00000000000E+00 -0.82908925971E+03  0.82908925972E+03  0.50400001928E-02 0.  1.
    10030    2    1    2    0    0  0.00000000000E+00  0.00000000000E+00  0.56634342540E+02  0.17148128620E+04  0.17138773885E+04 0.  0.
        4    1    3    3  502    0 -0.39389955685E+03 -0.68517351808E+03  0.35974214477E+03  0.86835225248E+03  0.12699999809E+01 0. -1.
       -4    1    3    3    0  502  0.39389955685E+03  0.68517351808E+03 -0.30310780223E+03  0.84646060950E+03  0.12699999809E+01 0.  1.
</event>
<event>
 5   0  0.9284971E-04  0.1718263E+04  0.7818609E-02  0.8751016E-01
        2   -1    0    0  501    0  0.00000000000E+00  0.00000000000E+00  0.60386828804E+03  0.60386828805E+03  0.25500000920E-02 0.  1.
       -2   -1    0    0    0  501  0.00000000000E+00  0.00000000000E+00 -0.12222981601E+04  0.12222981601E+04  0.25500000920E-02 0. -1.
    10030    2    1    2    0    0  0.00000000000E+00  0.00000000000E+00 -0.61842987209E+03  0.18261664482E+04  0.17182631899E+04 0.  0.
        4    1    3    3  502    0 -0.31704435435E+03  0.71272782021E+03  0.73403242003E+02  0.78350987050E+03  0.12699999809E+01 0.  1.
       -4    1    3    3    0  502  0.31704435435E+03 -0.71272782021E+03 -0.69183311409E+03  0.10426565777E+04  0.12699999809E+01 0. -1.
</event>
<event>
 5   0  0.1007187E-03  0.1712620E+04  0.7818609E-02  0.8754199E-01
       -2   -1    0    0    0  501  0.00000000000E+00  0.00000000000E+00  0.31013714777E+03  0.31013714778E+03  0.25500000920E-02 0. -1.
        2   -1    0    0  501    0  0.00000000000E+00  0.00000000000E+00 -0.23643309313E+04  0.23643309313E+04  0.25500000920E-02 0.  1.
    10030    2    1    2    0    0  0.00000000000E+00  0.00000000000E+00 -0.20541937835E+04  0.26744680791E+04  0.17126200413E+04 0.  0.
        5    1    3    3  502    0  0.33106832764E+03  0.75893764959E+03 -0.13679896132E+04  0.15990654350E+04  0.46999998093E+01 0.  1.
       -5    1    3    3    0  502 -0.33106832764E+03 -0.75893764959E+03 -0.68620417027E+03  0.10754026441E+04  0.46999998093E+01 0. -1.
</event>
<event>
 5   0  0.5074133E-04  0.1654982E+04  0.7818609E-02  0.8787464E-01
        1   -1    0    0  501    0  0.00000000000E+00  0.00000000000E+00  0.11845493310E+04  0.11845493310E+04  0.50400001928E-02 0.  1.
       -1   -1    0    0    0  501  0.00000000000E+00  0.00000000000E+00 -0.57806088916E+03  0.57806088918E+03  0.50400001928E-02 0. -1.
    10030    2    1    2    0    0  0.00000000000E+00  0.00000000000E+00  0.60648844185E+03  0.17626102202E+04  0.16549823438E+04 0.  0.
        1    1    3    3  502    0  0.60856990657E+03 -0.13650706585E+03 -0.27595156145E+03  0.68201229791E+03  0.50400001928E-02 0. -1.
       -1    1    3    3    0  502 -0.60856990657E+03  0.13650706585E+03  0.88244000329E+03  0.10805979223E+04  0.50400001928E-02 0.  1.
</event>
<event>
 5   0  0.9312096E-04  0.1698975E+04  0.7818609E-02  0.8761949E-01
        2   -1    0    0  501    0  0.00000000000E+00  0.00000000000E+00  0.97572028668E+03  0.97572028668E+03  0.25500000920E-02 0.  1.
       -2   -1    0    0    0  501  0.00000000000E+00  0.00000000000E+00 -0.73958595239E+03  0.73958595240E+03  0.25500000920E-02 0. -1.
    10030    2    1    2    0    0  0.00000000000E+00  0.00000000000E+00  0.23613433429E+03  0.17153062391E+04  0.16989750057E+04 0.  0.
        3    1    3    3  502    0 -0.57465768003E+03 -0.62003139739E+03  0.20228738738E+03  0.86924713417E+03  0.10100000352E+00 0. -1.
       -3    1    3    3    0  502  0.57465768003E+03  0.62003139739E+03  0.33846946904E+02  0.84605910490E+03  0.10100000352E+00 0.  1.
</event>
<event>
 5   0  0.9625225E-04  0.1692797E+04  0.7818609E-02  0.8765483E-01
       -2   -1    0    0    0  501  0.00000000000E+00  0.00000000000E+00  0.32150005284E+03  0.32150005285E+03  0.25500000920E-02 0.  1.
        2   -1    0    0  501    0  0.00000000000E+00  0.00000000000E+00 -0.22282755051E+04  0.22282755051E+04  0.25500000920E-02 0. -1.
    10030    2    1    2    0    0  0.00000000000E+00  0.00000000000E+00 -0.19067754523E+04  0.25497755579E+04  0.16927973212E+04 0.  0.
        1    1    3    3  502    0  0.77912605588E+03 -0.31406261720E+03 -0.11093260773E+04  0.13915017371E+04  0.50400001928E-02 0. -1.
       -1    1    3    3    0  502 -0.77912605588E+03  0.31406261720E+03 -0.79744937494E+03  0.11582738209E+04  0.50400001928E-02 0.  1.
</event>
<event>
 5   0  0.9610114E-04  0.1666603E+04  0.7818609E-02  0.8780644E-01
       -2   -1    0    0    0  501  0.00000000000E+00  0.00000000000E+00  0.37288411065E+03  0.37288411066E+03  0.25500000920E-02 0. -1.
        2   -1    0    0  501    0  0.00000000000E+00  0.00000000000E+00 -0.18622182276E+04  0.18622182276E+04  0.25500000920E-02 0.  1.
    10030    2    1    2    0    0  0.00000000000E+00  0.00000000000E+00 -0.14893341169E+04  0.22351023382E+04  0.16666032373E+04 0.  0.
        2    1    3    3  502    0 -0.49168789216E+03 -0.61873143209E+03 -0.39033403644E+03  0.88144553341E+03  0.25500000920E-02 0. -1.
       -2    1    3    3    0  502  0.49168789216E+03  0.61873143209E+03 -0.10990000805E+04  0.13536568048E+04  0.25500000920E-02 0.  1.
</event>
<event>
 5   0  0.4947006E-04  0.1680841E+04  0.7818609E-02  0.8772368E-01
       -1   -1    0    0    0  501  0.00000000000E+00  0.00000000000E+00  0.36726864964E+03  0.36726864967E+03  0.50400001928E-02 0.  1.
        1   -1    0    0  501    0  0.00000000000E+00  0.00000000000E+00 -0.19231327128E+04  0.19231327128E+04  0.50400001928E-02 0. -1.
    10030    2    1    2    0    0  0.00000000000E+00  0.00000000000E+00 -0.15558640632E+04  0.22904013625E+04  0.16808406879E+04 0.  0.
        2    1    3    3  502    0 -0.36750258717E+03 -0.24003526218E+03  0.19865459178E+03  0.48180776821E+03  0.25500000920E-02 0.  1.
       -2    1    3    3    0  502  0.36750258717E+03  0.24003526218E+03 -0.17545186549E+04  0.18085935943E+04  0.25500000920E-02 0. -1.
</event>
<event>
 5   0  0.5035495E-04  0.1872379E+04  0.7818609E-02  0.8668728E-01
       -1   -1    0    0    0  501  0.00000000000E+00  0.00000000000E+00  0.84306993188E+03  0.84306993190E+03  0.50400001928E-02 0.  1.
        1   -1    0    0  501    0  0.00000000000E+00  0.00000000000E+00 -0.10395947720E+04  0.10395947720E+04  0.50400001928E-02 0. -1.
    10030    2    1    2    0    0  0.00000000000E+00  0.00000000000E+00 -0.19652484013E+03  0.18826647039E+04  0.18723793351E+04 0.  0.
        4    1    3    3  502    0 -0.15827761840E+03  0.34240549509E+03  0.76327344758E+03  0.85139961019E+03  0.12699999809E+01 0.  1.
       -4    1    3    3    0  502  0.15827761840E+03 -0.34240549509E+03 -0.95979828771E+03  0.10312650937E+04  0.12699999809E+01 0. -1.
</event>
<event>
 5   0  0.1007187E-03  0.1601037E+04  0.7818609E-02  0.8819911E-01
        2   -1    0    0  501    0  0.00000000000E+00  0.00000000000E+00  0.12995519642E+04  0.12995519642E+04  0.25500000920E-02 0. -1.
       -2   -1    0    0    0  501  0.00000000000E+00  0.00000000000E+00 -0.49311592671E+03  0.49311592672E+03  0.25500000920E-02 0.  1.
    10030    2    1    2    0    0  0.00000000000E+00  0.00000000000E+00  0.80643603752E+03  0.17926678910E+04  0.16010368780E+04 0.  0.
        5    1    3    3  502    0  0.79658724165E+03 -0.56344697528E+01  0.31487795075E+03  0.85659394971E+03  0.46999998093E+01 0.  1.
       -5    1    3    3    0  502 -0.79658724165E+03  0.56344697528E+01  0.49155808677E+03  0.93607394125E+03  0.46999998093E+01 0. -1.
</event>
<event>
 5   0  0.3523125E-04  0.1670681E+04  0.7818609E-02  0.8778265E-01
       -4   -1    0    0    0  501  0.00000000000E+00  0.00000000000E+00  0.83125524209E+03  0.83125621225E+03  0.12699999809E+01 0.  1.
        4   -1    0    0  501    0  0.00000000000E+00  0.00000000000E+00 -0.83944399602E+03  0.83944495672E+03  0.12699999809E+01 0. -1.
    10030    2    1    2    0    0  0.00000000000E+00  0.00000000000E+00 -0.81887539264E+01  0.16707011690E+04  0.16706811007E+04 0.  0.
        1    1    3    3  502    0 -0.49840958083E+03 -0.41588421184E+03 -0.52985923690E+03  0.83792756183E+03  0.50400001928E-02 0. -1.
       -1    1    3    3    0  502  0.49840958083E+03  0.41588421184E+03  0.52167048297E+03  0.83277360714E+03  0.50400001928E-02 0.  1.
</event>
<event>
 5   0  0.5059689E-04  0.1688647E+04  0.7818609E-02  0.8767866E-01
        1   -1    0    0  501    0  0.00000000000E+00  0.00000000000E+00  0.85519801226E+03  0.85519801228E+03  0.50400001928E-02 0. -1.
       -1   -1    0    0    0  501  0.00000000000E+00  0.00000000000E+00 -0.83358770321E+03  0.83358770322E+03  0.50400001928E-02 0.  1.
    10030    2    1    2    0    0  0.00000000000E+00  0.00000000000E+00  0.21610309052E+02  0.16887857155E+04  0.16886474432E+04 0.  0.
        5    1    3    3  502    0 -0.47446580625E+02 -0.18461715528E+03  0.83338437983E+03  0.85491887719E+03  0.46999998093E+01 0. -1.
       -5    1    3    3    0  502  0.47446580625E+02  0.18461715528E+03 -0.81177407078E+03  0.83386683831E+03  0.46999998093E+01 0.  1.
</event>
<event>
 5   0  0.5035495E-04  0.1109357E+04  0.7818609E-02  0.9196120E-01
       -1   -1    0    0    0  501  0.00000000000E+00  0.00000000000E+00  0.44727129128E+03  0.44727129130E+03  0.50400001928E-02 0.  1.
        1   -1    0    0  501    0  0.00000000000E+00  0.00000000000E+00 -0.68787844274E+03  0.68787844276E+03  0.50400001928E-02 0. -1.
    10030    2    1    2    0    0  0.00000000000E+00  0.00000000000E+00 -0.24060715147E+03  0.11351497341E+04  0.11093570739E+04 0.  0.
        4    1    3    3  502    0 -0.44600435185E+02  0.33239780864E+03 -0.57237769741E+03  0.66339682197E+03  0.12699999809E+01 0. -1.
       -4    1    3    3    0  502  0.44600435185E+02 -0.33239780864E+03  0.33177054595E+03  0.47175291209E+03  0.12699999809E+01 0.  1.
</event>
<event>
 5   0  0.5009762E-04  0.1719742E+04  0.7818609E-02  0.8750184E-01
       -1   -1    0    0    0  501  0.00000000000E+00  0.00000000000E+00  0.63964715532E+03  0.63964715534E+03  0.50400001928E-02 0.  1.
        1   -1    0    0  501    0  0.00000000000E+00  0.00000000000E+00 -0.11559160366E+04  0.11559160366E+04  0.50400001928E-02 0. -1.
    10030    2    1    2    0    0  0.00000000000E+00  0.00000000000E+00 -0.51626888131E+03  0.17955631920E+04  0.17197423117E+04 0.  0.
        3    1    3    3  502    0 -0.13022257647E+03 -0.19553065772E+03  0.60549038709E+03  0.64946807203E+03  0.10100000352E+00 0.  1.
       -3    1    3    3    0  502  0.13022257647E+03  0.19553065772E+03 -0.11217592684E+04  0.11460951199E+04  0.10100000352E+00 0. -1.
</event>
<event>
 5   0  0.5059689E-04  0.1740439E+04  0.7818609E-02  0.8738631E-01
       -1   -1    0    0    0  501  0.00000000000E+00  0.00000000000E+00  0.13401992545E+04  0.13401992545E+04  0.50400001928E-02 0. -1.
        1   -1    0    0  501    0  0.00000000000E+00  0.00000000000E+00 -0.56505175403E+03  0.56505175405E+03  0.50400001928E-02 0.  1.
    10030    2    1    2    0    0  0.00000000000E+00  0.00000000000E+00  0.77514750047E+03  0.19052510086E+04  0.17404389556E+04 0.  0.
        5    1    3    3  502    0 -0.18759621276E+03 -0.32861185049E+02  0.13170907107E+04  0.13307975904E+04  0.46999998093E+01 0. -1.
       -5    1    3    3    0  502  0.18759621276E+03  0.32861185049E+02 -0.54194321020E+03  0.57445341814E+03  0.46999998093E+01 0.  1.
</event>
<event>
 5   0  0.5074133E-04  0.1732087E+04  0.7818609E-02  0.8743273E-01
       -1   -1    0    0    0  501  0.00000000000E+00  0.00000000000E+00  0.86046930552E+03  0.86046930553E+03  0.50400001928E-02 0. -1.
        1   -1    0    0  501    0  0.00000000000E+00  0.00000000000E+00 -0.87165373785E+03  0.87165373787E+03  0.50400001928E-02 0.  1.
    10030    2    1    2    0    0  0.00000000000E+00  0.00000000000E+00 -0.11184432336E+02  0.17321230434E+04  0.17320869337E+04 0.  0.
        1    1    3    3  502    0  0.49468794680E+03 -0.87580128237E+02  0.69986195839E+03  0.86150635773E+03  0.50400001928E-02 0. -1.
       -1    1    3    3    0  502 -0.49468794680E+03  0.87580128237E+02 -0.71104639073E+03  0.87061668567E+03  0.50400001928E-02 0.  1.
</event>
<event>
 5   0  0.3523125E-04  0.1690310E+04  0.7818609E-02  0.8766910E-01
        3   -1    0    0  501    0  0.00000000000E+00  0.00000000000E+00  0.48988812124E+03  0.48988813165E+03  0.10100000352E+00 0. -1.
       -3   -1    0    0    0  501  0.00000000000E+00  0.00000000000E+00 -0.14580615990E+04  0.14580616025E+04  0.10100000352E+00 0.  1.
    10030    2    1    2    0    0  0.00000000000E+00  0.00000000000E+00 -0.96817347773E+03  0.19479497341E+04  0.16903101147E+04 0.  0.
        3    1    3    3  502    0  0.79347025194E+03 -0.29093970478E+03 -0.49191202876E+03  0.97786420671E+03  0.10100000352E+00 0.  1.
       -3    1    3    3    0  502 -0.79347025194E+03  0.29093970478E+03 -0.47626144897E+03  0.97008552742E+03  0.10100000352E+00 0. -1.
</event>
<event>
 5   0  0.9625225E-04  0.1682952E+04  0.7818609E-02  0.8771148E-01
       -2   -1    0    0    0  501  0.00000000000E+00  0.00000000000E+00  0.45613260353E+03  0.45613260354E+03  0.25500000920E-02 0.  1.
        2   -1    0    0  501    0  0.00000000000E+00  0.00000000000E+00 -0.15523595282E+04  0.15523595282E+04  0.25500000920E-02 0. -1.
    10030    2    1    2    0    0  0.00000000000E+00  0.00000000000E+00 -0.10962269246E+04  0.20084921317E+04  0.16829519223E+04 0.  0.
        1    1    3    3  502    0 -0.38944899585E+02  0.30936854802E+03 -0.14808691687E+04  0.15133403776E+04  0.50400001928E-02 0. -1.
       -1    1    3    3    0  502  0.38944899585E+02 -0.30936854802E+03  0.38464224402E+03  0.49515175413E+03  0.50400001928E-02 0.  1.
</event>
<event>
 5   0  0.5074133E-04  0.1750825E+04  0.7818609E-02  0.8732896E-01
       -1   -1    0    0    0  501  0.00000000000E+00  0.00000000000E+00  0.57043108835E+03  0.57043108837E+03  0.50400001928E-02 0.  1.
        1   -1    0    0  501    0  0.00000000000E+00  0.00000000000E+00 -0.13434523835E+04  0.13434523835E+04  0.50400001928E-02 0. -1.
    10030    2    1    2    0    0  0.00000000000E+00  0.00000000000E+00 -0.77302129517E+03  0.19138834719E+04  0.17508249545E+04 0.  0.
        1    1    3    3  502    0  0.17127254293E+03  0.16816104025E+03 -0.13067791910E+04  0.13286400090E+04  0.50400001928E-02 0. -1.
       -1    1    3    3    0  502 -0.17127254293E+03 -0.16816104025E+03  0.53375789586E+03  0.58524346288E+03  0.50400001928E-02 0.  1.
</event>
<event>
 5   0  0.9284971E-04  0.1696884E+04  0.7818609E-02  0.8763144E-01
        2   -1    0    0  501    0  0.00000000000E+00  0.00000000000E+00  0.20810021476E+04  0.20810021476E+04  0.25500000920E-02 0. -1.
       -2   -1    0    0    0  501  0.00000000000E+00  0.00000000000E+00 -0.34591683089E+03  0.34591683090E+03  0.25500000920E-02 0.  1.
    10030    2    1    2    0    0  0.00000000000E+00  0.00000000000E+00  0.17350853167E+04  0.24269189785E+04  0.16968838122E+04 0.  0.
        4    1    3    3  502    0  0.65268085213E+03 -0.10824359719E+03  0.10785009374E+03  0.67032993867E+03  0.12699999809E+01 0.  1.
       -4    1    3    3    0  502 -0.65268085213E+03  0.10824359719E+03  0.16272352230E+04  0.17565890399E+04  0.12699999809E+01 0. -1.
</event>
<event>
 5   0  0.1007187E-03  0.1705379E+04  0.7818609E-02  0.8758303E-01
       -2   -1    0    0    0  501  0.00000000000E+00  0.00000000000E+00  0.53077504754E+03  0.53077504754E+03  0.25500000920E-02 0.  1.
        2   -1    0    0  501    0  0.00000000000E+00  0.00000000000E+00 -0.13698442297E+04  0.13698442297E+04  0.25500000920E-02 0. -1.
    10030    2    1    2    0    0  0.00000000000E+00  0.00000000000E+00 -0.83906918219E+03  0.19006192773E+04  0.17053787100E+04 0.  0.
        5    1    3    3  502    0 -0.58584150965E+03 -0.99533343025E+01 -0.11099288755E+04  0.12550990168E+04  0.46999998093E+01 0. -1.
       -5    1    3    3    0  502  0.58584150965E+03  0.99533343025E+01  0.27085969327E+03  0.64552026051E+03  0.46999998093E+01 0.  1.
</event>
<event>
 5   0  0.4947006E-04  0.1796303E+04  0.7818609E-02  0.8708268E-01
       -1   -1    0    0    0  501  0.00000000000E+00  0.00000000000E+00  0.10415754085E+04  0.10415754085E+04  0.50400001928E-02 0.  1.
        1   -1    0    0  501    0  0.00000000000E+00  0.00000000000E+00 -0.77447709525E+03  0.77447709526E+03  0.50400001928E-02 0. -1.
    10030    2    1    2    0    0  0.00000000000E+00  0.00000000000E+00  0.26709831321E+03  0.18160525037E+04  0.17963032003E+04 0.  0.
        2    1    3    3  502    0  0.82484616983E+03  0.12965012831E+02 -0.22551330821E+03  0.85521666707E+03  0.25500000920E-02 0. -1.
       -2    1    3    3    0  502 -0.82484616983E+03 -0.12965012831E+02  0.49261162142E+03  0.96083583666E+03  0.25500000920E-02 0.  1.
</event>
<event>
 5   0  0.5074133E-04  0.1631300E+04  0.7818609E-02  0.8801547E-01
       -1   -1    0    0    0  501  0.00000000000E+00  0.00000000000E+00  0.63526510844E+03  0.63526510846E+03  0.50400001928E-02 0.  1.
        1   -1    0    0  501    0  0.00000000000E+00  0.00000000000E+00 -0.10472558260E+04  0.10472558260E+04  0.50400001928E-02 0. -1.
    10030    2    1    2    0    0  0.00000000000E+00  0.00000000000E+00 -0.41199071759E+03  0.16825209345E+04  0.16313002004E+04 0.  0.
        1    1    3    3  502    0  0.82650861307E+01 -0.70180589082E+03  0.22260667629E+03  0.73631077161E+03  0.50400001928E-02 0.  1.
       -1    1    3    3    0  502 -0.82650861307E+01  0.70180589082E+03 -0.63459739388E+03  0.94621016290E+03  0.50400001928E-02 0. -1.
</event>
<event>
 5   0  0.9610114E-04  0.1687033E+04  0.7818609E-02  0.8768795E-01
        2   -1    0    0  501    0  0.00000000000E+00  0.00000000000E+00  0.54801268784E+03  0.54801268785E+03  0.25500000920E-02 0. -1.
       -2   -1    0    0    0  501  0.00000000000E+00  0.00000000000E+00 -0.12983639015E+04  0.12983639015E+04  0.25500000920E-02 0.  1.
    10030    2    1    2    0    0  0.00000000000E+00  0.00000000000E+00 -0.75035121366E+03  0.18463765894E+04  0.16870327697E+04 0.  0.
        2    1    3    3  502    0 -0.19929607001E+03 -0.75993063474E+03 -0.39076509654E+02  0.78660057637E+03  0.25500000920E-02 0. -1.
       -2    1    3    3    0  502  0.19929607001E+03  0.75993063474E+03 -0.71127470401E+03  0.10597760130E+04  0.25500000920E-02 0.  1.
</event>
<event>
 5   0  0.5009762E-04  0.1446633E+04  0.7818609E-02  0.8920738E-01
       -1   -1    0    0    0  501  0.00000000000E+00  0.00000000000E+00  0.13376292391E+04  0.13376292391E+04  0.50400001928E-02 0.  1.
        1   -1    0    0  501    0  0.00000000000E+00  0.00000000000E+00 -0.39113010161E+03  0.39113010164E+03  0.50400001928E-02 0. -1.
    10030    2    1    2    0    0  0.00000000000E+00  0.00000000000E+00  0.94649913749E+03  0.17287593407E+04  0.14466334162E+04 0.  0.
        3    1    3    3  502    0 -0.41918306643E+03  0.45947596551E+03  0.31973175038E+02  0.62277997735E+03  0.10100000352E+00 0. -1.
       -3    1    3    3    0  502  0.41918306643E+03 -0.45947596551E+03  0.91452596245E+03  0.11059793634E+04  0.10100000352E+00 0.  1.
</event>
<event>
 5   0  0.5009762E-04  0.1708882E+04  0.7818609E-02  0.8756315E-01
        1   -1    0    0  501    0  0.00000000000E+00  0.00000000000E+00  0.79648176817E+03  0.79648176819E+03  0.50400001928E-02 0. -1.
       -1   -1    0    0    0  501  0.00000000000E+00  0.00000000000E+00 -0.91661834019E+03  0.91661834021E+03  0.50400001928E-02 0.  1.
    10030    2    1    2    0    0  0.00000000000E+00  0.00000000000E+00 -0.12013657202E+03  0.17131001084E+04  0.17088824376E+04 0.  0.
        3    1    3    3  502    0  0.19561339208E+03 -0.10656459552E+03  0.76686105478E+03  0.79855901455E+03  0.10100000352E+00 0. -1.
       -3    1    3    3    0  502 -0.19561339208E+03  0.10656459552E+03 -0.88699762680E+03  0.91454109385E+03  0.10100000352E+00 0.  1.
</event>
<event>
 5   0  0.9610114E-04  0.1337194E+04  0.7818609E-02  0.9000579E-01
        2   -1    0    0  501    0  0.00000000000E+00  0.00000000000E+00  0.67676074849E+03  0.67676074850E+03  0.25500000920E-02 0.  1.
       -2   -1    0    0    0  501  0.00000000000E+00  0.00000000000E+00 -0.66053187036E+03  0.66053187037E+03  0.25500000920E-02 0. -1.
    10030    2    1    2    0    0  0.00000000000E+00  0.00000000000E+00  0.16228878134E+02  0.13372926189E+04  0.13371941415E+04 0.  0.
        2    1    3    3  502    0 -0.56246371942E+03 -0.31606534021E+03 -0.16728179447E+03  0.66651776699E+03  0.25500000920E-02 0. -1.
       -2    1    3    3    0  502  0.56246371942E+03  0.31606534021E+03  0.18351067260E+03  0.67077485188E+03  0.25500000920E-02 0.  1.
</event>
<event>
 5   0  0.5059689E-04  0.1632493E+04  0.7818609E-02  0.8800832E-01
       -1   -1    0    0    0  501  0.00000000000E+00  0.00000000000E+00  0.39966633779E+03  0.39966633782E+03  0.50400001928E-02 0. -1.
        1   -1    0    0  501    0  0.00000000000E+00  0.00000000000E+00 -0.16670354811E+04  0.16670354811E+04  0.50400001928E-02 0.  1.
    10030    2    1    2    0    0  0.00000000000E+00  0.00000000000E+00 -0.12673691433E+04  0.20667018189E+04  0.16324925307E+04 0.  0.
        5    1    3    3  502    0  0.69933522314E+02 -0.47214037196E+03  0.20457028946E+03  0.51930561494E+03  0.46999998093E+01 0. -1.
       -5    1    3    3    0  502 -0.69933522314E+02  0.47214037196E+03 -0.14719394327E+04  0.15473962040E+04  0.46999998093E+01 0.  1.
</event>
<event>
 5   0  0.9312096E-04  0.1530536E+04  0.7818609E-02  0.8864397E-01
        2   -1    0    0  501    0  0.00000000000E+00  0.00000000000E+00  0.13900900601E+04  0.13900900601E+04  0.25500000920E-02 0.  1.
       -2   -1    0    0    0  501  0.00000000000E+00  0.00000000000E+00 -0.42129281201E+03  0.42129281202E+03  0.25500000920E-02 0. -1.
    10030    2    1    2    0    0  0.00000000000E+00  0.00000000000E+00  0.96879724806E+03  0.18113828721E+04  0.15305357890E+04 0.  0.
        3    1    3    3  502    0 -0.27430326160E+03  0.64040422213E+03  0.85916731738E+03  0.11061321515E+04  0.10100000352E+00 0.  1.
       -3    1    3    3    0  502  0.27430326160E+03 -0.64040422213E+03  0.10962993068E+03  0.70525072063E+03  0.10100000352E+00 0. -1.
</event>
<event>
 5   0  0.9312096E-04  0.1673894E+04  0.7818609E-02  0.8776395E-01
       -2   -1    0    0    0  501  0.00000000000E+00  0.00000000000E+00  0.62444095767E+03  0.62444095767E+03  0.25500000920E-02 0.  1.
        2   -1    0    0  501    0  0.00000000000E+00  0.00000000000E+00 -0.11217717836E+04  0.11217717836E+04  0.25500000920E-02 0. -1.
    10030    2    1    2    0    0  0.00000000000E+00  0.00000000000E+00 -0.49733082595E+03  0.17462127413E+04  0.16738939594E+04 0.  0.
        3    1    3    3  502    0 -0.38671268700E+03  0.24952400367E+03  0.48058658882E+03  0.66541145936E+03  0.10100000352E+00 0.  1.
       -3    1    3    3    0  502  0.38671268700E+03 -0.24952400367E+03 -0.97791741478E+03  0.10808012819E+04  0.10100000352E+00 0. -1.
</event>
<event>
 5   0  0.9610114E-04  0.1657828E+04  0.7818609E-02  0.8785789E-01
       -2   -1    0    0    0  501  0.00000000000E+00  0.00000000000E+00  0.45691166133E+03  0.45691166133E+03  0.25500000920E-02 0. -1.
        2   -1    0    0  501    0  0.00000000000E+00  0.00000000000E+00 -0.15037883716E+04  0.15037883716E+04  0.25500000920E-02 0.  1.
    10030    2    1    2    0    0  0.00000000000E+00  0.00000000000E+00 -0.10468767103E+04  0.19607000329E+04  0.16578280287E+04 0.  0.
        2    1    3    3  502    0  0.35042821850E+03  0.44560557415E+03 -0.12386827326E+04  0.13622404986E+04  0.25500000920E-02 0.  1.
       -2    1    3    3    0  502 -0.35042821850E+03 -0.44560557415E+03  0.19180602230E+03  0.59845953433E+03  0.25500000920E-02 0. -1.
</event>
<event>
 5   0  0.5035495E-04  0.1645301E+04  0.7818609E-02  0.8793191E-01
        1   -1    0    0  501    0  0.00000000000E+00  0.00000000000E+00  0.63052292413E+03  0.63052292415E+03  0.50400001928E-02 0.  1.
       -1   -1    0    0    0  501  0.00000000000E+00  0.00000000000E+00 -0.10733215266E+04  0.10733215266E+04  0.50400001928E-02 0. -1.
    10030    2    1    2    0    0  0.00000000000E+00  0.00000000000E+00 -0.44279860247E+03  0.17038444508E+04  0.16453009785E+04 0.  0.
        4    1    3    3  502    0 -0.26662308390E+03  0.74791885788E+03 -0.44418605728E+03  0.90982050604E+03  0.12699999809E+01 0. -1.
       -4    1    3    3    0  502  0.26662308390E+03 -0.74791885788E+03  0.13874548130E+01  0.79402394471E+03  0.12699999809E+01 0.  1.
</event>
<event>
 5   0  0.9625225E-04  0.1316805E+04  0.7818609E-02  0.9016343E-01
        2   -1    0    0  501    0  0.00000000000E+00  0.00000000000E+00  0.21614272613E+04  0.21614272613E+04  0.25500000920E-02 0.  1.
       -2   -1    0    0    0  501  0.00000000000E+00  0.00000000000E+00 -0.20055919958E+03  0.20055919960E+03  0.25500000920E-02 0. -1.
    10030    2    1    2    0    0  0.00000000000E+00  0.00000000000E+00  0.19608680618E+04  0.23619864609E+04  0.13168054093E+04 0.  0.
        1    1    3    3  502    0  0.41854948289E+03  0.20099156401E+03  0.14310294360E+03  0.48585978525E+03  0.50400001928E-02 0. -1.
       -1    1    3    3    0  502 -0.41854948289E+03 -0.20099156401E+03  0.18177651182E+04  0.18761266757E+04  0.50400001928E-02 0.  1.
</event>
<event>
 5   0  0.9610114E-04  0.1730990E+04  0.7818609E-02  0.8743884E-01
       -2   -1    0    0    0  501  0.00000000000E+00  0.00000000000E+00  0.54447733580E+03  0.54447733581E+03  0.25500000920E-02 0.  1.
        2   -1    0    0  501    0  0.00000000000E+00  0.00000000000E+00 -0.13757808625E+04  0.13757808625E+04  0.25500000920E-02 0. -1.
    10030    2    1    2    0    0  0.00000000000E+00  0.00000000000E+00 -0.83130352673E+03  0.19202581983E+04  0.17309898887E+04 0.  0.
        2    1    3    3  502    0 -0.41451313329E+03  0.59034545171E+03 -0.94622840274E+03  0.11898222893E+04  0.25500000920E-02 0.  1.
       -2    1    3    3    0  502  0.41451313329E+03 -0.59034545171E+03  0.11492487601E+03  0.73043590901E+03  0.25500000920E-02 0. -1.
</event>
<event>
 5   0  0.9625225E-04  0.1677457E+04  0.7818609E-02  0.8774327E-01
        2   -1    0    0  501    0  0.00000000000E+00  0.00000000000E+00  0.19573704717E+04  0.19573704717E+04  0.25500000920E-02 0.  1.
       -2   -1    0    0    0  501  0.00000000000E+00  0.00000000000E+00 -0.35939297516E+03  0.35939297517E+03  0.25500000920E-02 0. -1.
    10030    2    1    2    0    0  0.00000000000E+00  0.00000000000E+00  0.15979774966E+04  0.23167634469E+04  0.16774566431E+04 0.  0.
        1    1    3    3  502    0 -0.11178038394E+03 -0.17284498162E+03 -0.32396614049E+03  0.38382848008E+03  0.50400001928E-02 0. -1.
       -1    1    3    3    0  502  0.11178038394E+03  0.17284498162E+03  0.19219436371E+04  0.19329349668E+04  0.50400001928E-02 0.  1.
</event>
<event>
 5   0  0.9312096E-04  0.1426298E+04  0.7818609E-02  0.8935000E-01
        2   -1    0    0  501    0  0.00000000000E+00  0.00000000000E+00  0.28021361104E+04  0.28021361104E+04  0.25500000920E-02 0. -1.
       -2   -1    0    0    0  501  0.00000000000E+00  0.00000000000E+00 -0.18149779844E+03  0.18149779846E+03  0.25500000920E-02 0.  1.
    10030    2    1    2    0    0  0.00000000000E+00  0.00000000000E+00  0.26206383119E+04  0.29836339088E+04  0.14262980544E+04 0.  0.
        3    1    3    3  502    0  0.63428151588E+03 -0.12167466046E+03  0.19429637056E+04  0.20474925484E+04  0.10100000352E+00 0. -1.
       -3    1    3    3    0  502 -0.63428151588E+03  0.12167466046E+03  0.67767460630E+03  0.93614136038E+03  0.10100000352E+00 0.  1.
</event>
<event>
 5   0  0.4947006E-04  0.1719459E+04  0.7818609E-02  0.8750343E-01
        1   -1    0    0  501    0  0.00000000000E+00  0.00000000000E+00  0.10867851830E+04  0.10867851830E+04  0.50400001928E-02 0. -1.
       -1   -1    0    0    0  501  0.00000000000E+00  0.00000000000E+00 -0.68011131686E+03  0.68011131688E+03  0.50400001928E-02 0.  1.
    10030    2    1    2    0    0  0.00000000000E+00  0.00000000000E+00  0.40667386613E+03  0.17668964999E+04  0.17194591033E+04 0.  0.
        2    1    3    3  502    0  0.18399049603E+03 -0.74805844071E+03  0.59556220705E+03  0.97372392176E+03  0.25500000920E-02 0. -1.
       -2    1    3    3    0  502 -0.18399049603E+03  0.74805844071E+03 -0.18888834091E+03  0.79317257812E+03  0.25500000920E-02 0.  1.
</event>
<event>
 5   0  0.9625225E-04  0.1171324E+04  0.7818609E-02  0.9138333E-01
       -2   -1    0    0    0  501  0.00000000000E+00  0.00000000000E+00  0.29760010585E+03  0.29760010586E+03  0.25500000920E-02 0.  1.
        2   -1    0    0  501    0  0.00000000000E+00  0.00000000000E+00 -0.11525534490E+04  0.11525534490E+04  0.25500000920E-02 0. -1.
    10030    2    1    2    0    0  0.00000000000E+00  0.00000000000E+00 -0.85495334312E+03  0.14501535548E+04  0.11713240857E+04 0.  0.
        1    1    3    3  502    0 -0.47993627413E+03 -0.69201452301E+02 -0.20853607803E+02  0.48534785588E+03  0.50400001928E-02 0.  1.
       -1    1    3    3    0  502  0.47993627413E+03  0.69201452301E+02 -0.83409973532E+03  0.96480569894E+03  0.50400001928E-02 0. -1.
</event>
<event>
 5   0  0.9284971E-04  0.1601563E+04  0.7818609E-02  0.8819588E-01
        2   -1    0    0  501    0  0.00000000000E+00  0.00000000000E+00  0.75987586774E+03  0.75987586774E+03  0.25500000920E-02 0.  1.
       -2   -1    0    0    0  501  0.00000000000E+00  0.00000000000E+00 -0.84388949559E+03  0.84388949560E+03  0.25500000920E-02 0. -1.
    10030    2    1    2    0    0  0.00000000000E+00  0.00000000000E+00 -0.84013627854E+02  0.16037653633E+04  0.16015633147E+04 0.  0.
        4    1    3    3  502    0  0.63933998206E+03 -0.26696669571E+03  0.36007087482E+03  0.78081974685E+03  0.12699999809E+01 0.  1.
       -4    1    3    3    0  502 -0.63933998206E+03  0.26696669571E+03 -0.44408450267E+03  0.82294561649E+03  0.12699999809E+01 0. -1.
</event>
<event>
 5   0  0.5074133E-04  0.1689689E+04  0.7818609E-02  0.8767267E-01
       -1   -1    0    0    0  501  0.00000000000E+00  0.00000000000E+00  0.75618646461E+03  0.75618646463E+03  0.50400001928E-02 0.  1.
        1   -1    0    0  501    0  0.00000000000E+00  0.00000000000E+00 -0.94389670717E+03  0.94389670718E+03  0.50400001928E-02 0. -1.
    10030    2    1    2    0    0  0.00000000000E+00  0.00000000000E+00 -0.18771024256E+03  0.17000831718E+04  0.16896886269E+04 0.  0.
        1    1    3    3  502    0 -0.50765280429E+03  0.60712303710E+03  0.20368721114E+03  0.81718922649E+03  0.50400001928E-02 0.  1.
       -1    1    3    3    0  502  0.50765280429E+03 -0.60712303710E+03 -0.39139745370E+03  0.88289394532E+03  0.50400001928E-02 0. -1.
</event>
<event>
 5   0  0.4947006E-04  0.1719256E+04  0.7818609E-02  0.8750458E-01
       -1   -1    0    0    0  501  0.00000000000E+00  0.00000000000E+00  0.53485714892E+03  0.53485714894E+03  0.50400001928E-02 0.  1.
        1   -1    0    0  501    0  0.00000000000E+00  0.00000000000E+00 -0.13816028054E+04  0.13816028054E+04  0.50400001928E-02 0. -1.
    10030    2    1    2    0    0  0.00000000000E+00  0.00000000000E+00 -0.84674565646E+03  0.19164599543E+04  0.17192558128E+04 0.  0.
        2    1    3    3  502    0  0.20454987334E+03  0.82549898182E+03 -0.28383033978E+03  0.89657619947E+03  0.25500000920E-02 0. -1.
       -2    1    3    3    0  502 -0.20454987334E+03 -0.82549898182E+03 -0.56291531668E+03  0.10198837549E+04  0.25500000920E-02 0.  1.
</event>
<event>
 5   0  0.5059689E-04  0.1597451E+04  0.7818609E-02  0.8822116E-01
        1   -1    0    0  501    0  0.00000000000E+00  0.00000000000E+00  0.17058763887E+04  0.17058763887E+04  0.50400001928E-02 0. -1.
       -1   -1    0    0    0  501  0.00000000000E+00  0.00000000000E+00 -0.37397910815E+03  0.37397910818E+03  0.50400001928E-02 0.  1.
    10030    2    1    2    0    0  0.00000000000E+00  0.00000000000E+00  0.13318972805E+04  0.20798554968E+04  0.15974506321E+04 0.  0.
        5    1    3    3  502    0  0.30860973871E+03  0.66457083274E+03  0.25207802964E+03  0.77489340272E+03  0.46999998093E+01 0.  1.
       -5    1    3    3    0  502 -0.30860973871E+03 -0.66457083274E+03  0.10798192509E+04  0.13049620941E+04  0.46999998093E+01 0. -1.
</event>
<event>
 5   0  0.3523125E-04  0.1635518E+04  0.7818609E-02  0.8799021E-01
       -3   -1    0    0    0  501  0.00000000000E+00  0.00000000000E+00  0.13726180488E+04  0.13726180525E+04  0.10100000352E+00 0. -1.
        3   -1    0    0  501    0  0.00000000000E+00  0.00000000000E+00 -0.48719260314E+03  0.48719261361E+03  0.10100000352E+00 0.  1.
    10030    2    1    2    0    0  0.00000000000E+00  0.00000000000E+00  0.88542544561E+03  0.18598106661E+04  0.16355175003E+04 0.  0.
        3    1    3    3  502    0 -0.42507691209E+03  0.52918834570E+03 -0.75900785600E+02  0.68300192231E+03  0.10100000352E+00 0.  1.
       -3    1    3    3    0  502  0.42507691209E+03 -0.52918834570E+03  0.96132623121E+03  0.11768087438E+04  0.10100000352E+00 0. -1.
</event>
<event>
 5   0  0.5009762E-04  0.1686830E+04  0.7818609E-02  0.8768912E-01
       -1   -1    0    0    0  501  0.00000000000E+00  0.00000000000E+00  0.46061864180E+03  0.46061864183E+03  0.50400001928E-02 0. -1.
        1   -1    0    0  501    0  0.00000000000E+00  0.00000000000E+00 -0.15443333580E+04  0.15443333580E+04  0.50400001928E-02 0.  1.
    10030    2    1    2    0    0  0.00000000000E+00  0.00000000000E+00 -0.10837147162E+04  0.20049519998E+04  0.16868298478E+04 0.  0.
        3    1    3    3  502    0  0.53588583538E+03 -0.56963204666E+03 -0.91714835196E+03  0.12053279250E+04  0.10100000352E+00 0.  1.
       -3    1    3    3    0  502 -0.53588583538E+03  0.56963204666E+03 -0.16656636426E+03  0.79962407482E+03  0.10100000352E+00 0. -1.
</event>
<event>
 5   0  0.9284971E-04  0.1708077E+04  0.7818609E-02  0.8756771E-01
       -2   -1    0    0    0  501  0.00000000000E+00  0.00000000000E+00  0.31330047893E+03  0.31330047894E+03  0.25500000920E-02 0. -1.
        2   -1    0    0  501    0  0.00000000000E+00  0.00000000000E+00 -0.23280593986E+04  0.23280593986E+04  0.25500000920E-02 0.  1.
    10030    2    1    2    0    0  0.00000000000E+00  0.00000000000E+00 -0.20147589197E+04  0.26413598776E+04  0.17080774275E+04 0.  0.
        4    1    3    3  502    0 -0.57313671768E+02 -0.42924357304E+03 -0.21456822558E+04  0.21889469746E+04  0.12699999809E+01 0.  1.
       -4    1    3    3    0  502  0.57313671768E+02  0.42924357304E+03  0.13092333605E+03  0.45241290299E+03  0.12699999809E+01 0. -1.
</event>
<event>
 5   0  0.5074133E-04  0.1702293E+04  0.7818609E-02  0.8760058E-01
       -1   -1    0    0    0  501  0.00000000000E+00  0.00000000000E+00  0.60652663009E+03  0.60652663011E+03  0.50400001928E-02 0.  1.
        1   -1    0    0  501    0  0.00000000000E+00  0.00000000000E+00 -0.11944240353E+04  0.11944240353E+04  0.50400001928E-02 0. -1.
    10030    2    1    2    0    0  0.00000000000E+00  0.00000000000E+00 -0.58789740516E+03  0.18009506654E+04  0.17022925542E+04 0.  0.
        1    1    3    3  502    0 -0.69046852268E+03 -0.18851049928E+03 -0.78126005638E+03  0.10595519170E+04  0.50400001928E-02 0. -1.
       -1    1    3    3    0  502  0.69046852268E+03  0.18851049928E+03  0.19336265122E+03  0.74139874836E+03  0.50400001928E-02 0.  1.
</event>
<event>
 5   0  0.1007187E-03  0.1603973E+04  0.7818609E-02  0.8818111E-01
       -2   -1    0    0    0  501  0.00000000000E+00  0.00000000000E+00  0.31373321592E+03  0.31373321593E+03  0.25500000920E-02 0. -1.
        2   -1    0    0  501    0  0.00000000000E+00  0.00000000000E+00 -0.20500920893E+04  0.20500920893E+04  0.25500000920E-02 0.  1.
    10030    2    1    2    0    0  0.00000000000E+00  0.00000000000E+00 -0.17363588734E+04  0.23638253052E+04  0.16039725485E+04 0.  0.
        5    1    3    3  502    0 -0.99679778816E+02  0.75785364332E+03 -0.51057031855E+03  0.91922921145E+03  0.46999998093E+01 0. -1.
       -5    1    3    3    0  502  0.99679778816E+02 -0.75785364332E+03 -0.12257885548E+04  0.14445960938E+04  0.46999998093E+01 0.  1.
</event>
<event>
 5   0  0.1007187E-03  0.1787236E+04  0.7818609E-02  0.8713117E-01
       -2   -1    0    0    0  501  0.00000000000E+00  0.00000000000E+00  0.51539647524E+03  0.51539647525E+03  0.25500000920E-02 0. -1.
        2   -1    0    0  501    0  0.00000000000E+00  0.00000000000E+00 -0.15493963416E+04  0.15493963416E+04  0.25500000920E-02 0.  1.
    10030    2    1    2    0    0  0.00000000000E+00  0.00000000000E+00 -0.10339998664E+04  0.20647928169E+04  0.17872363170E+04 0.  0.
        5    1    3    3  502    0  0.22606149117E+03  0.67789114706E+03  0.10288150666E+03  0.72197430665E+03  0.46999998093E+01 0. -1.
       -5    1    3    3    0  502 -0.22606149117E+03 -0.67789114706E+03 -0.11368813730E+04  0.13428185102E+04  0.46999998093E+01 0.  1.
</event>
<event>
 5   0  0.1007187E-03  0.1675216E+04  0.7818609E-02  0.8775627E-01
        2   -1    0    0  501    0  0.00000000000E+00  0.00000000000E+00  0.11251453802E+04  0.11251453802E+04  0.25500000920E-02 0.  1.
       -2   -1    0    0    0  501  0.00000000000E+00  0.00000000000E+00 -0.62355243694E+03  0.62355243694E+03  0.25500000920E-02 0. -1.
    10030    2    1    2    0    0  0.00000000000E+00  0.00000000000E+00  0.50159294330E+03  0.17486978172E+04  0.16752159786E+04 0.  0.
        5    1    3    3  502    0  0.79477899477E+03  0.86013633997E+02 -0.10155059562E+02  0.79949809943E+03  0.46999998093E+01 0. -1.
       -5    1    3    3    0  502 -0.79477899477E+03 -0.86013633997E+02  0.51174800287E+03  0.94919971776E+03  0.46999998093E+01 0.  1.
</event>
<event>
 5   0  0.9610114E-04  0.1575460E+04  0.7818609E-02  0.8835767E-01
       -2   -1    0    0    0  501  0.00000000000E+00  0.00000000000E+00  0.12646335362E+04  0.12646335362E+04  0.25500000920E-02 0.  1.
        2   -1    0    0  501    0  0.00000000000E+00  0.00000000000E+00 -0.49067086961E+03  0.49067086962E+03  0.25500000920E-02 0. -1.
    10030    2    1    2    0    0  0.00000000000E+00  0.00000000000E+00  0.77396266663E+03  0.17553044059E+04  0.15754603606E+04 0.  0.
        2    1    3    3  502    0 -0.80213868096E+02 -0.72424197411E+03  0.72040581407E+03  0.10246683554E+04  0.25500000920E-02 0.  1.
       -2    1    3    3    0  502  0.80213868096E+02  0.72424197411E+03  0.53556852555E+02  0.73063605041E+03  0.25500000920E-02 0. -1.
</event>
<event>
 5   0  0.5035495E-04  0.1493342E+04  0.7818609E-02  0.8888892E-01
       -1   -1    0    0    0  501  0.00000000000E+00  0.00000000000E+00  0.49887670016E+03  0.49887670019E+03  0.50400001928E-02 0.  1.
        1   -1    0    0  501    0  0.00000000000E+00  0.00000000000E+00 -0.11175464038E+04  0.11175464038E+04  0.50400001928E-02 0. -1.
    10030    2    1    2    0    0  0.00000000000E+00  0.00000000000E+00 -0.61866970364E+03  0.16164231040E+04  0.14933423750E+04 0.  0.
        4    1    3    3  502    0 -0.38138954150E+02  0.65103127204E+03  0.84255241474E+02  0.65756889800E+03  0.12699999809E+01 0.  1.
       -4    1    3    3    0  502  0.38138954150E+02 -0.65103127204E+03 -0.70292494511E+03  0.95885420600E+03  0.12699999809E+01 0. -1.
</event>
<event>
 5   0  0.9625225E-04  0.1715946E+04  0.7818609E-02  0.8752322E-01
        2   -1    0    0  501    0  0.00000000000E+00  0.00000000000E+00  0.11004261214E+04  0.11004261214E+04  0.25500000920E-02 0. -1.
       -2   -1    0    0    0  501  0.00000000000E+00  0.00000000000E+00 -0.66893890986E+03  0.66893890986E+03  0.25500000920E-02 0.  1.
    10030    2    1    2    0    0  0.00000000000E+00  0.00000000000E+00  0.43148721154E+03  0.17693650313E+04  0.17159462113E+04 0.  0.
        1    1    3    3  502    0  0.66631570214E+03 -0.37799253175E+03  0.61411640722E+03  0.98183192585E+03  0.50400001928E-02 0.  1.
       -1    1    3    3    0  502 -0.66631570214E+03  0.37799253175E+03 -0.18262919569E+03  0.78753310541E+03  0.50400001928E-02 0. -1.
</event>
<event>
 5   0  0.1007187E-03  0.1653259E+04  0.7818609E-02  0.8788481E-01
        2   -1    0    0  501    0  0.00000000000E+00  0.00000000000E+00  0.19314598690E+04  0.19314598690E+04  0.25500000920E-02 0.  1.
       -2   -1    0    0    0  501  0.00000000000E+00  0.00000000000E+00 -0.35378226334E+03  0.35378226335E+03  0.25500000920E-02 0. -1.
    10030    2    1    2    0    0  0.00000000000E+00  0.00000000000E+00  0.15776776057E+04  0.22852421324E+04  0.16532588957E+04 0.  0.
        5    1    3    3  502    0 -0.50630560102E+03  0.63490851383E+03  0.10022632769E+04  0.12899643207E+04  0.46999998093E+01 0.  1.
       -5    1    3    3    0  502  0.50630560102E+03 -0.63490851383E+03  0.57541432875E+03  0.99527781161E+03  0.46999998093E+01 0. -1.
</event>
<event>
 5   0  0.9284971E-04  0.1749949E+04  0.7818609E-02  0.8733379E-01
       -2   -1    0    0    0  501  0.00000000000E+00  0.00000000000E+00  0.97014134026E+03  0.97014134026E+03  0.25500000920E-02 0. -1.
        2   -1    0    0  501    0  0.00000000000E+00  0.00000000000E+00 -0.78914270449E+03  0.78914270450E+03  0.25500000920E-02 0.  1.
    10030    2    1    2    0    0  0.00000000000E+00  0.00000000000E+00  0.18099863576E+03  0.17592840448E+04  0.17499485261E+04 0.  0.
        4    1    3    3  502    0 -0.38718976845E+03 -0.11322596242E+03 -0.69007193581E+03  0.79933530189E+03  0.12699999809E+01 0.  1.
       -4    1    3    3    0  502  0.38718976845E+03  0.11322596242E+03  0.87107057158E+03  0.95994874286E+03  0.12699999809E+01 0. -1.
</event>
<event>
 5   0  0.9312096E-04  0.1758475E+04  0.7818609E-02  0.8728699E-01
       -2   -1    0    0    0  501  0.00000000000E+00  0.00000000000E+00  0.99742004382E+03  0.99742004383E+03  0.25500000920E-02 0.  1.
        2   -1    0    0  501    0  0.00000000000E+00  0.00000000000E+00 -0.77505859256E+03  0.77505859257E+03  0.25500000920E-02 0. -1.
    10030    2    1    2    0    0  0.00000000000E+00  0.00000000000E+00  0.22236145126E+03  0.17724786364E+04  0.17584754481E+04 0.  0.
        3    1    3    3  502    0  0.70093107597E+03  0.27687401910E+03 -0.34530019258E+03  0.82897275523E+03  0.10100000352E+00 0. -1.
       -3    1    3    3    0  502 -0.70093107597E+03 -0.27687401910E+03  0.56766164383E+03  0.94350588117E+03  0.10100000352E+00 0.  1.
</event>
<event>
 5   0  0.1007187E-03  0.1740100E+04  0.7818609E-02  0.8738819E-01
       -2   -1    0    0    0  501  0.00000000000E+00  0.00000000000E+00  0.60193092399E+03  0.60193092400E+03  0.25500000920E-02 0. -1.
        2   -1    0    0  501    0  0.00000000000E+00  0.00000000000E+00 -0.12575980958E+04  0.12575980958E+04  0.25500000920E-02 0.  1.
    10030    2    1    2    0    0  0.00000000000E+00  0.00000000000E+00 -0.65566717185E+03  0.18595290198E+04  0.17401002084E+04 0.  0.
        5    1    3    3  502    0 -0.51268708081E+03 -0.38622116267E+03 -0.95546828028E+03  0.11510675714E+04  0.46999998093E+01 0.  1.
       -5    1    3    3    0  502  0.51268708081E+03  0.38622116267E+03  0.29980110843E+03  0.70846144844E+03  0.46999998093E+01 0. -1.
</event>
<event>
 5   0  0.5035495E-04  0.1688585E+04  0.7818609E-02  0.8767902E-01
        1   -1    0    0  501    0  0.00000000000E+00  0.00000000000E+00  0.10437361723E+04  0.10437361723E+04  0.50400001928E-02 0. -1.
       -1   -1    0    0    0  501  0.00000000000E+00  0.00000000000E+00 -0.68295943357E+03  0.68295943359E+03  0.50400001928E-02 0.  1.
    10030    2    1    2    0    0  0.00000000000E+00  0.00000000000E+00  0.36077673872E+03  0.17266956059E+04  0.16885845730E+04 0.  0.
        4    1    3    3  502    0 -0.20291894779E+03  0.39745796455E+03  0.91327844059E+03  0.10164782614E+04  0.12699999809E+01 0. -1.
       -4    1    3    3    0  502  0.20291894779E+03 -0.39745796455E+03 -0.55250170187E+03  0.71021734449E+03  0.12699999809E+01 0.  1.
</event>
<event>
 5   0  0.5009762E-04  0.1657103E+04  0.7818609E-02  0.8786216E-01
       -1   -1    0    0    0  501  0.00000000000E+00  0.00000000000E+00  0.80997410829E+03  0.80997410831E+03  0.50400001928E-02 0. -1.
        1   -1    0    0  501    0  0.00000000000E+00  0.00000000000E+00 -0.84755478035E+03  0.84755478037E+03  0.50400001928E-02 0.  1.
    10030    2    1    2    0    0  0.00000000000E+00  0.00000000000E+00 -0.37580672058E+02  0.16575288887E+04  0.16571028061E+04 0.  0.
        3    1    3    3  502    0 -0.64846195672E+03  0.32591024747E+03  0.38103361830E+03  0.81969935171E+03  0.10100000352E+00 0. -1.
       -3    1    3    3    0  502  0.64846195672E+03 -0.32591024747E+03 -0.41861429035E+03  0.83782953697E+03  0.10100000352E+00 0.  1.
</event>
<event>
 5   0  0.5059689E-04  0.1753373E+04  0.7818609E-02  0.8731496E-01
        1   -1    0    0  501    0  0.00000000000E+00  0.00000000000E+00  0.12210842160E+04  0.12210842160E+04  0.50400001928E-02 0. -1.
       -1   -1    0    0    0  501  0.00000000000E+00  0.00000000000E+00 -0.62942330156E+03  0.62942330158E+03  0.50400001928E-02 0.  1.
    10030    2    1    2    0    0  0.00000000000E+00  0.00000000000E+00  0.59166091440E+03  0.18505075176E+04  0.17533725887E+04 0.  0.
        5    1    3    3  502    0  0.15963448314E+03 -0.14136300173E+02  0.12054800968E+04  0.12160951266E+04  0.46999998093E+01 0. -1.
       -5    1    3    3    0  502 -0.15963448314E+03  0.14136300173E+02 -0.61381918236E+03  0.63441239098E+03  0.46999998093E+01 0.  1.
</event>
<event>
 5   0  0.9625225E-04  0.1693845E+04  0.7818609E-02  0.8764882E-01
       -2   -1    0    0    0  501  0.00000000000E+00  0.00000000000E+00  0.66259634090E+03  0.66259634090E+03  0.25500000920E-02 0. -1.
        2   -1    0    0  501    0  0.00000000000E+00  0.00000000000E+00 -0.10825261678E+04  0.10825261678E+04  0.25500000920E-02 0.  1.
    10030    2    1    2    0    0  0.00000000000E+00  0.00000000000E+00 -0.41992982688E+03  0.17451225087E+04  0.16938451850E+04 0.  0.
        1    1    3    3  502    0  0.46813766889E+03 -0.51822533270E+03  0.28367175600E+03  0.75377718038E+03  0.50400001928E-02 0. -1.
       -1    1    3    3    0  502 -0.46813766889E+03  0.51822533270E+03 -0.70360158287E+03  0.99134532830E+03  0.50400001928E-02 0.  1.
</event>
<event>
 5   0  0.1007187E-03  0.1751165E+04  0.7818609E-02  0.8732710E-01
        2   -1    0    0  501    0  0.00000000000E+00  0.00000000000E+00  0.17377154374E+04  0.17377154374E+04  0.25500000920E-02 0.  1.
       -2   -1    0    0    0  501  0.00000000000E+00  0.00000000000E+00 -0.44117946720E+03  0.44117946721E+03  0.25500000920E-02 0. -1.
    10030    2    1    2    0    0  0.00000000000E+00  0.00000000000E+00  0.12965359702E+04  0.21788949046E+04  0.17511646077E+04 0.  0.
        5    1    3    3  502    0 -0.55580421903E+03 -0.59067732393E+03  0.10586915060E+04  0.13336670596E+04  0.46999998093E+01 0.  1.
       -5    1    3    3    0  502  0.55580421903E+03  0.59067732393E+03  0.23784446419E+03  0.84522784505E+03  0.46999998093E+01 0. -1.
</event>
<event>
 5   0  0.5059689E-04  0.1847093E+04  0.7818609E-02  0.8681649E-01
       -1   -1    0    0    0  501  0.00000000000E+00  0.00000000000E+00  0.64968602999E+03  0.64968603001E+03  0.50400001928E-02 0.  1.
        1   -1    0    0  501    0  0.00000000000E+00  0.00000000000E+00 -0.13128471634E+04  0.13128471634E+04  0.50400001928E-02 0. -1.
    10030    2    1    2    0    0  0.00000000000E+00  0.00000000000E+00 -0.66316113342E+03  0.19625331934E+04  0.18470933508E+04 0.  0.
        5    1    3    3  502    0 -0.30059023995E+03 -0.68342427597E+03 -0.90914689503E+03  0.11764324885E+04  0.46999998093E+01 0. -1.
       -5    1    3    3    0  502  0.30059023995E+03  0.68342427597E+03  0.24598576161E+03  0.78610070491E+03  0.46999998093E+01 0.  1.
</event>
<event>
 5   0  0.5074133E-04  0.1690829E+04  0.7818609E-02  0.8766612E-01
       -1   -1    0    0    0  501  0.00000000000E+00  0.00000000000E+00  0.38587889759E+03  0.38587889762E+03  0.50400001928E-02 0.  1.
        1   -1    0    0  501    0  0.00000000000E+00  0.00000000000E+00 -0.18522030506E+04  0.18522030506E+04  0.50400001928E-02 0. -1.
    10030    2    1    2    0    0  0.00000000000E+00  0.00000000000E+00 -0.14663241530E+04  0.22380819483E+04  0.16908294667E+04 0.  0.
        1    1    3    3  502    0 -0.53617490505E+02 -0.14925031505E+03  0.36601360927E+03  0.39889403860E+03  0.50400001928E-02 0.  1.
       -1    1    3    3    0  502  0.53617490505E+02  0.14925031505E+03 -0.18323377623E+04  0.18391879097E+04  0.50400001928E-02 0. -1.
</event>
<event>
 5   0  0.9284971E-04  0.1708800E+04  0.7818609E-02  0.8756361E-01
       -2   -1    0    0    0  501  0.00000000000E+00  0.00000000000E+00  0.69173424690E+03  0.69173424691E+03  0.25500000920E-02 0.  1.
        2   -1    0    0  501    0  0.00000000000E+00  0.00000000000E+00 -0.10553174561E+04  0.10553174561E+04  0.25500000920E-02 0. -1.
    10030    2    1    2    0    0  0.00000000000E+00  0.00000000000E+00 -0.36358320917E+03  0.17470517030E+04  0.17087998428E+04 0.  0.
        4    1    3    3  502    0 -0.55401306575E+03 -0.16070342355E+02  0.48300166257E+03  0.73517409630E+03  0.12699999809E+01 0.  1.
       -4    1    3    3    0  502  0.55401306575E+03  0.16070342355E+02 -0.84658487174E+03  0.10118776067E+04  0.12699999809E+01 0. -1.
</event>
<event>
 5   0  0.5074133E-04  0.1544915E+04  0.7818609E-02  0.8855122E-01
        1   -1    0    0  501    0  0.00000000000E+00  0.00000000000E+00  0.95327890848E+03  0.95327890849E+03  0.50400001928E-02 0.  1.
       -1   -1    0    0    0  501  0.00000000000E+00  0.00000000000E+00 -0.62593474965E+03  0.62593474967E+03  0.50400001928E-02 0. -1.
    10030    2    1    2    0    0  0.00000000000E+00  0.00000000000E+00  0.32734415883E+03  0.15792136582E+04  0.15449147484E+04 0.  0.
        1    1    3    3  502    0  0.32754223915E+03  0.62219176638E+03  0.49059093825E+03  0.85737155382E+03  0.50400001928E-02 0.  1.
       -1    1    3    3    0  502 -0.32754223915E+03 -0.62219176638E+03 -0.16324677942E+03  0.72184210434E+03  0.50400001928E-02 0. -1.
</event>
<event>
 5   0  0.9284971E-04  0.1525663E+04  0.7818609E-02  0.8867564E-01
        2   -1    0    0  501    0  0.00000000000E+00  0.00000000000E+00  0.16232717871E+04  0.16232717871E+04  0.25500000920E-02 0. -1.
       -2   -1    0    0    0  501  0.00000000000E+00  0.00000000000E+00 -0.35848095272E+03  0.35848095273E+03  0.25500000920E-02 0.  1.
    10030    2    1    2    0    0  0.00000000000E+00  0.00000000000E+00  0.12647908344E+04  0.19817527398E+04  0.15256631565E+04 0.  0.
        4    1    3    3  502    0 -0.21641660275E+02  0.73643716747E+03  0.88925287918E+03  0.11548074987E+04  0.12699999809E+01 0. -1.
       -4    1    3    3    0  502  0.21641660275E+02 -0.73643716747E+03  0.37553795520E+03  0.82694524110E+03  0.12699999809E+01 0.  1.
</event>
<event>
 5   0  0.9625225E-04  0.1863869E+04  0.7818609E-02  0.8673053E-01
       -2   -1    0    0    0  501  0.00000000000E+00  0.00000000000E+00  0.11712666487E+04  0.11712666487E+04  0.25500000920E-02 0. -1.
        2   -1    0    0  501    0  0.00000000000E+00  0.00000000000E+00 -0.74150684966E+03  0.74150684966E+03  0.25500000920E-02 0.  1.
    10030    2    1    2    0    0  0.00000000000E+00  0.00000000000E+00  0.42975979903E+03  0.19127734983E+04  0.18638693546E+04 0.  0.
        1    1    3    3  502    0  0.56012707613E+03  0.39751623595E+03 -0.43152029668E+03  0.81115427986E+03  0.50400001928E-02 0.  1.
       -1    1    3    3    0  502 -0.56012707613E+03 -0.39751623595E+03  0.86128009570E+03  0.11016192185E+04  0.50400001928E-02 0. -1.
</event>
<event>
 5   0  0.3523125E-04  0.1320761E+04  0.7818609E-02  0.9013261E-01
       -4   -1    0    0    0  501  0.00000000000E+00  0.00000000000E+00  0.69070861896E+03  0.69070978653E+03  0.12699999809E+01 0.  1.
        4   -1    0    0  501    0  0.00000000000E+00  0.00000000000E+00 -0.63138215930E+03  0.63138343658E+03  0.12699999809E+01 0. -1.
    10030    2    1    2    0    0  0.00000000000E+00  0.00000000000E+00  0.59326459657E+02  0.13220932231E+04  0.13207614704E+04 0.  0.
        4    1    3    3  502    0  0.65760581632E+03  0.12878198984E+02  0.88797705343E+02  0.66370016050E+03  0.12699999809E+01 0. -1.
       -4    1    3    3    0  502 -0.65760581632E+03 -0.12878198984E+02 -0.29471245686E+02  0.65839306261E+03  0.12699999809E+01 0.  1.
</event>
<event>
 5   0  0.5074133E-04  0.1700701E+04  0.7818609E-02  0.8760964E-01
       -1   -1    0    0    0  501  0.00000000000E+00  0.00000000000E+00  0.92127526669E+03  0.92127526671E+03  0.50400001928E-02 0. -1.
        1   -1    0    0  501    0  0.00000000000E+00  0.00000000000E+00 -0.78488616958E+03  0.78488616960E+03  0.50400001928E-02 0.  1.
    10030    2    1    2    0    0  0.00000000000E+00  0.00000000000E+00  0.13638909711E+03  0.17061614363E+04  0.17007012850E+04 0.  0.
        1    1    3    3  502    0  0.58394163832E+03  0.59868413275E+03  0.22259020512E+03  0.86542297590E+03  0.50400001928E-02 0. -1.
       -1    1    3    3    0  502 -0.58394163832E+03 -0.59868413275E+03 -0.86201108015E+02  0.84073846041E+03  0.50400001928E-02 0.  1.
</event>
<event>
 5   0  0.3523125E-04  0.1736966E+04  0.7818609E-02  0.8740558E-01
       -3   -1    0    0    0  501  0.00000000000E+00  0.00000000000E+00  0.63862598105E+03  0.63862598904E+03  0.10100000352E+00 0. -1.
        3   -1    0    0  501    0  0.00000000000E+00  0.00000000000E+00 -0.11810715249E+04  0.11810715292E+04  0.10100000352E+00 0.  1.
    10030    2    1    2    0    0  0.00000000000E+00  0.00000000000E+00 -0.54244554386E+03  0.18196975183E+04  0.17369662892E+04 0.  0.
        4    1    3    3  502    0  0.42020288385E+03 -0.17566974405E+03  0.50347871780E+03  0.67891292133E+03  0.12699999809E+01 0. -1.
       -4    1    3    3    0  502 -0.42020288385E+03  0.17566974405E+03 -0.10459242617E+04  0.11407845969E+04  0.12699999809E+01 0.  1.
</event>
<event>
 5   0  0.9284971E-04  0.1632678E+04  0.7818609E-02  0.8800720E-01
       -2   -1    0    0    0  501  0.00000000000E+00  0.00000000000E+00  0.60347164526E+03  0.60347164527E+03  0.25500000920E-02 0. -1.
        2   -1    0    0  501    0  0.00000000000E+00  0.00000000000E+00 -0.11042931064E+04  0.11042931064E+04  0.25500000920E-02 0.  1.
    10030    2    1    2    0    0  0.00000000000E+00  0.00000000000E+00 -0.50082146110E+03  0.17077647516E+04  0.16326782632E+04 0.  0.
        4    1    3    3  502    0 -0.48968027610E+03 -0.54598810177E+03 -0.62539213048E+03  0.96384994156E+03  0.12699999809E+01 0.  1.
       -4    1    3    3    0  502  0.48968027610E+03  0.54598810177E+03  0.12457066938E+03  0.74391481007E+03  0.12699999809E+01 0. -1.
</event>
<event>
 5   0  0.5035495E-04  0.1646230E+04  0.7818609E-02  0.8792640E-01
       -1   -1    0    0    0  501  0.00000000000E+00  0.00000000000E+00  0.44387940765E+03  0.44387940768E+03  0.50400001928E-02 0. -1.
        1   -1    0    0  501    0  0.00000000000E+00  0.00000000000E+00 -0.15263560234E+04  0.15263560234E+04  0.50400001928E-02 0.  1.
    10030    2    1    2    0    0  0.00000000000E+00  0.00000000000E+00 -0.10824766157E+04  0.19702354311E+04  0.16462296408E+04 0.  0.
        4    1    3    3  502    0 -0.16342017986E+03  0.51214656702E+03 -0.12872269868E+04  0.13949749782E+04  0.12699999809E+01 0.  1.
       -4    1    3    3    0  502  0.16342017986E+03 -0.51214656702E+03  0.20475037108E+03  0.57526045289E+03  0.12699999809E+01 0. -1.
</event>
<event>
 5   0  0.9284971E-04  0.1710636E+04  0.7818609E-02  0.8755321E-01
       -2   -1    0    0    0  501  0.00000000000E+00  0.00000000000E+00  0.13564975523E+04  0.13564975523E+04  0.25500000920E-02 0. -1.
        2   -1    0    0  501    0  0.00000000000E+00  0.00000000000E+00 -0.53930717423E+03  0.53930717424E+03  0.25500000920E-02 0.  1.
    10030    2    1    2    0    0  0.00000000000E+00  0.00000000000E+00  0.81719037806E+03  0.18958047265E+04  0.17106359774E+04 0.  0.
        4    1    3    3  502    0 -0.16188610123E+03  0.77677249014E+03  0.54676596090E+02  0.79534505359E+03  0.12699999809E+01 0.  1.
       -4    1    3    3    0  502  0.16188610123E+03 -0.77677249014E+03  0.76251378197E+03  0.11004596730E+04  0.12699999809E+01 0. -1.
</event>
<event>
 5   0  0.4947006E-04  0.1233221E+04  0.7818609E-02  0.9084265E-01
        1   -1    0    0  501    0  0.00000000000E+00  0.00000000000E+00  0.46368525591E+03  0.46368525594E+03  0.50400001928E-02 0.  1.
       -1   -1    0    0    0  501  0.00000000000E+00  0.00000000000E+00 -0.81997125090E+03  0.81997125092E+03  0.50400001928E-02 0. -1.
    10030    2    1    2    0    0  0.00000000000E+00  0.00000000000E+00 -0.35628599499E+03  0.12836565069E+04  0.12332211146E+04 0.  0.
        2    1    3    3  502    0  0.21184934348E+03 -0.37747929088E+03 -0.63523537736E+03  0.76869678289E+03  0.25500000920E-02 0. -1.
       -2    1    3    3    0  502 -0.21184934348E+03  0.37747929088E+03  0.27894938237E+03  0.51495972397E+03  0.25500000920E-02 0.  1.
</event>
<event>
 5   0  0.9625225E-04  0.1607920E+04  0.7818609E-02  0.8815697E-01
        2   -1    0    0  501    0  0.00000000000E+00  0.00000000000E+00  0.12344099748E+04  0.12344099748E+04  0.25500000920E-02 0.  1.
       -2   -1    0    0    0  501  0.00000000000E+00  0.00000000000E+00 -0.52361205268E+03  0.52361205268E+03  0.25500000920E-02 0. -1.
    10030    2    1    2    0    0  0.00000000000E+00  0.00000000000E+00  0.71079792209E+03  0.17580220275E+04  0.16079203223E+04 0.  0.
        1    1    3    3  502    0 -0.12431793823E+03  0.74307979472E+03  0.66217983864E+03  0.10030476907E+04  0.50400001928E-02 0.  1.
       -1    1    3    3    0  502  0.12431793823E+03 -0.74307979472E+03  0.48618083452E+02  0.75497433675E+03  0.50400001928E-02 0. -1.
</event>
<event>
 5   0  0.5009762E-04  0.1760188E+04  0.7818609E-02  0.8727762E-01
       -1   -1    0    0    0  501  0.00000000000E+00  0.00000000000E+00  0.82031658962E+03  0.82031658963E+03  0.50400001928E-02 0.  1.
        1   -1    0    0  501    0  0.00000000000E+00  0.00000000000E+00 -0.94422770236E+03  0.94422770237E+03  0.50400001928E-02 0. -1.
    10030    2    1    2    0    0  0.00000000000E+00  0.00000000000E+00 -0.12391111274E+03  0.17645442920E+04  0.17601882270E+04 0.  0.
        3    1    3    3  502    0 -0.26515505312E+03  0.70066433904E+03 -0.52497294568E+03  0.91478648989E+03  0.10100000352E+00 0. -1.
       -3    1    3    3    0  502  0.26515505312E+03 -0.70066433904E+03  0.40106183294E+03  0.84975780211E+03  0.10100000352E+00 0.  1.
</event>
<event>
 5   0  0.5074133E-04  0.1671524E+04  0.7818609E-02  0.8777774E-01
       -1   -1    0    0    0  501  0.00000000000E+00  0.00000000000E+00  0.61358140930E+03  0.61358140932E+03  0.50400001928E-02 0. -1.
        1   -1    0    0  501    0  0.00000000000E+00  0.00000000000E+00 -0.11383949277E+04  0.11383949277E+04  0.50400001928E-02 0.  1.
    10030    2    1    2    0    0  0.00000000000E+00  0.00000000000E+00 -0.52481351836E+03  0.17519763370E+04  0.16715238127E+04 0.  0.
        1    1    3    3  502    0 -0.76723819774E+03  0.32285976969E+02  0.83319499502E+02  0.77242409039E+03  0.50400001928E-02 0. -1.
       -1    1    3    3    0  502  0.76723819774E+03 -0.32285976969E+02 -0.60813301786E+03  0.97955224660E+03  0.50400001928E-02 0.  1.
</event>
<event>
 5   0  0.5009762E-04  0.1726279E+04  0.7818609E-02  0.8746517E-01
       -1   -1    0    0    0  501  0.00000000000E+00  0.00000000000E+00  0.89693029341E+03  0.89693029342E+03  0.50400001928E-02 0.  1.
        1   -1    0    0  501    0  0.00000000000E+00  0.00000000000E+00 -0.83062194352E+03  0.83062194354E+03  0.50400001928E-02 0. -1.
    10030    2    1    2    0    0  0.00000000000E+00  0.00000000000E+00  0.66308349888E+02  0.17275522370E+04  0.17262792167E+04 0.  0.
        3    1    3    3  502    0  0.70179390476E+03  0.46490179214E+03  0.22398200502E+03  0.87110063131E+03  0.10100000352E+00 0.  1.
       -3    1    3    3    0  502 -0.70179390476E+03 -0.46490179214E+03 -0.15767365513E+03  0.85645160565E+03  0.10100000352E+00 0. -1.
</event>
<event>
 5   0  0.9312096E-04  0.1721809E+04  0.7818609E-02  0.8749023E-01
        2   -1    0    0  501    0  0.00000000000E+00  0.00000000000E+00  0.18073105431E+04  0.18073105431E+04  0.25500000920E-02 0.  1.
       -2   -1    0    0    0  501  0.00000000000E+00  0.00000000000E+00 -0.41008806404E+03  0.41008806405E+03  0.25500000920E-02 0. -1.
    10030    2    1    2    0    0  0.00000000000E+00  0.00000000000E+00  0.13972224790E+04  0.22173986071E+04  0.17218089113E+04 0.  0.
        3    1    3    3  502    0  0.68438415691E+03  0.51615028331E+03  0.59587750738E+03  0.10439649435E+04  0.10100000352E+00 0.  1.
       -3    1    3    3    0  502 -0.68438415691E+03 -0.51615028331E+03  0.80134497166E+03  0.11734336637E+04  0.10100000352E+00 0. -1.
</event>
<event>
 5   0  0.9610114E-04  0.1695665E+04  0.7818609E-02  0.8763841E-01
       -2   -1    0    0    0  501  0.00000000000E+00  0.00000000000E+00  0.35849029847E+03  0.35849029848E+03  0.25500000920E-02 0.  1.
        2   -1    0    0  501    0  0.00000000000E+00  0.00000000000E+00 -0.20051310261E+04  0.20051310261E+04  0.25500000920E-02 0. -1.
    10030    2    1    2    0    0  0.00000000000E+00  0.00000000000E+00 -0.16466407276E+04  0.23636213246E+04  0.16956650849E+04 0.  0.
        2    1    3    3  502    0  0.25143711937E+02  0.68981351078E+03 -0.15095270950E+04  0.16598635294E+04  0.25500000920E-02 0.  1.
       -2    1    3    3    0  502 -0.25143711937E+02 -0.68981351078E+03 -0.13711363262E+03  0.70375779510E+03  0.25500000920E-02 0. -1.
</event>
<event>
 5   0  0.5035495E-04  0.1701472E+04  0.7818609E-02  0.8760525E-01
       -1   -1    0    0    0  501  0.00000000000E+00  0.00000000000E+00  0.45399058929E+03  0.45399058932E+03  0.50400001928E-02 0. -1.
        1   -1    0    0  501    0  0.00000000000E+00  0.00000000000E+00 -0.15941992497E+04  0.15941992497E+04  0.50400001928E-02 0.  1.
    10030    2    1    2    0    0  0.00000000000E+00  0.00000000000E+00 -0.11402086604E+04  0.20481898390E+04  0.17014716652E+04 0.  0.
        4    1    3    3  502    0 -0.56871499827E+03  0.24231833827E+03 -0.12736644050E+04  0.14157604161E+04  0.12699999809E+01 0.  1.
       -4    1    3    3    0  502  0.56871499827E+03 -0.24231833827E+03  0.13345574459E+03  0.63242942293E+03  0.12699999809E+01 0. -1.
</event>
<event>
 5   0  0.9625225E-04  0.1791822E+04  0.7818609E-02  0.8710661E-01
       -2   -1    0    0    0  501  0.00000000000E+00  0.00000000000E+00  0.56516791324E+03  0.56516791325E+03  0.25500000920E-02 0. -1.
        2   -1    0    0  501    0  0.00000000000E+00  0.00000000000E+00 -0.14202082429E+04  0.14202082429E+04  0.25500000920E-02 0.  1.
    10030    2    1    2    0    0  0.00000000000E+00  0.00000000000E+00 -0.85504032965E+03  0.19853761561E+04  0.17918215637E+04 0.  0.
        1    1    3    3  502    0 -0.99991967851E+01  0.68090499838E+03 -0.10725793195E+04  0.12704951780E+04  0.50400001928E-02 0.  1.
       -1    1    3    3    0  502  0.99991967851E+01 -0.68090499838E+03  0.21753898984E+03  0.71488097812E+03  0.50400001928E-02 0. -1.
</event>
<event>
 5   0  0.1007187E-03  0.1689331E+04  0.7818609E-02  0.8767473E-01
        2   -1    0    0  501    0  0.00000000000E+00  0.00000000000E+00  0.64804303451E+03  0.64804303451E+03  0.25500000920E-02 0.  1.
       -2   -1    0    0    0  501  0.00000000000E+00  0.00000000000E+00 -0.11009454387E+04  0.11009454387E+04  0.25500000920E-02 0. -1.
    10030    2    1    2    0    0  0.00000000000E+00  0.00000000000E+00 -0.45290240415E+03  0.17489884732E+04  0.16893312557E+04 0.  0.
        5    1    3    3  502    0  0.22747561698E+03 -0.80462393940E+03 -0.35014022913E+03  0.90652364020E+03  0.46999998093E+01 0. -1.
       -5    1    3    3    0  502 -0.22747561698E+03  0.80462393940E+03 -0.10276217502E+03  0.84246483297E+03  0.46999998093E+01 0.  1.
</event>
<event>
 5   0  0.5035495E-04  0.1889442E+04  0.7818609E-02  0.8660130E-01
       -1   -1    0    0    0  501  0.00000000000E+00  0.00000000000E+00  0.76259647408E+03  0.76259647410E+03  0.50400001928E-02 0.  1.
        1   -1    0    0  501    0  0.00000000000E+00  0.00000000000E+00 -0.11703412305E+04  0.11703412305E+04  0.50400001928E-02 0. -1.
    10030    2    1    2    0    0  0.00000000000E+00  0.00000000000E+00 -0.40774475645E+03  0.19329377046E+04  0.18894423473E+04 0.  0.
        4    1    3    3  502    0 -0.39912086733E+03 -0.98526855452E+02  0.66629124118E+03  0.78291164186E+03  0.12699999809E+01 0.  1.
       -4    1    3    3    0  502  0.39912086733E+03  0.98526855452E+02 -0.10740359976E+04  0.11500260628E+04  0.12699999809E+01 0. -1.
</event>
<event>
 5   0  0.9625225E-04  0.1627725E+04  0.7818609E-02  0.8803694E-01
        2   -1    0    0  501    0  0.00000000000E+00  0.00000000000E+00  0.12756622306E+04  0.12756622306E+04  0.25500000920E-02 0. -1.
       -2   -1    0    0    0  501  0.00000000000E+00  0.00000000000E+00 -0.51923762416E+03  0.51923762417E+03  0.25500000920E-02 0.  1.
    10030    2    1    2    0    0  0.00000000000E+00  0.00000000000E+00  0.75642460644E+03  0.17948998548E+04  0.16277245785E+04 0.  0.
        1    1    3    3  502    0 -0.53394336742E+03 -0.42770454704E+03 -0.10791065103E+03  0.69258314144E+03  0.50400001928E-02 0.  1.
       -1    1    3    3    0  502  0.53394336742E+03  0.42770454704E+03  0.86433525748E+03  0.11023167133E+04  0.50400001928E-02 0. -1.
</event>
<event>
 5   0  0.5074133E-04  0.1553588E+04  0.7818609E-02  0.8849579E-01
       -1   -1    0    0    0  501  0.00000000000E+00  0.00000000000E+00  0.58206757158E+03  0.58206757161E+03  0.50400001928E-02 0.  1.
        1   -1    0    0  501    0  0.00000000000E+00  0.00000000000E+00 -0.10366649570E+04  0.10366649570E+04  0.50400001928E-02 0. -1.
    10030    2    1    2    0    0  0.00000000000E+00  0.00000000000E+00 -0.45459738538E+03  0.16187325286E+04  0.15535881746E+04 0.  0.
        1    1    3    3  502    0 -0.49631939359E+03 -0.53414662391E+03  0.51821326435E+02  0.73097948410E+03  0.50400001928E-02 0. -1.
       -1    1    3    3    0  502  0.49631939359E+03  0.53414662391E+03 -0.50641871182E+03  0.88775304448E+03  0.50400001928E-02 0.  1.
</event>
<event>
 5   0  0.9625225E-04  0.1695149E+04  0.7818609E-02  0.8764136E-01
       -2   -1    0    0    0  501  0.00000000000E+00  0.00000000000E+00  0.30239220988E+03  0.30239220989E+03  0.25500000920E-02 0.  1.
        2   -1    0    0  501    0  0.00000000000E+00  0.00000000000E+00 -0.23756636520E+04  0.23756636520E+04  0.25500000920E-02 0. -1.
    10030    2    1    2    0    0  0.00000000000E+00  0.00000000000E+00 -0.20732714421E+04  0.26780558619E+04  0.16951485854E+04 0.  0.
        1    1    3    3  502    0 -0.26674119043E+03  0.76590490115E+03 -0.14256122649E+04  0.16401620378E+04  0.50400001928E-02 0. -1.
       -1    1    3    3    0  502  0.26674119043E+03 -0.76590490115E+03 -0.64765917724E+03  0.10378938241E+04  0.50400001928E-02 0.  1.
</event>
<event>
 5   0  0.5035495E-04  0.1752920E+04  0.7818609E-02  0.8731745E-01
        1   -1    0    0  501    0  0.00000000000E+00  0.00000000000E+00  0.13678328798E+04  0.13678328798E+04  0.50400001928E-02 0.  1.
       -1   -1    0    0    0  501  0.00000000000E+00  0.00000000000E+00 -0.56160523381E+03  0.56160523383E+03  0.50400001928E-02 0. -1.
    10030    2    1    2    0    0  0.00000000000E+00  0.00000000000E+00  0.80622764596E+03  0.19294381136E+04  0.17529199688E+04 0.  0.
        4    1    3    3  502    0  0.29530126085E+03 -0.22976884062E+03 -0.46927918905E+03  0.60018424251E+03  0.12699999809E+01 0. -1.
       -4    1    3    3    0  502 -0.29530126085E+03  0.22976884062E+03  0.12755068350E+04  0.13292538711E+04  0.12699999809E+01 0.  1.
</event>
<event>
 5   0  0.9610114E-04  0.1563638E+04  0.7818609E-02  0.8843204E-01
        2   -1    0    0  501    0  0.00000000000E+00  0.00000000000E+00  0.10355320053E+04  0.10355320053E+04  0.25500000920E-02 0. -1.
       -2   -1    0    0    0  501  0.00000000000E+00  0.00000000000E+00 -0.59026721275E+03  0.59026721276E+03  0.25500000920E-02 0.  1.
    10030    2    1    2    0    0  0.00000000000E+00  0.00000000000E+00  0.44526479259E+03  0.16257992181E+04  0.15636375418E+04 0.  0.
        2    1    3    3  502    0 -0.65526473165E+02 -0.32256290307E+03 -0.51471416429E+03  0.61095925891E+03  0.25500000920E-02 0.  1.
       -2    1    3    3    0  502  0.65526473165E+02  0.32256290307E+03  0.95997895688E+03  0.10148399592E+04  0.25500000920E-02 0. -1.
</event>
<event>
 5   0  0.9610114E-04  0.1727301E+04  0.7818609E-02  0.8745945E-01
       -2   -1    0    0    0  501  0.00000000000E+00  0.00000000000E+00  0.42770962750E+03  0.42770962751E+03  0.25500000920E-02 0. -1.
        2   -1    0    0  501    0  0.00000000000E+00  0.00000000000E+00 -0.17439222900E+04  0.17439222900E+04  0.25500000920E-02 0.  1.
    10030    2    1    2    0    0  0.00000000000E+00  0.00000000000E+00 -0.13162126625E+04  0.21716319175E+04  0.17273011932E+04 0.  0.
        2    1    3    3  502    0 -0.57635442904E+03  0.41122165721E+03 -0.12799060461E+04  0.14626849169E+04  0.25500000920E-02 0. -1.
       -2    1    3    3    0  502  0.57635442904E+03 -0.41122165721E+03 -0.36306616353E+02  0.70894700058E+03  0.25500000920E-02 0.  1.
</event>
<event>
 5   0  0.5035495E-04  0.1661392E+04  0.7818609E-02  0.8783696E-01
        1   -1    0    0  501    0  0.00000000000E+00  0.00000000000E+00  0.90489077850E+03  0.90489077851E+03  0.50400001928E-02 0. -1.
       -1   -1    0    0    0  501  0.00000000000E+00  0.00000000000E+00 -0.76258465317E+03  0.76258465318E+03  0.50400001928E-02 0.  1.
    10030    2    1    2    0    0  0.00000000000E+00  0.00000000000E+00  0.14230612533E+03  0.16674754317E+04  0.16613919712E+04 0.  0.
        4    1    3    3  502    0  0.47824851548E+03 -0.39229704777E+03  0.62765208831E+03  0.88123060155E+03  0.12699999809E+01 0. -1.
       -4    1    3    3    0  502 -0.47824851548E+03  0.39229704777E+03 -0.48534596298E+03  0.78624483014E+03  0.12699999809E+01 0.  1.
</event>
<event>
 5   0  0.5059689E-04  0.1698477E+04  0.7818609E-02  0.8762233E-01
        1   -1    0    0  501    0  0.00000000000E+00  0.00000000000E+00  0.51220011951E+03  0.51220011953E+03  0.50400001928E-02 0. -1.
       -1   -1    0    0    0  501  0.00000000000E+00  0.00000000000E+00 -0.14080552519E+04  0.14080552519E+04  0.50400001928E-02 0.  1.
    10030    2    1    2    0    0  0.00000000000E+00  0.00000000000E+00 -0.89585513239E+03  0.19202553714E+04  0.16984770453E+04 0.  0.
        5    1    3    3  502    0  0.47927843660E+02  0.84723800138E+03 -0.41086489650E+03  0.94283686943E+03  0.46999998093E+01 0.  1.
       -5    1    3    3    0  502 -0.47927843660E+02 -0.84723800138E+03 -0.48499023589E+03  0.97741850202E+03  0.46999998093E+01 0. -1.
</event>
<event>
 5   0  0.4947006E-04  0.1755565E+04  0.7818609E-02  0.8730293E-01
        1   -1    0    0  501    0  0.00000000000E+00  0.00000000000E+00  0.83227764506E+03  0.83227764508E+03  0.50400001928E-02 0.  1.
       -1   -1    0    0    0  501  0.00000000000E+00  0.00000000000E+00 -0.92577541599E+03  0.92577541601E+03  0.50400001928E-02 0. -1.
    10030    2    1    2    0    0  0.00000000000E+00  0.00000000000E+00 -0.93497770930E+02  0.17580530611E+04  0.17555650750E+04 0.  0.
        2    1    3    3  502    0  0.74005010059E+03 -0.11687149948E+02  0.42582183511E+03  0.85389400755E+03  0.25500000920E-02 0.  1.
       -2    1    3    3    0  502 -0.74005010059E+03  0.11687149948E+02 -0.51931960604E+03  0.90415905353E+03  0.25500000920E-02 0. -1.
</event>
<event>
 5   0  0.9312096E-04  0.1687091E+04  0.7818609E-02  0.8768761E-01
       -2   -1    0    0    0  501  0.00000000000E+00  0.00000000000E+00  0.72747694066E+03  0.72747694066E+03  0.25500000920E-02 0. -1.
        2   -1    0    0  501    0  0.00000000000E+00  0.00000000000E+00 -0.97813227881E+03  0.97813227881E+03  0.25500000920E-02 0.  1.
    10030    2    1    2    0    0  0.00000000000E+00  0.00000000000E+00 -0.25065533815E+03  0.17056092195E+04  0.16870906055E+04 0.  0.
        3    1    3    3  502    0 -0.85089713009E+02 -0.54080104434E+03  0.52348201968E+03  0.75745591551E+03  0.10100000352E+00 0. -1.
       -3    1    3    3    0  502  0.85089713009E+02  0.54080104434E+03 -0.77413735783E+03  0.94815330396E+03  0.10100000352E+00 0.  1.
</event>
<event>
 5   0  0.4947006E-04  0.1648815E+04  0.7818609E-02  0.8791108E-01
       -1   -1    0    0    0  501  0.00000000000E+00  0.00000000000E+00  0.31670222157E+03  0.31670222161E+03  0.50400001928E-02 0.  1.
        1   -1    0    0  501    0  0.00000000000E+00  0.00000000000E+00 -0.21460160639E+04  0.21460160639E+04  0.50400001928E-02 0. -1.
    10030    2    1    2    0    0  0.00000000000E+00  0.00000000000E+00 -0.18293138423E+04  0.24627182855E+04  0.16488153990E+04 0.  0.
        2    1    3    3  502    0 -0.69484402261E+02  0.81031994228E+03 -0.71314671198E+03  0.10816768112E+04  0.25500000920E-02 0. -1.
       -2    1    3    3    0  502  0.69484402261E+02 -0.81031994228E+03 -0.11161671303E+04  0.13810414744E+04  0.25500000920E-02 0.  1.
</event>
<event>
 5   0  0.5074133E-04  0.1668328E+04  0.7818609E-02  0.8779637E-01
        1   -1    0    0  501    0  0.00000000000E+00  0.00000000000E+00  0.91812548660E+03  0.91812548661E+03  0.50400001928E-02 0.  1.
       -1   -1    0    0    0  501  0.00000000000E+00  0.00000000000E+00 -0.75788058687E+03  0.75788058689E+03  0.50400001928E-02 0. -1.
    10030    2    1    2    0    0  0.00000000000E+00  0.00000000000E+00  0.16024489973E+03  0.16760060735E+04  0.16683278846E+04 0.  0.
        1    1    3    3  502    0 -0.43754437960E+03 -0.68918928268E+03 -0.92138381392E+02  0.82153297732E+03  0.50400001928E-02 0. -1.
       -1    1    3    3    0  502  0.43754437960E+03  0.68918928268E+03  0.25238328112E+03  0.85447309618E+03  0.50400001928E-02 0.  1.
</event>
<event>
 5   0  0.9625225E-04  0.1707743E+04  0.7818609E-02  0.8756961E-01
        2   -1    0    0  501    0  0.00000000000E+00  0.00000000000E+00  0.72609074896E+03  0.72609074896E+03  0.25500000920E-02 0. -1.
       -2   -1    0    0    0  501  0.00000000000E+00  0.00000000000E+00 -0.10041395215E+04  0.10041395215E+04  0.25500000920E-02 0.  1.
    10030    2    1    2    0    0  0.00000000000E+00  0.00000000000E+00 -0.27804877250E+03  0.17302302704E+04  0.17077428579E+04 0.  0.
        1    1    3    3  502    0  0.51147324138E+03 -0.65006387200E+02 -0.82862320039E+03  0.97593397075E+03  0.50400001928E-02 0.  1.
       -1    1    3    3    0  502 -0.51147324138E+03  0.65006387200E+02  0.55057442789E+03  0.75429629967E+03  0.50400001928E-02 0. -1.
</event>
<event>
 5   0  0.3523125E-04  0.1714772E+04  0.7818609E-02  0.8752984E-01
       -3   -1    0    0    0  501  0.00000000000E+00  0.00000000000E+00  0.44010029957E+03  0.44010031116E+03  0.10100000352E+00 0.  1.
        3   -1    0    0  501    0  0.00000000000E+00  0.00000000000E+00 -0.16703258501E+04  0.16703258531E+04  0.10100000352E+00 0. -1.
    10030    2    1    2    0    0  0.00000000000E+00  0.00000000000E+00 -0.12302255505E+04  0.21104261643E+04  0.17147721976E+04 0.  0.
        2    1    3    3  502    0  0.36101879044E+03  0.76360570838E+03 -0.79633864148E+03  0.11608546321E+04  0.25500000920E-02 0.  1.
       -2    1    3    3    0  502 -0.36101879044E+03 -0.76360570838E+03 -0.43388690903E+03  0.94957153219E+03  0.25500000920E-02 0. -1.
</event>
<event>
 5   0  0.5059689E-04  0.1710652E+04  0.7818609E-02  0.8755312E-01
        1   -1    0    0  501    0  0.00000000000E+00  0.00000000000E+00  0.11857210208E+04  0.11857210208E+04  0.50400001928E-02 0.  1.
       -1   -1    0    0    0  501  0.00000000000E+00  0.00000000000E+00 -0.61699383492E+03  0.61699383494E+03  0.50400001928E-02 0. -1.
    10030    2    1    2    0    0  0.00000000000E+00  0.00000000000E+00  0.56872718589E+03  0.18027148558E+04  0.17106519924E+04 0.  0.
        5    1    3    3  502    0 -0.53513939028E+03 -0.20624926655E+03 -0.38433113114E+03  0.69039512986E+03  0.46999998093E+01 0. -1.
       -5    1    3    3    0  502  0.53513939028E+03  0.20624926655E+03  0.95305831703E+03  0.11123197259E+04  0.46999998093E+01 0.  1.
</event>
<event>
 5   0  0.9610114E-04  0.1659813E+04  0.7818609E-02  0.8784622E-01
       -2   -1    0    0    0  501  0.00000000000E+00  0.00000000000E+00  0.56419256750E+03  0.56419256750E+03  0.25500000920E-02 0. -1.
        2   -1    0    0  501    0  0.00000000000E+00  0.00000000000E+00 -0.12207625416E+04  0.12207625416E+04  0.25500000920E-02 0.  1.
    10030    2    1    2    0    0  0.00000000000E+00  0.00000000000E+00 -0.65656997408E+03  0.17849551091E+04  0.16598134264E+04 0.  0.
        2    1    3    3  502    0 -0.69437456213E+03 -0.41843752255E+03 -0.51914612546E+03  0.96268306955E+03  0.25500000920E-02 0.  1.
       -2    1    3    3    0  502  0.69437456213E+03  0.41843752255E+03 -0.13742384863E+03  0.82227203953E+03  0.25500000920E-02 0. -1.
</event>
<event>
 5   0  0.9610114E-04  0.1639467E+04  0.7818609E-02  0.8796662E-01
       -2   -1    0    0    0  501  0.00000000000E+00  0.00000000000E+00  0.13297017466E+04  0.13297017466E+04  0.25500000920E-02 0. -1.
        2   -1    0    0  501    0  0.00000000000E+00  0.00000000000E+00 -0.50534850000E+03  0.50534850001E+03  0.25500000920E-02 0.  1.
    10030    2    1    2    0    0  0.00000000000E+00  0.00000000000E+00  0.82435324662E+03  0.18350502466E+04  0.16394667220E+04 0.  0.
        2    1    3    3  502    0  0.52779735144E+03  0.38874640208E+03 -0.13875062737E+03  0.67003398863E+03  0.25500000920E-02 0.  1.
       -2    1    3    3    0  502 -0.52779735144E+03 -0.38874640208E+03  0.96310387399E+03  0.11650162580E+04  0.25500000920E-02 0. -1.
</event>
<event>
 5   0  0.5009762E-04  0.1677791E+04  0.7818609E-02  0.8774133E-01
       -1   -1    0    0    0  501  0.00000000000E+00  0.00000000000E+00  0.76336429898E+03  0.76336429900E+03  0.50400001928E-02 0.  1.
        1   -1    0    0  501    0  0.00000000000E+00  0.00000000000E+00 -0.92190005233E+03  0.92190005234E+03  0.50400001928E-02 0. -1.
    10030    2    1    2    0    0  0.00000000000E+00  0.00000000000E+00 -0.15853575334E+03  0.16852643513E+04  0.16777909133E+04 0.  0.
        3    1    3    3  502    0  0.16715587442E+03  0.66934603106E+03  0.40012144289E+03  0.79753518726E+03  0.10100000352E+00 0.  1.
       -3    1    3    3    0  502 -0.16715587442E+03 -0.66934603106E+03 -0.55865719624E+03  0.88772916408E+03  0.10100000352E+00 0. -1.
</event>
<event>
 5   0  0.1007187E-03  0.1718553E+04  0.7818609E-02  0.8750853E-01
        2   -1    0    0  501    0  0.00000000000E+00  0.00000000000E+00  0.59748370062E+03  0.59748370062E+03  0.25500000920E-02 0. -1.
       -2   -1    0    0    0  501  0.00000000000E+00  0.00000000000E+00 -0.12357756283E+04  0.12357756283E+04  0.25500000920E-02 0.  1.
    10030    2    1    2    0    0  0.00000000000E+00  0.00000000000E+00 -0.63829192764E+03  0.18332593289E+04  0.17185526416E+04 0.  0.
        5    1    3    3  502    0 -0.28597511003E+03 -0.25099808820E+03  0.50269997673E+03  0.63048486138E+03  0.46999998093E+01 0. -1.
       -5    1    3    3    0  502  0.28597511003E+03  0.25099808820E+03 -0.11409919044E+04  0.12027744675E+04  0.46999998093E+01 0.  1.
</event>
<event>
 5   0  0.5035495E-04  0.1702382E+04  0.7818609E-02  0.8760007E-01
       -1   -1    0    0    0  501  0.00000000000E+00  0.00000000000E+00  0.45962270802E+03  0.45962270804E+03  0.50400001928E-02 0. -1.
        1   -1    0    0  501    0  0.00000000000E+00  0.00000000000E+00 -0.15763488255E+04  0.15763488255E+04  0.50400001928E-02 0.  1.
    10030    2    1    2    0    0  0.00000000000E+00  0.00000000000E+00 -0.11167261174E+04  0.20359715335E+04  0.17023815271E+04 0.  0.
        4    1    3    3  502    0  0.58687623779E+02  0.45836824155E+03 -0.14132645673E+04  0.14868974518E+04  0.12699999809E+01 0.  1.
       -4    1    3    3    0  502 -0.58687623779E+02 -0.45836824155E+03  0.29653844987E+03  0.54907408171E+03  0.12699999809E+01 0. -1.
</event>
<event>
 5   0  0.9610114E-04  0.1763949E+04  0.7818609E-02  0.8725710E-01
       -2   -1    0    0    0  501  0.00000000000E+00  0.00000000000E+00  0.38632230833E+03  0.38632230834E+03  0.25500000920E-02 0. -1.
        2   -1    0    0  501    0  0.00000000000E+00  0.00000000000E+00 -0.20135485403E+04  0.20135485403E+04  0.25500000920E-02 0.  1.
    10030    2    1    2    0    0  0.00000000000E+00  0.00000000000E+00 -0.16272262320E+04  0.23998708487E+04  0.17639486615E+04 0.  0.
        2    1    3    3  502    0 -0.41690448856E+03  0.67226861596E+03 -0.13442545900E+04  0.15597355056E+04  0.25500000920E-02 0.  1.
       -2    1    3    3    0  502  0.41690448856E+03 -0.67226861596E+03 -0.28297164202E+03  0.84013534313E+03  0.25500000920E-02 0. -1.
</event>
<event>
 5   0  0.5059689E-04  0.1780600E+04  0.7818609E-02  0.8716685E-01
        1   -1    0    0  501    0  0.00000000000E+00  0.00000000000E+00  0.13051273899E+04  0.13051273899E+04  0.50400001928E-02 0. -1.
       -1   -1    0    0    0  501  0.00000000000E+00  0.00000000000E+00 -0.60732323774E+03  0.60732323776E+03  0.50400001928E-02 0.  1.
    10030    2    1    2    0    0  0.00000000000E+00  0.00000000000E+00  0.69780415215E+03  0.19124506277E+04  0.17806001147E+04 0.  0.
        5    1    3    3  502    0 -0.48749721048E+02  0.85259521680E+03  0.61916338346E+03  0.10548367288E+04  0.46999998093E+01 0. -1.
       -5    1    3    3    0  502  0.48749721048E+02 -0.85259521680E+03  0.78640768688E+02  0.85761389886E+03  0.46999998093E+01 0.  1.
</event>
<event>
 5   0  0.3523125E-04  0.1514193E+04  0.7818609E-02  0.8875069E-01
        3   -1    0    0  501    0  0.00000000000E+00  0.00000000000E+00  0.10467654538E+04  0.10467654587E+04  0.10100000352E+00 0. -1.
       -3   -1    0    0    0  501  0.00000000000E+00  0.00000000000E+00 -0.54758697951E+03  0.54758698882E+03  0.10100000352E+00 0.  1.
    10030    2    1    2    0    0  0.00000000000E+00  0.00000000000E+00  0.49917847429E+03  0.15943524475E+04  0.15141930450E+04 0.  0.
        2    1    3    3  502    0 -0.15256603743E+03 -0.71699073193E+03  0.44893430632E+03  0.85958950485E+03  0.25500000920E-02 0. -1.
       -2    1    3    3    0  502  0.15256603743E+03  0.71699073193E+03  0.50244167970E+02  0.73476294264E+03  0.25500000920E-02 0.  1.
</event>
<event>
 5   0  0.4947006E-04  0.1484669E+04  0.7818609E-02  0.8894712E-01
        1   -1    0    0  501    0  0.00000000000E+00  0.00000000000E+00  0.48655086570E+03  0.48655086572E+03  0.50400001928E-02 0. -1.
       -1   -1    0    0    0  501  0.00000000000E+00  0.00000000000E+00 -0.11325853775E+04  0.11325853775E+04  0.50400001928E-02 0.  1.
    10030    2    1    2    0    0  0.00000000000E+00  0.00000000000E+00 -0.64603451176E+03  0.16191362432E+04  0.14846688465E+04 0.  0.
        2    1    3    3  502    0  0.51987833996E+02 -0.69255408035E+03 -0.60891842668E+03  0.92364253878E+03  0.25500000920E-02 0.  1.
       -2    1    3    3    0  502 -0.51987833996E+02  0.69255408035E+03 -0.37116085081E+02  0.69549370441E+03  0.25500000920E-02 0. -1.
</event>
<event>
 5   0  0.5059689E-04  0.1628383E+04  0.7818609E-02  0.8803299E-01
        1   -1    0    0  501    0  0.00000000000E+00  0.00000000000E+00  0.16231697190E+04  0.16231697190E+04  0.50400001928E-02 0. -1.
       -1   -1    0    0    0  501  0.00000000000E+00  0.00000000000E+00 -0.40840305363E+03  0.40840305366E+03  0.50400001928E-02 0.  1.
    10030    2    1    2    0    0  0.00000000000E+00  0.00000000000E+00  0.12147666653E+04  0.20315727726E+04  0.16283825961E+04 0.  0.
        5    1    3    3  502    0 -0.72544409288E+03 -0.34476257185E+03  0.77362369536E+03  0.11151888068E+04  0.46999998093E+01 0.  1.
       -5    1    3    3    0  502  0.72544409288E+03  0.34476257185E+03  0.44114296996E+03  0.91638396580E+03  0.46999998093E+01 0. -1.
</event>
<event>
 5   0  0.9610114E-04  0.1638430E+04  0.7818609E-02  0.8797281E-01
        2   -1    0    0  501    0  0.00000000000E+00  0.00000000000E+00  0.14729933936E+04  0.14729933936E+04  0.25500000920E-02 0. -1.
       -2   -1    0    0    0  501  0.00000000000E+00  0.00000000000E+00 -0.45561170071E+03  0.45561170071E+03  0.25500000920E-02 0.  1.
    10030    2    1    2    0    0  0.00000000000E+00  0.00000000000E+00  0.10173816929E+04  0.19286050943E+04  0.16384297668E+04 0.  0.
        2    1    3    3  502    0 -0.10663080213E+03 -0.32181654060E+03  0.13865442496E+04  0.14273895648E+04  0.25500000920E-02 0. -1.
       -2    1    3    3    0  502  0.10663080213E+03  0.32181654060E+03 -0.36916255666E+03  0.50121552950E+03  0.25500000920E-02 0.  1.
</event>
<event>
 5   0  0.9610114E-04  0.1639532E+04  0.7818609E-02  0.8796624E-01
        2   -1    0    0  501    0  0.00000000000E+00  0.00000000000E+00  0.65682330550E+03  0.65682330551E+03  0.25500000920E-02 0. -1.
       -2   -1    0    0    0  501  0.00000000000E+00  0.00000000000E+00 -0.10231304028E+04  0.10231304028E+04  0.25500000920E-02 0.  1.
    10030    2    1    2    0    0  0.00000000000E+00  0.00000000000E+00 -0.36630709734E+03  0.16799537084E+04  0.16395315101E+04 0.  0.
        2    1    3    3  502    0  0.79532898865E+03 -0.83970744802E+02 -0.36763866094E+03  0.88020308520E+03  0.25500000920E-02 0.  1.
       -2    1    3    3    0  502 -0.79532898865E+03  0.83970744802E+02  0.13315635995E+01  0.79975062316E+03  0.25500000920E-02 0. -1.
</event>
<event>
 5   0  0.5035495E-04  0.1617293E+04  0.7818609E-02  0.8809994E-01
       -1   -1    0    0    0  501  0.00000000000E+00  0.00000000000E+00  0.70197748182E+03  0.70197748183E+03  0.50400001928E-02 0.  1.
        1   -1    0    0  501    0  0.00000000000E+00  0.00000000000E+00 -0.93152498644E+03  0.93152498645E+03  0.50400001928E-02 0. -1.
    10030    2    1    2    0    0  0.00000000000E+00  0.00000000000E+00 -0.22954750462E+03  0.16335024683E+04  0.16172934975E+04 0.  0.
        4    1    3    3  502    0  0.37102253943E+03  0.67784335337E+03  0.12589701992E+03  0.78293103719E+03  0.12699999809E+01 0.  1.
       -4    1    3    3    0  502 -0.37102253943E+03 -0.67784335337E+03 -0.35544452454E+03  0.85057143110E+03  0.12699999809E+01 0. -1.
</event>
<event>
 5   0  0.9284971E-04  0.1724286E+04  0.7818609E-02  0.8747633E-01
       -2   -1    0    0    0  501  0.00000000000E+00  0.00000000000E+00  0.78433244336E+03  0.78433244337E+03  0.25500000920E-02 0.  1.
        2   -1    0    0  501    0  0.00000000000E+00  0.00000000000E+00 -0.94767278301E+03  0.94767278302E+03  0.25500000920E-02 0. -1.
    10030    2    1    2    0    0  0.00000000000E+00  0.00000000000E+00 -0.16334033965E+03  0.17320052264E+04  0.17242859501E+04 0.  0.
        4    1    3    3  502    0 -0.59989154482E+03  0.69718053147E+02  0.53635528968E+03  0.80771844237E+03  0.12699999809E+01 0.  1.
       -4    1    3    3    0  502  0.59989154482E+03 -0.69718053147E+02 -0.69969562934E+03  0.92428678401E+03  0.12699999809E+01 0. -1.
</event>
<event>
 5   0  0.3523125E-04  0.1695789E+04  0.7818609E-02  0.8763770E-01
       -3   -1    0    0    0  501  0.00000000000E+00  0.00000000000E+00  0.81237089538E+03  0.81237090166E+03  0.10100000352E+00 0.  1.
        3   -1    0    0  501    0  0.00000000000E+00  0.00000000000E+00 -0.88497129724E+03  0.88497130300E+03  0.10100000352E+00 0. -1.
    10030    2    1    2    0    0  0.00000000000E+00  0.00000000000E+00 -0.72600401856E+02  0.16973422047E+04  0.16957888257E+04 0.  0.
        1    1    3    3  502    0  0.76592276777E+03 -0.20081008655E+03  0.26723087623E+03  0.83568817048E+03  0.50400001928E-02 0.  1.
       -1    1    3    3    0  502 -0.76592276777E+03  0.20081008655E+03 -0.33983127808E+03  0.86165403419E+03  0.50400001928E-02 0. -1.
</event>
<event>
 5   0  0.3523125E-04  0.1552914E+04  0.7818609E-02  0.8850009E-01
        3   -1    0    0  501    0  0.00000000000E+00  0.00000000000E+00  0.22930087013E+04  0.22930087035E+04  0.10100000352E+00 0.  1.
       -3   -1    0    0    0  501  0.00000000000E+00  0.00000000000E+00 -0.26292315546E+03  0.26292317486E+03  0.10100000352E+00 0. -1.
    10030    2    1    2    0    0  0.00000000000E+00  0.00000000000E+00  0.20300855458E+04  0.25559318783E+04  0.15529135338E+04 0.  0.
        2    1    3    3  502    0  0.29262030997E+03 -0.39785482225E+03  0.20011657555E+04  0.20612082589E+04  0.25500000920E-02 0.  1.
       -2    1    3    3    0  502 -0.29262030997E+03  0.39785482225E+03  0.28919790287E+02  0.49472361947E+03  0.25500000920E-02 0. -1.
</event>
<event>
 5   0  0.5009762E-04  0.1593107E+04  0.7818609E-02  0.8824794E-01
        1   -1    0    0  501    0  0.00000000000E+00  0.00000000000E+00  0.63600834536E+03  0.63600834538E+03  0.50400001928E-02 0.  1.
       -1   -1    0    0    0  501  0.00000000000E+00  0.00000000000E+00 -0.99762480446E+03  0.99762480447E+03  0.50400001928E-02 0. -1.
    10030    2    1    2    0    0  0.00000000000E+00  0.00000000000E+00 -0.36161645909E+03  0.16336331498E+04  0.15931072798E+04 0.  0.
        3    1    3    3  502    0  0.21781567871E+03  0.59539512555E+03 -0.67531902715E+03  0.92628010021E+03  0.10100000352E+00 0. -1.
       -3    1    3    3    0  502 -0.21781567871E+03 -0.59539512555E+03  0.31370256805E+03  0.70735304964E+03  0.10100000352E+00 0.  1.
</event>
<event>
 5   0  0.9610114E-04  0.1587445E+04  0.7818609E-02  0.8828298E-01
        2   -1    0    0  501    0  0.00000000000E+00  0.00000000000E+00  0.17476230139E+04  0.17476230139E+04  0.25500000920E-02 0.  1.
       -2   -1    0    0    0  501  0.00000000000E+00  0.00000000000E+00 -0.36048709654E+03  0.36048709654E+03  0.25500000920E-02 0. -1.
    10030    2    1    2    0    0  0.00000000000E+00  0.00000000000E+00  0.13871359174E+04  0.21081101105E+04  0.15874451753E+04 0.  0.
        2    1    3    3  502    0  0.67905794517E+03 -0.34588283595E+03  0.39888323552E+03  0.86015258222E+03  0.25500000920E-02 0. -1.
       -2    1    3    3    0  502 -0.67905794517E+03  0.34588283595E+03  0.98825268186E+03  0.12479575283E+04  0.25500000920E-02 0.  1.
</event>
<event>
 5   0  0.5074133E-04  0.1664280E+04  0.7818609E-02  0.8782003E-01
        1   -1    0    0  501    0  0.00000000000E+00  0.00000000000E+00  0.11367501889E+04  0.11367501889E+04  0.50400001928E-02 0. -1.
       -1   -1    0    0    0  501  0.00000000000E+00  0.00000000000E+00 -0.60915505490E+03  0.60915505492E+03  0.50400001928E-02 0.  1.
    10030    2    1    2    0    0  0.00000000000E+00  0.00000000000E+00  0.52759513399E+03  0.17459052438E+04  0.16642801732E+04 0.  0.
        1    1    3    3  502    0 -0.72069405568E+03  0.26053438333E+03  0.60401677161E+03  0.97576346888E+03  0.50400001928E-02 0. -1.
       -1    1    3    3    0  502  0.72069405568E+03 -0.26053438333E+03 -0.76421637622E+02  0.77014177494E+03  0.50400001928E-02 0.  1.
</event>
<event>
 5   0  0.9610114E-04  0.1696442E+04  0.7818609E-02  0.8763396E-01
       -2   -1    0    0    0  501  0.00000000000E+00  0.00000000000E+00  0.95704559546E+03  0.95704559546E+03  0.25500000920E-02 0.  1.
        2   -1    0    0  501    0  0.00000000000E+00  0.00000000000E+00 -0.75177089707E+03  0.75177089708E+03  0.25500000920E-02 0. -1.
    10030    2    1    2    0    0  0.00000000000E+00  0.00000000000E+00  0.20527469839E+03  0.17088164925E+04  0.16964421898E+04 0.  0.
        2    1    3    3  502    0 -0.59068491286E+03 -0.14897650409E+03 -0.49190213409E+03  0.78298810628E+03  0.25500000920E-02 0. -1.
       -2    1    3    3    0  502  0.59068491286E+03  0.14897650409E+03  0.69717683248E+03  0.92582838626E+03  0.25500000920E-02 0.  1.
</event>
<event>
 5   0  0.9610114E-04  0.1668768E+04  0.7818609E-02  0.8779380E-01
        2   -1    0    0  501    0  0.00000000000E+00  0.00000000000E+00  0.15527366365E+04  0.15527366365E+04  0.25500000920E-02 0. -1.
       -2   -1    0    0    0  501  0.00000000000E+00  0.00000000000E+00 -0.44836742721E+03  0.44836742722E+03  0.25500000920E-02 0.  1.
    10030    2    1    2    0    0  0.00000000000E+00  0.00000000000E+00  0.11043692092E+04  0.20011040637E+04  0.16687678458E+04 0.  0.
        2    1    3    3  502    0 -0.82544029099E+03 -0.46658750771E+02  0.68715069115E+03  0.10750371088E+04  0.25500000920E-02 0.  1.
       -2    1    3    3    0  502  0.82544029099E+03  0.46658750771E+02  0.41721851810E+03  0.92606695485E+03  0.25500000920E-02 0. -1.
</event>
<event>
 5   0  0.5009762E-04  0.1671708E+04  0.7818609E-02  0.8777667E-01
       -1   -1    0    0    0  501  0.00000000000E+00  0.00000000000E+00  0.84778427953E+03  0.84778427954E+03  0.50400001928E-02 0.  1.
        1   -1    0    0  501    0  0.00000000000E+00  0.00000000000E+00 -0.82409169929E+03  0.82409169931E+03  0.50400001928E-02 0. -1.
    10030    2    1    2    0    0  0.00000000000E+00  0.00000000000E+00  0.23692580235E+02  0.16718759789E+04  0.16717080936E+04 0.  0.
        3    1    3    3  502    0  0.69247374299E+03  0.46749365507E+03 -0.12276147087E+02  0.83559614422E+03  0.10100000352E+00 0.  1.
       -3    1    3    3    0  502 -0.69247374299E+03 -0.46749365507E+03  0.35968727322E+02  0.83627983463E+03  0.10100000352E+00 0. -1.
</event>
<event>
 5   0  0.5074133E-04  0.1393378E+04  0.7818609E-02  0.8958626E-01
       -1   -1    0    0    0  501  0.00000000000E+00  0.00000000000E+00  0.49249182443E+03  0.49249182445E+03  0.50400001928E-02 0.  1.
        1   -1    0    0  501    0  0.00000000000E+00  0.00000000000E+00 -0.98555083356E+03  0.98555083358E+03  0.50400001928E-02 0. -1.
    10030    2    1    2    0    0  0.00000000000E+00  0.00000000000E+00 -0.49305900914E+03  0.14780426580E+04  0.13933782374E+04 0.  0.
        1    1    3    3  502    0 -0.67986836010E+03 -0.49230325167E+02 -0.39926124029E+03  0.78997098048E+03  0.50400001928E-02 0.  1.
       -1    1    3    3    0  502  0.67986836010E+03  0.49230325167E+02 -0.93797768847E+02  0.68807167755E+03  0.50400001928E-02 0. -1.
</event>
<event>
 5   0  0.5009762E-04  0.1705319E+04  0.7818609E-02  0.8758337E-01
       -1   -1    0    0    0  501  0.00000000000E+00  0.00000000000E+00  0.36337882210E+03  0.36337882214E+03  0.50400001928E-02 0. -1.
        1   -1    0    0  501    0  0.00000000000E+00  0.00000000000E+00 -0.20007439694E+04  0.20007439694E+04  0.50400001928E-02 0.  1.
    10030    2    1    2    0    0  0.00000000000E+00  0.00000000000E+00 -0.16373651473E+04  0.23641227915E+04  0.17053187232E+04 0.  0.
        3    1    3    3  502    0 -0.24639325844E+03 -0.70241416718E+03 -0.24217767572E+03  0.78278051641E+03  0.10100000352E+00 0. -1.
       -3    1    3    3    0  502  0.24639325844E+03  0.70241416718E+03 -0.13951874715E+04  0.15813422751E+04  0.10100000352E+00 0.  1.
</event>
<event>
 5   0  0.3523125E-04  0.1669420E+04  0.7818609E-02  0.8779000E-01
        3   -1    0    0  501    0  0.00000000000E+00  0.00000000000E+00  0.11001803446E+04  0.11001803492E+04  0.10100000352E+00 0. -1.
       -3   -1    0    0    0  501  0.00000000000E+00  0.00000000000E+00 -0.63329722437E+03  0.63329723242E+03  0.10100000352E+00 0.  1.
    10030    2    1    2    0    0  0.00000000000E+00  0.00000000000E+00  0.46688312019E+03  0.17334775816E+04  0.16694204617E+04 0.  0.
        4    1    3    3  502    0  0.50638016700E+03  0.56955154956E+03  0.58699077910E+03  0.96196134474E+03  0.12699999809E+01 0.  1.
       -4    1    3    3    0  502 -0.50638016700E+03 -0.56955154956E+03 -0.12010765891E+03  0.77151623688E+03  0.12699999809E+01 0. -1.
</event>
<event>
 5   0  0.5035495E-04  0.1679666E+04  0.7818609E-02  0.8773047E-01
        1   -1    0    0  501    0  0.00000000000E+00  0.00000000000E+00  0.20420158158E+04  0.20420158158E+04  0.50400001928E-02 0. -1.
       -1   -1    0    0    0  501  0.00000000000E+00  0.00000000000E+00 -0.34540355278E+03  0.34540355281E+03  0.50400001928E-02 0.  1.
    10030    2    1    2    0    0  0.00000000000E+00  0.00000000000E+00  0.16966122630E+04  0.23874193686E+04  0.16796660593E+04 0.  0.
        4    1    3    3  502    0 -0.53397698658E+03  0.44509210143E+03  0.17848320941E+03  0.71770207600E+03  0.12699999809E+01 0.  1.
       -4    1    3    3    0  502  0.53397698658E+03 -0.44509210143E+03  0.15181290536E+04  0.16697172926E+04  0.12699999809E+01 0. -1.
</event>
<event>
 5   0  0.5035495E-04  0.1660057E+04  0.7818609E-02  0.8784479E-01
       -1   -1    0    0    0  501  0.00000000000E+00  0.00000000000E+00  0.58384172070E+03  0.58384172072E+03  0.50400001928E-02 0.  1.
        1   -1    0    0  501    0  0.00000000000E+00  0.00000000000E+00 -0.11800241942E+04  0.11800241942E+04  0.50400001928E-02 0. -1.
    10030    2    1    2    0    0  0.00000000000E+00  0.00000000000E+00 -0.59618247345E+03  0.17638659149E+04  0.16600570545E+04 0.  0.
        4    1    3    3  502    0  0.27566944536E+03 -0.20707847200E+03 -0.11003359759E+04  0.11530897664E+04  0.12699999809E+01 0. -1.
       -4    1    3    3    0  502 -0.27566944536E+03  0.20707847200E+03  0.50415350241E+03  0.61077614849E+03  0.12699999809E+01 0.  1.
</event>
<event>
 5   0  0.9625225E-04  0.1333894E+04  0.7818609E-02  0.9003110E-01
        2   -1    0    0  501    0  0.00000000000E+00  0.00000000000E+00  0.11969414322E+04  0.11969414322E+04  0.25500000920E-02 0.  1.
       -2   -1    0    0    0  501  0.00000000000E+00  0.00000000000E+00 -0.37162923170E+03  0.37162923171E+03  0.25500000920E-02 0. -1.
    10030    2    1    2    0    0  0.00000000000E+00  0.00000000000E+00  0.82531220047E+03  0.15685706639E+04  0.13338941860E+04 0.  0.
        1    1    3    3  502    0 -0.37853475480E+03  0.44877360671E+03  0.78476443831E+03  0.98007220873E+03  0.50400001928E-02 0.  1.
       -1    1    3    3    0  502  0.37853475480E+03 -0.44877360671E+03  0.40547762160E+02  0.58849845515E+03  0.50400001928E-02 0. -1.
</event>
<event>
 5   0  0.9312096E-04  0.1731018E+04  0.7818609E-02  0.8743869E-01
       -2   -1    0    0    0  501  0.00000000000E+00  0.00000000000E+00  0.43523893004E+03  0.43523893005E+03  0.25500000920E-02 0. -1.
        2   -1    0    0  501    0  0.00000000000E+00  0.00000000000E+00 -0.17211364918E+04  0.17211364918E+04  0.25500000920E-02 0.  1.
    10030    2    1    2    0    0  0.00000000000E+00  0.00000000000E+00 -0.12858975617E+04  0.21563754218E+04  0.17310177413E+04 0.  0.
        3    1    3    3  502    0 -0.46898307103E+03 -0.14372297784E+03 -0.15312701667E+04  0.16079147206E+04  0.10100000352E+00 0.  1.
       -3    1    3    3    0  502  0.46898307103E+03  0.14372297784E+03  0.24537260496E+03  0.54846070118E+03  0.10100000352E+00 0. -1.
</event>
<event>
 5   0  0.3523125E-04  0.1699874E+04  0.7818609E-02  0.8761436E-01
        3   -1    0    0  501    0  0.00000000000E+00  0.00000000000E+00  0.56090263798E+03  0.56090264708E+03  0.10100000352E+00 0.  1.
       -3   -1    0    0    0  501  0.00000000000E+00  0.00000000000E+00 -0.12879118211E+04  0.12879118251E+04  0.10100000352E+00 0. -1.
    10030    2    1    2    0    0  0.00000000000E+00  0.00000000000E+00 -0.72700918316E+03  0.18488144722E+04  0.16998742895E+04 0.  0.
        2    1    3    3  502    0 -0.24657355426E+03 -0.45718002314E+01  0.52113353527E+03  0.57654104850E+03  0.25500000920E-02 0.  1.
       -2    1    3    3    0  502  0.24657355426E+03  0.45718002314E+01 -0.12481427184E+04  0.12722734237E+04  0.25500000920E-02 0. -1.
</event>
<event>
 5   0  0.9610114E-04  0.1656796E+04  0.7818609E-02  0.8786396E-01
       -2   -1    0    0    0  501  0.00000000000E+00  0.00000000000E+00  0.61756836528E+03  0.61756836528E+03  0.25500000920E-02 0. -1.
        2   -1    0    0  501    0  0.00000000000E+00  0.00000000000E+00 -0.11112016192E+04  0.11112016192E+04  0.25500000920E-02 0.  1.
    10030    2    1    2    0    0  0.00000000000E+00  0.00000000000E+00 -0.49363325387E+03  0.17287699844E+04  0.16567956632E+04 0.  0.
        2    1    3    3  502    0 -0.82244948285E+03  0.75380587334E+02 -0.17969822528E+03  0.84521999323E+03  0.25500000920E-02 0. -1.
       -2    1    3    3    0  502  0.82244948285E+03 -0.75380587334E+02 -0.31393502859E+03  0.88354999121E+03  0.25500000920E-02 0.  1.
</event>
<event>
 5   0  0.9284971E-04  0.1693841E+04  0.7818609E-02  0.8764885E-01
        2   -1    0    0  501    0  0.00000000000E+00  0.00000000000E+00  0.63807009344E+03  0.63807009345E+03  0.25500000920E-02 0. -1.
       -2   -1    0    0    0  501  0.00000000000E+00  0.00000000000E+00 -0.11241309912E+04  0.11241309912E+04  0.25500000920E-02 0.  1.
    10030    2    1    2    0    0  0.00000000000E+00  0.00000000000E+00 -0.48606089774E+03  0.17622010846E+04  0.16938410393E+04 0.  0.
        4    1    3    3  502    0  0.55723355381E+03 -0.60515990856E+03 -0.45251475560E+03  0.93888176324E+03  0.12699999809E+01 0.  1.
       -4    1    3    3    0  502 -0.55723355381E+03  0.60515990856E+03 -0.33546142137E+02  0.82331932138E+03  0.12699999809E+01 0. -1.
</event>
<event>
 5   0  0.5035495E-04  0.1664571E+04  0.7818609E-02  0.8781833E-01
        1   -1    0    0  501    0  0.00000000000E+00  0.00000000000E+00  0.11206182312E+04  0.11206182312E+04  0.50400001928E-02 0.  1.
       -1   -1    0    0    0  501  0.00000000000E+00  0.00000000000E+00 -0.61814036455E+03  0.61814036457E+03  0.50400001928E-02 0. -1.
    10030    2    1    2    0    0  0.00000000000E+00  0.00000000000E+00  0.50247786669E+03  0.17387585958E+04  0.16645712505E+04 0.  0.
        4    1    3    3  502    0  0.66479810072E+03 -0.27851009577E+03  0.68592672535E+03  0.99499822794E+03  0.12699999809E+01 0.  1.
       -4    1    3    3    0  502 -0.66479810072E+03  0.27851009577E+03 -0.18344885867E+03  0.74376036787E+03  0.12699999809E+01 0. -1.
</event>
<event>
 5   0  0.1007187E-03  0.1586104E+04  0.7818609E-02  0.8829131E-01
       -2   -1    0    0    0  501  0.00000000000E+00  0.00000000000E+00  0.10715080804E+04  0.10715080804E+04  0.25500000920E-02 0.  1.
        2   -1    0    0  501    0  0.00000000000E+00  0.00000000000E+00 -0.58695909340E+03  0.58695909340E+03  0.25500000920E-02 0. -1.
    10030    2    1    2    0    0  0.00000000000E+00  0.00000000000E+00  0.48454898704E+03  0.16584671738E+04  0.15861039203E+04 0.  0.
        5    1    3    3  502    0  0.14179979014E+03 -0.12518705008E+03  0.10475607970E+04  0.10645114801E+04  0.46999998093E+01 0.  1.
       -5    1    3    3    0  502 -0.14179979014E+03  0.12518705008E+03 -0.56301180992E+03  0.59395569372E+03  0.46999998093E+01 0. -1.
</event>
<event>
 5   0  0.9625225E-04  0.1706695E+04  0.7818609E-02  0.8757555E-01
        2   -1    0    0  501    0  0.00000000000E+00  0.00000000000E+00  0.13164354210E+04  0.13164354210E+04  0.25500000920E-02 0. -1.
       -2   -1    0    0    0  501  0.00000000000E+00  0.00000000000E+00 -0.55316165592E+03  0.55316165593E+03  0.25500000920E-02 0.  1.
    10030    2    1    2    0    0  0.00000000000E+00  0.00000000000E+00  0.76327376508E+03  0.18695970769E+04  0.17066945801E+04 0.  0.
        1    1    3    3  502    0  0.71781212584E+02  0.70968110348E+03 -0.13147525818E+03  0.72531755436E+03  0.50400001928E-02 0.  1.
       -1    1    3    3    0  502 -0.71781212584E+02 -0.70968110348E+03  0.89474902326E+03  0.11442795226E+04  0.50400001928E-02 0. -1.
</event>
<event>
 5   0  0.5035495E-04  0.1727194E+04  0.7818609E-02  0.8746005E-01
       -1   -1    0    0    0  501  0.00000000000E+00  0.00000000000E+00  0.91600483774E+03  0.91600483776E+03  0.50400001928E-02 0.  1.
        1   -1    0    0  501    0  0.00000000000E+00  0.00000000000E+00 -0.81418714542E+03  0.81418714544E+03  0.50400001928E-02 0. -1.
    10030    2    1    2    0    0  0.00000000000E+00  0.00000000000E+00  0.10181769232E+03  0.17301919832E+04  0.17271935202E+04 0.  0.
        4    1    3    3  502    0 -0.10444256806E+03 -0.85532526091E+03 -0.67079520857E+01  0.86170537975E+03  0.12699999809E+01 0. -1.
       -4    1    3    3    0  502  0.10444256806E+03  0.85532526091E+03  0.10852564440E+03  0.86848660344E+03  0.12699999809E+01 0.  1.
</event>
<event>
 5   0  0.5009762E-04  0.1712790E+04  0.7818609E-02  0.8754103E-01
       -1   -1    0    0    0  501  0.00000000000E+00  0.00000000000E+00  0.95404510190E+03  0.95404510191E+03  0.50400001928E-02 0. -1.
        1   -1    0    0  501    0  0.00000000000E+00  0.00000000000E+00 -0.76873988052E+03  0.76873988053E+03  0.50400001928E-02 0.  1.
    10030    2    1    2    0    0  0.00000000000E+00  0.00000000000E+00  0.18530522138E+03  0.17227849824E+04  0.17127901420E+04 0.  0.
        3    1    3    3  502    0 -0.62020959719E+03 -0.43855846160E+03 -0.30515375555E+03  0.81860386843E+03  0.10100000352E+00 0.  1.
       -3    1    3    3    0  502  0.62020959719E+03  0.43855846160E+03  0.49045897693E+03  0.90418111401E+03  0.10100000352E+00 0. -1.
</event>
<event>
 5   0  0.9284971E-04  0.1683825E+04  0.7818609E-02  0.8770644E-01
       -2   -1    0    0    0  501  0.00000000000E+00  0.00000000000E+00  0.43965749150E+03  0.43965749150E+03  0.25500000920E-02 0.  1.
        2   -1    0    0  501    0  0.00000000000E+00  0.00000000000E+00 -0.16122011728E+04  0.16122011728E+04  0.25500000920E-02 0. -1.
    10030    2    1    2    0    0  0.00000000000E+00  0.00000000000E+00 -0.11725436813E+04  0.20518586643E+04  0.16838246030E+04 0.  0.
        4    1    3    3  502    0 -0.54028696324E+03  0.49113728158E+03 -0.75504962209E+02  0.73404934726E+03  0.12699999809E+01 0.  1.
       -4    1    3    3    0  502  0.54028696324E+03 -0.49113728158E+03 -0.10970387191E+04  0.13178093171E+04  0.12699999809E+01 0. -1.
</event>
<event>
 5   0  0.9312096E-04  0.1732917E+04  0.7818609E-02  0.8742810E-01
        2   -1    0    0  501    0  0.00000000000E+00  0.00000000000E+00  0.47347586074E+03  0.47347586074E+03  0.25500000920E-02 0.  1.
       -2   -1    0    0    0  501  0.00000000000E+00  0.00000000000E+00 -0.15856139054E+04  0.15856139054E+04  0.25500000920E-02 0. -1.
    10030    2    1    2    0    0  0.00000000000E+00  0.00000000000E+00 -0.11121380447E+04  0.20590897662E+04  0.17329165112E+04 0.  0.
        3    1    3    3  502    0  0.90200459528E+02 -0.10413711012E+02 -0.15799451760E+04  0.15825521595E+04  0.10100000352E+00 0. -1.
       -3    1    3    3    0  502 -0.90200459528E+02  0.10413711012E+02  0.46780713129E+03  0.47653760666E+03  0.10100000352E+00 0.  1.
</event>
<event>
 5   0  0.9610114E-04  0.1674359E+04  0.7818609E-02  0.8776125E-01
        2   -1    0    0  501    0  0.00000000000E+00  0.00000000000E+00  0.99530663873E+03  0.99530663874E+03  0.25500000920E-02 0.  1.
       -2   -1    0    0    0  501  0.00000000000E+00  0.00000000000E+00 -0.70417426774E+03  0.70417426775E+03  0.25500000920E-02 0. -1.
    10030    2    1    2    0    0  0.00000000000E+00  0.00000000000E+00  0.29113237099E+03  0.16994809065E+04  0.16743587710E+04 0.  0.
        2    1    3    3  502    0 -0.55569138504E+03  0.47200042963E+03  0.56319070530E+03  0.92128230827E+03  0.25500000920E-02 0.  1.
       -2    1    3    3    0  502  0.55569138504E+03 -0.47200042963E+03 -0.27205833431E+03  0.77819859821E+03  0.25500000920E-02 0. -1.
</event>
<event>
 5   0  0.9610114E-04  0.1547970E+04  0.7818609E-02  0.8853166E-01
        2   -1    0    0  501    0  0.00000000000E+00  0.00000000000E+00  0.14072728215E+04  0.14072728215E+04  0.25500000920E-02 0. -1.
       -2   -1    0    0    0  501  0.00000000000E+00  0.00000000000E+00 -0.42568321481E+03  0.42568321481E+03  0.25500000920E-02 0.  1.
    10030    2    1    2    0    0  0.00000000000E+00  0.00000000000E+00  0.98158960669E+03  0.18329560363E+04  0.15479695330E+04 0.  0.
        2    1    3    3  502    0 -0.24078722440E+03 -0.64840715392E+03  0.79513399477E+02  0.69622748107E+03  0.25500000920E-02 0.  1.
       -2    1    3    3    0  502  0.24078722440E+03  0.64840715392E+03  0.90207620721E+03  0.11367285552E+04  0.25500000920E-02 0. -1.
</event>
<event>
 5   0  0.9284971E-04  0.1745136E+04  0.7818609E-02  0.8736032E-01
        2   -1    0    0  501    0  0.00000000000E+00  0.00000000000E+00  0.12263976305E+04  0.12263976305E+04  0.25500000920E-02 0. -1.
       -2   -1    0    0    0  501  0.00000000000E+00  0.00000000000E+00 -0.62082221265E+03  0.62082221266E+03  0.25500000920E-02 0.  1.
    10030    2    1    2    0    0  0.00000000000E+00  0.00000000000E+00  0.60557541786E+03  0.18472198432E+04  0.17451359724E+04 0.  0.
        4    1    3    3  502    0  0.80580465762E+03 -0.29876476367E+03  0.46258820611E+03  0.97599743421E+03  0.12699999809E+01 0. -1.
       -4    1    3    3    0  502 -0.80580465762E+03  0.29876476367E+03  0.14298721175E+03  0.87122240896E+03  0.12699999809E+01 0.  1.
</event>
<event>
 5   0  0.1007187E-03  0.1622819E+04  0.7818609E-02  0.8806651E-01
        2   -1    0    0  501    0  0.00000000000E+00  0.00000000000E+00  0.59012532537E+03  0.59012532537E+03  0.25500000920E-02 0. -1.
       -2   -1    0    0    0  501  0.00000000000E+00  0.00000000000E+00 -0.11156698145E+04  0.11156698145E+04  0.25500000920E-02 0.  1.
    10030    2    1    2    0    0  0.00000000000E+00  0.00000000000E+00 -0.52554448916E+03  0.17057951399E+04  0.16228185509E+04 0.  0.
        5    1    3    3  502    0 -0.53084162540E+03 -0.56701123407E+03 -0.50943748106E+03  0.92889353961E+03  0.46999998093E+01 0.  1.
       -5    1    3    3    0  502  0.53084162540E+03  0.56701123407E+03 -0.16107008100E+02  0.77690160029E+03  0.46999998093E+01 0. -1.
</event>
<event>
 5   0  0.1007187E-03  0.1689675E+04  0.7818609E-02  0.8767275E-01
        2   -1    0    0  501    0  0.00000000000E+00  0.00000000000E+00  0.54658653966E+03  0.54658653967E+03  0.25500000920E-02 0.  1.
       -2   -1    0    0    0  501  0.00000000000E+00  0.00000000000E+00 -0.13058323847E+04  0.13058323847E+04  0.25500000920E-02 0. -1.
    10030    2    1    2    0    0  0.00000000000E+00  0.00000000000E+00 -0.75924584506E+03  0.18524189244E+04  0.16896750037E+04 0.  0.
        5    1    3    3  502    0 -0.60642459647E+03  0.56591194126E+03 -0.55544832769E+03  0.99827453698E+03  0.46999998093E+01 0. -1.
       -5    1    3    3    0  502  0.60642459647E+03 -0.56591194126E+03 -0.20379751737E+03  0.85414438741E+03  0.46999998093E+01 0.  1.
</event>
<event>
 5   0  0.9312096E-04  0.1571257E+04  0.7818609E-02  0.8838403E-01
       -2   -1    0    0    0  501  0.00000000000E+00  0.00000000000E+00  0.59773996069E+03  0.59773996070E+03  0.25500000920E-02 0.  1.
        2   -1    0    0  501    0  0.00000000000E+00  0.00000000000E+00 -0.10325767724E+04  0.10325767724E+04  0.25500000920E-02 0. -1.
    10030    2    1    2    0    0  0.00000000000E+00  0.00000000000E+00 -0.43483681171E+03  0.16303167331E+04  0.15712573301E+04 0.  0.
        3    1    3    3  502    0 -0.56302186188E+03 -0.51441551015E+03 -0.21659312763E+02  0.76294565342E+03  0.10100000352E+00 0.  1.
       -3    1    3    3    0  502  0.56302186188E+03  0.51441551015E+03 -0.41317749895E+03  0.86737107969E+03  0.10100000352E+00 0. -1.
</event>
<event>
 5   0  0.5074133E-04  0.1615082E+04  0.7818609E-02  0.8811336E-01
       -1   -1    0    0    0  501  0.00000000000E+00  0.00000000000E+00  0.53221143401E+03  0.53221143403E+03  0.50400001928E-02 0.  1.
        1   -1    0    0  501    0  0.00000000000E+00  0.00000000000E+00 -0.12253064216E+04  0.12253064216E+04  0.50400001928E-02 0. -1.
    10030    2    1    2    0    0  0.00000000000E+00  0.00000000000E+00 -0.69309498759E+03  0.17575178556E+04  0.16150815308E+04 0.  0.
        1    1    3    3  502    0  0.21508420608E+03 -0.93226088996E+02  0.49437157734E+03  0.54713396521E+03  0.50400001928E-02 0.  1.
       -1    1    3    3    0  502 -0.21508420608E+03  0.93226088996E+02 -0.11874665649E+04  0.12103838904E+04  0.50400001928E-02 0. -1.
</event>
<event>
 5   0  0.5074133E-04  0.1762087E+04  0.7818609E-02  0.8726725E-01
       -1   -1    0    0    0  501  0.00000000000E+00  0.00000000000E+00  0.54782765863E+03  0.54782765865E+03  0.50400001928E-02 0.  1.
        1   -1    0    0  501    0  0.00000000000E+00  0.00000000000E+00 -0.14169379616E+04  0.14169379616E+04  0.50400001928E-02 0. -1.
    10030    2    1    2    0    0  0.00000000000E+00  0.00000000000E+00 -0.86911030299E+03  0.19647656203E+04  0.17620871783E+04 0.  0.
        1    1    3    3  502    0  0.96578072733E+02 -0.15597589816E+03  0.52629479061E+03  0.55735268151E+03  0.50400001928E-02 0.  1.
       -1    1    3    3    0  502 -0.96578072733E+02  0.15597589816E+03 -0.13954050936E+04  0.14074129388E+04  0.50400001928E-02 0. -1.
</event>
<event>
 5   0  0.9610114E-04  0.1634033E+04  0.7818609E-02  0.8799909E-01
        2   -1    0    0  501    0  0.00000000000E+00  0.00000000000E+00  0.14552462655E+04  0.14552462655E+04  0.25500000920E-02 0. -1.
       -2   -1    0    0    0  501  0.00000000000E+00  0.00000000000E+00 -0.45869634717E+03  0.45869634718E+03  0.25500000920E-02 0.  1.
    10030    2    1    2    0    0  0.00000000000E+00  0.00000000000E+00  0.99654991829E+03  0.19139426126E+04  0.16340332264E+04 0.  0.
        2    1    3    3  502    0  0.36736723855E+03  0.65056378186E+03  0.88555599412E+03  0.11586204473E+04  0.25500000920E-02 0. -1.
       -2    1    3    3    0  502 -0.36736723855E+03 -0.65056378186E+03  0.11099392418E+03  0.75532216533E+03  0.25500000920E-02 0.  1.
</event>
<event>
 5   0  0.9284971E-04  0.1749495E+04  0.7818609E-02  0.8733628E-01
       -2   -1    0    0    0  501  0.00000000000E+00  0.00000000000E+00  0.51359924387E+03  0.51359924388E+03  0.25500000920E-02 0. -1.
        2   -1    0    0  501    0  0.00000000000E+00  0.00000000000E+00 -0.14898449302E+04  0.14898449302E+04  0.25500000920E-02 0.  1.
    10030    2    1    2    0    0  0.00000000000E+00  0.00000000000E+00 -0.97624568633E+03  0.20034441741E+04  0.17494950467E+04 0.  0.
        4    1    3    3  502    0  0.31157716472E+03 -0.37952854221E+02 -0.14231344668E+04  0.14573380089E+04  0.12699999809E+01 0.  1.
       -4    1    3    3    0  502 -0.31157716472E+03  0.37952854221E+02  0.44688878042E+03  0.54610616522E+03  0.12699999809E+01 0. -1.
</event>
<event>
 5   0  0.5059689E-04  0.1701449E+04  0.7818609E-02  0.8760538E-01
        1   -1    0    0  501    0  0.00000000000E+00  0.00000000000E+00  0.19276967077E+04  0.19276967077E+04  0.50400001928E-02 0.  1.
       -1   -1    0    0    0  501  0.00000000000E+00  0.00000000000E+00 -0.37543882348E+03  0.37543882352E+03  0.50400001928E-02 0. -1.
    10030    2    1    2    0    0  0.00000000000E+00  0.00000000000E+00  0.15522578842E+04  0.23031355312E+04  0.17014490107E+04 0.  0.
        5    1    3    3  502    0  0.29334046189E+03 -0.23662321551E+03 -0.25625022801E+03  0.45576906658E+03  0.46999998093E+01 0. -1.
       -5    1    3    3    0  502 -0.29334046189E+03  0.23662321551E+03  0.18085081122E+04  0.18473664646E+04  0.46999998093E+01 0.  1.
</event>
<event>
 5   0  0.9625225E-04  0.1729701E+04  0.7818609E-02  0.8744604E-01
       -2   -1    0    0    0  501  0.00000000000E+00  0.00000000000E+00  0.80571989527E+03  0.80571989527E+03  0.25500000920E-02 0. -1.
        2   -1    0    0  501    0  0.00000000000E+00  0.00000000000E+00 -0.92832080855E+03  0.92832080855E+03  0.25500000920E-02 0.  1.
    10030    2    1    2    0    0  0.00000000000E+00  0.00000000000E+00 -0.12260091328E+03  0.17340407038E+04  0.17297011819E+04 0.  0.
        1    1    3    3  502    0 -0.47591987073E+03 -0.59249329583E+03  0.35255300732E+03  0.83775990114E+03  0.50400001928E-02 0. -1.
       -1    1    3    3    0  502  0.47591987073E+03  0.59249329583E+03 -0.47515392061E+03  0.89628080268E+03  0.50400001928E-02 0.  1.
</event>
<event>
 5   0  0.5059689E-04  0.1680586E+04  0.7818609E-02  0.8772515E-01
       -1   -1    0    0    0  501  0.00000000000E+00  0.00000000000E+00  0.75593522561E+03  0.75593522562E+03  0.50400001928E-02 0.  1.
        1   -1    0    0  501    0  0.00000000000E+00  0.00000000000E+00 -0.93406422242E+03  0.93406422243E+03  0.50400001928E-02 0. -1.
    10030    2    1    2    0    0  0.00000000000E+00  0.00000000000E+00 -0.17812899681E+03  0.16899994481E+04  0.16805856702E+04 0.  0.
        5    1    3    3  502    0  0.66140853861E+02  0.83566643517E+03 -0.30800714455E+02  0.83885861588E+03  0.46999998093E+01 0.  1.
       -5    1    3    3    0  502 -0.66140853861E+02 -0.83566643517E+03 -0.14732828236E+03  0.85114083218E+03  0.46999998093E+01 0. -1.
</event>
<event>
 5   0  0.5035495E-04  0.1808700E+04  0.7818609E-02  0.8701687E-01
       -1   -1    0    0    0  501  0.00000000000E+00  0.00000000000E+00  0.66322093868E+03  0.66322093870E+03  0.50400001928E-02 0. -1.
        1   -1    0    0  501    0  0.00000000000E+00  0.00000000000E+00 -0.12331463833E+04  0.12331463833E+04  0.50400001928E-02 0.  1.
    10030    2    1    2    0    0  0.00000000000E+00  0.00000000000E+00 -0.56992544462E+03  0.18963673220E+04  0.18086995349E+04 0.  0.
        4    1    3    3  502    0  0.19301632370E+03 -0.25815548744E+03  0.60094629784E+03  0.68193667059E+03  0.12699999809E+01 0. -1.
       -4    1    3    3    0  502 -0.19301632370E+03  0.25815548744E+03 -0.11708717425E+04  0.12144306514E+04  0.12699999809E+01 0.  1.
</event>
<event>
 5   0  0.5074133E-04  0.1714262E+04  0.7818609E-02  0.8753272E-01
       -1   -1    0    0    0  501  0.00000000000E+00  0.00000000000E+00  0.86747032319E+03  0.86747032321E+03  0.50400001928E-02 0.  1.
        1   -1    0    0  501    0  0.00000000000E+00  0.00000000000E+00 -0.84691519357E+03  0.84691519358E+03  0.50400001928E-02 0. -1.
    10030    2    1    2    0    0  0.00000000000E+00  0.00000000000E+00  0.20555129627E+02  0.17143855168E+04  0.17142622865E+04 0.  0.
        1    1    3    3  502    0 -0.85365352208E+03 -0.23786561612E+02  0.83656270427E+02  0.85807255398E+03  0.50400001928E-02 0. -1.
       -1    1    3    3    0  502  0.85365352208E+03  0.23786561612E+02 -0.63101140800E+02  0.85631296281E+03  0.50400001928E-02 0.  1.
</event>
<event>
 5   0  0.5074133E-04  0.1772387E+04  0.7818609E-02  0.8721123E-01
        1   -1    0    0  501    0  0.00000000000E+00  0.00000000000E+00  0.20066547665E+04  0.20066547665E+04  0.50400001928E-02 0. -1.
       -1   -1    0    0    0  501  0.00000000000E+00  0.00000000000E+00 -0.39136729033E+03  0.39136729037E+03  0.50400001928E-02 0.  1.
    10030    2    1    2    0    0  0.00000000000E+00  0.00000000000E+00  0.16152874762E+04  0.23980220569E+04  0.17723871345E+04 0.  0.
        1    1    3    3  502    0 -0.29662045617E+03  0.36634781028E+03 -0.20768003815E+03  0.51509747756E+03  0.50400001928E-02 0.  1.
       -1    1    3    3    0  502  0.29662045617E+03 -0.36634781028E+03  0.18229675143E+04  0.18829245793E+04  0.50400001928E-02 0. -1.
</event>
<event>
 5   0  0.5074133E-04  0.1806792E+04  0.7818609E-02  0.8702696E-01
       -1   -1    0    0    0  501  0.00000000000E+00  0.00000000000E+00  0.10956439347E+04  0.10956439348E+04  0.50400001928E-02 0.  1.
        1   -1    0    0  501    0  0.00000000000E+00  0.00000000000E+00 -0.74488089874E+03  0.74488089876E+03  0.50400001928E-02 0. -1.
    10030    2    1    2    0    0  0.00000000000E+00  0.00000000000E+00  0.35076303600E+03  0.18405248335E+04  0.18067918960E+04 0.  0.
        1    1    3    3  502    0 -0.31029641126E+03  0.58470822749E+03 -0.45087830595E+03  0.80091124411E+03  0.50400001928E-02 0. -1.
       -1    1    3    3    0  502  0.31029641126E+03 -0.58470822749E+03  0.80164134194E+03  0.10396135894E+04  0.50400001928E-02 0.  1.
</event>
<event>
 5   0  0.4947006E-04  0.1596098E+04  0.7818609E-02  0.8822949E-01
       -1   -1    0    0    0  501  0.00000000000E+00  0.00000000000E+00  0.35763739482E+03  0.35763739485E+03  0.50400001928E-02 0. -1.
        1   -1    0    0  501    0  0.00000000000E+00  0.00000000000E+00 -0.17808043250E+04  0.17808043250E+04  0.50400001928E-02 0.  1.
    10030    2    1    2    0    0  0.00000000000E+00  0.00000000000E+00 -0.14231669302E+04  0.21384417199E+04  0.15960980165E+04 0.  0.
        2    1    3    3  502    0 -0.76975292067E+03  0.17489292872E+03 -0.55433528741E+03  0.96456970006E+03  0.25500000920E-02 0. -1.
       -2    1    3    3    0  502  0.76975292067E+03 -0.17489292872E+03 -0.86883164281E+03  0.11738720198E+04  0.25500000920E-02 0.  1.
</event>
<event>
 5   0  0.5059689E-04  0.8476435E+03  0.7818609E-02  0.9493505E-01
        1   -1    0    0  501    0  0.00000000000E+00  0.00000000000E+00  0.53662204880E+03  0.53662204883E+03  0.50400001928E-02 0. -1.
       -1   -1    0    0    0  501  0.00000000000E+00  0.00000000000E+00 -0.33473257087E+03  0.33473257091E+03  0.50400001928E-02 0.  1.
    10030    2    1    2    0    0  0.00000000000E+00  0.00000000000E+00  0.20188947794E+03  0.87135461973E+03  0.84764350527E+03 0.  0.
        5    1    3    3  502    0  0.37400992780E+03 -0.17393708951E+03  0.93374063971E+00  0.41250515035E+03  0.46999998093E+01 0.  1.
       -5    1    3    3    0  502 -0.37400992780E+03  0.17393708951E+03  0.20095573730E+03  0.45884946938E+03  0.46999998093E+01 0. -1.
</event>
<event>
 5   0  0.9312096E-04  0.1730746E+04  0.7818609E-02  0.8744020E-01
       -2   -1    0    0    0  501  0.00000000000E+00  0.00000000000E+00  0.45019954842E+03  0.45019954843E+03  0.25500000920E-02 0.  1.
        2   -1    0    0  501    0  0.00000000000E+00  0.00000000000E+00 -0.16634196415E+04  0.16634196415E+04  0.25500000920E-02 0. -1.
    10030    2    1    2    0    0  0.00000000000E+00  0.00000000000E+00 -0.12132200931E+04  0.21136191899E+04  0.17307463956E+04 0.  0.
        3    1    3    3  502    0  0.14495272767E+03  0.19051566461E+03  0.40895854419E+03  0.47387193712E+03  0.10100000352E+00 0.  1.
       -3    1    3    3    0  502 -0.14495272767E+03 -0.19051566461E+03 -0.16221786373E+04  0.16397472528E+04  0.10100000352E+00 0. -1.
</event>
<event>
 5   0  0.5009762E-04  0.1738268E+04  0.7818609E-02  0.8739835E-01
       -1   -1    0    0    0  501  0.00000000000E+00  0.00000000000E+00  0.12063004062E+04  0.12063004063E+04  0.50400001928E-02 0.  1.
        1   -1    0    0  501    0  0.00000000000E+00  0.00000000000E+00 -0.62620689197E+03  0.62620689199E+03  0.50400001928E-02 0. -1.
    10030    2    1    2    0    0  0.00000000000E+00  0.00000000000E+00  0.58009351428E+03  0.18325072982E+04  0.17382676758E+04 0.  0.
        3    1    3    3  502    0  0.16467145732E+03  0.85167736093E+03  0.34703875724E+03  0.93429488129E+03  0.10100000352E+00 0.  1.
       -3    1    3    3    0  502 -0.16467145732E+03 -0.85167736093E+03  0.23305475704E+03  0.89821241695E+03  0.10100000352E+00 0. -1.
</event>
<event>
 5   0  0.4947006E-04  0.1629756E+04  0.7818609E-02  0.8802473E-01
        1   -1    0    0  501    0  0.00000000000E+00  0.00000000000E+00  0.85643089232E+03  0.85643089233E+03  0.50400001928E-02 0. -1.
       -1   -1    0    0    0  501  0.00000000000E+00  0.00000000000E+00 -0.77534117098E+03  0.77534117100E+03  0.50400001928E-02 0.  1.
    10030    2    1    2    0    0  0.00000000000E+00  0.00000000000E+00  0.81089721336E+02  0.16317720633E+04  0.16297559706E+04 0.  0.
        2    1    3    3  502    0  0.58910453528E+03  0.31173993494E+03  0.50995335575E+03  0.83921294411E+03  0.25500000920E-02 0. -1.
       -2    1    3    3    0  502 -0.58910453528E+03 -0.31173993494E+03 -0.42886363441E+03  0.79255911921E+03  0.25500000920E-02 0.  1.
</event>
<event>
 5   0  0.1007187E-03  0.1692411E+04  0.7818609E-02  0.8765705E-01
        2   -1    0    0  501    0  0.00000000000E+00  0.00000000000E+00  0.14928331979E+04  0.14928331979E+04  0.25500000920E-02 0.  1.
       -2   -1    0    0    0  501  0.00000000000E+00  0.00000000000E+00 -0.47966754804E+03  0.47966754805E+03  0.25500000920E-02 0. -1.
    10030    2    1    2    0    0  0.00000000000E+00  0.00000000000E+00  0.10131656499E+04  0.19725007460E+04  0.16924108717E+04 0.  0.
        5    1    3    3  502    0 -0.66286729795E+03 -0.50641304389E+03  0.67220787763E+03  0.10713228955E+04  0.46999998093E+01 0.  1.
       -5    1    3    3    0  502  0.66286729795E+03  0.50641304389E+03  0.34095777225E+03  0.90117785047E+03  0.46999998093E+01 0. -1.
</event>
<event>
 5   0  0.9312096E-04  0.1689007E+04  0.7818609E-02  0.8767659E-01
       -2   -1    0    0    0  501  0.00000000000E+00  0.00000000000E+00  0.39846099980E+03  0.39846099981E+03  0.25500000920E-02 0.  1.
        2   -1    0    0  501    0  0.00000000000E+00  0.00000000000E+00 -0.17898510484E+04  0.17898510484E+04  0.25500000920E-02 0. -1.
    10030    2    1    2    0    0  0.00000000000E+00  0.00000000000E+00 -0.13913900486E+04  0.21883120482E+04  0.16890066172E+04 0.  0.
        3    1    3    3  502    0 -0.79596173591E+03 -0.21986069028E+03 -0.46650553381E+03  0.94843093129E+03  0.10100000352E+00 0.  1.
       -3    1    3    3    0  502  0.79596173591E+03  0.21986069028E+03 -0.92488451477E+03  0.12398811169E+04  0.10100000352E+00 0. -1.
</event>
<event>
 5   0  0.5074133E-04  0.1720633E+04  0.7818609E-02  0.8749683E-01
       -1   -1    0    0    0  501  0.00000000000E+00  0.00000000000E+00  0.51768160590E+03  0.51768160592E+03  0.50400001928E-02 0. -1.
        1   -1    0    0  501    0  0.00000000000E+00  0.00000000000E+00 -0.14297289509E+04  0.14297289509E+04  0.50400001928E-02 0.  1.
    10030    2    1    2    0    0  0.00000000000E+00  0.00000000000E+00 -0.91204734500E+03  0.19474105568E+04  0.17206328828E+04 0.  0.
        1    1    3    3  502    0 -0.29579676876E+03 -0.80313403026E+03 -0.55484975446E+03  0.10199893377E+04  0.50400001928E-02 0.  1.
       -1    1    3    3    0  502  0.29579676876E+03  0.80313403026E+03 -0.35719759054E+03  0.92742121913E+03  0.50400001928E-02 0. -1.
</event>
<event>
 5   0  0.9284971E-04  0.1294906E+04  0.7818609E-02  0.9033614E-01
        2   -1    0    0  501    0  0.00000000000E+00  0.00000000000E+00  0.74345895371E+03  0.74345895371E+03  0.25500000920E-02 0. -1.
       -2   -1    0    0    0  501  0.00000000000E+00  0.00000000000E+00 -0.56384509607E+03  0.56384509608E+03  0.25500000920E-02 0.  1.
    10030    2    1    2    0    0  0.00000000000E+00  0.00000000000E+00  0.17961385763E+03  0.13073040498E+04  0.12949064602E+04 0.  0.
        4    1    3    3  502    0  0.35380066484E+02 -0.27625178834E+03 -0.50027793654E+03  0.57257875123E+03  0.12699999809E+01 0.  1.
       -4    1    3    3    0  502 -0.35380066484E+02  0.27625178834E+03  0.67989179417E+03  0.73472529857E+03  0.12699999809E+01 0. -1.
</event>
<event>
 5   0  0.9625225E-04  0.1674939E+04  0.7818609E-02  0.8775788E-01
       -2   -1    0    0    0  501  0.00000000000E+00  0.00000000000E+00  0.55577298376E+03  0.55577298377E+03  0.25500000920E-02 0.  1.
        2   -1    0    0  501    0  0.00000000000E+00  0.00000000000E+00 -0.12619455872E+04  0.12619455872E+04  0.25500000920E-02 0. -1.
    10030    2    1    2    0    0  0.00000000000E+00  0.00000000000E+00 -0.70617260348E+03  0.18177185710E+04  0.16749391205E+04 0.  0.
        1    1    3    3  502    0 -0.65062004306E+03  0.26146475027E+03 -0.85003471539E+03  0.11019207201E+04  0.50400001928E-02 0. -1.
       -1    1    3    3    0  502  0.65062004306E+03 -0.26146475027E+03  0.14386211191E+03  0.71579785088E+03  0.50400001928E-02 0.  1.
</event>
<event>
 5   0  0.9312096E-04  0.1693285E+04  0.7818609E-02  0.8765204E-01
        2   -1    0    0  501    0  0.00000000000E+00  0.00000000000E+00  0.19251944215E+04  0.19251944215E+04  0.25500000920E-02 0. -1.
       -2   -1    0    0    0  501  0.00000000000E+00  0.00000000000E+00 -0.37232777489E+03  0.37232777490E+03  0.25500000920E-02 0.  1.
    10030    2    1    2    0    0  0.00000000000E+00  0.00000000000E+00  0.15528666466E+04  0.22975221964E+04  0.16932848020E+04 0.  0.
        3    1    3    3  502    0  0.46643351930E+03  0.24163153090E+03 -0.12447112993E+03  0.53985099522E+03  0.10100000352E+00 0.  1.
       -3    1    3    3    0  502 -0.46643351930E+03 -0.24163153090E+03  0.16773377765E+04  0.17576712011E+04  0.10100000352E+00 0. -1.
</event>
<event>
 5   0  0.5059689E-04  0.1695583E+04  0.7818609E-02  0.8763887E-01
        1   -1    0    0  501    0  0.00000000000E+00  0.00000000000E+00  0.13691077809E+04  0.13691077809E+04  0.50400001928E-02 0.  1.
       -1   -1    0    0    0  501  0.00000000000E+00  0.00000000000E+00 -0.52497753659E+03  0.52497753661E+03  0.50400001928E-02 0. -1.
    10030    2    1    2    0    0  0.00000000000E+00  0.00000000000E+00  0.84413024432E+03  0.18940853175E+04  0.16955834750E+04 0.  0.
        5    1    3    3  502    0  0.82443495139E+02  0.59325273856E+03  0.10922912547E+04  0.12457399475E+04  0.46999998093E+01 0.  1.
       -5    1    3    3    0  502 -0.82443495139E+02 -0.59325273856E+03 -0.24816101042E+03  0.64834537000E+03  0.46999998093E+01 0. -1.
</event>
<event>
 5   0  0.4947006E-04  0.1713991E+04  0.7818609E-02  0.8753425E-01
        1   -1    0    0  501    0  0.00000000000E+00  0.00000000000E+00  0.15456931668E+04  0.15456931668E+04  0.50400001928E-02 0.  1.
       -1   -1    0    0    0  501  0.00000000000E+00  0.00000000000E+00 -0.47515359978E+03  0.47515359981E+03  0.50400001928E-02 0. -1.
    10030    2    1    2    0    0  0.00000000000E+00  0.00000000000E+00  0.10705395670E+04  0.20208467666E+04  0.17139914497E+04 0.  0.
        2    1    3    3  502    0  0.72578055908E+03 -0.45562610953E+03  0.54639902090E+03  0.10163190747E+04  0.25500000920E-02 0.  1.
       -2    1    3    3    0  502 -0.72578055908E+03  0.45562610953E+03  0.52414054608E+03  0.10045276918E+04  0.25500000920E-02 0. -1.
</event>
<event>
 5   0  0.5074133E-04  0.1690422E+04  0.7818609E-02  0.8766846E-01
        1   -1    0    0  501    0  0.00000000000E+00  0.00000000000E+00  0.15206930799E+04  0.15206930799E+04  0.50400001928E-02 0.  1.
       -1   -1    0    0    0  501  0.00000000000E+00  0.00000000000E+00 -0.46977380163E+03  0.46977380166E+03  0.50400001928E-02 0. -1.
    10030    2    1    2    0    0  0.00000000000E+00  0.00000000000E+00  0.10509192783E+04  0.19904668815E+04  0.16904221594E+04 0.  0.
        1    1    3    3  502    0  0.58286110351E+03  0.93701288164E+01 -0.19519050765E+03  0.61474726482E+03  0.50400001928E-02 0. -1.
       -1    1    3    3    0  502 -0.58286110351E+03 -0.93701288164E+01  0.12461097859E+04  0.13757196167E+04  0.50400001928E-02 0.  1.
</event>
<event>
 5   0  0.9610114E-04  0.1703711E+04  0.7818609E-02  0.8759251E-01
       -2   -1    0    0    0  501  0.00000000000E+00  0.00000000000E+00  0.13805810092E+04  0.13805810092E+04  0.25500000920E-02 0.  1.
        2   -1    0    0  501    0  0.00000000000E+00  0.00000000000E+00 -0.52561754741E+03  0.52561754741E+03  0.25500000920E-02 0. -1.
    10030    2    1    2    0    0  0.00000000000E+00  0.00000000000E+00  0.85496346181E+03  0.19061985566E+04  0.17037107784E+04 0.  0.
        2    1    3    3  502    0 -0.58193305306E+03 -0.22964396537E+02 -0.26808390267E+03  0.64112590076E+03  0.25500000920E-02 0. -1.
       -2    1    3    3    0  502  0.58193305306E+03  0.22964396537E+02  0.11230473645E+04  0.12650726559E+04  0.25500000920E-02 0.  1.
</event>
<event>
 5   0  0.9284971E-04  0.1681090E+04  0.7818609E-02  0.8772224E-01
       -2   -1    0    0    0  501  0.00000000000E+00  0.00000000000E+00  0.41993082714E+03  0.41993082715E+03  0.25500000920E-02 0.  1.
        2   -1    0    0  501    0  0.00000000000E+00  0.00000000000E+00 -0.16824574383E+04  0.16824574383E+04  0.25500000920E-02 0. -1.
    10030    2    1    2    0    0  0.00000000000E+00  0.00000000000E+00 -0.12625266111E+04  0.21023882654E+04  0.16810898176E+04 0.  0.
        4    1    3    3  502    0 -0.74789273800E+03 -0.23731522480E+03 -0.25430838801E+03  0.82482509211E+03  0.12699999809E+01 0.  1.
       -4    1    3    3    0  502  0.74789273800E+03  0.23731522480E+03 -0.10082182231E+04  0.12775631733E+04  0.12699999809E+01 0. -1.
</event>
<event>
 5   0  0.4947006E-04  0.1682017E+04  0.7818609E-02  0.8771688E-01
       -1   -1    0    0    0  501  0.00000000000E+00  0.00000000000E+00  0.81383662777E+03  0.81383662778E+03  0.50400001928E-02 0.  1.
        1   -1    0    0  501    0  0.00000000000E+00  0.00000000000E+00 -0.86908732406E+03  0.86908732407E+03  0.50400001928E-02 0. -1.
    10030    2    1    2    0    0  0.00000000000E+00  0.00000000000E+00 -0.55250696289E+02  0.16829239519E+04  0.16820167622E+04 0.  0.
        2    1    3    3  502    0 -0.48190253987E+03  0.39613066865E+03 -0.59197347326E+03  0.85998962646E+03  0.25500000920E-02 0. -1.
       -2    1    3    3    0  502  0.48190253987E+03 -0.39613066865E+03  0.53672277697E+03  0.82293432539E+03  0.25500000920E-02 0.  1.
</event>
<event>
 5   0  0.5059689E-04  0.1489380E+04  0.7818609E-02  0.8891546E-01
       -1   -1    0    0    0  501  0.00000000000E+00  0.00000000000E+00  0.44998473197E+03  0.44998473200E+03  0.50400001928E-02 0.  1.
        1   -1    0    0  501    0  0.00000000000E+00  0.00000000000E+00 -0.12324038248E+04  0.12324038248E+04  0.50400001928E-02 0. -1.
    10030    2    1    2    0    0  0.00000000000E+00  0.00000000000E+00 -0.78241909286E+03  0.16823885568E+04  0.14893796089E+04 0.  0.
        5    1    3    3  502    0  0.94035393789E+02 -0.29596062333E+03 -0.11557555815E+04  0.11967574524E+04  0.46999998093E+01 0. -1.
       -5    1    3    3    0  502 -0.94035393789E+02  0.29596062333E+03  0.37333648861E+03  0.48563110441E+03  0.46999998093E+01 0.  1.
</event>
<event>
 5   0  0.4947006E-04  0.1780081E+04  0.7818609E-02  0.8716965E-01
       -1   -1    0    0    0  501  0.00000000000E+00  0.00000000000E+00  0.13700121139E+04  0.13700121139E+04  0.50400001928E-02 0. -1.
        1   -1    0    0  501    0  0.00000000000E+00  0.00000000000E+00 -0.57822248885E+03  0.57822248887E+03  0.50400001928E-02 0.  1.
    10030    2    1    2    0    0  0.00000000000E+00  0.00000000000E+00  0.79178962504E+03  0.19482346028E+04  0.17800806884E+04 0.  0.
        2    1    3    3  502    0 -0.75462806035E+03 -0.26850402421E+03  0.82064549186E+03  0.11467418819E+04  0.25500000920E-02 0. -1.
       -2    1    3    3    0  502  0.75462806035E+03  0.26850402421E+03 -0.28855866815E+02  0.80149272083E+03  0.25500000920E-02 0.  1.
</event>
<event>
 5   0  0.3523125E-04  0.1770933E+04  0.7818609E-02  0.8721912E-01
       -3   -1    0    0    0  501  0.00000000000E+00  0.00000000000E+00  0.14146649813E+04  0.14146649849E+04  0.10100000352E+00 0.  1.
        3   -1    0    0  501    0  0.00000000000E+00  0.00000000000E+00 -0.55423069977E+03  0.55423070897E+03  0.10100000352E+00 0. -1.
    10030    2    1    2    0    0  0.00000000000E+00  0.00000000000E+00  0.86043428151E+03  0.19688956938E+04  0.17709328334E+04 0.  0.
        5    1    3    3  502    0 -0.23401693938E+03 -0.52249339253E+03  0.11811989078E+04  0.13126371254E+04  0.46999998093E+01 0.  1.
       -5    1    3    3    0  502  0.23401693938E+03  0.52249339253E+03 -0.32076462632E+03  0.65625856844E+03  0.46999998093E+01 0. -1.
</event>
<event>
 5   0  0.9610114E-04  0.1789367E+04  0.7818609E-02  0.8711974E-01
        2   -1    0    0  501    0  0.00000000000E+00  0.00000000000E+00  0.20931691311E+04  0.20931691311E+04  0.25500000920E-02 0. -1.
       -2   -1    0    0    0  501  0.00000000000E+00  0.00000000000E+00 -0.38241475252E+03  0.38241475253E+03  0.25500000920E-02 0.  1.
    10030    2    1    2    0    0  0.00000000000E+00  0.00000000000E+00  0.17107543786E+04  0.24755838836E+04  0.17893672125E+04 0.  0.
        2    1    3    3  502    0  0.58125378856E+03 -0.52311328971E+03  0.14567692373E+04  0.16533844355E+04  0.25500000920E-02 0. -1.
       -2    1    3    3    0  502 -0.58125378856E+03  0.52311328971E+03  0.25398514126E+03  0.82219944817E+03  0.25500000920E-02 0.  1.
</event>
<event>
 5   0  0.9312096E-04  0.1696057E+04  0.7818609E-02  0.8763616E-01
        2   -1    0    0  501    0  0.00000000000E+00  0.00000000000E+00  0.11064540305E+04  0.11064540305E+04  0.25500000920E-02 0. -1.
       -2   -1    0    0    0  501  0.00000000000E+00  0.00000000000E+00 -0.64996119084E+03  0.64996119084E+03  0.25500000920E-02 0.  1.
    10030    2    1    2    0    0  0.00000000000E+00  0.00000000000E+00  0.45649283968E+03  0.17564152214E+04  0.16960568142E+04 0.  0.
        3    1    3    3  502    0 -0.57897422793E+03 -0.51479280422E+03 -0.12888772620E+03  0.78538833965E+03  0.10100000352E+00 0.  1.
       -3    1    3    3    0  502  0.57897422793E+03  0.51479280422E+03  0.58538056588E+03  0.97102688171E+03  0.10100000352E+00 0. -1.
</event>
<event>
 5   0  0.9610114E-04  0.1714477E+04  0.7818609E-02  0.8753150E-01
        2   -1    0    0  501    0  0.00000000000E+00  0.00000000000E+00  0.89717150430E+03  0.89717150430E+03  0.25500000920E-02 0.  1.
       -2   -1    0    0    0  501  0.00000000000E+00  0.00000000000E+00 -0.81908305779E+03  0.81908305780E+03  0.25500000920E-02 0. -1.
    10030    2    1    2    0    0  0.00000000000E+00  0.00000000000E+00  0.78088446505E+02  0.17162545621E+04  0.17144771554E+04 0.  0.
        2    1    3    3  502    0 -0.30887335916E+03  0.37607408208E+03 -0.66739519656E+03  0.82598475508E+03  0.25500000920E-02 0. -1.
       -2    1    3    3    0  502  0.30887335916E+03 -0.37607408208E+03  0.74548364307E+03  0.89026980703E+03  0.25500000920E-02 0.  1.
</event>
<event>
 5   0  0.5009762E-04  0.1745375E+04  0.7818609E-02  0.8735900E-01
        1   -1    0    0  501    0  0.00000000000E+00  0.00000000000E+00  0.14776514148E+04  0.14776514148E+04  0.50400001928E-02 0. -1.
       -1   -1    0    0    0  501  0.00000000000E+00  0.00000000000E+00 -0.51540128148E+03  0.51540128150E+03  0.50400001928E-02 0.  1.
    10030    2    1    2    0    0  0.00000000000E+00  0.00000000000E+00  0.96225013332E+03  0.19930526963E+04  0.17453749543E+04 0.  0.
        3    1    3    3  502    0 -0.78079460237E+03  0.21117576869E+03  0.10699119061E+03  0.81589370719E+03  0.10100000352E+00 0.  1.
       -3    1    3    3    0  502  0.78079460237E+03 -0.21117576869E+03  0.85525894272E+03  0.11771589891E+04  0.10100000352E+00 0. -1.
</event>
<event>
 5   0  0.5059689E-04  0.1720675E+04  0.7818609E-02  0.8749660E-01
        1   -1    0    0  501    0  0.00000000000E+00  0.00000000000E+00  0.22557006343E+04  0.22557006343E+04  0.50400001928E-02 0.  1.
       -1   -1    0    0    0  501  0.00000000000E+00  0.00000000000E+00 -0.32813765176E+03  0.32813765180E+03  0.50400001928E-02 0. -1.
    10030    2    1    2    0    0  0.00000000000E+00  0.00000000000E+00  0.19275629825E+04  0.25838382861E+04  0.17206746459E+04 0.  0.
        5    1    3    3  502    0  0.31764390618E+03  0.37289554260E+03  0.20258255405E+04  0.20842120687E+04  0.46999998093E+01 0.  1.
       -5    1    3    3    0  502 -0.31764390618E+03 -0.37289554260E+03 -0.98262557954E+02  0.49962621740E+03  0.46999998093E+01 0. -1.
</event>
<event>
 5   0  0.1007187E-03  0.1688007E+04  0.7818609E-02  0.8768234E-01
        2   -1    0    0  501    0  0.00000000000E+00  0.00000000000E+00  0.10688093244E+04  0.10688093244E+04  0.25500000920E-02 0. -1.
       -2   -1    0    0    0  501  0.00000000000E+00  0.00000000000E+00 -0.66648148210E+03  0.66648148210E+03  0.25500000920E-02 0.  1.
    10030    2    1    2    0    0  0.00000000000E+00  0.00000000000E+00  0.40232784235E+03  0.17352908065E+04  0.16880066619E+04 0.  0.
        5    1    3    3  502    0  0.14607856950E+03 -0.50938713109E+02  0.10540952589E+04  0.10653978627E+04  0.46999998093E+01 0. -1.
       -5    1    3    3    0  502 -0.14607856950E+03  0.50938713109E+02 -0.65176741656E+03  0.66989294387E+03  0.46999998093E+01 0.  1.
</event>
<event>
 5   0  0.5059689E-04  0.1682770E+04  0.7818609E-02  0.8771253E-01
       -1   -1    0    0    0  501  0.00000000000E+00  0.00000000000E+00  0.93686694902E+03  0.93686694903E+03  0.50400001928E-02 0.  1.
        1   -1    0    0  501    0  0.00000000000E+00  0.00000000000E+00 -0.75563395411E+03  0.75563395413E+03  0.50400001928E-02 0. -1.
    10030    2    1    2    0    0  0.00000000000E+00  0.00000000000E+00  0.18123299491E+03  0.16925009032E+04  0.16827697135E+04 0.  0.
        5    1    3    3  502    0  0.49801569477E+03  0.37347331567E+03 -0.47869962560E+03  0.78528808173E+03  0.46999998093E+01 0. -1.
       -5    1    3    3    0  502 -0.49801569477E+03 -0.37347331567E+03  0.65993262051E+03  0.90721282143E+03  0.46999998093E+01 0.  1.
</event>
<event>
 5   0  0.4947006E-04  0.1643331E+04  0.7818609E-02  0.8794361E-01
        1   -1    0    0  501    0  0.00000000000E+00  0.00000000000E+00  0.11300931789E+04  0.11300931789E+04  0.50400001928E-02 0.  1.
       -1   -1    0    0    0  501  0.00000000000E+00  0.00000000000E+00 -0.59741483274E+03  0.59741483276E+03  0.50400001928E-02 0. -1.
    10030    2    1    2    0    0  0.00000000000E+00  0.00000000000E+00  0.53267834616E+03  0.17275080117E+04  0.16433312843E+04 0.  0.
        2    1    3    3  502    0 -0.43302914071E+03 -0.23467484515E+03  0.95771159975E+03  0.10769391942E+04  0.25500000920E-02 0.  1.
       -2    1    3    3    0  502  0.43302914071E+03  0.23467484515E+03 -0.42503325359E+03  0.65056881750E+03  0.25500000920E-02 0. -1.
</event>
<event>
 5   0  0.1007187E-03  0.1797016E+04  0.7818609E-02  0.8707888E-01
       -2   -1    0    0    0  501  0.00000000000E+00  0.00000000000E+00  0.36631841577E+03  0.36631841578E+03  0.25500000920E-02 0.  1.
        2   -1    0    0  501    0  0.00000000000E+00  0.00000000000E+00 -0.22038655189E+04  0.22038655189E+04  0.25500000920E-02 0. -1.
    10030    2    1    2    0    0  0.00000000000E+00  0.00000000000E+00 -0.18375471032E+04  0.25701839347E+04  0.17970158881E+04 0.  0.
        5    1    3    3  502    0 -0.73116078078E+03  0.35586663932E+03 -0.14653789250E+04  0.16758862241E+04  0.46999998093E+01 0.  1.
       -5    1    3    3    0  502  0.73116078078E+03 -0.35586663932E+03 -0.37216817812E+03  0.89429771057E+03  0.46999998093E+01 0. -1.
</event>
<event>
 5   0  0.5074133E-04  0.1665131E+04  0.7818609E-02  0.8781505E-01
       -1   -1    0    0    0  501  0.00000000000E+00  0.00000000000E+00  0.61520714601E+03  0.61520714603E+03  0.50400001928E-02 0.  1.
        1   -1    0    0  501    0  0.00000000000E+00  0.00000000000E+00 -0.11267180994E+04  0.11267180995E+04  0.50400001928E-02 0. -1.
    10030    2    1    2    0    0  0.00000000000E+00  0.00000000000E+00 -0.51151095343E+03  0.17419252455E+04  0.16651306572E+04 0.  0.
        1    1    3    3  502    0 -0.44852222061E+02  0.16980462158E+03 -0.11071189853E+04  0.11209628803E+04  0.50400001928E-02 0. -1.
       -1    1    3    3    0  502  0.44852222061E+02 -0.16980462158E+03  0.59560803188E+03  0.62096236520E+03  0.50400001928E-02 0.  1.
</event>
<event>
 5   0  0.9312096E-04  0.1695411E+04  0.7818609E-02  0.8763986E-01
        2   -1    0    0  501    0  0.00000000000E+00  0.00000000000E+00  0.14509417803E+04  0.14509417803E+04  0.25500000920E-02 0.  1.
       -2   -1    0    0    0  501  0.00000000000E+00  0.00000000000E+00 -0.49526799369E+03  0.49526799370E+03  0.25500000920E-02 0. -1.
    10030    2    1    2    0    0  0.00000000000E+00  0.00000000000E+00  0.95567378662E+03  0.19462097740E+04  0.16954114834E+04 0.  0.
        3    1    3    3  502    0 -0.61612384666E+02  0.21339784552E+03 -0.46127059031E+03  0.51196219988E+03  0.10100000352E+00 0. -1.
       -3    1    3    3    0  502  0.61612384666E+02 -0.21339784552E+03  0.14169443769E+04  0.14342475741E+04  0.10100000352E+00 0.  1.
</event>
<event>
 5   0  0.9625225E-04  0.1237703E+04  0.7818609E-02  0.9080481E-01
       -2   -1    0    0    0  501  0.00000000000E+00  0.00000000000E+00  0.15460924066E+03  0.15460924068E+03  0.25500000920E-02 0. -1.
        2   -1    0    0  501    0  0.00000000000E+00  0.00000000000E+00 -0.24770634432E+04  0.24770634432E+04  0.25500000920E-02 0.  1.
    10030    2    1    2    0    0  0.00000000000E+00  0.00000000000E+00 -0.23224542026E+04  0.26316726839E+04  0.12377025459E+04 0.  0.
        1    1    3    3  502    0  0.38915692767E+03  0.60451433902E+02 -0.14622222324E+03  0.42009335725E+03  0.50400001928E-02 0. -1.
       -1    1    3    3    0  502 -0.38915692767E+03 -0.60451433902E+02 -0.21762319793E+04  0.22115793266E+04  0.50400001928E-02 0.  1.
</event>
<event>
 5   0  0.9312096E-04  0.1652693E+04  0.7818609E-02  0.8788815E-01
       -2   -1    0    0    0  501  0.00000000000E+00  0.00000000000E+00  0.10006987076E+04  0.10006987076E+04  0.25500000920E-02 0. -1.
        2   -1    0    0  501    0  0.00000000000E+00  0.00000000000E+00 -0.68237196349E+03  0.68237196350E+03  0.25500000920E-02 0.  1.
    10030    2    1    2    0    0  0.00000000000E+00  0.00000000000E+00  0.31832674410E+03  0.16830706711E+04  0.16526932468E+04 0.  0.
        3    1    3    3  502    0  0.19285065823E+03 -0.48017875801E+03  0.81527690234E+03  0.96562904560E+03  0.10100000352E+00 0. -1.
       -3    1    3    3    0  502 -0.19285065823E+03  0.48017875801E+03 -0.49695015824E+03  0.71744162550E+03  0.10100000352E+00 0.  1.
</event>
<event>
 5   0  0.4947006E-04  0.1674956E+04  0.7818609E-02  0.8775778E-01
       -1   -1    0    0    0  501  0.00000000000E+00  0.00000000000E+00  0.66205003010E+03  0.66205003012E+03  0.50400001928E-02 0. -1.
        1   -1    0    0  501    0  0.00000000000E+00  0.00000000000E+00 -0.10593908555E+04  0.10593908555E+04  0.50400001928E-02 0.  1.
    10030    2    1    2    0    0  0.00000000000E+00  0.00000000000E+00 -0.39734082539E+03  0.17214408856E+04  0.16749564147E+04 0.  0.
        2    1    3    3  502    0  0.82519172846E+03  0.12469281033E+03 -0.27046658288E+03  0.87729234474E+03  0.25500000920E-02 0.  1.
       -2    1    3    3    0  502 -0.82519172846E+03 -0.12469281033E+03 -0.12687424251E+03  0.84414854089E+03  0.25500000920E-02 0. -1.
</event>
<event>
 5   0  0.9284971E-04  0.1709150E+04  0.7818609E-02  0.8756163E-01
        2   -1    0    0  501    0  0.00000000000E+00  0.00000000000E+00  0.19176636061E+04  0.19176636061E+04  0.25500000920E-02 0.  1.
       -2   -1    0    0    0  501  0.00000000000E+00  0.00000000000E+00 -0.38082718626E+03  0.38082718627E+03  0.25500000920E-02 0. -1.
    10030    2    1    2    0    0  0.00000000000E+00  0.00000000000E+00  0.15368364198E+04  0.22984907923E+04  0.17091500055E+04 0.  0.
        4    1    3    3  502    0  0.57932111100E+03 -0.46936373187E+03  0.20683661388E+03  0.77375594356E+03  0.12699999809E+01 0.  1.
       -4    1    3    3    0  502 -0.57932111100E+03  0.46936373187E+03  0.13299998059E+04  0.15247348488E+04  0.12699999809E+01 0. -1.
</event>
<event>
 5   0  0.5059689E-04  0.1661173E+04  0.7818609E-02  0.8783824E-01
       -1   -1    0    0    0  501  0.00000000000E+00  0.00000000000E+00  0.11375345867E+04  0.11375345867E+04  0.50400001928E-02 0.  1.
        1   -1    0    0  501    0  0.00000000000E+00  0.00000000000E+00 -0.60646385522E+03  0.60646385524E+03  0.50400001928E-02 0. -1.
    10030    2    1    2    0    0  0.00000000000E+00  0.00000000000E+00  0.53107073149E+03  0.17439984420E+04  0.16611726111E+04 0.  0.
        5    1    3    3  502    0  0.39680543377E+03  0.42532693902E+03 -0.35689427519E+03  0.68246111317E+03  0.46999998093E+01 0. -1.
       -5    1    3    3    0  502 -0.39680543377E+03 -0.42532693902E+03  0.88796500668E+03  0.10615373288E+04  0.46999998093E+01 0.  1.
</event>
<event>
 5   0  0.3523125E-04  0.1649086E+04  0.7818609E-02  0.8790947E-01
        4   -1    0    0  501    0  0.00000000000E+00  0.00000000000E+00  0.13101451962E+04  0.13101458118E+04  0.12699999809E+01 0. -1.
       -4   -1    0    0    0  501  0.00000000000E+00  0.00000000000E+00 -0.51892676543E+03  0.51892831950E+03  0.12699999809E+01 0.  1.
    10030    2    1    2    0    0  0.00000000000E+00  0.00000000000E+00  0.79121843081E+03  0.18290741313E+04  0.16490862841E+04 0.  0.
        3    1    3    3  502    0  0.27202041750E+03  0.52504241519E+03  0.10329634758E+04  0.11902429155E+04  0.10100000352E+00 0. -1.
       -3    1    3    3    0  502 -0.27202041750E+03 -0.52504241519E+03 -0.24174504501E+03  0.63883121580E+03  0.10100000352E+00 0.  1.
</event>
<event>
 5   0  0.3523125E-04  0.1675644E+04  0.7818609E-02  0.8775379E-01
        3   -1    0    0  501    0  0.00000000000E+00  0.00000000000E+00  0.33699239981E+03  0.33699241494E+03  0.10100000352E+00 0. -1.
       -3   -1    0    0    0  501  0.00000000000E+00  0.00000000000E+00 -0.20829724619E+04  0.20829724643E+04  0.10100000352E+00 0.  1.
    10030    2    1    2    0    0  0.00000000000E+00  0.00000000000E+00 -0.17459800621E+04  0.24199648793E+04  0.16756442462E+04 0.  0.
        3    1    3    3  502    0 -0.10671482183E+03  0.46609003322E+03  0.12059198165E+03  0.49312311699E+03  0.10100000352E+00 0. -1.
       -3    1    3    3    0  502  0.10671482183E+03 -0.46609003322E+03 -0.18665720437E+04  0.19268417623E+04  0.10100000352E+00 0.  1.
</event>
<event>
 5   0  0.4947006E-04  0.1671030E+04  0.7818609E-02  0.8778062E-01
        1   -1    0    0  501    0  0.00000000000E+00  0.00000000000E+00  0.10578981346E+04  0.10578981346E+04  0.50400001928E-02 0.  1.
       -1   -1    0    0    0  501  0.00000000000E+00  0.00000000000E+00 -0.65987921260E+03  0.65987921262E+03  0.50400001928E-02 0. -1.
    10030    2    1    2    0    0  0.00000000000E+00  0.00000000000E+00  0.39801892196E+03  0.17177773472E+04  0.16710296084E+04 0.  0.
        2    1    3    3  502    0 -0.43970736863E+03 -0.65118578702E+03 -0.93014251657E+02  0.79122509456E+03  0.25500000920E-02 0. -1.
       -2    1    3    3    0  502  0.43970736863E+03  0.65118578702E+03  0.49103317362E+03  0.92655225263E+03  0.25500000920E-02 0.  1.
</event>
<event>
 5   0  0.5009762E-04  0.1431787E+04  0.7818609E-02  0.8931125E-01
        1   -1    0    0  501    0  0.00000000000E+00  0.00000000000E+00  0.10113704701E+04  0.10113704701E+04  0.50400001928E-02 0. -1.
       -1   -1    0    0    0  501  0.00000000000E+00  0.00000000000E+00 -0.50674171785E+03  0.50674171788E+03  0.50400001928E-02 0.  1.
    10030    2    1    2    0    0  0.00000000000E+00  0.00000000000E+00  0.50462875226E+03  0.15181121880E+04  0.14317871482E+04 0.  0.
        3    1    3    3  502    0  0.30478757443E+03 -0.96484795903E+02 -0.42685100393E+03  0.53329782592E+03  0.10100000352E+00 0.  1.
       -3    1    3    3    0  502 -0.30478757443E+03  0.96484795903E+02  0.93147975619E+03  0.98481436209E+03  0.10100000352E+00 0. -1.
</event>
<event>
 5   0  0.5059689E-04  0.1689261E+04  0.7818609E-02  0.8767513E-01
        1   -1    0    0  501    0  0.00000000000E+00  0.00000000000E+00  0.16254619990E+04  0.16254619990E+04  0.50400001928E-02 0.  1.
       -1   -1    0    0    0  501  0.00000000000E+00  0.00000000000E+00 -0.43889077075E+03  0.43889077078E+03  0.50400001928E-02 0. -1.
    10030    2    1    2    0    0  0.00000000000E+00  0.00000000000E+00  0.11865712283E+04  0.20643527698E+04  0.16892605123E+04 0.  0.
        5    1    3    3  502    0 -0.64369058131E+03  0.49785370961E+03  0.86975508337E+03  0.11910885255E+04  0.46999998093E+01 0.  1.
       -5    1    3    3    0  502  0.64369058131E+03 -0.49785370961E+03  0.31681614490E+03  0.87326424426E+03  0.46999998093E+01 0. -1.
</event>
<event>
 5   0  0.1007187E-03  0.1609650E+04  0.7818609E-02  0.8814641E-01
       -2   -1    0    0    0  501  0.00000000000E+00  0.00000000000E+00  0.59988516669E+03  0.59988516670E+03  0.25500000920E-02 0.  1.
        2   -1    0    0  501    0  0.00000000000E+00  0.00000000000E+00 -0.10797788065E+04  0.10797788065E+04  0.25500000920E-02 0. -1.
    10030    2    1    2    0    0  0.00000000000E+00  0.00000000000E+00 -0.47989363985E+03  0.16796639732E+04  0.16096500109E+04 0.  0.
        5    1    3    3  502    0  0.11752997835E+03  0.50609281229E+03  0.40142409870E+03  0.65658710578E+03  0.46999998093E+01 0.  1.
       -5    1    3    3    0  502 -0.11752997835E+03 -0.50609281229E+03 -0.88131773856E+03  0.10230768675E+04  0.46999998093E+01 0. -1.
</event>
<event>
 5   0  0.5074133E-04  0.1613196E+04  0.7818609E-02  0.8812482E-01
       -1   -1    0    0    0  501  0.00000000000E+00  0.00000000000E+00  0.93053476018E+03  0.93053476019E+03  0.50400001928E-02 0.  1.
        1   -1    0    0  501    0  0.00000000000E+00  0.00000000000E+00 -0.69916824561E+03  0.69916824562E+03  0.50400001928E-02 0. -1.
    10030    2    1    2    0    0  0.00000000000E+00  0.00000000000E+00  0.23136651457E+03  0.16297030058E+04  0.16131960275E+04 0.  0.
        1    1    3    3  502    0  0.27933129819E+03 -0.72421051150E+02  0.87660331802E+03  0.92287819347E+03  0.50400001928E-02 0.  1.
       -1    1    3    3    0  502 -0.27933129819E+03  0.72421051150E+02 -0.64523680345E+03  0.70682481234E+03  0.50400001928E-02 0. -1.
</event>
<event>
 5   0  0.5059689E-04  0.1669169E+04  0.7818609E-02  0.8779146E-01
       -1   -1    0    0    0  501  0.00000000000E+00  0.00000000000E+00  0.40043655303E+03  0.40043655306E+03  0.50400001928E-02 0.  1.
        1   -1    0    0  501    0  0.00000000000E+00  0.00000000000E+00 -0.17394304235E+04  0.17394304235E+04  0.50400001928E-02 0. -1.
    10030    2    1    2    0    0  0.00000000000E+00  0.00000000000E+00 -0.13389938704E+04  0.21398669765E+04  0.16691692821E+04 0.  0.
        5    1    3    3  502    0  0.39970546794E+03 -0.72915289742E+03 -0.76087922206E+03  0.11271147632E+04  0.46999998093E+01 0.  1.
       -5    1    3    3    0  502 -0.39970546794E+03  0.72915289742E+03 -0.57811464838E+03  0.10127522133E+04  0.46999998093E+01 0. -1.
</event>
<event>
 5   0  0.5035495E-04  0.1674402E+04  0.7818609E-02  0.8776100E-01
       -1   -1    0    0    0  501  0.00000000000E+00  0.00000000000E+00  0.42362414329E+03  0.42362414332E+03  0.50400001928E-02 0. -1.
        1   -1    0    0  501    0  0.00000000000E+00  0.00000000000E+00 -0.16545455401E+04  0.16545455401E+04  0.50400001928E-02 0.  1.
    10030    2    1    2    0    0  0.00000000000E+00  0.00000000000E+00 -0.12309213968E+04  0.20781696834E+04  0.16744019075E+04 0.  0.
        4    1    3    3  502    0  0.80074125360E+02 -0.57165063212E+03 -0.13680751388E+04  0.14848661586E+04  0.12699999809E+01 0.  1.
       -4    1    3    3    0  502 -0.80074125360E+02  0.57165063212E+03  0.13715374194E+03  0.59330352483E+03  0.12699999809E+01 0. -1.
</event>
<event>
 5   0  0.4947006E-04  0.1662517E+04  0.7818609E-02  0.8783036E-01
        1   -1    0    0  501    0  0.00000000000E+00  0.00000000000E+00  0.14148908365E+04  0.14148908365E+04  0.50400001928E-02 0. -1.
       -1   -1    0    0    0  501  0.00000000000E+00  0.00000000000E+00 -0.48837033376E+03  0.48837033378E+03  0.50400001928E-02 0.  1.
    10030    2    1    2    0    0  0.00000000000E+00  0.00000000000E+00  0.92652050275E+03  0.19032611703E+04  0.16625170196E+04 0.  0.
        2    1    3    3  502    0  0.46741739518E+03  0.24131953438E+03 -0.27358701028E+03  0.59292831876E+03  0.25500000920E-02 0.  1.
       -2    1    3    3    0  502 -0.46741739518E+03 -0.24131953438E+03  0.12001075130E+04  0.13103328515E+04  0.25500000920E-02 0. -1.
</event>
<event>
 5   0  0.9610114E-04  0.1759404E+04  0.7818609E-02  0.8728191E-01
       -2   -1    0    0    0  501  0.00000000000E+00  0.00000000000E+00  0.78622464452E+03  0.78622464452E+03  0.25500000920E-02 0. -1.
        2   -1    0    0  501    0  0.00000000000E+00  0.00000000000E+00 -0.98429378122E+03  0.98429378123E+03  0.25500000920E-02 0.  1.
    10030    2    1    2    0    0  0.00000000000E+00  0.00000000000E+00 -0.19806913670E+03  0.17705184257E+04  0.17594044768E+04 0.  0.
        2    1    3    3  502    0 -0.15073825171E+03  0.59685796643E+03 -0.73142652810E+03  0.95600534446E+03  0.25500000920E-02 0.  1.
       -2    1    3    3    0  502  0.15073825171E+03 -0.59685796643E+03  0.53335739140E+03  0.81451308129E+03  0.25500000920E-02 0. -1.
</event>
<event>
 5   0  0.9312096E-04  0.1697044E+04  0.7818609E-02  0.8763052E-01
       -2   -1    0    0    0  501  0.00000000000E+00  0.00000000000E+00  0.32821224305E+03  0.32821224306E+03  0.25500000920E-02 0. -1.
        2   -1    0    0  501    0  0.00000000000E+00  0.00000000000E+00 -0.21936711964E+04  0.21936711964E+04  0.25500000920E-02 0.  1.
    10030    2    1    2    0    0  0.00000000000E+00  0.00000000000E+00 -0.18654589534E+04  0.25218834395E+04  0.16970441879E+04 0.  0.
        3    1    3    3  502    0 -0.48200953968E+03  0.69745300498E+03 -0.98454628344E+03  0.12992710591E+04  0.10100000352E+00 0.  1.
       -3    1    3    3    0  502  0.48200953968E+03 -0.69745300498E+03 -0.88091266993E+03  0.12226123804E+04  0.10100000352E+00 0. -1.
</event>
<event>
 5   0  0.9284971E-04  0.1122605E+04  0.7818609E-02  0.9183436E-01
       -2   -1    0    0    0  501  0.00000000000E+00  0.00000000000E+00  0.61524234149E+03  0.61524234150E+03  0.25500000920E-02 0. -1.
        2   -1    0    0  501    0  0.00000000000E+00  0.00000000000E+00 -0.51209154392E+03  0.51209154392E+03  0.25500000920E-02 0.  1.
    10030    2    1    2    0    0  0.00000000000E+00  0.00000000000E+00  0.10315079758E+03  0.11273338854E+04  0.11226048290E+04 0.  0.
        4    1    3    3  502    0 -0.27744607830E+03 -0.15622044921E+03  0.51577545293E+03  0.60614114351E+03  0.12699999809E+01 0. -1.
       -4    1    3    3    0  502  0.27744607830E+03  0.15622044921E+03 -0.41262465535E+03  0.52119274191E+03  0.12699999809E+01 0.  1.
</event>
<event>
 5   0  0.5059689E-04  0.1702707E+04  0.7818609E-02  0.8759822E-01
       -1   -1    0    0    0  501  0.00000000000E+00  0.00000000000E+00  0.34980351317E+03  0.34980351321E+03  0.50400001928E-02 0.  1.
        1   -1    0    0  501    0  0.00000000000E+00  0.00000000000E+00 -0.20720286460E+04  0.20720286460E+04  0.50400001928E-02 0. -1.
    10030    2    1    2    0    0  0.00000000000E+00  0.00000000000E+00 -0.17222251328E+04  0.24218321592E+04  0.17027071384E+04 0.  0.
        5    1    3    3  502    0  0.66047557041E+03 -0.53211596362E+03 -0.75653963375E+03  0.11365516642E+04  0.46999998093E+01 0.  1.
       -5    1    3    3    0  502 -0.66047557041E+03  0.53211596362E+03 -0.96568549909E+03  0.12852804951E+04  0.46999998093E+01 0. -1.
</event>
<event>
 5   0  0.9625225E-04  0.1675701E+04  0.7818609E-02  0.8775346E-01
       -2   -1    0    0    0  501  0.00000000000E+00  0.00000000000E+00  0.90159081950E+03  0.90159081950E+03  0.25500000920E-02 0.  1.
        2   -1    0    0  501    0  0.00000000000E+00  0.00000000000E+00 -0.77861653046E+03  0.77861653046E+03  0.25500000920E-02 0. -1.
    10030    2    1    2    0    0  0.00000000000E+00  0.00000000000E+00  0.12297428904E+03  0.16802073500E+04  0.16757010662E+04 0.  0.
        1    1    3    3  502    0 -0.73542970759E+03  0.98521533504E+02 -0.32869962284E+03  0.81154592566E+03  0.50400001928E-02 0. -1.
       -1    1    3    3    0  502  0.73542970759E+03 -0.98521533504E+02  0.45167391188E+03  0.86866142430E+03  0.50400001928E-02 0.  1.
</event>
<event>
 5   0  0.1007187E-03  0.1693285E+04  0.7818609E-02  0.8765203E-01
        2   -1    0    0  501    0  0.00000000000E+00  0.00000000000E+00  0.85540950489E+03  0.85540950490E+03  0.25500000920E-02 0.  1.
       -2   -1    0    0    0  501  0.00000000000E+00  0.00000000000E+00 -0.83796544140E+03  0.83796544140E+03  0.25500000920E-02 0. -1.
    10030    2    1    2    0    0  0.00000000000E+00  0.00000000000E+00  0.17444063498E+02  0.16933749463E+04  0.16932850951E+04 0.  0.
        5    1    3    3  502    0  0.64173753966E+03  0.49726426482E+03  0.24890699442E+03  0.84916170471E+03  0.46999998093E+01 0.  1.
       -5    1    3    3    0  502 -0.64173753966E+03 -0.49726426482E+03 -0.23146293092E+03  0.84421324159E+03  0.46999998093E+01 0. -1.
</event>
<event>
 5   0  0.5035495E-04  0.1700286E+04  0.7818609E-02  0.8761201E-01
       -1   -1    0    0    0  501  0.00000000000E+00  0.00000000000E+00  0.49007734229E+03  0.49007734232E+03  0.50400001928E-02 0. -1.
        1   -1    0    0  501    0  0.00000000000E+00  0.00000000000E+00 -0.14747540002E+04  0.14747540002E+04  0.50400001928E-02 0.  1.
    10030    2    1    2    0    0  0.00000000000E+00  0.00000000000E+00 -0.98467665787E+03  0.19648313425E+04  0.17002864711E+04 0.  0.
        4    1    3    3  502    0  0.83175790015E+02  0.14732750532E+02  0.48521477608E+03  0.49251422092E+03  0.12699999809E+01 0. -1.
       -4    1    3    3    0  502 -0.83175790015E+02 -0.14732750532E+02 -0.14698914339E+04  0.14723171216E+04  0.12699999809E+01 0.  1.
</event>
<event>
 5   0  0.4947006E-04  0.1748927E+04  0.7818609E-02  0.8733941E-01
        1   -1    0    0  501    0  0.00000000000E+00  0.00000000000E+00  0.15941050999E+04  0.15941050999E+04  0.50400001928E-02 0.  1.
       -1   -1    0    0    0  501  0.00000000000E+00  0.00000000000E+00 -0.47969654853E+03  0.47969654856E+03  0.50400001928E-02 0. -1.
    10030    2    1    2    0    0  0.00000000000E+00  0.00000000000E+00  0.11144085513E+04  0.20738016484E+04  0.17489273449E+04 0.  0.
        2    1    3    3  502    0  0.82590073302E+03  0.18468628507E+03  0.81824757896E+03  0.11771788926E+04  0.25500000920E-02 0.  1.
       -2    1    3    3    0  502 -0.82590073302E+03 -0.18468628507E+03  0.29616097236E+03  0.89662275582E+03  0.25500000920E-02 0. -1.
</event>
<event>
 5   0  0.4947006E-04  0.1768636E+04  0.7818609E-02  0.8723159E-01
       -1   -1    0    0    0  501  0.00000000000E+00  0.00000000000E+00  0.11892523837E+04  0.11892523837E+04  0.50400001928E-02 0. -1.
        1   -1    0    0  501    0  0.00000000000E+00  0.00000000000E+00 -0.65757108078E+03  0.65757108080E+03  0.50400001928E-02 0.  1.
    10030    2    1    2    0    0  0.00000000000E+00  0.00000000000E+00  0.53168130289E+03  0.18468234645E+04  0.17686356044E+04 0.  0.
        2    1    3    3  502    0  0.66914240854E+03  0.56876551376E+03  0.37421818896E+03  0.95461250019E+03  0.25500000920E-02 0. -1.
       -2    1    3    3    0  502 -0.66914240854E+03 -0.56876551376E+03  0.15746311392E+03  0.89221096429E+03  0.25500000920E-02 0.  1.
</event>
<event>
 5   0  0.5059689E-04  0.1755237E+04  0.7818609E-02  0.8730473E-01
        1   -1    0    0  501    0  0.00000000000E+00  0.00000000000E+00  0.98751120322E+03  0.98751120323E+03  0.50400001928E-02 0. -1.
       -1   -1    0    0    0  501  0.00000000000E+00  0.00000000000E+00 -0.77995474914E+03  0.77995474915E+03  0.50400001928E-02 0.  1.
    10030    2    1    2    0    0  0.00000000000E+00  0.00000000000E+00  0.20755645408E+03  0.17674659524E+04  0.17552367963E+04 0.  0.
        5    1    3    3  502    0  0.41823542665E+03  0.74969836968E+03  0.28732116313E+03  0.90528672716E+03  0.46999998093E+01 0. -1.
       -5    1    3    3    0  502 -0.41823542665E+03 -0.74969836968E+03 -0.79764709047E+02  0.86217922522E+03  0.46999998093E+01 0.  1.
</event>
<event>
 5   0  0.4947006E-04  0.9926985E+03  0.7818609E-02  0.9316589E-01
        1   -1    0    0  501    0  0.00000000000E+00  0.00000000000E+00  0.17075160437E+04  0.17075160437E+04  0.50400001928E-02 0.  1.
       -1   -1    0    0    0  501  0.00000000000E+00  0.00000000000E+00 -0.14428126411E+03  0.14428126420E+03  0.50400001928E-02 0. -1.
    10030    2    1    2    0    0  0.00000000000E+00  0.00000000000E+00  0.15632347796E+04  0.18517973079E+04  0.99269849071E+03 0.  0.
        2    1    3    3  502    0 -0.20818922876E+03  0.31367296323E+03  0.17822154941E+03  0.41652899480E+03  0.25500000920E-02 0. -1.
       -2    1    3    3    0  502  0.20818922876E+03 -0.31367296323E+03  0.13850132302E+04  0.14352683131E+04  0.25500000920E-02 0.  1.
</event>
<event>
 5   0  0.9610114E-04  0.1345516E+04  0.7818609E-02  0.8994229E-01
        2   -1    0    0  501    0  0.00000000000E+00  0.00000000000E+00  0.12924758093E+04  0.12924758093E+04  0.25500000920E-02 0.  1.
       -2   -1    0    0    0  501  0.00000000000E+00  0.00000000000E+00 -0.35018343193E+03  0.35018343194E+03  0.25500000920E-02 0. -1.
    10030    2    1    2    0    0  0.00000000000E+00  0.00000000000E+00  0.94229237734E+03  0.16426592412E+04  0.13455164281E+04 0.  0.
        2    1    3    3  502    0 -0.21645727821E+03  0.26199401629E+03  0.11799787317E+04  0.12279431685E+04  0.25500000920E-02 0.  1.
       -2    1    3    3    0  502  0.21645727821E+03 -0.26199401629E+03 -0.23768635438E+03  0.41471607266E+03  0.25500000920E-02 0. -1.
</event>
<event>
 5   0  0.9610114E-04  0.1261889E+04  0.7818609E-02  0.9060345E-01
        2   -1    0    0  501    0  0.00000000000E+00  0.00000000000E+00  0.11424685827E+04  0.11424685827E+04  0.25500000920E-02 0.  1.
       -2   -1    0    0    0  501  0.00000000000E+00  0.00000000000E+00 -0.34844831653E+03  0.34844831654E+03  0.25500000920E-02 0. -1.
    10030    2    1    2    0    0  0.00000000000E+00  0.00000000000E+00  0.79402026619E+03  0.14909168993E+04  0.12618894632E+04 0.  0.
        2    1    3    3  502    0  0.53433059284E+03  0.32769798821E+03  0.31184322303E+03  0.70010095678E+03  0.25500000920E-02 0. -1.
       -2    1    3    3    0  502 -0.53433059284E+03 -0.32769798821E+03  0.48217704316E+03  0.79081594248E+03  0.25500000920E-02 0.  1.
</event>
<event>
 5   0  0.9312096E-04  0.1641491E+04  0.7818609E-02  0.8795456E-01
       -2   -1    0    0    0  501  0.00000000000E+00  0.00000000000E+00  0.42185299692E+03  0.42185299693E+03  0.25500000920E-02 0. -1.
        2   -1    0    0  501    0  0.00000000000E+00  0.00000000000E+00 -0.15968199734E+04  0.15968199734E+04  0.25500000920E-02 0.  1.
    10030    2    1    2    0    0  0.00000000000E+00  0.00000000000E+00 -0.11749669764E+04  0.20186729703E+04  0.16414911408E+04 0.  0.
        3    1    3    3  502    0  0.46873980202E+03  0.64491775652E+03 -0.34779508739E+03  0.86982604450E+03  0.10100000352E+00 0. -1.
       -3    1    3    3    0  502 -0.46873980202E+03 -0.64491775652E+03 -0.82717188905E+03  0.11488469258E+04  0.10100000352E+00 0.  1.
</event>
<event>
 5   0  0.5074133E-04  0.1714381E+04  0.7818609E-02  0.8753205E-01
       -1   -1    0    0    0  501  0.00000000000E+00  0.00000000000E+00  0.52509807116E+03  0.52509807119E+03  0.50400001928E-02 0.  1.
        1   -1    0    0  501    0  0.00000000000E+00  0.00000000000E+00 -0.13993108761E+04  0.13993108761E+04  0.50400001928E-02 0. -1.
    10030    2    1    2    0    0  0.00000000000E+00  0.00000000000E+00 -0.87421280497E+03  0.19244089473E+04  0.17143808702E+04 0.  0.
        1    1    3    3  502    0  0.57575866494E+03  0.53724639748E+03 -0.81717778591E+03  0.11348617826E+04  0.50400001928E-02 0. -1.
       -1    1    3    3    0  502 -0.57575866494E+03 -0.53724639748E+03 -0.57035019062E+02  0.78954716470E+03  0.50400001928E-02 0.  1.
</event>
<event>
 5   0  0.4947006E-04  0.1121792E+04  0.7818609E-02  0.9184209E-01
       -1   -1    0    0    0  501  0.00000000000E+00  0.00000000000E+00  0.33810420176E+03  0.33810420180E+03  0.50400001928E-02 0.  1.
        1   -1    0    0  501    0  0.00000000000E+00  0.00000000000E+00 -0.93049481973E+03  0.93049481974E+03  0.50400001928E-02 0. -1.
    10030    2    1    2    0    0  0.00000000000E+00  0.00000000000E+00 -0.59239061796E+03  0.12685990215E+04  0.11217917958E+04 0.  0.
        2    1    3    3  502    0 -0.34442350611E+03  0.12545540587E+03  0.18390812016E+03  0.41010828703E+03  0.25500000920E-02 0.  1.
       -2    1    3    3    0  502  0.34442350611E+03 -0.12545540587E+03 -0.77629873812E+03  0.85849073451E+03  0.25500000920E-02 0. -1.
</event>
<event>
 5   0  0.4947006E-04  0.1651206E+04  0.7818609E-02  0.8789693E-01
        1   -1    0    0  501    0  0.00000000000E+00  0.00000000000E+00  0.16170702463E+04  0.16170702463E+04  0.50400001928E-02 0.  1.
       -1   -1    0    0    0  501  0.00000000000E+00  0.00000000000E+00 -0.42151571788E+03  0.42151571791E+03  0.50400001928E-02 0. -1.
    10030    2    1    2    0    0  0.00000000000E+00  0.00000000000E+00  0.11955545284E+04  0.20385859642E+04  0.16512062570E+04 0.  0.
        2    1    3    3  502    0 -0.52321784407E+03 -0.32800893361E+03  0.12743062211E+04  0.14160519475E+04  0.25500000920E-02 0.  1.
       -2    1    3    3    0  502  0.52321784407E+03  0.32800893361E+03 -0.78751692673E+02  0.62253401673E+03  0.25500000920E-02 0. -1.
</event>
<event>
 5   0  0.9312096E-04  0.1718221E+04  0.7818609E-02  0.8751040E-01
        2   -1    0    0  501    0  0.00000000000E+00  0.00000000000E+00  0.10127032377E+04  0.10127032377E+04  0.25500000920E-02 0.  1.
       -2   -1    0    0    0  501  0.00000000000E+00  0.00000000000E+00 -0.72881216118E+03  0.72881216118E+03  0.25500000920E-02 0. -1.
    10030    2    1    2    0    0  0.00000000000E+00  0.00000000000E+00  0.28389107653E+03  0.17415153989E+04  0.17182205159E+04 0.  0.
        3    1    3    3  502    0  0.21847767153E+03 -0.18724799608E+03 -0.67852046312E+03  0.73701040296E+03  0.10100000352E+00 0. -1.
       -3    1    3    3    0  502 -0.21847767153E+03  0.18724799608E+03  0.96241153966E+03  0.10045049959E+04  0.10100000352E+00 0.  1.
</event>
<event>
 5   0  0.9610114E-04  0.1699293E+04  0.7818609E-02  0.8761768E-01
        2   -1    0    0  501    0  0.00000000000E+00  0.00000000000E+00  0.82101689262E+03  0.82101689262E+03  0.25500000920E-02 0. -1.
       -2   -1    0    0    0  501  0.00000000000E+00  0.00000000000E+00 -0.87927454936E+03  0.87927454936E+03  0.25500000920E-02 0.  1.
    10030    2    1    2    0    0  0.00000000000E+00  0.00000000000E+00 -0.58257656742E+02  0.17002914420E+04  0.16992930981E+04 0.  0.
        2    1    3    3  502    0  0.83846038042E+03 -0.11478347531E+03  0.46468206653E+02  0.84755551439E+03  0.25500000920E-02 0. -1.
       -2    1    3    3    0  502 -0.83846038042E+03  0.11478347531E+03 -0.10472586339E+03  0.85273592759E+03  0.25500000920E-02 0.  1.
</event>
<event>
 5   0  0.9610114E-04  0.1686391E+04  0.7818609E-02  0.8769165E-01
       -2   -1    0    0    0  501  0.00000000000E+00  0.00000000000E+00  0.74661735873E+03  0.74661735873E+03  0.25500000920E-02 0.  1.
        2   -1    0    0  501    0  0.00000000000E+00  0.00000000000E+00 -0.95226604516E+03  0.95226604517E+03  0.25500000920E-02 0. -1.
    10030    2    1    2    0    0  0.00000000000E+00  0.00000000000E+00 -0.20564868644E+03  0.16988834039E+04  0.16863906540E+04 0.  0.
        2    1    3    3  502    0 -0.26100176503E+01  0.27837734946E+03  0.69898482528E+03  0.75238324467E+03  0.25500000920E-02 0.  1.
       -2    1    3    3    0  502  0.26100176503E+01 -0.27837734946E+03 -0.90463351172E+03  0.94650015922E+03  0.25500000920E-02 0. -1.
</event>
<event>
 5   0  0.5035495E-04  0.1682601E+04  0.7818609E-02  0.8771350E-01
        1   -1    0    0  501    0  0.00000000000E+00  0.00000000000E+00  0.87101835900E+03  0.87101835901E+03  0.50400001928E-02 0. -1.
       -1   -1    0    0    0  501  0.00000000000E+00  0.00000000000E+00 -0.81259637302E+03  0.81259637303E+03  0.50400001928E-02 0.  1.
    10030    2    1    2    0    0  0.00000000000E+00  0.00000000000E+00  0.58421985979E+02  0.16836147320E+04  0.16826007956E+04 0.  0.
        4    1    3    3  502    0 -0.57564182885E+03 -0.59817742074E+03 -0.10727136559E+03  0.83707138321E+03  0.12699999809E+01 0.  1.
       -4    1    3    3    0  502  0.57564182885E+03  0.59817742074E+03  0.16569335157E+03  0.84654334884E+03  0.12699999809E+01 0. -1.
</event>
<event>
 5   0  0.3523125E-04  0.1702052E+04  0.7818609E-02  0.8760195E-01
       -3   -1    0    0    0  501  0.00000000000E+00  0.00000000000E+00  0.86950466599E+03  0.86950467186E+03  0.10100000352E+00 0.  1.
        3   -1    0    0  501    0  0.00000000000E+00  0.00000000000E+00 -0.83294013333E+03  0.83294013945E+03  0.10100000352E+00 0. -1.
    10030    2    1    2    0    0  0.00000000000E+00  0.00000000000E+00  0.36564532665E+02  0.17024448113E+04  0.17020521057E+04 0.  0.
        4    1    3    3  502    0  0.60047007149E+03 -0.20607049632E+03  0.58517080463E+03  0.86339784555E+03  0.12699999809E+01 0.  1.
       -4    1    3    3    0  502 -0.60047007149E+03  0.20607049632E+03 -0.54860627196E+03  0.83904696576E+03  0.12699999809E+01 0. -1.
</event>
<event>
 5   0  0.9625225E-04  0.1689805E+04  0.7818609E-02  0.8767200E-01
       -2   -1    0    0    0  501  0.00000000000E+00  0.00000000000E+00  0.34246454846E+03  0.34246454847E+03  0.25500000920E-02 0. -1.
        2   -1    0    0  501    0  0.00000000000E+00  0.00000000000E+00 -0.20844791364E+04  0.20844791364E+04  0.25500000920E-02 0.  1.
    10030    2    1    2    0    0  0.00000000000E+00  0.00000000000E+00 -0.17420145879E+04  0.24269436849E+04  0.16898049665E+04 0.  0.
        1    1    3    3  502    0  0.41478875282E+03 -0.19587472160E+03  0.14804981905E+03  0.48201178924E+03  0.50400001928E-02 0. -1.
       -1    1    3    3    0  502 -0.41478875282E+03  0.19587472160E+03 -0.18900644070E+04  0.19449318956E+04  0.50400001928E-02 0.  1.
</event>
<event>
 5   0  0.9312096E-04  0.1682411E+04  0.7818609E-02  0.8771460E-01
       -2   -1    0    0    0  501  0.00000000000E+00  0.00000000000E+00  0.59566049910E+03  0.59566049911E+03  0.25500000920E-02 0. -1.
        2   -1    0    0  501    0  0.00000000000E+00  0.00000000000E+00 -0.11879693200E+04  0.11879693200E+04  0.25500000920E-02 0.  1.
    10030    2    1    2    0    0  0.00000000000E+00  0.00000000000E+00 -0.59230882087E+03  0.17836298191E+04  0.16824106491E+04 0.  0.
        3    1    3    3  502    0 -0.82041885346E+03  0.69089742797E+02 -0.11324661035E+03  0.83107478161E+03  0.10100000352E+00 0. -1.
       -3    1    3    3    0  502  0.82041885346E+03 -0.69089742797E+02 -0.47906221052E+03  0.95255503747E+03  0.10100000352E+00 0.  1.
</event>
<event>
 5   0  0.4947006E-04  0.1692028E+04  0.7818609E-02  0.8765924E-01
        1   -1    0    0  501    0  0.00000000000E+00  0.00000000000E+00  0.10962527683E+04  0.10962527683E+04  0.50400001928E-02 0.  1.
       -1   -1    0    0    0  501  0.00000000000E+00  0.00000000000E+00 -0.65289629181E+03  0.65289629183E+03  0.50400001928E-02 0. -1.
    10030    2    1    2    0    0  0.00000000000E+00  0.00000000000E+00  0.44335647649E+03  0.17491490601E+04  0.16920276207E+04 0.  0.
        2    1    3    3  502    0  0.64625811699E+03 -0.53930056337E+03  0.13368889971E+03  0.85227188933E+03  0.25500000920E-02 0. -1.
       -2    1    3    3    0  502 -0.64625811699E+03  0.53930056337E+03  0.30966757678E+03  0.89687717082E+03  0.25500000920E-02 0.  1.
</event>
<event>
 5   0  0.9312096E-04  0.1762025E+04  0.7818609E-02  0.8726759E-01
       -2   -1    0    0    0  501  0.00000000000E+00  0.00000000000E+00  0.46260558797E+03  0.46260558798E+03  0.25500000920E-02 0.  1.
        2   -1    0    0  501    0  0.00000000000E+00  0.00000000000E+00 -0.16778513969E+04  0.16778513969E+04  0.25500000920E-02 0. -1.
    10030    2    1    2    0    0  0.00000000000E+00  0.00000000000E+00 -0.12152458089E+04  0.21404569849E+04  0.17620254618E+04 0.  0.
        3    1    3    3  502    0 -0.15882691507E+03 -0.37603251049E+01 -0.16603065992E+04  0.16678903269E+04  0.10100000352E+00 0. -1.
       -3    1    3    3    0  502  0.15882691507E+03  0.37603251049E+01  0.44506079027E+03  0.47256665798E+03  0.10100000352E+00 0.  1.
</event>
<event>
 5   0  0.9610114E-04  0.1667995E+04  0.7818609E-02  0.8779831E-01
        2   -1    0    0  501    0  0.00000000000E+00  0.00000000000E+00  0.73667457182E+03  0.73667457182E+03  0.25500000920E-02 0.  1.
       -2   -1    0    0    0  501  0.00000000000E+00  0.00000000000E+00 -0.94417827161E+03  0.94417827161E+03  0.25500000920E-02 0. -1.
    10030    2    1    2    0    0  0.00000000000E+00  0.00000000000E+00 -0.20750369979E+03  0.16808528434E+04  0.16679953525E+04 0.  0.
        2    1    3    3  502    0 -0.36352104483E+03 -0.49010648065E+03  0.46913740291E+03  0.76970241992E+03  0.25500000920E-02 0.  1.
       -2    1    3    3    0  502  0.36352104483E+03  0.49010648065E+03 -0.67664110270E+03  0.91115042352E+03  0.25500000920E-02 0. -1.
</event>
<event>
 5   0  0.9312096E-04  0.1723780E+04  0.7818609E-02  0.8747917E-01
        2   -1    0    0  501    0  0.00000000000E+00  0.00000000000E+00  0.58702566341E+03  0.58702566341E+03  0.25500000920E-02 0. -1.
       -2   -1    0    0    0  501  0.00000000000E+00  0.00000000000E+00 -0.12654544680E+04  0.12654544680E+04  0.25500000920E-02 0.  1.
    10030    2    1    2    0    0  0.00000000000E+00  0.00000000000E+00 -0.67842880463E+03  0.18524801314E+04  0.17237798567E+04 0.  0.
        3    1    3    3  502    0 -0.53508391720E+03 -0.62802580844E+03 -0.60706834964E+03  0.10243354948E+04  0.10100000352E+00 0.  1.
       -3    1    3    3    0  502  0.53508391720E+03  0.62802580844E+03 -0.71360454986E+02  0.82814463667E+03  0.10100000352E+00 0. -1.
</event>
<event>
 5   0  0.5059689E-04  0.1730220E+04  0.7818609E-02  0.8744314E-01
        1   -1    0    0  501    0  0.00000000000E+00  0.00000000000E+00  0.84149596812E+03  0.84149596813E+03  0.50400001928E-02 0. -1.
       -1   -1    0    0    0  501  0.00000000000E+00  0.00000000000E+00 -0.88938690138E+03  0.88938690140E+03  0.50400001928E-02 0.  1.
    10030    2    1    2    0    0  0.00000000000E+00  0.00000000000E+00 -0.47890933266E+02  0.17308828695E+04  0.17302202075E+04 0.  0.
        5    1    3    3  502    0  0.11908864325E+03  0.55627721443E+01 -0.88111687984E+03  0.88915808230E+03  0.46999998093E+01 0.  1.
       -5    1    3    3    0  502 -0.11908864325E+03 -0.55627721443E+01  0.83322594657E+03  0.84172478722E+03  0.46999998093E+01 0. -1.
</event>
<event>
 5   0  0.5059689E-04  0.1686698E+04  0.7818609E-02  0.8768988E-01
       -1   -1    0    0    0  501  0.00000000000E+00  0.00000000000E+00  0.84343325997E+03  0.84343325999E+03  0.50400001928E-02 0. -1.
        1   -1    0    0  501    0  0.00000000000E+00  0.00000000000E+00 -0.84326428013E+03  0.84326428015E+03  0.50400001928E-02 0.  1.
    10030    2    1    2    0    0  0.00000000000E+00  0.00000000000E+00  0.16897984239E+00  0.16866975401E+04  0.16866975317E+04 0.  0.
        5    1    3    3  502    0  0.59708459548E+03 -0.20905161339E+03  0.55776043771E+03  0.84340464019E+03  0.46999998093E+01 0. -1.
       -5    1    3    3    0  502 -0.59708459548E+03  0.20905161339E+03 -0.55759145787E+03  0.84329289995E+03  0.46999998093E+01 0.  1.
</event>
<event>
 5   0  0.9625225E-04  0.1778157E+04  0.7818609E-02  0.8718002E-01
       -2   -1    0    0    0  501  0.00000000000E+00  0.00000000000E+00  0.50058472680E+03  0.50058472680E+03  0.25500000920E-02 0. -1.
        2   -1    0    0  501    0  0.00000000000E+00  0.00000000000E+00 -0.15790742809E+04  0.15790742809E+04  0.25500000920E-02 0.  1.
    10030    2    1    2    0    0  0.00000000000E+00  0.00000000000E+00 -0.10784895541E+04  0.20796590077E+04  0.17781568744E+04 0.  0.
        1    1    3    3  502    0  0.40710299289E+03 -0.41666504617E+03  0.24629298855E+03  0.63245778021E+03  0.50400001928E-02 0. -1.
       -1    1    3    3    0  502 -0.40710299289E+03  0.41666504617E+03 -0.13247825427E+04  0.14472012275E+04  0.50400001928E-02 0.  1.
</event>
<event>
 5   0  0.4947006E-04  0.1734653E+04  0.7818609E-02  0.8741844E-01
        1   -1    0    0  501    0  0.00000000000E+00  0.00000000000E+00  0.14649786505E+04  0.14649786505E+04  0.50400001928E-02 0.  1.
       -1   -1    0    0    0  501  0.00000000000E+00  0.00000000000E+00 -0.51349202738E+03  0.51349202740E+03  0.50400001928E-02 0. -1.
    10030    2    1    2    0    0  0.00000000000E+00  0.00000000000E+00  0.95148662308E+03  0.19784706779E+04  0.17346525385E+04 0.  0.
        2    1    3    3  502    0 -0.10432445115E+02  0.19421472541E+03  0.14397852981E+04  0.14528626570E+04  0.25500000920E-02 0.  1.
       -2    1    3    3    0  502  0.10432445115E+02 -0.19421472541E+03 -0.48829867507E+03  0.52560802082E+03  0.25500000920E-02 0. -1.
</event>
<event>
 5   0  0.9610114E-04  0.1687806E+04  0.7818609E-02  0.8768350E-01
        2   -1    0    0  501    0  0.00000000000E+00  0.00000000000E+00  0.12115321364E+04  0.12115321364E+04  0.25500000920E-02 0.  1.
       -2   -1    0    0    0  501  0.00000000000E+00  0.00000000000E+00 -0.58782760094E+03  0.58782760095E+03  0.25500000920E-02 0. -1.
    10030    2    1    2    0    0  0.00000000000E+00  0.00000000000E+00  0.62370453548E+03  0.17993597374E+04  0.16878057107E+04 0.  0.
        2    1    3    3  502    0  0.27818315866E+03 -0.10720988933E+03 -0.52981684945E+03  0.60793562497E+03  0.25500000920E-02 0. -1.
       -2    1    3    3    0  502 -0.27818315866E+03  0.10720988933E+03  0.11535213849E+04  0.11914241124E+04  0.25500000920E-02 0.  1.
</event>
<event>
 5   0  0.5074133E-04  0.1372394E+04  0.7818609E-02  0.8974047E-01
        1   -1    0    0  501    0  0.00000000000E+00  0.00000000000E+00  0.13304437668E+04  0.13304437668E+04  0.50400001928E-02 0. -1.
       -1   -1    0    0    0  501  0.00000000000E+00  0.00000000000E+00 -0.35391686708E+03  0.35391686711E+03  0.50400001928E-02 0.  1.
    10030    2    1    2    0    0  0.00000000000E+00  0.00000000000E+00  0.97652689975E+03  0.16843606340E+04  0.13723942434E+04 0.  0.
        1    1    3    3  502    0  0.51107966750E+03 -0.36188860694E+03  0.83257016348E+03  0.10417959817E+04  0.50400001928E-02 0. -1.
       -1    1    3    3    0  502 -0.51107966750E+03  0.36188860694E+03  0.14395673626E+03  0.64256465224E+03  0.50400001928E-02 0.  1.
</event>
<event>
 5   0  0.9284971E-04  0.1689764E+04  0.7818609E-02  0.8767224E-01
       -2   -1    0    0    0  501  0.00000000000E+00  0.00000000000E+00  0.10824604748E+04  0.10824604748E+04  0.25500000920E-02 0.  1.
        2   -1    0    0  501    0  0.00000000000E+00  0.00000000000E+00 -0.65944697623E+03  0.65944697623E+03  0.25500000920E-02 0. -1.
    10030    2    1    2    0    0  0.00000000000E+00  0.00000000000E+00  0.42301349861E+03  0.17419074511E+04  0.16897636368E+04 0.  0.
        4    1    3    3  502    0  0.25084763900E+02 -0.84420859527E+03  0.18831182457E+03  0.86532095426E+03  0.12699999809E+01 0. -1.
       -4    1    3    3    0  502 -0.25084763900E+02  0.84420859527E+03  0.23470167403E+03  0.87658649682E+03  0.12699999809E+01 0.  1.
</event>
<event>
 5   0  0.5035495E-04  0.1767311E+04  0.7818609E-02  0.8723879E-01
        1   -1    0    0  501    0  0.00000000000E+00  0.00000000000E+00  0.13881487301E+04  0.13881487302E+04  0.50400001928E-02 0. -1.
       -1   -1    0    0    0  501  0.00000000000E+00  0.00000000000E+00 -0.56250989535E+03  0.56250989538E+03  0.50400001928E-02 0.  1.
    10030    2    1    2    0    0  0.00000000000E+00  0.00000000000E+00  0.82563883479E+03  0.19506586255E+04  0.17673114009E+04 0.  0.
        4    1    3    3  502    0  0.48601434638E+02 -0.80536316541E+03  0.81058670291E+03  0.11436889190E+04  0.12699999809E+01 0. -1.
       -4    1    3    3    0  502 -0.48601434638E+02  0.80536316541E+03  0.15052131880E+02  0.80696970651E+03  0.12699999809E+01 0.  1.
</event>
<event>
 5   0  0.1007187E-03  0.1698470E+04  0.7818609E-02  0.8762238E-01
       -2   -1    0    0    0  501  0.00000000000E+00  0.00000000000E+00  0.13415388937E+04  0.13415388937E+04  0.25500000920E-02 0. -1.
        2   -1    0    0  501    0  0.00000000000E+00  0.00000000000E+00 -0.53759151846E+03  0.53759151846E+03  0.25500000920E-02 0.  1.
    10030    2    1    2    0    0  0.00000000000E+00  0.00000000000E+00  0.80394737528E+03  0.18791304122E+04  0.16984698183E+04 0.  0.
        5    1    3    3  502    0 -0.37404317573E+03 -0.42583600621E+03 -0.29769564373E+03  0.64022604429E+03  0.46999998093E+01 0.  1.
       -5    1    3    3    0  502  0.37404317573E+03  0.42583600621E+03  0.11016430190E+04  0.12389043679E+04  0.46999998093E+01 0. -1.
</event>
<event>
 5   0  0.5035495E-04  0.1691647E+04  0.7818609E-02  0.8766143E-01
       -1   -1    0    0    0  501  0.00000000000E+00  0.00000000000E+00  0.42096986033E+03  0.42096986036E+03  0.50400001928E-02 0. -1.
        1   -1    0    0  501    0  0.00000000000E+00  0.00000000000E+00 -0.16994511597E+04  0.16994511597E+04  0.50400001928E-02 0.  1.
    10030    2    1    2    0    0  0.00000000000E+00  0.00000000000E+00 -0.12784812993E+04  0.21204210200E+04  0.16916473833E+04 0.  0.
        4    1    3    3  502    0  0.61177496924E+03  0.40062246391E+03 -0.11719989199E+04  0.13814304371E+04  0.12699999809E+01 0.  1.
       -4    1    3    3    0  502 -0.61177496924E+03 -0.40062246391E+03 -0.10648237947E+03  0.73899058290E+03  0.12699999809E+01 0. -1.
</event>
<event>
 5   0  0.5059689E-04  0.1682161E+04  0.7818609E-02  0.8771604E-01
       -1   -1    0    0    0  501  0.00000000000E+00  0.00000000000E+00  0.73164639858E+03  0.73164639859E+03  0.50400001928E-02 0.  1.
        1   -1    0    0  501    0  0.00000000000E+00  0.00000000000E+00 -0.96688343567E+03  0.96688343568E+03  0.50400001928E-02 0. -1.
    10030    2    1    2    0    0  0.00000000000E+00  0.00000000000E+00 -0.23523703709E+03  0.16985298343E+04  0.16821614472E+04 0.  0.
        5    1    3    3  502    0  0.64440777923E+03  0.52733419873E+03 -0.23731291239E+03  0.86584193215E+03  0.46999998093E+01 0. -1.
       -5    1    3    3    0  502 -0.64440777923E+03 -0.52733419873E+03  0.20758752988E+01  0.83268790212E+03  0.46999998093E+01 0.  1.
</event>
<event>
 5   0  0.9625225E-04  0.1383020E+04  0.7818609E-02  0.8966202E-01
        2   -1    0    0  501    0  0.00000000000E+00  0.00000000000E+00  0.83799315448E+03  0.83799315449E+03  0.25500000920E-02 0.  1.
       -2   -1    0    0    0  501  0.00000000000E+00  0.00000000000E+00 -0.57063245368E+03  0.57063245369E+03  0.25500000920E-02 0. -1.
    10030    2    1    2    0    0  0.00000000000E+00  0.00000000000E+00  0.26736070080E+03  0.14086256082E+04  0.13830200142E+04 0.  0.
        1    1    3    3  502    0  0.66852734961E+03 -0.91460549032E+02 -0.20422710848E+02  0.67506365356E+03  0.50400001928E-02 0. -1.
       -1    1    3    3    0  502 -0.66852734961E+03  0.91460549032E+02  0.28778341165E+03  0.73356195461E+03  0.50400001928E-02 0.  1.
</event>
<event>
 5   0  0.5009762E-04  0.1677472E+04  0.7818609E-02  0.8774318E-01
        1   -1    0    0  501    0  0.00000000000E+00  0.00000000000E+00  0.12502768822E+04  0.12502768823E+04  0.50400001928E-02 0. -1.
       -1   -1    0    0    0  501  0.00000000000E+00  0.00000000000E+00 -0.56265790286E+03  0.56265790289E+03  0.50400001928E-02 0.  1.
    10030    2    1    2    0    0  0.00000000000E+00  0.00000000000E+00  0.68761897939E+03  0.18129347851E+04  0.16774721084E+04 0.  0.
        3    1    3    3  502    0 -0.16813234313E+02 -0.65370054991E+03 -0.22383960498E+03  0.69116660275E+03  0.10100000352E+00 0.  1.
       -3    1    3    3    0  502  0.16813234313E+02  0.65370054991E+03  0.91145858437E+03  0.11217681824E+04  0.10100000352E+00 0. -1.
</event>
<event>
 5   0  0.9625225E-04  0.1664817E+04  0.7818609E-02  0.8781689E-01
        2   -1    0    0  501    0  0.00000000000E+00  0.00000000000E+00  0.13198528941E+04  0.13198528941E+04  0.25500000920E-02 0.  1.
       -2   -1    0    0    0  501  0.00000000000E+00  0.00000000000E+00 -0.52498553350E+03  0.52498553351E+03  0.25500000920E-02 0. -1.
    10030    2    1    2    0    0  0.00000000000E+00  0.00000000000E+00  0.79486736057E+03  0.18448384276E+04  0.16648167175E+04 0.  0.
        1    1    3    3  502    0  0.66750783510E+03  0.14734241258E+03  0.92379942122E+03  0.11492092356E+04  0.50400001928E-02 0.  1.
       -1    1    3    3    0  502 -0.66750783510E+03 -0.14734241258E+03 -0.12893206066E+03  0.69562919200E+03  0.50400001928E-02 0. -1.
</event>
<event>
 5   0  0.5009762E-04  0.1744214E+04  0.7818609E-02  0.8736541E-01
        1   -1    0    0  501    0  0.00000000000E+00  0.00000000000E+00  0.70816289551E+03  0.70816289553E+03  0.50400001928E-02 0. -1.
       -1   -1    0    0    0  501  0.00000000000E+00  0.00000000000E+00 -0.10740055994E+04  0.10740055994E+04  0.50400001928E-02 0.  1.
    10030    2    1    2    0    0  0.00000000000E+00  0.00000000000E+00 -0.36584270392E+03  0.17821684950E+04  0.17442143390E+04 0.  0.
        3    1    3    3  502    0 -0.27191687405E+03 -0.22069558666E+03  0.63316086981E+03  0.72355927582E+03  0.10100000352E+00 0. -1.
       -3    1    3    3    0  502  0.27191687405E+03  0.22069558666E+03 -0.99900357373E+03  0.10586092192E+04  0.10100000352E+00 0.  1.
</event>
<event>
 5   0  0.5059689E-04  0.1665135E+04  0.7818609E-02  0.8781503E-01
       -1   -1    0    0    0  501  0.00000000000E+00  0.00000000000E+00  0.12880906790E+04  0.12880906790E+04  0.50400001928E-02 0. -1.
        1   -1    0    0  501    0  0.00000000000E+00  0.00000000000E+00 -0.53813662251E+03  0.53813662253E+03  0.50400001928E-02 0.  1.
    10030    2    1    2    0    0  0.00000000000E+00  0.00000000000E+00  0.74995405652E+03  0.18262273016E+04  0.16651351507E+04 0.  0.
        5    1    3    3  502    0  0.32033667997E+03 -0.68533253550E+03  0.75624418609E+03  0.10696838934E+04  0.46999998093E+01 0. -1.
       -5    1    3    3    0  502 -0.32033667997E+03  0.68533253550E+03 -0.62901295745E+01  0.75654340819E+03  0.46999998093E+01 0.  1.
</event>
<event>
 5   0  0.9284971E-04  0.1671260E+04  0.7818609E-02  0.8777927E-01
        2   -1    0    0  501    0  0.00000000000E+00  0.00000000000E+00  0.72296939774E+03  0.72296939775E+03  0.25500000920E-02 0. -1.
       -2   -1    0    0    0  501  0.00000000000E+00  0.00000000000E+00 -0.96584698023E+03  0.96584698024E+03  0.25500000920E-02 0.  1.
    10030    2    1    2    0    0  0.00000000000E+00  0.00000000000E+00 -0.24287758249E+03  0.16888163780E+04  0.16712603742E+04 0.  0.
        4    1    3    3  502    0  0.28324717554E+03 -0.77009924417E+03 -0.28119567221E+03  0.86738366788E+03  0.12699999809E+01 0.  1.
       -4    1    3    3    0  502 -0.28324717554E+03  0.77009924417E+03  0.38318089714E+02  0.82143271011E+03  0.12699999809E+01 0. -1.
</event>
<event>
 5   0  0.9610114E-04  0.1696061E+04  0.7818609E-02  0.8763614E-01
       -2   -1    0    0    0  501  0.00000000000E+00  0.00000000000E+00  0.58233407968E+03  0.58233407969E+03  0.25500000920E-02 0.  1.
        2   -1    0    0  501    0  0.00000000000E+00  0.00000000000E+00 -0.12349537521E+04  0.12349537521E+04  0.25500000920E-02 0. -1.
    10030    2    1    2    0    0  0.00000000000E+00  0.00000000000E+00 -0.65261967246E+03  0.18172878318E+04  0.16960609148E+04 0.  0.
        2    1    3    3  502    0 -0.46537175369E+03  0.44972565149E+03  0.26088578213E+03  0.69777175499E+03  0.25500000920E-02 0.  1.
       -2    1    3    3    0  502  0.46537175369E+03 -0.44972565149E+03 -0.91350545459E+03  0.11195160768E+04  0.25500000920E-02 0. -1.
</event>
<event>
 5   0  0.5035495E-04  0.1673489E+04  0.7818609E-02  0.8776630E-01
       -1   -1    0    0    0  501  0.00000000000E+00  0.00000000000E+00  0.43062636053E+03  0.43062636056E+03  0.50400001928E-02 0.  1.
        1   -1    0    0  501    0  0.00000000000E+00  0.00000000000E+00 -0.16258680241E+04  0.16258680241E+04  0.50400001928E-02 0. -1.
    10030    2    1    2    0    0  0.00000000000E+00  0.00000000000E+00 -0.11952416636E+04  0.20564943846E+04  0.16734893247E+04 0.  0.
        4    1    3    3  502    0  0.55619970172E+03  0.61652195854E+02 -0.13620713081E+04  0.14725484585E+04  0.12699999809E+01 0. -1.
       -4    1    3    3    0  502 -0.55619970172E+03 -0.61652195854E+02  0.16682964454E+03  0.58394592613E+03  0.12699999809E+01 0.  1.
</event>
<event>
 5   0  0.1007187E-03  0.1145835E+04  0.7818609E-02  0.9161635E-01
       -2   -1    0    0    0  501  0.00000000000E+00  0.00000000000E+00  0.36995679747E+03  0.36995679747E+03  0.25500000920E-02 0. -1.
        2   -1    0    0  501    0  0.00000000000E+00  0.00000000000E+00 -0.88722306070E+03  0.88722306071E+03  0.25500000920E-02 0.  1.
    10030    2    1    2    0    0  0.00000000000E+00  0.00000000000E+00 -0.51726626324E+03  0.12571798582E+04  0.11458345468E+04 0.  0.
        5    1    3    3  502    0 -0.17134145695E+03  0.27393849451E+02  0.34041160165E+03  0.38211315914E+03  0.46999998093E+01 0. -1.
       -5    1    3    3    0  502  0.17134145695E+03 -0.27393849451E+02 -0.85767786488E+03  0.87506669904E+03  0.46999998093E+01 0.  1.
</event>
<event>
 5   0  0.5074133E-04  0.1686108E+04  0.7818609E-02  0.8769328E-01
        1   -1    0    0  501    0  0.00000000000E+00  0.00000000000E+00  0.18054016613E+04  0.18054016613E+04  0.50400001928E-02 0.  1.
       -1   -1    0    0    0  501  0.00000000000E+00  0.00000000000E+00 -0.39367398048E+03  0.39367398051E+03  0.50400001928E-02 0. -1.
    10030    2    1    2    0    0  0.00000000000E+00  0.00000000000E+00  0.14117276808E+04  0.21990756418E+04  0.16861075392E+04 0.  0.
        1    1    3    3  502    0 -0.78427000136E+02 -0.12018592207E+03  0.17893536265E+04  0.17950993986E+04  0.50400001928E-02 0.  1.
       -1    1    3    3    0  502  0.78427000136E+02  0.12018592207E+03 -0.37762594567E+03  0.40397624322E+03  0.50400001928E-02 0. -1.
</event>
<event>
 5   0  0.9284971E-04  0.1672894E+04  0.7818609E-02  0.8776977E-01
       -2   -1    0    0    0  501  0.00000000000E+00  0.00000000000E+00  0.24029480994E+03  0.24029480996E+03  0.25500000920E-02 0.  1.
        2   -1    0    0  501    0  0.00000000000E+00  0.00000000000E+00 -0.29116051273E+04  0.29116051273E+04  0.25500000920E-02 0. -1.
    10030    2    1    2    0    0  0.00000000000E+00  0.00000000000E+00 -0.26713103174E+04  0.31518999373E+04  0.16728940202E+04 0.  0.
        4    1    3    3  502    0  0.63295800965E+03 -0.54663983500E+03 -0.13096138787E+04  0.15538793632E+04  0.12699999809E+01 0. -1.
       -4    1    3    3    0  502 -0.63295800965E+03  0.54663983500E+03 -0.13616964387E+04  0.15980205741E+04  0.12699999809E+01 0.  1.
</event>
<event>
 5   0  0.4947006E-04  0.1726917E+04  0.7818609E-02  0.8746160E-01
        1   -1    0    0  501    0  0.00000000000E+00  0.00000000000E+00  0.66990118107E+03  0.66990118109E+03  0.50400001928E-02 0.  1.
       -1   -1    0    0    0  501  0.00000000000E+00  0.00000000000E+00 -0.11129408445E+04  0.11129408445E+04  0.50400001928E-02 0. -1.
    10030    2    1    2    0    0  0.00000000000E+00  0.00000000000E+00 -0.44303966341E+03  0.17828420256E+04  0.17269167742E+04 0.  0.
        2    1    3    3  502    0  0.71587367875E+03 -0.74818622877E+02  0.27088257019E+03  0.76905807134E+03  0.25500000920E-02 0.  1.
       -2    1    3    3    0  502 -0.71587367875E+03  0.74818622877E+02 -0.71392223360E+03  0.10137839542E+04  0.25500000920E-02 0. -1.
</event>
<event>
 5   0  0.4947006E-04  0.1714261E+04  0.7818609E-02  0.8753272E-01
       -1   -1    0    0    0  501  0.00000000000E+00  0.00000000000E+00  0.58272904589E+03  0.58272904591E+03  0.50400001928E-02 0.  1.
        1   -1    0    0  501    0  0.00000000000E+00  0.00000000000E+00 -0.12607445881E+04  0.12607445881E+04  0.50400001928E-02 0. -1.
    10030    2    1    2    0    0  0.00000000000E+00  0.00000000000E+00 -0.67801554224E+03  0.18434736340E+04  0.17142607631E+04 0.  0.
        2    1    3    3  502    0  0.50659087123E+03 -0.68667805562E+03 -0.25223206227E+03  0.88982137316E+03  0.25500000920E-02 0. -1.
       -2    1    3    3    0  502 -0.50659087123E+03  0.68667805562E+03 -0.42578347997E+03  0.95365226089E+03  0.25500000920E-02 0.  1.
</event>
<event>
 5   0  0.9610114E-04  0.1692818E+04  0.7818609E-02  0.8765471E-01
        2   -1    0    0  501    0  0.00000000000E+00  0.00000000000E+00  0.13197630329E+04  0.13197630329E+04  0.25500000920E-02 0. -1.
       -2   -1    0    0    0  501  0.00000000000E+00  0.00000000000E+00 -0.54283089878E+03  0.54283089878E+03  0.25500000920E-02 0.  1.
    10030    2    1    2    0    0  0.00000000000E+00  0.00000000000E+00  0.77693213413E+03  0.18625939317E+04  0.16928179504E+04 0.  0.
        2    1    3    3  502    0 -0.48809035293E+03 -0.55798130709E+03  0.83788221778E+03  0.11187591084E+04  0.25500000920E-02 0. -1.
       -2    1    3    3    0  502  0.48809035293E+03  0.55798130709E+03 -0.60950083648E+02  0.74383482332E+03  0.25500000920E-02 0.  1.
</event>
<event>
 5   0  0.5059689E-04  0.1722200E+04  0.7818609E-02  0.8748803E-01
        1   -1    0    0  501    0  0.00000000000E+00  0.00000000000E+00  0.12118019578E+04  0.12118019578E+04  0.50400001928E-02 0.  1.
       -1   -1    0    0    0  501  0.00000000000E+00  0.00000000000E+00 -0.61189338075E+03  0.61189338078E+03  0.50400001928E-02 0. -1.
    10030    2    1    2    0    0  0.00000000000E+00  0.00000000000E+00  0.59990857705E+03  0.18236953386E+04  0.17222004492E+04 0.  0.
        5    1    3    3  502    0  0.13593914762E+03  0.45436342314E+03  0.10610215909E+04  0.11622024258E+04  0.46999998093E+01 0.  1.
       -5    1    3    3    0  502 -0.13593914762E+03 -0.45436342314E+03 -0.46111301385E+03  0.66149291280E+03  0.46999998093E+01 0. -1.
</event>
<event>
 5   0  0.5035495E-04  0.1609261E+04  0.7818609E-02  0.8814879E-01
        1   -1    0    0  501    0  0.00000000000E+00  0.00000000000E+00  0.87905793150E+03  0.87905793151E+03  0.50400001928E-02 0. -1.
       -1   -1    0    0    0  501  0.00000000000E+00  0.00000000000E+00 -0.73650435409E+03  0.73650435411E+03  0.50400001928E-02 0.  1.
    10030    2    1    2    0    0  0.00000000000E+00  0.00000000000E+00  0.14255357741E+03  0.16155622856E+04  0.16092606925E+04 0.  0.
        4    1    3    3  502    0  0.24407474150E+03  0.70025111342E+03  0.38475628657E+03  0.83544186766E+03  0.12699999809E+01 0.  1.
       -4    1    3    3    0  502 -0.24407474150E+03 -0.70025111342E+03 -0.24220270916E+03  0.78012041796E+03  0.12699999809E+01 0. -1.
</event>
<event>
 5   0  0.5059689E-04  0.1727287E+04  0.7818609E-02  0.8745953E-01
       -1   -1    0    0    0  501  0.00000000000E+00  0.00000000000E+00  0.44499076177E+03  0.44499076180E+03  0.50400001928E-02 0. -1.
        1   -1    0    0  501    0  0.00000000000E+00  0.00000000000E+00 -0.16761701810E+04  0.16761701810E+04  0.50400001928E-02 0.  1.
    10030    2    1    2    0    0  0.00000000000E+00  0.00000000000E+00 -0.12311794192E+04  0.21211609428E+04  0.17272871744E+04 0.  0.
        5    1    3    3  502    0  0.56401084501E+02 -0.45933266229E+03 -0.15110339678E+04  0.15803206379E+04  0.46999998093E+01 0.  1.
       -5    1    3    3    0  502 -0.56401084501E+02  0.45933266229E+03  0.27985454857E+03  0.54084030483E+03  0.46999998093E+01 0. -1.
</event>
<event>
 5   0  0.9610114E-04  0.1666884E+04  0.7818609E-02  0.8780480E-01
        2   -1    0    0  501    0  0.00000000000E+00  0.00000000000E+00  0.19010003261E+04  0.19010003261E+04  0.25500000920E-02 0. -1.
       -2   -1    0    0    0  501  0.00000000000E+00  0.00000000000E+00 -0.36540003566E+03  0.36540003567E+03  0.25500000920E-02 0.  1.
    10030    2    1    2    0    0  0.00000000000E+00  0.00000000000E+00  0.15356002904E+04  0.22664003618E+04  0.16668840235E+04 0.  0.
        2    1    3    3  502    0 -0.63158915743E+03  0.44894905075E+03  0.11850316488E+04  0.14158955196E+04  0.25500000920E-02 0. -1.
       -2    1    3    3    0  502  0.63158915743E+03 -0.44894905075E+03  0.35056864165E+03  0.85050484212E+03  0.25500000920E-02 0.  1.
</event>
<event>
 5   0  0.9610114E-04  0.1227384E+04  0.7818609E-02  0.9089219E-01
        2   -1    0    0  501    0  0.00000000000E+00  0.00000000000E+00  0.14330702644E+04  0.14330702644E+04  0.25500000920E-02 0.  1.
       -2   -1    0    0    0  501  0.00000000000E+00  0.00000000000E+00 -0.26280505814E+03  0.26280505815E+03  0.25500000920E-02 0. -1.
    10030    2    1    2    0    0  0.00000000000E+00  0.00000000000E+00  0.11702652063E+04  0.16958753226E+04  0.12273843965E+04 0.  0.
        2    1    3    3  502    0  0.13303942907E+03  0.21943038141E+03 -0.18511813029E+03  0.31641413392E+03  0.25500000920E-02 0. -1.
       -2    1    3    3    0  502 -0.13303942907E+03 -0.21943038141E+03  0.13553833366E+04  0.13794611887E+04  0.25500000920E-02 0.  1.
</event>
<event>
 5   0  0.5074133E-04  0.1646589E+04  0.7818609E-02  0.8792427E-01
        1   -1    0    0  501    0  0.00000000000E+00  0.00000000000E+00  0.11643682813E+04  0.11643682813E+04  0.50400001928E-02 0.  1.
       -1   -1    0    0    0  501  0.00000000000E+00  0.00000000000E+00 -0.58212981538E+03  0.58212981540E+03  0.50400001928E-02 0. -1.
    10030    2    1    2    0    0  0.00000000000E+00  0.00000000000E+00  0.58223846592E+03  0.17464980967E+04  0.16465885857E+04 0.  0.
        1    1    3    3  502    0  0.42079947475E+03 -0.68370637831E+03  0.97602029019E+02  0.80873528784E+03  0.50400001928E-02 0. -1.
       -1    1    3    3    0  502 -0.42079947475E+03  0.68370637831E+03  0.48463643690E+03  0.93776280887E+03  0.50400001928E-02 0.  1.
</event>
<event>
 5   0  0.9312096E-04  0.1694924E+04  0.7818609E-02  0.8764265E-01
        2   -1    0    0  501    0  0.00000000000E+00  0.00000000000E+00  0.18904721215E+04  0.18904721215E+04  0.25500000920E-02 0. -1.
       -2   -1    0    0    0  501  0.00000000000E+00  0.00000000000E+00 -0.37990092295E+03  0.37990092296E+03  0.25500000920E-02 0.  1.
    10030    2    1    2    0    0  0.00000000000E+00  0.00000000000E+00  0.15105711986E+04  0.22703730445E+04  0.16949243096E+04 0.  0.
        3    1    3    3  502    0 -0.60841919154E+03 -0.27477284539E+03  0.56016139519E+02  0.66993421116E+03  0.10100000352E+00 0.  1.
       -3    1    3    3    0  502  0.60841919154E+03  0.27477284539E+03  0.14545550590E+04  0.16004388333E+04  0.10100000352E+00 0. -1.
</event>
<event>
 5   0  0.9312096E-04  0.1696683E+04  0.7818609E-02  0.8763259E-01
       -2   -1    0    0    0  501  0.00000000000E+00  0.00000000000E+00  0.15204558443E+04  0.15204558443E+04  0.25500000920E-02 0.  1.
        2   -1    0    0  501    0  0.00000000000E+00  0.00000000000E+00 -0.47333378420E+03  0.47333378421E+03  0.25500000920E-02 0. -1.
    10030    2    1    2    0    0  0.00000000000E+00  0.00000000000E+00  0.10471220601E+04  0.19937896285E+04  0.16966827853E+04 0.  0.
        3    1    3    3  502    0 -0.37306173269E+03 -0.32958701078E+03  0.13307861597E+04  0.14208428721E+04  0.10100000352E+00 0.  1.
       -3    1    3    3    0  502  0.37306173269E+03  0.32958701078E+03 -0.28366409962E+03  0.57294675642E+03  0.10100000352E+00 0. -1.
</event>
<event>
 5   0  0.9284971E-04  0.1729815E+04  0.7818609E-02  0.8744540E-01
        2   -1    0    0  501    0  0.00000000000E+00  0.00000000000E+00  0.73548929000E+03  0.73548929000E+03  0.25500000920E-02 0. -1.
       -2   -1    0    0    0  501  0.00000000000E+00  0.00000000000E+00 -0.10170982599E+04  0.10170982599E+04  0.25500000920E-02 0.  1.
    10030    2    1    2    0    0  0.00000000000E+00  0.00000000000E+00 -0.28160896989E+03  0.17525875499E+04  0.17298148768E+04 0.  0.
        4    1    3    3  502    0 -0.11182487279E+03 -0.58436963295E+03  0.49521014944E+03  0.77409778135E+03  0.12699999809E+01 0. -1.
       -4    1    3    3    0  502  0.11182487279E+03  0.58436963295E+03 -0.77681911932E+03  0.97848976854E+03  0.12699999809E+01 0.  1.
</event>
<event>
 5   0  0.5035495E-04  0.1676519E+04  0.7818609E-02  0.8774871E-01
       -1   -1    0    0    0  501  0.00000000000E+00  0.00000000000E+00  0.17513123461E+04  0.17513123461E+04  0.50400001928E-02 0. -1.
        1   -1    0    0  501    0  0.00000000000E+00  0.00000000000E+00 -0.40122990745E+03  0.40122990748E+03  0.50400001928E-02 0.  1.
    10030    2    1    2    0    0  0.00000000000E+00  0.00000000000E+00  0.13500824386E+04  0.21525422536E+04  0.16765188822E+04 0.  0.
        4    1    3    3  502    0 -0.55617504158E+03 -0.48510547468E+03  0.16465578189E+03  0.75615549846E+03  0.12699999809E+01 0.  1.
       -4    1    3    3    0  502  0.55617504158E+03  0.48510547468E+03  0.11854266567E+04  0.13963867551E+04  0.12699999809E+01 0. -1.
</event>
<event>
 5   0  0.5035495E-04  0.1697660E+04  0.7818609E-02  0.8762700E-01
        1   -1    0    0  501    0  0.00000000000E+00  0.00000000000E+00  0.11583631340E+04  0.11583631340E+04  0.50400001928E-02 0.  1.
       -1   -1    0    0    0  501  0.00000000000E+00  0.00000000000E+00 -0.62200911721E+03  0.62200911723E+03  0.50400001928E-02 0. -1.
    10030    2    1    2    0    0  0.00000000000E+00  0.00000000000E+00  0.53635401675E+03  0.17803722512E+04  0.16976600724E+04 0.  0.
        4    1    3    3  502    0  0.41903391736E+03 -0.16737682858E+03  0.10221677846E+04  0.11173329940E+04  0.12699999809E+01 0.  1.
       -4    1    3    3    0  502 -0.41903391736E+03  0.16737682858E+03 -0.48581376788E+03  0.66303925721E+03  0.12699999809E+01 0. -1.
</event>
<event>
 5   0  0.1007187E-03  0.1724175E+04  0.7818609E-02  0.8747695E-01
       -2   -1    0    0    0  501  0.00000000000E+00  0.00000000000E+00  0.44235536069E+03  0.44235536069E+03  0.25500000920E-02 0. -1.
        2   -1    0    0  501    0  0.00000000000E+00  0.00000000000E+00 -0.16800853364E+04  0.16800853364E+04  0.25500000920E-02 0.  1.
    10030    2    1    2    0    0  0.00000000000E+00  0.00000000000E+00 -0.12377299757E+04  0.21224406971E+04  0.17241748809E+04 0.  0.
        5    1    3    3  502    0  0.30830292611E+03 -0.71076729636E+03 -0.15347320121E+03  0.78982083874E+03  0.46999998093E+01 0. -1.
       -5    1    3    3    0  502 -0.30830292611E+03  0.71076729636E+03 -0.10842567745E+04  0.13326198583E+04  0.46999998093E+01 0.  1.
</event>
<event>
 5   0  0.5035495E-04  0.1724836E+04  0.7818609E-02  0.8747325E-01
       -1   -1    0    0    0  501  0.00000000000E+00  0.00000000000E+00  0.93932475527E+03  0.93932475529E+03  0.50400001928E-02 0. -1.
        1   -1    0    0  501    0  0.00000000000E+00  0.00000000000E+00 -0.79180777820E+03  0.79180777822E+03  0.50400001928E-02 0.  1.
    10030    2    1    2    0    0  0.00000000000E+00  0.00000000000E+00  0.14751697707E+03  0.17311325335E+04  0.17248358154E+04 0.  0.
        4    1    3    3  502    0 -0.80187562931E+03  0.15177632129E+03 -0.20604673652E+03  0.84172290400E+03  0.12699999809E+01 0.  1.
       -4    1    3    3    0  502  0.80187562931E+03 -0.15177632129E+03  0.35356371359E+03  0.88940962951E+03  0.12699999809E+01 0. -1.
</event>
<event>
 5   0  0.9312096E-04  0.1739008E+04  0.7818609E-02  0.8739424E-01
        2   -1    0    0  501    0  0.00000000000E+00  0.00000000000E+00  0.13543287457E+04  0.13543287457E+04  0.25500000920E-02 0. -1.
       -2   -1    0    0    0  501  0.00000000000E+00  0.00000000000E+00 -0.55823772178E+03  0.55823772178E+03  0.25500000920E-02 0.  1.
    10030    2    1    2    0    0  0.00000000000E+00  0.00000000000E+00  0.79609102389E+03  0.19125664674E+04  0.17390082156E+04 0.  0.
        3    1    3    3  502    0 -0.68382369026E+03  0.32696899159E+03 -0.70519390268E+02  0.76124671128E+03  0.10100000352E+00 0.  1.
       -3    1    3    3    0  502  0.68382369026E+03 -0.32696899159E+03  0.86661041415E+03  0.11513197562E+04  0.10100000352E+00 0. -1.
</event>
<event>
 5   0  0.9312096E-04  0.1842375E+04  0.7818609E-02  0.8684084E-01
       -2   -1    0    0    0  501  0.00000000000E+00  0.00000000000E+00  0.43418511888E+03  0.43418511888E+03  0.25500000920E-02 0. -1.
        2   -1    0    0  501    0  0.00000000000E+00  0.00000000000E+00 -0.19544345053E+04  0.19544345053E+04  0.25500000920E-02 0.  1.
    10030    2    1    2    0    0  0.00000000000E+00  0.00000000000E+00 -0.15202493864E+04  0.23886196242E+04  0.18423749651E+04 0.  0.
        3    1    3    3  502    0 -0.23587641633E+03  0.18456763890E+03 -0.18895474111E+04  0.19131367766E+04  0.10100000352E+00 0.  1.
       -3    1    3    3    0  502  0.23587641633E+03 -0.18456763890E+03  0.36929802466E+03  0.47548284757E+03  0.10100000352E+00 0. -1.
</event>
<event>
 5   0  0.5035495E-04  0.1580934E+04  0.7818609E-02  0.8832347E-01
       -1   -1    0    0    0  501  0.00000000000E+00  0.00000000000E+00  0.11043390493E+04  0.11043390494E+04  0.50400001928E-02 0. -1.
        1   -1    0    0  501    0  0.00000000000E+00  0.00000000000E+00 -0.56580291316E+03  0.56580291318E+03  0.50400001928E-02 0.  1.
    10030    2    1    2    0    0  0.00000000000E+00  0.00000000000E+00  0.53853613618E+03  0.16701419625E+04  0.15809342191E+04 0.  0.
        4    1    3    3  502    0  0.59415993086E+03 -0.31486559169E+03  0.70825175052E+03  0.97662097012E+03  0.12699999809E+01 0. -1.
       -4    1    3    3    0  502 -0.59415993086E+03  0.31486559169E+03 -0.16971561434E+03  0.69352099241E+03  0.12699999809E+01 0.  1.
</event>
<event>
 5   0  0.5009762E-04  0.1654058E+04  0.7818609E-02  0.8788009E-01
       -1   -1    0    0    0  501  0.00000000000E+00  0.00000000000E+00  0.95938214771E+03  0.95938214772E+03  0.50400001928E-02 0.  1.
        1   -1    0    0  501    0  0.00000000000E+00  0.00000000000E+00 -0.71293494100E+03  0.71293494102E+03  0.50400001928E-02 0. -1.
    10030    2    1    2    0    0  0.00000000000E+00  0.00000000000E+00  0.24644720671E+03  0.16723170887E+04  0.16540581065E+04 0.  0.
        3    1    3    3  502    0  0.26502508297E+03  0.45827589811E+03 -0.51918159619E+03  0.74148812088E+03  0.10100000352E+00 0. -1.
       -3    1    3    3    0  502 -0.26502508297E+03 -0.45827589811E+03  0.76562880289E+03  0.93082896786E+03  0.10100000352E+00 0.  1.
</event>
<event>
 5   0  0.5035495E-04  0.1675418E+04  0.7818609E-02  0.8775510E-01
       -1   -1    0    0    0  501  0.00000000000E+00  0.00000000000E+00  0.36615612627E+03  0.36615612631E+03  0.50400001928E-02 0. -1.
        1   -1    0    0  501    0  0.00000000000E+00  0.00000000000E+00 -0.19165502347E+04  0.19165502347E+04  0.50400001928E-02 0.  1.
    10030    2    1    2    0    0  0.00000000000E+00  0.00000000000E+00 -0.15503941084E+04  0.22827063610E+04  0.16754182878E+04 0.  0.
        4    1    3    3  502    0 -0.36634087978E+02  0.18652694526E+03 -0.18867756802E+04  0.18963276188E+04  0.12699999809E+01 0.  1.
       -4    1    3    3    0  502  0.36634087978E+02 -0.18652694526E+03  0.33638157175E+03  0.38637874219E+03  0.12699999809E+01 0. -1.
</event>
<event>
 5   0  0.1007187E-03  0.1708387E+04  0.7818609E-02  0.8756595E-01
       -2   -1    0    0    0  501  0.00000000000E+00  0.00000000000E+00  0.86683116503E+03  0.86683116503E+03  0.25500000920E-02 0.  1.
        2   -1    0    0  501    0  0.00000000000E+00  0.00000000000E+00 -0.84174039886E+03  0.84174039887E+03  0.25500000920E-02 0. -1.
    10030    2    1    2    0    0  0.00000000000E+00  0.00000000000E+00  0.25090766166E+02  0.17085715639E+04  0.17083873221E+04 0.  0.
        5    1    3    3  502    0 -0.11839072756E+03 -0.36135167952E+03  0.77750257998E+03  0.86551935423E+03  0.46999998093E+01 0.  1.
       -5    1    3    3    0  502  0.11839072756E+03  0.36135167952E+03 -0.75241181382E+03  0.84305220967E+03  0.46999998093E+01 0. -1.
</event>
<event>
 5   0  0.5035495E-04  0.8531372E+03  0.7818609E-02  0.9486136E-01
        1   -1    0    0  501    0  0.00000000000E+00  0.00000000000E+00  0.23744921479E+03  0.23744921485E+03  0.50400001928E-02 0.  1.
       -1   -1    0    0    0  501  0.00000000000E+00  0.00000000000E+00 -0.76631443329E+03  0.76631443331E+03  0.50400001928E-02 0. -1.
    10030    2    1    2    0    0  0.00000000000E+00  0.00000000000E+00 -0.52886521850E+03  0.10037636482E+04  0.85313717656E+03 0.  0.
        4    1    3    3  502    0 -0.15069168473E+03  0.39424485288E+03 -0.19169366175E+03  0.46355696600E+03  0.12699999809E+01 0. -1.
       -4    1    3    3    0  502  0.15069168473E+03 -0.39424485288E+03 -0.33717155675E+03  0.54020668216E+03  0.12699999809E+01 0.  1.
</event>
<event>
 5   0  0.4947006E-04  0.1359982E+04  0.7818609E-02  0.8983306E-01
        1   -1    0    0  501    0  0.00000000000E+00  0.00000000000E+00  0.87056547241E+03  0.87056547242E+03  0.50400001928E-02 0. -1.
       -1   -1    0    0    0  501  0.00000000000E+00  0.00000000000E+00 -0.53113526129E+03  0.53113526132E+03  0.50400001928E-02 0.  1.
    10030    2    1    2    0    0  0.00000000000E+00  0.00000000000E+00  0.33943021111E+03  0.14017007337E+04  0.13599823818E+04 0.  0.
        2    1    3    3  502    0 -0.33096439408E+02  0.37822484051E+03 -0.41171626041E+03  0.56005328619E+03  0.25500000920E-02 0.  1.
       -2    1    3    3    0  502  0.33096439408E+02 -0.37822484051E+03  0.75114647152E+03  0.84164744755E+03  0.25500000920E-02 0. -1.
</event>
<event>
 5   0  0.5059689E-04  0.1689355E+04  0.7818609E-02  0.8767459E-01
        1   -1    0    0  501    0  0.00000000000E+00  0.00000000000E+00  0.19300563242E+04  0.19300563242E+04  0.50400001928E-02 0.  1.
       -1   -1    0    0    0  501  0.00000000000E+00  0.00000000000E+00 -0.36966821206E+03  0.36966821209E+03  0.50400001928E-02 0. -1.
    10030    2    1    2    0    0  0.00000000000E+00  0.00000000000E+00  0.15603881121E+04  0.22997245363E+04  0.16893554636E+04 0.  0.
        5    1    3    3  502    0  0.50661052037E+03  0.67327055901E+03  0.69953280152E+03  0.10951327296E+04  0.46999998093E+01 0.  1.
       -5    1    3    3    0  502 -0.50661052037E+03 -0.67327055901E+03  0.86085531058E+03  0.12045918067E+04  0.46999998093E+01 0. -1.
</event>
<event>
 5   0  0.9610114E-04  0.1579437E+04  0.7818609E-02  0.8833281E-01
        2   -1    0    0  501    0  0.00000000000E+00  0.00000000000E+00  0.17610397901E+04  0.17610397901E+04  0.25500000920E-02 0. -1.
       -2   -1    0    0    0  501  0.00000000000E+00  0.00000000000E+00 -0.35414031307E+03  0.35414031308E+03  0.25500000920E-02 0.  1.
    10030    2    1    2    0    0  0.00000000000E+00  0.00000000000E+00  0.14068994770E+04  0.21151801032E+04  0.15794368396E+04 0.  0.
        2    1    3    3  502    0 -0.76792165141E+03 -0.15545692654E+03  0.83591989357E+03  0.11457017881E+04  0.25500000920E-02 0. -1.
       -2    1    3    3    0  502  0.76792165141E+03  0.15545692654E+03  0.57097958342E+03  0.96947831508E+03  0.25500000920E-02 0.  1.
</event>
<event>
 5   0  0.9284971E-04  0.1614770E+04  0.7818609E-02  0.8811525E-01
       -2   -1    0    0    0  501  0.00000000000E+00  0.00000000000E+00  0.18736682324E+04  0.18736682324E+04  0.25500000920E-02 0. -1.
        2   -1    0    0  501    0  0.00000000000E+00  0.00000000000E+00 -0.34791124131E+03  0.34791124132E+03  0.25500000920E-02 0.  1.
    10030    2    1    2    0    0  0.00000000000E+00  0.00000000000E+00  0.15257569911E+04  0.22215794738E+04  0.16147696313E+04 0.  0.
        4    1    3    3  502    0  0.40008697663E+03 -0.88872147362E+02  0.17199170685E+04  0.17680735796E+04  0.12699999809E+01 0. -1.
       -4    1    3    3    0  502 -0.40008697663E+03  0.88872147362E+02 -0.19416007741E+03  0.45350589413E+03  0.12699999809E+01 0.  1.
</event>
<event>
 5   0  0.9312096E-04  0.1745792E+04  0.7818609E-02  0.8735670E-01
       -2   -1    0    0    0  501  0.00000000000E+00  0.00000000000E+00  0.78172726313E+03  0.78172726313E+03  0.25500000920E-02 0.  1.
        2   -1    0    0  501    0  0.00000000000E+00  0.00000000000E+00 -0.97469689305E+03  0.97469689305E+03  0.25500000920E-02 0. -1.
    10030    2    1    2    0    0  0.00000000000E+00  0.00000000000E+00 -0.19296962992E+03  0.17564241562E+04  0.17457916652E+04 0.  0.
        3    1    3    3  502    0 -0.66425083943E+03 -0.16846252227E+03 -0.64046096993E+03  0.93797604623E+03  0.10100000352E+00 0. -1.
       -3    1    3    3    0  502  0.66425083943E+03  0.16846252227E+03  0.44749134001E+03  0.81844810995E+03  0.10100000352E+00 0.  1.
</event>
<event>
 5   0  0.5035495E-04  0.1668439E+04  0.7818609E-02  0.8779572E-01
       -1   -1    0    0    0  501  0.00000000000E+00  0.00000000000E+00  0.69492236487E+03  0.69492236489E+03  0.50400001928E-02 0.  1.
        1   -1    0    0  501    0  0.00000000000E+00  0.00000000000E+00 -0.10014385187E+04  0.10014385187E+04  0.50400001928E-02 0. -1.
    10030    2    1    2    0    0  0.00000000000E+00  0.00000000000E+00 -0.30651615384E+03  0.16963608836E+04  0.16684388196E+04 0.  0.
        4    1    3    3  502    0  0.54166245577E+03 -0.58077430745E+03 -0.41292084112E+03  0.89509901470E+03  0.12699999809E+01 0.  1.
       -4    1    3    3    0  502 -0.54166245577E+03  0.58077430745E+03  0.10640468728E+03  0.80126186891E+03  0.12699999809E+01 0. -1.
</event>
<event>
 5   0  0.5009762E-04  0.1863689E+04  0.7818609E-02  0.8673145E-01
       -1   -1    0    0    0  501  0.00000000000E+00  0.00000000000E+00  0.79912145228E+03  0.79912145229E+03  0.50400001928E-02 0. -1.
        1   -1    0    0  501    0  0.00000000000E+00  0.00000000000E+00 -0.10866115185E+04  0.10866115186E+04  0.50400001928E-02 0.  1.
    10030    2    1    2    0    0  0.00000000000E+00  0.00000000000E+00 -0.28749006626E+03  0.18857329708E+04  0.18636894321E+04 0.  0.
        3    1    3    3  502    0  0.76221662434E+03 -0.16803296598E+03  0.37131940377E+03  0.86434216020E+03  0.10100000352E+00 0. -1.
       -3    1    3    3    0  502 -0.76221662434E+03  0.16803296598E+03 -0.65880947003E+03  0.10213908107E+04  0.10100000352E+00 0.  1.
</event>
<event>
 5   0  0.5059689E-04  0.1657655E+04  0.7818609E-02  0.8785891E-01
       -1   -1    0    0    0  501  0.00000000000E+00  0.00000000000E+00  0.84765150014E+03  0.84765150015E+03  0.50400001928E-02 0.  1.
        1   -1    0    0  501    0  0.00000000000E+00  0.00000000000E+00 -0.81042144263E+03  0.81042144265E+03  0.50400001928E-02 0. -1.
    10030    2    1    2    0    0  0.00000000000E+00  0.00000000000E+00  0.37230057503E+02  0.16580729428E+04  0.16576549118E+04 0.  0.
        5    1    3    3  502    0  0.33592952953E+02  0.12525777923E+03 -0.80019684742E+03  0.81065102378E+03  0.46999998093E+01 0. -1.
       -5    1    3    3    0  502 -0.33592952953E+02 -0.12525777923E+03  0.83742690492E+03  0.84742191902E+03  0.46999998093E+01 0.  1.
</event>
<event>
 5   0  0.5059689E-04  0.1736730E+04  0.7818609E-02  0.8740689E-01
       -1   -1    0    0    0  501  0.00000000000E+00  0.00000000000E+00  0.41040730011E+03  0.41040730014E+03  0.50400001928E-02 0. -1.
        1   -1    0    0  501    0  0.00000000000E+00  0.00000000000E+00 -0.18373392937E+04  0.18373392937E+04  0.50400001928E-02 0.  1.
    10030    2    1    2    0    0  0.00000000000E+00  0.00000000000E+00 -0.14269319936E+04  0.22477465938E+04  0.17367296381E+04 0.  0.
        5    1    3    3  502    0 -0.37270413983E+03 -0.58060708959E+03 -0.13958911516E+04  0.15570957470E+04  0.46999998093E+01 0.  1.
       -5    1    3    3    0  502  0.37270413983E+03  0.58060708959E+03 -0.31040841988E+02  0.69065084681E+03  0.46999998093E+01 0. -1.
</event>
<event>
 5   0  0.9610114E-04  0.1678202E+04  0.7818609E-02  0.8773895E-01
        2   -1    0    0  501    0  0.00000000000E+00  0.00000000000E+00  0.12482492544E+04  0.12482492544E+04  0.25500000920E-02 0. -1.
       -2   -1    0    0    0  501  0.00000000000E+00  0.00000000000E+00 -0.56406223003E+03  0.56406223003E+03  0.25500000920E-02 0.  1.
    10030    2    1    2    0    0  0.00000000000E+00  0.00000000000E+00  0.68418702438E+03  0.18123114844E+04  0.16782017258E+04 0.  0.
        2    1    3    3  502    0  0.89324949159E+02  0.79198324507E+03  0.58683060161E+02  0.79916212908E+03  0.25500000920E-02 0.  1.
       -2    1    3    3    0  502 -0.89324949159E+02 -0.79198324507E+03  0.62550396422E+03  0.10131493554E+04  0.25500000920E-02 0. -1.
</event>
<event>
 5   0  0.9610114E-04  0.1673082E+04  0.7818609E-02  0.8776867E-01
       -2   -1    0    0    0  501  0.00000000000E+00  0.00000000000E+00  0.56445595431E+03  0.56445595432E+03  0.25500000920E-02 0. -1.
        2   -1    0    0  501    0  0.00000000000E+00  0.00000000000E+00 -0.12397797016E+04  0.12397797016E+04  0.25500000920E-02 0.  1.
    10030    2    1    2    0    0  0.00000000000E+00  0.00000000000E+00 -0.67532374724E+03  0.18042356559E+04  0.16730822270E+04 0.  0.
        2    1    3    3  502    0  0.16868676605E+02  0.51437701365E+03  0.37353041823E+03  0.63591920695E+03  0.25500000920E-02 0. -1.
       -2    1    3    3    0  502 -0.16868676605E+02 -0.51437701365E+03 -0.10488541655E+04  0.11683164489E+04  0.25500000920E-02 0.  1.
</event>
<event>
 5   0  0.5009762E-04  0.1700039E+04  0.7818609E-02  0.8761342E-01
        1   -1    0    0  501    0  0.00000000000E+00  0.00000000000E+00  0.57148999045E+03  0.57148999047E+03  0.50400001928E-02 0.  1.
       -1   -1    0    0    0  501  0.00000000000E+00  0.00000000000E+00 -0.12642975570E+04  0.12642975571E+04  0.50400001928E-02 0. -1.
    10030    2    1    2    0    0  0.00000000000E+00  0.00000000000E+00 -0.69280756660E+03  0.18357875475E+04  0.17000392923E+04 0.  0.
        3    1    3    3  502    0  0.51986882042E+03 -0.69819086916E+02 -0.10686895701E+04  0.11904770904E+04  0.10100000352E+00 0. -1.
       -3    1    3    3    0  502 -0.51986882042E+03  0.69819086916E+02  0.37588200348E+03  0.64531045714E+03  0.10100000352E+00 0.  1.
</event>
<event>
 5   0  0.5074133E-04  0.1697557E+04  0.7818609E-02  0.8762759E-01
       -1   -1    0    0    0  501  0.00000000000E+00  0.00000000000E+00  0.95569266318E+03  0.95569266320E+03  0.50400001928E-02 0.  1.
        1   -1    0    0  501    0  0.00000000000E+00  0.00000000000E+00 -0.75382473033E+03  0.75382473035E+03  0.50400001928E-02 0. -1.
    10030    2    1    2    0    0  0.00000000000E+00  0.00000000000E+00  0.20186793285E+03  0.17095173935E+04  0.16975567904E+04 0.  0.
        1    1    3    3  502    0 -0.33840427356E+03  0.44684750863E+03 -0.54092213727E+03  0.77896527968E+03  0.50400001928E-02 0. -1.
       -1    1    3    3    0  502  0.33840427356E+03 -0.44684750863E+03  0.74279007012E+03  0.93055211387E+03  0.50400001928E-02 0.  1.
</event>
<event>
 5   0  0.9625225E-04  0.1710923E+04  0.7818609E-02  0.8755159E-01
        2   -1    0    0  501    0  0.00000000000E+00  0.00000000000E+00  0.11161795022E+04  0.11161795022E+04  0.25500000920E-02 0.  1.
       -2   -1    0    0    0  501  0.00000000000E+00  0.00000000000E+00 -0.65564251062E+03  0.65564251063E+03  0.25500000920E-02 0. -1.
    10030    2    1    2    0    0  0.00000000000E+00  0.00000000000E+00  0.46053699160E+03  0.17718220129E+04  0.17109234128E+04 0.  0.
        1    1    3    3  502    0  0.21488028606E+02 -0.85423795264E+03  0.27208541745E+03  0.89678017904E+03  0.50400001928E-02 0. -1.
       -1    1    3    3    0  502 -0.21488028606E+02  0.85423795264E+03  0.18845157415E+03  0.87504183381E+03  0.50400001928E-02 0.  1.
</event>
<event>
 5   0  0.1007187E-03  0.1705561E+04  0.7818609E-02  0.8758199E-01
        2   -1    0    0  501    0  0.00000000000E+00  0.00000000000E+00  0.13571038331E+04  0.13571038331E+04  0.25500000920E-02 0.  1.
       -2   -1    0    0    0  501  0.00000000000E+00  0.00000000000E+00 -0.53587253513E+03  0.53587253513E+03  0.25500000920E-02 0. -1.
    10030    2    1    2    0    0  0.00000000000E+00  0.00000000000E+00  0.82123129799E+03  0.18929763683E+04  0.17055611059E+04 0.  0.
        5    1    3    3  502    0 -0.99661101905E+02  0.67643473881E+02  0.13476007637E+04  0.13529811097E+04  0.46999998093E+01 0.  1.
       -5    1    3    3    0  502  0.99661101905E+02 -0.67643473881E+02 -0.52636946574E+03  0.53999525855E+03  0.46999998093E+01 0. -1.
</event>
<event>
 5   0  0.4947006E-04  0.1734252E+04  0.7818609E-02  0.8742067E-01
        1   -1    0    0  501    0  0.00000000000E+00  0.00000000000E+00  0.74986342830E+03  0.74986342831E+03  0.50400001928E-02 0.  1.
       -1   -1    0    0    0  501  0.00000000000E+00  0.00000000000E+00 -0.10027257394E+04  0.10027257394E+04  0.50400001928E-02 0. -1.
    10030    2    1    2    0    0  0.00000000000E+00  0.00000000000E+00 -0.25286231109E+03  0.17525891677E+04  0.17342518394E+04 0.  0.
        2    1    3    3  502    0  0.24664711433E+03  0.18144524749E+03  0.69341140996E+03  0.75800828513E+03  0.25500000920E-02 0.  1.
       -2    1    3    3    0  502 -0.24664711433E+03 -0.18144524749E+03 -0.94627372105E+03  0.99458088259E+03  0.25500000920E-02 0. -1.
</event>
<event>
 5   0  0.4947006E-04  0.1664675E+04  0.7818609E-02  0.8781772E-01
        1   -1    0    0  501    0  0.00000000000E+00  0.00000000000E+00  0.15346557651E+04  0.15346557651E+04  0.50400001928E-02 0.  1.
       -1   -1    0    0    0  501  0.00000000000E+00  0.00000000000E+00 -0.45142768757E+03  0.45142768760E+03  0.50400001928E-02 0. -1.
    10030    2    1    2    0    0  0.00000000000E+00  0.00000000000E+00  0.10832280775E+04  0.19860834527E+04  0.16646754678E+04 0.  0.
        2    1    3    3  502    0 -0.41059851489E+03  0.19595028112E+03 -0.28995052893E+03  0.53949880661E+03  0.25500000920E-02 0. -1.
       -2    1    3    3    0  502  0.41059851489E+03 -0.19595028112E+03  0.13731786064E+04  0.14465846461E+04  0.25500000920E-02 0.  1.
</event>
<event>
 5   0  0.5009762E-04  0.1693365E+04  0.7818609E-02  0.8765158E-01
        1   -1    0    0  501    0  0.00000000000E+00  0.00000000000E+00  0.19646101623E+04  0.19646101623E+04  0.50400001928E-02 0. -1.
       -1   -1    0    0    0  501  0.00000000000E+00  0.00000000000E+00 -0.36489220207E+03  0.36489220210E+03  0.50400001928E-02 0.  1.
    10030    2    1    2    0    0  0.00000000000E+00  0.00000000000E+00  0.15997179602E+04  0.23295023644E+04  0.16933646133E+04 0.  0.
        3    1    3    3  502    0  0.75484735794E+03 -0.19412997171E+03  0.34486949028E+03  0.85230039026E+03  0.10100000352E+00 0.  1.
       -3    1    3    3    0  502 -0.75484735794E+03  0.19412997171E+03  0.12548484699E+04  0.14772019741E+04  0.10100000352E+00 0. -1.
</event>
<event>
 5   0  0.9312096E-04  0.1619753E+04  0.7818609E-02  0.8808504E-01
       -2   -1    0    0    0  501  0.00000000000E+00  0.00000000000E+00  0.89847933236E+03  0.89847933236E+03  0.25500000920E-02 0. -1.
        2   -1    0    0  501    0  0.00000000000E+00  0.00000000000E+00 -0.73001147725E+03  0.73001147725E+03  0.25500000920E-02 0.  1.
    10030    2    1    2    0    0  0.00000000000E+00  0.00000000000E+00  0.16846785511E+03  0.16284908096E+04  0.16197533451E+04 0.  0.
        3    1    3    3  502    0 -0.10757332704E+03 -0.38931095213E+03 -0.62152508178E+03  0.74123442690E+03  0.10100000352E+00 0.  1.
       -3    1    3    3    0  502  0.10757332704E+03  0.38931095213E+03  0.78999293689E+03  0.88725638272E+03  0.10100000352E+00 0. -1.
</event>
<event>
 5   0  0.5059689E-04  0.1671735E+04  0.7818609E-02  0.8777651E-01
        1   -1    0    0  501    0  0.00000000000E+00  0.00000000000E+00  0.17776938655E+04  0.17776938655E+04  0.50400001928E-02 0. -1.
       -1   -1    0    0    0  501  0.00000000000E+00  0.00000000000E+00 -0.39302305876E+03  0.39302305879E+03  0.50400001928E-02 0.  1.
    10030    2    1    2    0    0  0.00000000000E+00  0.00000000000E+00  0.13846708067E+04  0.21707169243E+04  0.16717352429E+04 0.  0.
        5    1    3    3  502    0 -0.33975870156E+03 -0.65650764443E+03  0.18573741422E+03  0.76220649402E+03  0.46999998093E+01 0.  1.
       -5    1    3    3    0  502  0.33975870156E+03  0.65650764443E+03  0.11989333925E+04  0.14085104303E+04  0.46999998093E+01 0. -1.
</event>
<event>
 5   0  0.4947006E-04  0.1099605E+04  0.7818609E-02  0.9205577E-01
        1   -1    0    0  501    0  0.00000000000E+00  0.00000000000E+00  0.15284632739E+03  0.15284632747E+03  0.50400001928E-02 0.  1.
       -1   -1    0    0    0  501  0.00000000000E+00  0.00000000000E+00 -0.19776892441E+04  0.19776892441E+04  0.50400001928E-02 0. -1.
    10030    2    1    2    0    0  0.00000000000E+00  0.00000000000E+00 -0.18248429167E+04  0.21305355716E+04  0.10996045431E+04 0.  0.
        2    1    3    3  502    0 -0.73733452840E+02 -0.22163583114E+03  0.51931118009E+02  0.23928206104E+03  0.25500000920E-02 0.  1.
       -2    1    3    3    0  502  0.73733452840E+02  0.22163583114E+03 -0.18767740348E+04  0.18912535106E+04  0.25500000920E-02 0. -1.
</event>
<event>
 5   0  0.9312096E-04  0.1360151E+04  0.7818609E-02  0.8983180E-01
        2   -1    0    0  501    0  0.00000000000E+00  0.00000000000E+00  0.19327665269E+03  0.19327665271E+03  0.25500000920E-02 0.  1.
       -2   -1    0    0    0  501  0.00000000000E+00  0.00000000000E+00 -0.23929556488E+04  0.23929556488E+04  0.25500000920E-02 0. -1.
    10030    2    1    2    0    0  0.00000000000E+00  0.00000000000E+00 -0.21996789962E+04  0.25862323015E+04  0.13601506650E+04 0.  0.
        3    1    3    3  502    0 -0.59732165595E+03  0.32434122911E+03 -0.10568127585E+04  0.12565204376E+04  0.10100000352E+00 0. -1.
       -3    1    3    3    0  502  0.59732165595E+03 -0.32434122911E+03 -0.11428662377E+04  0.13297118639E+04  0.10100000352E+00 0.  1.
</event>
<event>
 5   0  0.1007187E-03  0.1819801E+04  0.7818609E-02  0.8695840E-01
        2   -1    0    0  501    0  0.00000000000E+00  0.00000000000E+00  0.67644588114E+03  0.67644588115E+03  0.25500000920E-02 0.  1.
       -2   -1    0    0    0  501  0.00000000000E+00  0.00000000000E+00 -0.12239241989E+04  0.12239241989E+04  0.25500000920E-02 0. -1.
    10030    2    1    2    0    0  0.00000000000E+00  0.00000000000E+00 -0.54747831775E+03  0.19003700800E+04  0.18198005200E+04 0.  0.
        5    1    3    3  502    0 -0.53606698891E+03  0.73088153432E+03 -0.19058479691E+03  0.92622906920E+03  0.46999998093E+01 0.  1.
       -5    1    3    3    0  502  0.53606698891E+03 -0.73088153432E+03 -0.35689352084E+03  0.97414101085E+03  0.46999998093E+01 0. -1.
</event>
<event>
 5   0  0.1007187E-03  0.1693039E+04  0.7818609E-02  0.8765345E-01
        2   -1    0    0  501    0  0.00000000000E+00  0.00000000000E+00  0.10372419759E+04  0.10372419759E+04  0.25500000920E-02 0.  1.
       -2   -1    0    0    0  501  0.00000000000E+00  0.00000000000E+00 -0.69086566460E+03  0.69086566461E+03  0.25500000920E-02 0. -1.
    10030    2    1    2    0    0  0.00000000000E+00  0.00000000000E+00  0.34637631130E+03  0.17281076405E+04  0.16930385312E+04 0.  0.
        5    1    3    3  502    0  0.75642370198E+03  0.15689232331E+03  0.52645060725E+03  0.93486060453E+03  0.46999998093E+01 0.  1.
       -5    1    3    3    0  502 -0.75642370198E+03 -0.15689232331E+03 -0.18007429595E+03  0.79324703598E+03  0.46999998093E+01 0. -1.
</event>
<event>
 5   0  0.1007187E-03  0.1684988E+04  0.7818609E-02  0.8769973E-01
       -2   -1    0    0    0  501  0.00000000000E+00  0.00000000000E+00  0.76533607201E+03  0.76533607201E+03  0.25500000920E-02 0. -1.
        2   -1    0    0  501    0  0.00000000000E+00  0.00000000000E+00 -0.92743068719E+03  0.92743068719E+03  0.25500000920E-02 0.  1.
    10030    2    1    2    0    0  0.00000000000E+00  0.00000000000E+00 -0.16209461518E+03  0.16927667592E+04  0.16849880227E+04 0.  0.
        5    1    3    3  502    0  0.69516520383E+02 -0.61979692931E+03 -0.65004819169E+03  0.90086931445E+03  0.46999998093E+01 0.  1.
       -5    1    3    3    0  502 -0.69516520383E+02  0.61979692931E+03  0.48795357651E+03  0.79189744476E+03  0.46999998093E+01 0. -1.
</event>
<event>
 5   0  0.9610114E-04  0.1676807E+04  0.7818609E-02  0.8774704E-01
       -2   -1    0    0    0  501  0.00000000000E+00  0.00000000000E+00  0.10791873535E+04  0.10791873535E+04  0.25500000920E-02 0. -1.
        2   -1    0    0  501    0  0.00000000000E+00  0.00000000000E+00 -0.65134256942E+03  0.65134256942E+03  0.25500000920E-02 0.  1.
    10030    2    1    2    0    0  0.00000000000E+00  0.00000000000E+00  0.42784478407E+03  0.17305299229E+04  0.16768072802E+04 0.  0.
        2    1    3    3  502    0 -0.73975488586E+03  0.37028833214E+03  0.73284929808E+02  0.83049468452E+03  0.25500000920E-02 0. -1.
       -2    1    3    3    0  502  0.73975488586E+03 -0.37028833214E+03  0.35455985426E+03  0.90003523838E+03  0.25500000920E-02 0.  1.
</event>
<event>
 5   0  0.9284971E-04  0.1711984E+04  0.7818609E-02  0.8754559E-01
       -2   -1    0    0    0  501  0.00000000000E+00  0.00000000000E+00  0.14379517455E+04  0.14379517455E+04  0.25500000920E-02 0.  1.
        2   -1    0    0  501    0  0.00000000000E+00  0.00000000000E+00 -0.50956001939E+03  0.50956001939E+03  0.25500000920E-02 0. -1.
    10030    2    1    2    0    0  0.00000000000E+00  0.00000000000E+00  0.92839172614E+03  0.19475117649E+04  0.17119844851E+04 0.  0.
        4    1    3    3  502    0  0.53372054316E+03 -0.51443612259E+03 -0.22732953478E+02  0.74163369833E+03  0.12699999809E+01 0. -1.
       -4    1    3    3    0  502 -0.53372054316E+03  0.51443612259E+03  0.95112467962E+03  0.12058780666E+04  0.12699999809E+01 0.  1.
</event>
<event>
 5   0  0.9312096E-04  0.1709652E+04  0.7818609E-02  0.8755879E-01
       -2   -1    0    0    0  501  0.00000000000E+00  0.00000000000E+00  0.43690708043E+03  0.43690708044E+03  0.25500000920E-02 0. -1.
        2   -1    0    0  501    0  0.00000000000E+00  0.00000000000E+00 -0.16725009674E+04  0.16725009674E+04  0.25500000920E-02 0.  1.
    10030    2    1    2    0    0  0.00000000000E+00  0.00000000000E+00 -0.12355938869E+04  0.21094080478E+04  0.17096520286E+04 0.  0.
        3    1    3    3  502    0  0.72673438909E+03 -0.41872103395E+03 -0.41409530967E+03  0.93538500749E+03  0.10100000352E+00 0. -1.
       -3    1    3    3    0  502 -0.72673438909E+03  0.41872103395E+03 -0.82149857726E+03  0.11740230403E+04  0.10100000352E+00 0.  1.
</event>
<event>
 5   0  0.1007187E-03  0.1835270E+04  0.7818609E-02  0.8687765E-01
       -2   -1    0    0    0  501  0.00000000000E+00  0.00000000000E+00  0.57117815085E+03  0.57117815086E+03  0.25500000920E-02 0. -1.
        2   -1    0    0  501    0  0.00000000000E+00  0.00000000000E+00 -0.14742407996E+04  0.14742407996E+04  0.25500000920E-02 0.  1.
    10030    2    1    2    0    0  0.00000000000E+00  0.00000000000E+00 -0.90306264880E+03  0.20454189505E+04  0.18352701533E+04 0.  0.
        5    1    3    3  502    0  0.24149334205E+03 -0.34839154019E+03  0.45549849868E+03  0.62225129315E+03  0.46999998093E+01 0. -1.
       -5    1    3    3    0  502 -0.24149334205E+03  0.34839154019E+03 -0.13585611475E+04  0.14231676574E+04  0.46999998093E+01 0.  1.
</event>
<event>
 5   0  0.9284971E-04  0.1726094E+04  0.7818609E-02  0.8746620E-01
       -2   -1    0    0    0  501  0.00000000000E+00  0.00000000000E+00  0.49399417848E+03  0.49399417849E+03  0.25500000920E-02 0.  1.
        2   -1    0    0  501    0  0.00000000000E+00  0.00000000000E+00 -0.15078122191E+04  0.15078122191E+04  0.25500000920E-02 0. -1.
    10030    2    1    2    0    0  0.00000000000E+00  0.00000000000E+00 -0.10138180406E+04  0.20018063976E+04  0.17260943873E+04 0.  0.
        4    1    3    3  502    0  0.19014683268E+03  0.83088288828E+03 -0.66390882695E+03  0.10804160011E+04  0.12699999809E+01 0.  1.
       -4    1    3    3    0  502 -0.19014683268E+03 -0.83088288828E+03 -0.34990921364E+03  0.92139039647E+03  0.12699999809E+01 0. -1.
</event>
<event>
 5   0  0.3523125E-04  0.1713826E+04  0.7818609E-02  0.8753518E-01
       -3   -1    0    0    0  501  0.00000000000E+00  0.00000000000E+00  0.12625766237E+04  0.12625766277E+04  0.10100000352E+00 0.  1.
        3   -1    0    0  501    0  0.00000000000E+00  0.00000000000E+00 -0.58158843268E+03  0.58158844145E+03  0.10100000352E+00 0. -1.
    10030    2    1    2    0    0  0.00000000000E+00  0.00000000000E+00  0.68098819102E+03  0.18441650692E+04  0.17138260957E+04 0.  0.
        3    1    3    3  502    0 -0.76221157069E+03  0.38752063329E+03  0.40099500254E+03  0.94442348657E+03  0.10100000352E+00 0.  1.
       -3    1    3    3    0  502  0.76221157069E+03 -0.38752063329E+03  0.27999318847E+03  0.89974158263E+03  0.10100000352E+00 0. -1.
</event>
<event>
 5   0  0.9625225E-04  0.1691100E+04  0.7818609E-02  0.8766457E-01
        2   -1    0    0  501    0  0.00000000000E+00  0.00000000000E+00  0.15358444071E+04  0.15358444071E+04  0.25500000920E-02 0. -1.
       -2   -1    0    0    0  501  0.00000000000E+00  0.00000000000E+00 -0.46551268933E+03  0.46551268933E+03  0.25500000920E-02 0.  1.
    10030    2    1    2    0    0  0.00000000000E+00  0.00000000000E+00  0.10703317177E+04  0.20013570964E+04  0.16911003049E+04 0.  0.
        1    1    3    3  502    0 -0.69280781685E+03 -0.23545748286E+02  0.11081606628E+04  0.13071178707E+04  0.50400001928E-02 0. -1.
       -1    1    3    3    0  502  0.69280781685E+03  0.23545748286E+02 -0.37828945076E+02  0.69423922567E+03  0.50400001928E-02 0.  1.
</event>
<event>
 5   0  0.4947006E-04  0.1703513E+04  0.7818609E-02  0.8759363E-01
        1   -1    0    0  501    0  0.00000000000E+00  0.00000000000E+00  0.16137919250E+04  0.16137919250E+04  0.50400001928E-02 0. -1.
       -1   -1    0    0    0  501  0.00000000000E+00  0.00000000000E+00 -0.44955550960E+03  0.44955550963E+03  0.50400001928E-02 0.  1.
    10030    2    1    2    0    0  0.00000000000E+00  0.00000000000E+00  0.11642364154E+04  0.20633474347E+04  0.17035129014E+04 0.  0.
        2    1    3    3  502    0  0.14758047454E+03 -0.30801905344E+03 -0.36297826141E+03  0.49840641249E+03  0.25500000920E-02 0.  1.
       -2    1    3    3    0  502 -0.14758047454E+03  0.30801905344E+03  0.15272146768E+04  0.15649410222E+04  0.25500000920E-02 0. -1.
</event>
<event>
 5   0  0.9312096E-04  0.1788528E+04  0.7818609E-02  0.8712424E-01
       -2   -1    0    0    0  501  0.00000000000E+00  0.00000000000E+00  0.63588821120E+03  0.63588821121E+03  0.25500000920E-02 0. -1.
        2   -1    0    0  501    0  0.00000000000E+00  0.00000000000E+00 -0.12576240379E+04  0.12576240380E+04  0.25500000920E-02 0.  1.
    10030    2    1    2    0    0  0.00000000000E+00  0.00000000000E+00 -0.62173582674E+03  0.18935122492E+04  0.17885282216E+04 0.  0.
        3    1    3    3  502    0 -0.65823275902E+03  0.38424192090E+03  0.18434513668E+03  0.78415263721E+03  0.10100000352E+00 0. -1.
       -3    1    3    3    0  502  0.65823275902E+03 -0.38424192090E+03 -0.80608096342E+03  0.11093596119E+04  0.10100000352E+00 0.  1.
</event>
<event>
 5   0  0.5035495E-04  0.1643514E+04  0.7818609E-02  0.8794253E-01
        1   -1    0    0  501    0  0.00000000000E+00  0.00000000000E+00  0.55729095294E+03  0.55729095296E+03  0.50400001928E-02 0. -1.
       -1   -1    0    0    0  501  0.00000000000E+00  0.00000000000E+00 -0.12117268199E+04  0.12117268199E+04  0.50400001928E-02 0.  1.
    10030    2    1    2    0    0  0.00000000000E+00  0.00000000000E+00 -0.65443586694E+03  0.17690177728E+04  0.16435137896E+04 0.  0.
        4    1    3    3  502    0 -0.51633705043E+02  0.40797832893E+03 -0.10930035888E+04  0.11678059832E+04  0.12699999809E+01 0.  1.
       -4    1    3    3    0  502  0.51633705043E+02 -0.40797832893E+03  0.43856772190E+03  0.60121178961E+03  0.12699999809E+01 0. -1.
</event>
<event>
 5   0  0.5074133E-04  0.1688503E+04  0.7818609E-02  0.8767949E-01
       -1   -1    0    0    0  501  0.00000000000E+00  0.00000000000E+00  0.52474356951E+03  0.52474356953E+03  0.50400001928E-02 0. -1.
        1   -1    0    0  501    0  0.00000000000E+00  0.00000000000E+00 -0.13583028896E+04  0.13583028896E+04  0.50400001928E-02 0.  1.
    10030    2    1    2    0    0  0.00000000000E+00  0.00000000000E+00 -0.83355932012E+03  0.18830464592E+04  0.16885031321E+04 0.  0.
        1    1    3    3  502    0  0.11308494013E+03  0.17956655300E+03 -0.13280748426E+04  0.13449219822E+04  0.50400001928E-02 0.  1.
       -1    1    3    3    0  502 -0.11308494013E+03 -0.17956655300E+03  0.49451552252E+03  0.53812447693E+03  0.50400001928E-02 0. -1.
</event>
<event>
 5   0  0.5059689E-04  0.1680070E+04  0.7818609E-02  0.8772813E-01
       -1   -1    0    0    0  501  0.00000000000E+00  0.00000000000E+00  0.75550103103E+03  0.75550103105E+03  0.50400001928E-02 0. -1.
        1   -1    0    0  501    0  0.00000000000E+00  0.00000000000E+00 -0.93402797511E+03  0.93402797513E+03  0.50400001928E-02 0.  1.
    10030    2    1    2    0    0  0.00000000000E+00  0.00000000000E+00 -0.17852694408E+03  0.16895290062E+04  0.16800703536E+04 0.  0.
        5    1    3    3  502    0  0.18445101264E+03  0.81813736981E+03 -0.41392147097E+02  0.83970609846E+03  0.46999998093E+01 0.  1.
       -5    1    3    3    0  502 -0.18445101264E+03 -0.81813736981E+03 -0.13713479698E+03  0.84982290772E+03  0.46999998093E+01 0. -1.
</event>
<event>
 5   0  0.9284971E-04  0.1669928E+04  0.7818609E-02  0.8778704E-01
       -2   -1    0    0    0  501  0.00000000000E+00  0.00000000000E+00  0.13728488024E+04  0.13728488024E+04  0.25500000920E-02 0.  1.
        2   -1    0    0  501    0  0.00000000000E+00  0.00000000000E+00 -0.50782327366E+03  0.50782327367E+03  0.25500000920E-02 0. -1.
    10030    2    1    2    0    0  0.00000000000E+00  0.00000000000E+00  0.86502552876E+03  0.18806720761E+04  0.16699276309E+04 0.  0.
        4    1    3    3  502    0  0.20786708158E+03 -0.84815960862E+02 -0.47319307145E+03  0.52375162681E+03  0.12699999809E+01 0. -1.
       -4    1    3    3    0  502 -0.20786708158E+03  0.84815960862E+02  0.13382186002E+04  0.13569204493E+04  0.12699999809E+01 0.  1.
</event>
<event>
 5   0  0.4947006E-04  0.1698904E+04  0.7818609E-02  0.8761990E-01
       -1   -1    0    0    0  501  0.00000000000E+00  0.00000000000E+00  0.72971881271E+03  0.72971881272E+03  0.50400001928E-02 0. -1.
        1   -1    0    0  501    0  0.00000000000E+00  0.00000000000E+00 -0.98883127191E+03  0.98883127192E+03  0.50400001928E-02 0.  1.
    10030    2    1    2    0    0  0.00000000000E+00  0.00000000000E+00 -0.25911245920E+03  0.17185500846E+04  0.16989040959E+04 0.  0.
        2    1    3    3  502    0 -0.11122445192E+03  0.33574911771E+03  0.65168974105E+03  0.74148355838E+03  0.25500000920E-02 0. -1.
       -2    1    3    3    0  502  0.11122445192E+03 -0.33574911771E+03 -0.91080220025E+03  0.97706652626E+03  0.25500000920E-02 0.  1.
</event>
<event>
 5   0  0.9610114E-04  0.1681522E+04  0.7818609E-02  0.8771974E-01
       -2   -1    0    0    0  501  0.00000000000E+00  0.00000000000E+00  0.13701947203E+04  0.13701947203E+04  0.25500000920E-02 0. -1.
        2   -1    0    0  501    0  0.00000000000E+00  0.00000000000E+00 -0.51589687010E+03  0.51589687010E+03  0.25500000920E-02 0.  1.
    10030    2    1    2    0    0  0.00000000000E+00  0.00000000000E+00  0.85429785018E+03  0.18860915904E+04  0.16815221291E+04 0.  0.
        2    1    3    3  502    0 -0.31270885479E+03 -0.77040804726E+03  0.56708115015E+03  0.10064275523E+04  0.25500000920E-02 0.  1.
       -2    1    3    3    0  502  0.31270885479E+03  0.77040804726E+03  0.28721670003E+03  0.87966403810E+03  0.25500000920E-02 0. -1.
</event>
<event>
 5   0  0.9625225E-04  0.1617698E+04  0.7818609E-02  0.8809749E-01
        2   -1    0    0  501    0  0.00000000000E+00  0.00000000000E+00  0.39205389215E+03  0.39205389216E+03  0.25500000920E-02 0. -1.
       -2   -1    0    0    0  501  0.00000000000E+00  0.00000000000E+00 -0.16687411047E+04  0.16687411047E+04  0.25500000920E-02 0.  1.
    10030    2    1    2    0    0  0.00000000000E+00  0.00000000000E+00 -0.12766872125E+04  0.20607949969E+04  0.16176976789E+04 0.  0.
        1    1    3    3  502    0  0.41535362055E+03  0.51075683211E+03 -0.39681894210E+02  0.65951938896E+03  0.50400001928E-02 0. -1.
       -1    1    3    3    0  502 -0.41535362055E+03 -0.51075683211E+03 -0.12370053183E+04  0.14012756079E+04  0.50400001928E-02 0.  1.
</event>
<event>
 5   0  0.1007187E-03  0.1722773E+04  0.7818609E-02  0.8748481E-01
        2   -1    0    0  501    0  0.00000000000E+00  0.00000000000E+00  0.16544318826E+04  0.16544318826E+04  0.25500000920E-02 0. -1.
       -2   -1    0    0    0  501  0.00000000000E+00  0.00000000000E+00 -0.44848443902E+03  0.44848443902E+03  0.25500000920E-02 0.  1.
    10030    2    1    2    0    0  0.00000000000E+00  0.00000000000E+00  0.12059474436E+04  0.21029163216E+04  0.17227732930E+04 0.  0.
        5    1    3    3  502    0 -0.46704953612E+03 -0.17202486406E+03 -0.25517291930E+03  0.55934169502E+03  0.46999998093E+01 0.  1.
       -5    1    3    3    0  502  0.46704953612E+03  0.17202486406E+03  0.14611203629E+04  0.15435746266E+04  0.46999998093E+01 0. -1.
</event>
<event>
 5   0  0.4947006E-04  0.1705794E+04  0.7818609E-02  0.8758067E-01
       -1   -1    0    0    0  501  0.00000000000E+00  0.00000000000E+00  0.71892484751E+03  0.71892484753E+03  0.50400001928E-02 0. -1.
        1   -1    0    0  501    0  0.00000000000E+00  0.00000000000E+00 -0.10118353323E+04  0.10118353323E+04  0.50400001928E-02 0.  1.
    10030    2    1    2    0    0  0.00000000000E+00  0.00000000000E+00 -0.29291048478E+03  0.17307601798E+04  0.17057943159E+04 0.  0.
        2    1    3    3  502    0 -0.62142601180E+03  0.19439606046E+03 -0.70540217807E+03  0.95997518160E+03  0.25500000920E-02 0.  1.
       -2    1    3    3    0  502  0.62142601180E+03 -0.19439606046E+03  0.41249169328E+03  0.77078499824E+03  0.25500000920E-02 0. -1.
</event>
<event>
 5   0  0.5035495E-04  0.1673733E+04  0.7818609E-02  0.8776489E-01
       -1   -1    0    0    0  501  0.00000000000E+00  0.00000000000E+00  0.61207918270E+03  0.61207918272E+03  0.50400001928E-02 0. -1.
        1   -1    0    0  501    0  0.00000000000E+00  0.00000000000E+00 -0.11442076229E+04  0.11442076229E+04  0.50400001928E-02 0.  1.
    10030    2    1    2    0    0  0.00000000000E+00  0.00000000000E+00 -0.53212844018E+03  0.17562868056E+04  0.16737331528E+04 0.  0.
        4    1    3    3  502    0 -0.24250323144E+03 -0.45938912782E+03  0.42242115830E+03  0.66954270655E+03  0.12699999809E+01 0. -1.
       -4    1    3    3    0  502  0.24250323144E+03  0.45938912782E+03 -0.95454959848E+03  0.10867440991E+04  0.12699999809E+01 0.  1.
</event>
<event>
 5   0  0.9284971E-04  0.1110912E+04  0.7818609E-02  0.9194621E-01
       -2   -1    0    0    0  501  0.00000000000E+00  0.00000000000E+00  0.61744786702E+03  0.61744786703E+03  0.25500000920E-02 0. -1.
        2   -1    0    0  501    0  0.00000000000E+00  0.00000000000E+00 -0.49968819096E+03  0.49968819097E+03  0.25500000920E-02 0.  1.
    10030    2    1    2    0    0  0.00000000000E+00  0.00000000000E+00  0.11775967606E+03  0.11171360580E+04  0.11109120716E+04 0.  0.
        4    1    3    3  502    0  0.49433359485E+03  0.24713615369E+03  0.30004163669E+01  0.55267766090E+03  0.12699999809E+01 0. -1.
       -4    1    3    3    0  502 -0.49433359485E+03 -0.24713615369E+03  0.11475925970E+03  0.56445839709E+03  0.12699999809E+01 0.  1.
</event>
<event>
 5   0  0.9312096E-04  0.1671155E+04  0.7818609E-02  0.8777989E-01
       -2   -1    0    0    0  501  0.00000000000E+00  0.00000000000E+00  0.28755386625E+03  0.28755386626E+03  0.25500000920E-02 0.  1.
        2   -1    0    0  501    0  0.00000000000E+00  0.00000000000E+00 -0.24280315115E+04  0.24280315115E+04  0.25500000920E-02 0. -1.
    10030    2    1    2    0    0  0.00000000000E+00  0.00000000000E+00 -0.21404776453E+04  0.27155853778E+04  0.16711551077E+04 0.  0.
        3    1    3    3  502    0  0.55141331757E+03 -0.55055540605E+03 -0.15604912313E+04  0.17442192508E+04  0.10100000352E+00 0.  1.
       -3    1    3    3    0  502 -0.55141331757E+03  0.55055540605E+03 -0.57998641400E+03  0.97136612693E+03  0.10100000352E+00 0. -1.
</event>
<event>
 5   0  0.5074133E-04  0.1702070E+04  0.7818609E-02  0.8760185E-01
        1   -1    0    0  501    0  0.00000000000E+00  0.00000000000E+00  0.18331755485E+04  0.18331755485E+04  0.50400001928E-02 0.  1.
       -1   -1    0    0    0  501  0.00000000000E+00  0.00000000000E+00 -0.39508516360E+03  0.39508516363E+03  0.50400001928E-02 0. -1.
    10030    2    1    2    0    0  0.00000000000E+00  0.00000000000E+00  0.14380903849E+04  0.22282607121E+04  0.17020698711E+04 0.  0.
        1    1    3    3  502    0  0.61676711747E+03  0.18840022495E+03  0.14460219940E+04  0.15833116968E+04  0.50400001928E-02 0.  1.
       -1    1    3    3    0  502 -0.61676711747E+03 -0.18840022495E+03 -0.79316091132E+01  0.64494901535E+03  0.50400001928E-02 0. -1.
</event>
<event>
 5   0  0.5009762E-04  0.1855263E+04  0.7818609E-02  0.8677451E-01
       -1   -1    0    0    0  501  0.00000000000E+00  0.00000000000E+00  0.68790472045E+03  0.68790472047E+03  0.50400001928E-02 0.  1.
        1   -1    0    0  501    0  0.00000000000E+00  0.00000000000E+00 -0.12509007089E+04  0.12509007090E+04  0.50400001928E-02 0. -1.
    10030    2    1    2    0    0  0.00000000000E+00  0.00000000000E+00 -0.56299598850E+03  0.19388054294E+04  0.18552633264E+04 0.  0.
        3    1    3    3  502    0  0.40886776052E+03 -0.34092558076E+03  0.51237901414E+03  0.73887438820E+03  0.10100000352E+00 0.  1.
       -3    1    3    3    0  502 -0.40886776052E+03  0.34092558076E+03 -0.10753750026E+04  0.11999310412E+04  0.10100000352E+00 0. -1.
</event>
<event>
 5   0  0.4947006E-04  0.1654297E+04  0.7818609E-02  0.8787868E-01
       -1   -1    0    0    0  501  0.00000000000E+00  0.00000000000E+00  0.52620346392E+03  0.52620346395E+03  0.50400001928E-02 0.  1.
        1   -1    0    0  501    0  0.00000000000E+00  0.00000000000E+00 -0.13002099488E+04  0.13002099488E+04  0.50400001928E-02 0. -1.
    10030    2    1    2    0    0  0.00000000000E+00  0.00000000000E+00 -0.77400648483E+03  0.18264134127E+04  0.16542974084E+04 0.  0.
        2    1    3    3  502    0 -0.45129304305E+03 -0.27334157160E+03  0.31629297915E+03  0.61516036457E+03  0.25500000920E-02 0.  1.
       -2    1    3    3    0  502  0.45129304305E+03  0.27334157160E+03 -0.10902994640E+04  0.12112530481E+04  0.25500000920E-02 0. -1.
</event>
<event>
 5   0  0.4947006E-04  0.1675310E+04  0.7818609E-02  0.8775572E-01
        1   -1    0    0  501    0  0.00000000000E+00  0.00000000000E+00  0.15290760193E+04  0.15290760194E+04  0.50400001928E-02 0. -1.
       -1   -1    0    0    0  501  0.00000000000E+00  0.00000000000E+00 -0.45888242779E+03  0.45888242782E+03  0.50400001928E-02 0.  1.
    10030    2    1    2    0    0  0.00000000000E+00  0.00000000000E+00  0.10701935916E+04  0.19879584472E+04  0.16753102591E+04 0.  0.
        2    1    3    3  502    0 -0.15510499952E+03 -0.38205136836E+03 -0.33011622531E+03  0.52820216883E+03  0.25500000920E-02 0.  1.
       -2    1    3    3    0  502  0.15510499952E+03  0.38205136836E+03  0.14003098169E+04  0.14597562783E+04  0.25500000920E-02 0. -1.
</event>
<event>
 5   0  0.1007187E-03  0.1689454E+04  0.7818609E-02  0.8767402E-01
       -2   -1    0    0    0  501  0.00000000000E+00  0.00000000000E+00  0.72026201655E+03  0.72026201655E+03  0.25500000920E-02 0.  1.
        2   -1    0    0  501    0  0.00000000000E+00  0.00000000000E+00 -0.99070028611E+03  0.99070028612E+03  0.25500000920E-02 0. -1.
    10030    2    1    2    0    0  0.00000000000E+00  0.00000000000E+00 -0.27043826957E+03  0.17109623027E+04  0.16894540963E+04 0.  0.
        5    1    3    3  502    0 -0.20275842753E+03 -0.42717407938E+03 -0.84409675411E+03  0.96752782613E+03  0.46999998093E+01 0. -1.
       -5    1    3    3    0  502  0.20275842753E+03  0.42717407938E+03  0.57365848455E+03  0.74343447654E+03  0.46999998093E+01 0.  1.
</event>
<event>
 5   0  0.5059689E-04  0.1747212E+04  0.7818609E-02  0.8734886E-01
        1   -1    0    0  501    0  0.00000000000E+00  0.00000000000E+00  0.14463548068E+04  0.14463548068E+04  0.50400001928E-02 0.  1.
       -1   -1    0    0    0  501  0.00000000000E+00  0.00000000000E+00 -0.52766273779E+03  0.52766273781E+03  0.50400001928E-02 0. -1.
    10030    2    1    2    0    0  0.00000000000E+00  0.00000000000E+00  0.91869206899E+03  0.19740175446E+04  0.17472121075E+04 0.  0.
        5    1    3    3  502    0 -0.69538404465E+03  0.23874112397E+03  0.99240700626E+03  0.12350911100E+04  0.46999998093E+01 0.  1.
       -5    1    3    3    0  502  0.69538404465E+03 -0.23874112397E+03 -0.73714937267E+02  0.73892643464E+03  0.46999998093E+01 0. -1.
</event>
<event>
 5   0  0.5009762E-04  0.1182963E+04  0.7818609E-02  0.9127901E-01
        1   -1    0    0  501    0  0.00000000000E+00  0.00000000000E+00  0.12855825269E+04  0.12855825269E+04  0.50400001928E-02 0.  1.
       -1   -1    0    0    0  501  0.00000000000E+00  0.00000000000E+00 -0.27213363463E+03  0.27213363467E+03  0.50400001928E-02 0. -1.
    10030    2    1    2    0    0  0.00000000000E+00  0.00000000000E+00  0.10134488923E+04  0.15577161616E+04  0.11829627986E+04 0.  0.
        3    1    3    3  502    0  0.40611379983E+03 -0.27667890592E+03  0.94020835179E+03  0.10608823641E+04  0.10100000352E+00 0.  1.
       -3    1    3    3    0  502 -0.40611379983E+03  0.27667890592E+03  0.73240540487E+02  0.49683379753E+03  0.10100000352E+00 0. -1.
</event>
<event>
 5   0  0.5059689E-04  0.1733297E+04  0.7818609E-02  0.8742598E-01
       -1   -1    0    0    0  501  0.00000000000E+00  0.00000000000E+00  0.16327311564E+04  0.16327311564E+04  0.50400001928E-02 0. -1.
        1   -1    0    0  501    0  0.00000000000E+00  0.00000000000E+00 -0.46001433830E+03  0.46001433833E+03  0.50400001928E-02 0.  1.
    10030    2    1    2    0    0  0.00000000000E+00  0.00000000000E+00  0.11727168181E+04  0.20927454947E+04  0.17332971385E+04 0.  0.
        5    1    3    3  502    0  0.21708363115E+03  0.25962420109E+03 -0.37692043786E+03  0.50657786685E+03  0.46999998093E+01 0.  1.
       -5    1    3    3    0  502 -0.21708363115E+03 -0.25962420109E+03  0.15496372560E+04  0.15861676279E+04  0.46999998093E+01 0. -1.
</event>
<event>
 5   0  0.5074133E-04  0.1658754E+04  0.7818609E-02  0.8785245E-01
        1   -1    0    0  501    0  0.00000000000E+00  0.00000000000E+00  0.22134127146E+04  0.22134127146E+04  0.50400001928E-02 0. -1.
       -1   -1    0    0    0  501  0.00000000000E+00  0.00000000000E+00 -0.31077177034E+03  0.31077177038E+03  0.50400001928E-02 0.  1.
    10030    2    1    2    0    0  0.00000000000E+00  0.00000000000E+00  0.19026409443E+04  0.25241844850E+04  0.16587539756E+04 0.  0.
        1    1    3    3  502    0  0.30427112266E+03  0.39442933574E+03  0.19603936636E+04  0.20226959073E+04  0.50400001928E-02 0. -1.
       -1    1    3    3    0  502 -0.30427112266E+03 -0.39442933574E+03 -0.57752719320E+02  0.50148857773E+03  0.50400001928E-02 0.  1.
</event>
<event>
 5   0  0.9610114E-04  0.1696222E+04  0.7818609E-02  0.8763522E-01
       -2   -1    0    0    0  501  0.00000000000E+00  0.00000000000E+00  0.16804715420E+04  0.16804715420E+04  0.25500000920E-02 0. -1.
        2   -1    0    0  501    0  0.00000000000E+00  0.00000000000E+00 -0.42803017874E+03  0.42803017875E+03  0.25500000920E-02 0.  1.
    10030    2    1    2    0    0  0.00000000000E+00  0.00000000000E+00  0.12524413633E+04  0.21085017208E+04  0.16962223139E+04 0.  0.
        2    1    3    3  502    0 -0.13021965795E+02 -0.72127499808E+03  0.71859803768E+02  0.72496277549E+03  0.25500000920E-02 0.  1.
       -2    1    3    3    0  502  0.13021965795E+02  0.72127499808E+03  0.11805815595E+04  0.13835389453E+04  0.25500000920E-02 0. -1.
</event>
<event>
 5   0  0.9625225E-04  0.1719662E+04  0.7818609E-02  0.8750229E-01
        2   -1    0    0  501    0  0.00000000000E+00  0.00000000000E+00  0.45874603917E+03  0.45874603918E+03  0.25500000920E-02 0.  1.
       -2   -1    0    0    0  501  0.00000000000E+00  0.00000000000E+00 -0.16115870293E+04  0.16115870293E+04  0.25500000920E-02 0. -1.
    10030    2    1    2    0    0  0.00000000000E+00  0.00000000000E+00 -0.11528409901E+04  0.20703330685E+04  0.17196617882E+04 0.  0.
        1    1    3    3  502    0 -0.75295566121E+03 -0.11705410725E+03 -0.10559751620E+04  0.13022009962E+04  0.50400001928E-02 0. -1.
       -1    1    3    3    0  502  0.75295566121E+03  0.11705410725E+03 -0.96865828161E+02  0.76813207228E+03  0.50400001928E-02 0.  1.
</event>
<event>
 5   0  0.5059689E-04  0.1972734E+04  0.7818609E-02  0.8619476E-01
        1   -1    0    0  501    0  0.00000000000E+00  0.00000000000E+00  0.16269847567E+04  0.16269847568E+04  0.50400001928E-02 0.  1.
       -1   -1    0    0    0  501  0.00000000000E+00  0.00000000000E+00 -0.59798937506E+03  0.59798937508E+03  0.50400001928E-02 0. -1.
    10030    2    1    2    0    0  0.00000000000E+00  0.00000000000E+00  0.10289953817E+04  0.22249741318E+04  0.19727337357E+04 0.  0.
        5    1    3    3  502    0  0.24059923209E+03 -0.48884939735E+03  0.14418426958E+04  0.15413611430E+04  0.46999998093E+01 0.  1.
       -5    1    3    3    0  502 -0.24059923209E+03  0.48884939735E+03 -0.41284731408E+03  0.68361298884E+03  0.46999998093E+01 0. -1.
</event>
<event>
 5   0  0.4947006E-04  0.1519274E+04  0.7818609E-02  0.8871736E-01
        1   -1    0    0  501    0  0.00000000000E+00  0.00000000000E+00  0.19822793719E+04  0.19822793719E+04  0.50400001928E-02 0. -1.
       -1   -1    0    0    0  501  0.00000000000E+00  0.00000000000E+00 -0.29110340466E+03  0.29110340470E+03  0.50400001928E-02 0.  1.
    10030    2    1    2    0    0  0.00000000000E+00  0.00000000000E+00  0.16911759672E+04  0.22733827766E+04  0.15192738716E+04 0.  0.
        2    1    3    3  502    0 -0.39140332129E+03 -0.52948031058E+03  0.14124351110E+04  0.15583705920E+04  0.25500000920E-02 0. -1.
       -2    1    3    3    0  502  0.39140332129E+03  0.52948031058E+03  0.27874085624E+03  0.71501218461E+03  0.25500000920E-02 0.  1.
</event>
<event>
 5   0  0.5009762E-04  0.1672198E+04  0.7818609E-02  0.8777382E-01
       -1   -1    0    0    0  501  0.00000000000E+00  0.00000000000E+00  0.76392592232E+03  0.76392592233E+03  0.50400001928E-02 0.  1.
        1   -1    0    0  501    0  0.00000000000E+00  0.00000000000E+00 -0.91509034196E+03  0.91509034198E+03  0.50400001928E-02 0. -1.
    10030    2    1    2    0    0  0.00000000000E+00  0.00000000000E+00 -0.15116441965E+03  0.16790162643E+04  0.16721976361E+04 0.  0.
        3    1    3    3  502    0 -0.38555808881E+03 -0.71303508149E+03  0.13016100779E+03  0.82098475347E+03  0.10100000352E+00 0.  1.
       -3    1    3    3    0  502  0.38555808881E+03  0.71303508149E+03 -0.28132542744E+03  0.85803151084E+03  0.10100000352E+00 0. -1.
</event>
<event>
 5   0  0.9610114E-04  0.1709942E+04  0.7818609E-02  0.8755714E-01
       -2   -1    0    0    0  501  0.00000000000E+00  0.00000000000E+00  0.29970008464E+04  0.29970008464E+04  0.25500000920E-02 0.  1.
        2   -1    0    0  501    0  0.00000000000E+00  0.00000000000E+00 -0.24390232457E+03  0.24390232459E+03  0.25500000920E-02 0. -1.
    10030    2    1    2    0    0  0.00000000000E+00  0.00000000000E+00  0.27530985218E+04  0.32409031710E+04  0.17099420729E+04 0.  0.
        2    1    3    3  502    0 -0.70670947632E+03  0.47353644252E+03  0.12146075268E+04  0.14828845169E+04  0.25500000920E-02 0.  1.
       -2    1    3    3    0  502  0.70670947632E+03 -0.47353644252E+03  0.15384909951E+04  0.17580186541E+04  0.25500000920E-02 0. -1.
</event>
<event>
 5   0  0.9625225E-04  0.1738921E+04  0.7818609E-02  0.8739472E-01
       -2   -1    0    0    0  501  0.00000000000E+00  0.00000000000E+00  0.84485287308E+03  0.84485287309E+03  0.25500000920E-02 0. -1.
        2   -1    0    0  501    0  0.00000000000E+00  0.00000000000E+00 -0.89478476933E+03  0.89478476933E+03  0.25500000920E-02 0.  1.
    10030    2    1    2    0    0  0.00000000000E+00  0.00000000000E+00 -0.49931896243E+02  0.17396376424E+04  0.17389209104E+04 0.  0.
        1    1    3    3  502    0  0.56110334910E+03 -0.17291425292E+03  0.61656677559E+03  0.85140524782E+03  0.50400001928E-02 0. -1.
       -1    1    3    3    0  502 -0.56110334910E+03  0.17291425292E+03 -0.66649867183E+03  0.88823239460E+03  0.50400001928E-02 0.  1.
</event>
<event>
 5   0  0.5074133E-04  0.1733090E+04  0.7818609E-02  0.8742714E-01
       -1   -1    0    0    0  501  0.00000000000E+00  0.00000000000E+00  0.65072839434E+03  0.65072839435E+03  0.50400001928E-02 0.  1.
        1   -1    0    0  501    0  0.00000000000E+00  0.00000000000E+00 -0.11539377531E+04  0.11539377531E+04  0.50400001928E-02 0. -1.
    10030    2    1    2    0    0  0.00000000000E+00  0.00000000000E+00 -0.50320935878E+03  0.18046661475E+04  0.17330897972E+04 0.  0.
        1    1    3    3  502    0  0.77413550144E+03  0.37994057571E+03 -0.16288345361E+03  0.87759423149E+03  0.50400001928E-02 0. -1.
       -1    1    3    3    0  502 -0.77413550144E+03 -0.37994057571E+03 -0.34032590517E+03  0.92707191599E+03  0.50400001928E-02 0.  1.
</event>
<event>
 5   0  0.9610114E-04  0.1757106E+04  0.7818609E-02  0.8729448E-01
       -2   -1    0    0    0  501  0.00000000000E+00  0.00000000000E+00  0.46682536049E+03  0.46682536049E+03  0.25500000920E-02 0.  1.
        2   -1    0    0  501    0  0.00000000000E+00  0.00000000000E+00 -0.16534144641E+04  0.16534144641E+04  0.25500000920E-02 0. -1.
    10030    2    1    2    0    0  0.00000000000E+00  0.00000000000E+00 -0.11865891036E+04  0.21202398246E+04  0.17571064888E+04 0.  0.
        2    1    3    3  502    0 -0.79714761761E+03 -0.32179775279E+03 -0.37456604513E+03  0.93770882481E+03  0.25500000920E-02 0. -1.
       -2    1    3    3    0  502  0.79714761761E+03  0.32179775279E+03 -0.81202305851E+03  0.11825309998E+04  0.25500000920E-02 0.  1.
</event>
<event>
 5   0  0.5035495E-04  0.1683005E+04  0.7818609E-02  0.8771117E-01
       -1   -1    0    0    0  501  0.00000000000E+00  0.00000000000E+00  0.85774614697E+03  0.85774614699E+03  0.50400001928E-02 0. -1.
        1   -1    0    0  501    0  0.00000000000E+00  0.00000000000E+00 -0.82556646342E+03  0.82556646344E+03  0.50400001928E-02 0.  1.
    10030    2    1    2    0    0  0.00000000000E+00  0.00000000000E+00  0.32179683550E+02  0.16833126104E+04  0.16830049948E+04 0.  0.
        4    1    3    3  502    0 -0.32378117718E+03 -0.18272738081E+03  0.77114589483E+03  0.85609062044E+03  0.12699999809E+01 0. -1.
       -4    1    3    3    0  502  0.32378117718E+03  0.18272738081E+03 -0.73896621128E+03  0.82722198998E+03  0.12699999809E+01 0.  1.
</event>
<event>
 5   0  0.5009762E-04  0.1700096E+04  0.7818609E-02  0.8761309E-01
       -1   -1    0    0    0  501  0.00000000000E+00  0.00000000000E+00  0.54028245367E+03  0.54028245370E+03  0.50400001928E-02 0.  1.
        1   -1    0    0  501    0  0.00000000000E+00  0.00000000000E+00 -0.13374151750E+04  0.13374151750E+04  0.50400001928E-02 0. -1.
    10030    2    1    2    0    0  0.00000000000E+00  0.00000000000E+00 -0.79713272129E+03  0.18776976287E+04  0.17000964118E+04 0.  0.
        3    1    3    3  502    0  0.20269840233E+03  0.67707098347E+03  0.12307602091E+03  0.71739771124E+03  0.10100000352E+00 0. -1.
       -3    1    3    3    0  502 -0.20269840233E+03 -0.67707098347E+03 -0.92020874220E+03  0.11602999174E+04  0.10100000352E+00 0.  1.
</event>
<event>
 5   0  0.1007187E-03  0.1671380E+04  0.7818609E-02  0.8777858E-01
       -2   -1    0    0    0  501  0.00000000000E+00  0.00000000000E+00  0.39906395786E+03  0.39906395787E+03  0.25500000920E-02 0.  1.
        2   -1    0    0  501    0  0.00000000000E+00  0.00000000000E+00 -0.17500396504E+04  0.17500396504E+04  0.25500000920E-02 0. -1.
    10030    2    1    2    0    0  0.00000000000E+00  0.00000000000E+00 -0.13509756925E+04  0.21491036083E+04  0.16713799679E+04 0.  0.
        5    1    3    3  502    0  0.72492683525E+03  0.26929029386E+03 -0.26822499462E+03  0.81853705876E+03  0.46999998093E+01 0.  1.
       -5    1    3    3    0  502 -0.72492683525E+03 -0.26929029386E+03 -0.10827506979E+04  0.13305665495E+04  0.46999998093E+01 0. -1.
</event>
<event>
 5   0  0.9610114E-04  0.1723787E+04  0.7818609E-02  0.8747913E-01
        2   -1    0    0  501    0  0.00000000000E+00  0.00000000000E+00  0.68495199872E+03  0.68495199873E+03  0.25500000920E-02 0.  1.
       -2   -1    0    0    0  501  0.00000000000E+00  0.00000000000E+00 -0.10845438654E+04  0.10845438654E+04  0.25500000920E-02 0. -1.
    10030    2    1    2    0    0  0.00000000000E+00  0.00000000000E+00 -0.39959186672E+03  0.17694958642E+04  0.17237870963E+04 0.  0.
        2    1    3    3  502    0 -0.24224007117E+02 -0.55689457084E+03  0.47501051963E+03  0.73236149497E+03  0.25500000920E-02 0.  1.
       -2    1    3    3    0  502  0.24224007117E+02  0.55689457084E+03 -0.87460238636E+03  0.10371343692E+04  0.25500000920E-02 0. -1.
</event>
<event>
 5   0  0.3523125E-04  0.1688631E+04  0.7818609E-02  0.8767875E-01
        3   -1    0    0  501    0  0.00000000000E+00  0.00000000000E+00  0.42836360262E+03  0.42836361452E+03  0.10100000352E+00 0.  1.
       -3   -1    0    0    0  501  0.00000000000E+00  0.00000000000E+00 -0.16641679271E+04  0.16641679302E+04  0.10100000352E+00 0. -1.
    10030    2    1    2    0    0  0.00000000000E+00  0.00000000000E+00 -0.12358043245E+04  0.20925315447E+04  0.16886313799E+04 0.  0.
        1    1    3    3  502    0 -0.32259006415E+03 -0.44082164347E+03  0.17988937721E+03  0.57510717166E+03  0.50400001928E-02 0.  1.
       -1    1    3    3    0  502  0.32259006415E+03  0.44082164347E+03 -0.14156937017E+04  0.15174243730E+04  0.50400001928E-02 0. -1.
</event>
<event>
 5   0  0.5059689E-04  0.1664772E+04  0.7818609E-02  0.8781715E-01
        1   -1    0    0  501    0  0.00000000000E+00  0.00000000000E+00  0.65965317795E+03  0.65965317797E+03  0.50400001928E-02 0.  1.
       -1   -1    0    0    0  501  0.00000000000E+00  0.00000000000E+00 -0.10503493991E+04  0.10503493991E+04  0.50400001928E-02 0. -1.
    10030    2    1    2    0    0  0.00000000000E+00  0.00000000000E+00 -0.39069622113E+03  0.17100025771E+04  0.16647718391E+04 0.  0.
        5    1    3    3  502    0 -0.51965256828E+02 -0.41815757603E+03 -0.93268691991E+03  0.10234662314E+04  0.46999998093E+01 0. -1.
       -5    1    3    3    0  502  0.51965256828E+02  0.41815757603E+03  0.54199069878E+03  0.68653634563E+03  0.46999998093E+01 0.  1.
</event>
<event>
 5   0  0.4947006E-04  0.1706581E+04  0.7818609E-02  0.8757620E-01
       -1   -1    0    0    0  501  0.00000000000E+00  0.00000000000E+00  0.98634959739E+03  0.98634959740E+03  0.50400001928E-02 0. -1.
        1   -1    0    0  501    0  0.00000000000E+00  0.00000000000E+00 -0.73818117954E+03  0.73818117956E+03  0.50400001928E-02 0.  1.
    10030    2    1    2    0    0  0.00000000000E+00  0.00000000000E+00  0.24816841785E+03  0.17245307770E+04  0.17065810374E+04 0.  0.
        2    1    3    3  502    0  0.30062534778E+03 -0.34012373418E+03  0.85421049684E+03  0.96733413421E+03  0.25500000920E-02 0. -1.
       -2    1    3    3    0  502 -0.30062534778E+03  0.34012373418E+03 -0.60604207899E+03  0.75719664276E+03  0.25500000920E-02 0.  1.
</event>
<event>
 5   0  0.5074133E-04  0.1513039E+04  0.7818609E-02  0.8875828E-01
        1   -1    0    0  501    0  0.00000000000E+00  0.00000000000E+00  0.11976773704E+04  0.11976773704E+04  0.50400001928E-02 0.  1.
       -1   -1    0    0    0  501  0.00000000000E+00  0.00000000000E+00 -0.47785939411E+03  0.47785939414E+03  0.50400001928E-02 0. -1.
    10030    2    1    2    0    0  0.00000000000E+00  0.00000000000E+00  0.71981797629E+03  0.16755367646E+04  0.15130385092E+04 0.  0.
        1    1    3    3  502    0 -0.41042587295E+02 -0.73868544624E+03  0.53493648542E+03  0.91296096626E+03  0.50400001928E-02 0.  1.
       -1    1    3    3    0  502  0.41042587295E+02  0.73868544624E+03  0.18488149087E+03  0.76257579829E+03  0.50400001928E-02 0. -1.
</event>
<event>
 5   0  0.9610114E-04  0.1691549E+04  0.7818609E-02  0.8766199E-01
       -2   -1    0    0    0  501  0.00000000000E+00  0.00000000000E+00  0.48395657806E+03  0.48395657807E+03  0.25500000920E-02 0. -1.
        2   -1    0    0  501    0  0.00000000000E+00  0.00000000000E+00 -0.14780967699E+04  0.14780967699E+04  0.25500000920E-02 0.  1.
    10030    2    1    2    0    0  0.00000000000E+00  0.00000000000E+00 -0.99414019179E+03  0.19620533479E+04  0.16915491773E+04 0.  0.
        2    1    3    3  502    0  0.50652652456E+03 -0.49671655608E+03  0.37043010781E+02  0.71040033912E+03  0.25500000920E-02 0. -1.
       -2    1    3    3    0  502 -0.50652652456E+03  0.49671655608E+03 -0.10311832026E+04  0.12516530088E+04  0.25500000920E-02 0.  1.
</event>
<event>
 5   0  0.5074133E-04  0.1673721E+04  0.7818609E-02  0.8776496E-01
        1   -1    0    0  501    0  0.00000000000E+00  0.00000000000E+00  0.66606349043E+03  0.66606349045E+03  0.50400001928E-02 0.  1.
       -1   -1    0    0    0  501  0.00000000000E+00  0.00000000000E+00 -0.10514551644E+04  0.10514551645E+04  0.50400001928E-02 0. -1.
    10030    2    1    2    0    0  0.00000000000E+00  0.00000000000E+00 -0.38539167401E+03  0.17175186549E+04  0.16737214785E+04 0.  0.
        1    1    3    3  502    0 -0.55589658641E+03 -0.62188285853E+03 -0.12327507313E+03  0.84318209671E+03  0.50400001928E-02 0. -1.
       -1    1    3    3    0  502  0.55589658641E+03  0.62188285853E+03 -0.26211660088E+03  0.87433655820E+03  0.50400001928E-02 0.  1.
</event>
<event>
 5   0  0.1007187E-03  0.1668977E+04  0.7818609E-02  0.8779259E-01
        2   -1    0    0  501    0  0.00000000000E+00  0.00000000000E+00  0.11501906584E+04  0.11501906584E+04  0.25500000920E-02 0. -1.
       -2   -1    0    0    0  501  0.00000000000E+00  0.00000000000E+00 -0.60543931092E+03  0.60543931092E+03  0.25500000920E-02 0.  1.
    10030    2    1    2    0    0  0.00000000000E+00  0.00000000000E+00  0.54475134749E+03  0.17556299693E+04  0.16689765003E+04 0.  0.
        5    1    3    3  502    0  0.32183221550E+03  0.50299454284E+03 -0.34078554867E+03  0.68755826316E+03  0.46999998093E+01 0.  1.
       -5    1    3    3    0  502 -0.32183221550E+03 -0.50299454284E+03  0.88553689616E+03  0.10680717062E+04  0.46999998093E+01 0. -1.
</event>
<event>
 5   0  0.5009762E-04  0.1641916E+04  0.7818609E-02  0.8795203E-01
        1   -1    0    0  501    0  0.00000000000E+00  0.00000000000E+00  0.83189399288E+03  0.83189399289E+03  0.50400001928E-02 0.  1.
       -1   -1    0    0    0  501  0.00000000000E+00  0.00000000000E+00 -0.81016581624E+03  0.81016581625E+03  0.50400001928E-02 0. -1.
    10030    2    1    2    0    0  0.00000000000E+00  0.00000000000E+00  0.21728176643E+02  0.16420598091E+04  0.16419160463E+04 0.  0.
        3    1    3    3  502    0 -0.34186157109E+03 -0.70951094931E+03 -0.22088221307E+03  0.81796337524E+03  0.10100000352E+00 0.  1.
       -3    1    3    3    0  502  0.34186157109E+03  0.70951094931E+03  0.24261038971E+03  0.82409643391E+03  0.10100000352E+00 0. -1.
</event>
<event>
 5   0  0.3523125E-04  0.1272283E+04  0.7818609E-02  0.9051838E-01
        3   -1    0    0  501    0  0.00000000000E+00  0.00000000000E+00  0.54804528557E+03  0.54804529487E+03  0.10100000352E+00 0. -1.
       -3   -1    0    0    0  501  0.00000000000E+00  0.00000000000E+00 -0.73839887569E+03  0.73839888260E+03  0.10100000352E+00 0.  1.
    10030    2    1    2    0    0  0.00000000000E+00  0.00000000000E+00 -0.19035359013E+03  0.12864441775E+04  0.12722830395E+04 0.  0.
        4    1    3    3  502    0  0.74769398537E+02 -0.27876121311E+03  0.47803355729E+03  0.55840484569E+03  0.12699999809E+01 0. -1.
       -4    1    3    3    0  502 -0.74769398537E+02  0.27876121311E+03 -0.66838714742E+03  0.72803933178E+03  0.12699999809E+01 0.  1.
</event>
<event>
 5   0  0.5059689E-04  0.1616479E+04  0.7818609E-02  0.8810488E-01
       -1   -1    0    0    0  501  0.00000000000E+00  0.00000000000E+00  0.39501659131E+03  0.39501659134E+03  0.50400001928E-02 0.  1.
        1   -1    0    0  501    0  0.00000000000E+00  0.00000000000E+00 -0.16537302954E+04  0.16537302954E+04  0.50400001928E-02 0. -1.
    10030    2    1    2    0    0  0.00000000000E+00  0.00000000000E+00 -0.12587137041E+04  0.20487468868E+04  0.16164787710E+04 0.  0.
        5    1    3    3  502    0 -0.29438092272E+03 -0.32797309005E+03  0.22931208132E+03  0.49682249959E+03  0.46999998093E+01 0.  1.
       -5    1    3    3    0  502  0.29438092272E+03  0.32797309005E+03 -0.14880257854E+04  0.15519243872E+04  0.46999998093E+01 0. -1.
</event>
<event>
 5   0  0.9610114E-04  0.1722866E+04  0.7818609E-02  0.8748429E-01
       -2   -1    0    0    0  501  0.00000000000E+00  0.00000000000E+00  0.60757751048E+03  0.60757751048E+03  0.25500000920E-02 0.  1.
        2   -1    0    0  501    0  0.00000000000E+00  0.00000000000E+00 -0.12213533273E+04  0.12213533273E+04  0.25500000920E-02 0. -1.
    10030    2    1    2    0    0  0.00000000000E+00  0.00000000000E+00 -0.61377581681E+03  0.18289308378E+04  0.17228660006E+04 0.  0.
        2    1    3    3  502    0  0.69471872229E+03  0.38576661979E+03 -0.65995429947E+03  0.10329519183E+04  0.25500000920E-02 0. -1.
       -2    1    3    3    0  502 -0.69471872229E+03 -0.38576661979E+03  0.46178482655E+02  0.79597891952E+03  0.25500000920E-02 0.  1.
</event>
<event>
 5   0  0.3523125E-04  0.1691920E+04  0.7818609E-02  0.8765986E-01
        3   -1    0    0  501    0  0.00000000000E+00  0.00000000000E+00  0.75672865897E+03  0.75672866571E+03  0.10100000352E+00 0. -1.
       -3   -1    0    0    0  501  0.00000000000E+00  0.00000000000E+00 -0.94571352856E+03  0.94571353395E+03  0.10100000352E+00 0.  1.
    10030    2    1    2    0    0  0.00000000000E+00  0.00000000000E+00 -0.18898486959E+03  0.17024421997E+04  0.16919202588E+04 0.  0.
        1    1    3    3  502    0 -0.17611938564E+03 -0.70646681030E+03  0.33892420755E+03  0.80310834296E+03  0.50400001928E-02 0. -1.
       -1    1    3    3    0  502  0.17611938564E+03  0.70646681030E+03 -0.52790907714E+03  0.89933385670E+03  0.50400001928E-02 0.  1.
</event>
<event>
 5   0  0.5074133E-04  0.1668488E+04  0.7818609E-02  0.8779543E-01
       -1   -1    0    0    0  501  0.00000000000E+00  0.00000000000E+00  0.39206920605E+03  0.39206920608E+03  0.50400001928E-02 0. -1.
        1   -1    0    0  501    0  0.00000000000E+00  0.00000000000E+00 -0.17751033911E+04  0.17751033911E+04  0.50400001928E-02 0.  1.
    10030    2    1    2    0    0  0.00000000000E+00  0.00000000000E+00 -0.13830341851E+04  0.21671725972E+04  0.16684883904E+04 0.  0.
        1    1    3    3  502    0 -0.60054602402E+03 -0.52600502344E+03 -0.10060148392E+04  0.12842907258E+04  0.50400001928E-02 0. -1.
       -1    1    3    3    0  502  0.60054602402E+03  0.52600502344E+03 -0.37701934586E+03  0.88288187140E+03  0.50400001928E-02 0.  1.
</event>
<event>
 5   0  0.9610114E-04  0.1672783E+04  0.7818609E-02  0.8777041E-01
       -2   -1    0    0    0  501  0.00000000000E+00  0.00000000000E+00  0.52832875336E+03  0.52832875336E+03  0.25500000920E-02 0.  1.
        2   -1    0    0  501    0  0.00000000000E+00  0.00000000000E+00 -0.13240824460E+04  0.13240824460E+04  0.25500000920E-02 0. -1.
    10030    2    1    2    0    0  0.00000000000E+00  0.00000000000E+00 -0.79575369268E+03  0.18524111994E+04  0.16727831038E+04 0.  0.
        2    1    3    3  502    0 -0.41351300985E+02  0.81884706935E+03 -0.21480542220E+03  0.84756228237E+03  0.25500000920E-02 0.  1.
       -2    1    3    3    0  502  0.41351300985E+02 -0.81884706935E+03 -0.58094827048E+03  0.10048489170E+04  0.25500000920E-02 0. -1.
</event>
<event>
 5   0  0.4947006E-04  0.1671918E+04  0.7818609E-02  0.8777545E-01
        1   -1    0    0  501    0  0.00000000000E+00  0.00000000000E+00  0.14164083578E+04  0.14164083578E+04  0.50400001928E-02 0. -1.
       -1   -1    0    0    0  501  0.00000000000E+00  0.00000000000E+00 -0.49337989689E+03  0.49337989691E+03  0.50400001928E-02 0.  1.
    10030    2    1    2    0    0  0.00000000000E+00  0.00000000000E+00  0.92302846087E+03  0.19097882547E+04  0.16719179520E+04 0.  0.
        2    1    3    3  502    0  0.11991727424E+03 -0.17148787833E+03  0.13860077912E+04  0.14017153215E+04  0.25500000920E-02 0. -1.
       -2    1    3    3    0  502 -0.11991727424E+03  0.17148787833E+03 -0.46297933038E+03  0.50807293319E+03  0.25500000920E-02 0.  1.
</event>
<event>
 5   0  0.4947006E-04  0.1688923E+04  0.7818609E-02  0.8767707E-01
        1   -1    0    0  501    0  0.00000000000E+00  0.00000000000E+00  0.44458908123E+03  0.44458908126E+03  0.50400001928E-02 0.  1.
       -1   -1    0    0    0  501  0.00000000000E+00  0.00000000000E+00 -0.16039876865E+04  0.16039876865E+04  0.50400001928E-02 0. -1.
    10030    2    1    2    0    0  0.00000000000E+00  0.00000000000E+00 -0.11593986053E+04  0.20485767678E+04  0.16889232213E+04 0.  0.
        2    1    3    3  502    0 -0.99312735083E+02 -0.83591001917E+03 -0.49827050175E+03  0.97820349234E+03  0.25500000920E-02 0. -1.
       -2    1    3    3    0  502  0.99312735083E+02  0.83591001917E+03 -0.66112810351E+03  0.10703732754E+04  0.25500000920E-02 0.  1.
</event>
<event>
 5   0  0.5035495E-04  0.1691653E+04  0.7818609E-02  0.8766140E-01
       -1   -1    0    0    0  501  0.00000000000E+00  0.00000000000E+00  0.70594481169E+03  0.70594481171E+03  0.50400001928E-02 0.  1.
        1   -1    0    0  501    0  0.00000000000E+00  0.00000000000E+00 -0.10134250966E+04  0.10134250966E+04  0.50400001928E-02 0. -1.
    10030    2    1    2    0    0  0.00000000000E+00  0.00000000000E+00 -0.30748028491E+03  0.17193699083E+04  0.16916526700E+04 0.  0.
        4    1    3    3  502    0  0.27718601253E+03 -0.72791023599E+02  0.65509390366E+03  0.71503863824E+03  0.12699999809E+01 0.  1.
       -4    1    3    3    0  502 -0.27718601253E+03  0.72791023599E+02 -0.96257418857E+03  0.10043312701E+04  0.12699999809E+01 0. -1.
</event>
<event>
 5   0  0.5035495E-04  0.1699335E+04  0.7818609E-02  0.8761744E-01
       -1   -1    0    0    0  501  0.00000000000E+00  0.00000000000E+00  0.82664221681E+03  0.82664221682E+03  0.50400001928E-02 0.  1.
        1   -1    0    0  501    0  0.00000000000E+00  0.00000000000E+00 -0.87333447333E+03  0.87333447334E+03  0.50400001928E-02 0. -1.
    10030    2    1    2    0    0  0.00000000000E+00  0.00000000000E+00 -0.46692256521E+02  0.16999766902E+04  0.16993353349E+04 0.  0.
        4    1    3    3  502    0 -0.25970887041E+03  0.29174463149E+03  0.73150469398E+03  0.82925530302E+03  0.12699999809E+01 0.  1.
       -4    1    3    3    0  502  0.25970887041E+03 -0.29174463149E+03 -0.77819695050E+03  0.87072138715E+03  0.12699999809E+01 0. -1.
</event>
<event>
 5   0  0.5059689E-04  0.1805128E+04  0.7818609E-02  0.8703577E-01
       -1   -1    0    0    0  501  0.00000000000E+00  0.00000000000E+00  0.94891413508E+03  0.94891413509E+03  0.50400001928E-02 0.  1.
        1   -1    0    0  501    0  0.00000000000E+00  0.00000000000E+00 -0.85847815836E+03  0.85847815838E+03  0.50400001928E-02 0. -1.
    10030    2    1    2    0    0  0.00000000000E+00  0.00000000000E+00  0.90435976712E+02  0.18073922935E+04  0.18051283158E+04 0.  0.
        5    1    3    3  502    0 -0.30935237474E+03  0.84312629383E+03  0.13499163660E+03  0.90818812536E+03  0.46999998093E+01 0. -1.
       -5    1    3    3    0  502  0.30935237474E+03 -0.84312629383E+03 -0.44555659884E+02  0.89920416810E+03  0.46999998093E+01 0.  1.
</event>
<event>
 5   0  0.5009762E-04  0.1692729E+04  0.7818609E-02  0.8765522E-01
       -1   -1    0    0    0  501  0.00000000000E+00  0.00000000000E+00  0.74916429634E+03  0.74916429636E+03  0.50400001928E-02 0. -1.
        1   -1    0    0  501    0  0.00000000000E+00  0.00000000000E+00 -0.95617574425E+03  0.95617574426E+03  0.50400001928E-02 0.  1.
    10030    2    1    2    0    0  0.00000000000E+00  0.00000000000E+00 -0.20701144791E+03  0.17053400406E+04  0.16927288367E+04 0.  0.
        3    1    3    3  502    0 -0.65256432647E+03 -0.51859131266E+03  0.44406252112E+02  0.83471496642E+03  0.10100000352E+00 0. -1.
       -3    1    3    3    0  502  0.65256432647E+03  0.51859131266E+03 -0.25141770002E+03  0.87062507420E+03  0.10100000352E+00 0.  1.
</event>
<event>
 5   0  0.1007187E-03  0.1117398E+04  0.7818609E-02  0.9188399E-01
        2   -1    0    0  501    0  0.00000000000E+00  0.00000000000E+00  0.15589289637E+04  0.15589289638E+04  0.25500000920E-02 0. -1.
       -2   -1    0    0    0  501  0.00000000000E+00  0.00000000000E+00 -0.20023009723E+03  0.20023009725E+03  0.25500000920E-02 0.  1.
    10030    2    1    2    0    0  0.00000000000E+00  0.00000000000E+00  0.13586988665E+04  0.17591590610E+04  0.11173978665E+04 0.  0.
        5    1    3    3  502    0  0.30128625161E+03 -0.36297060810E+03  0.11506028638E+04  0.12435554302E+04  0.46999998093E+01 0. -1.
       -5    1    3    3    0  502 -0.30128625161E+03  0.36297060810E+03  0.20809600269E+03  0.51560363080E+03  0.46999998093E+01 0.  1.
</event>
<event>
 5   0  0.5059689E-04  0.1686187E+04  0.7818609E-02  0.8769282E-01
        1   -1    0    0  501    0  0.00000000000E+00  0.00000000000E+00  0.32767974989E+03  0.32767974993E+03  0.50400001928E-02 0. -1.
       -1   -1    0    0    0  501  0.00000000000E+00  0.00000000000E+00 -0.21692121331E+04  0.21692121331E+04  0.50400001928E-02 0.  1.
    10030    2    1    2    0    0  0.00000000000E+00  0.00000000000E+00 -0.18415323833E+04  0.24968918831E+04  0.16861872841E+04 0.  0.
        5    1    3    3  502    0  0.51655162483E+03  0.34830773001E+03 -0.17618778780E+04  0.18687909468E+04  0.46999998093E+01 0.  1.
       -5    1    3    3    0  502 -0.51655162483E+03 -0.34830773001E+03 -0.79654505223E+02  0.62810093624E+03  0.46999998093E+01 0. -1.
</event>
<event>
 5   0  0.9625225E-04  0.1779418E+04  0.7818609E-02  0.8717322E-01
        2   -1    0    0  501    0  0.00000000000E+00  0.00000000000E+00  0.90979741967E+03  0.90979741967E+03  0.25500000920E-02 0.  1.
       -2   -1    0    0    0  501  0.00000000000E+00  0.00000000000E+00 -0.87006382113E+03  0.87006382113E+03  0.25500000920E-02 0. -1.
    10030    2    1    2    0    0  0.00000000000E+00  0.00000000000E+00  0.39733598539E+02  0.17798612408E+04  0.17794176794E+04 0.  0.
        1    1    3    3  502    0 -0.30864102490E+03 -0.67969144967E+03  0.50407637725E+03  0.90074010855E+03  0.50400001928E-02 0.  1.
       -1    1    3    3    0  502  0.30864102490E+03  0.67969144967E+03 -0.46434277871E+03  0.87912113226E+03  0.50400001928E-02 0. -1.
</event>
<event>
 5   0  0.5009762E-04  0.1637053E+04  0.7818609E-02  0.8798103E-01
       -1   -1    0    0    0  501  0.00000000000E+00  0.00000000000E+00  0.16663535787E+04  0.16663535787E+04  0.50400001928E-02 0. -1.
        1   -1    0    0  501    0  0.00000000000E+00  0.00000000000E+00 -0.40206674784E+03  0.40206674787E+03  0.50400001928E-02 0.  1.
    10030    2    1    2    0    0  0.00000000000E+00  0.00000000000E+00  0.12642868309E+04  0.20684203266E+04  0.16370526738E+04 0.  0.
        3    1    3    3  502    0 -0.61483496051E+03  0.54343755868E+02 -0.47111265153E+02  0.61902726432E+03  0.10100000352E+00 0.  1.
       -3    1    3    3    0  502  0.61483496051E+03 -0.54343755868E+02  0.13113980960E+04  0.14493930623E+04  0.10100000352E+00 0. -1.
</event>
<event>
 5   0  0.4947006E-04  0.1455968E+04  0.7818609E-02  0.8914273E-01
        1   -1    0    0  501    0  0.00000000000E+00  0.00000000000E+00  0.18755914321E+04  0.18755914321E+04  0.50400001928E-02 0. -1.
       -1   -1    0    0    0  501  0.00000000000E+00  0.00000000000E+00 -0.28255658643E+03  0.28255658648E+03  0.50400001928E-02 0.  1.
    10030    2    1    2    0    0  0.00000000000E+00  0.00000000000E+00  0.15930348457E+04  0.21581480186E+04  0.14559680115E+04 0.  0.
        2    1    3    3  502    0 -0.16493868149E+03 -0.69943316956E+03  0.62397893569E+03  0.95171489404E+03  0.25500000920E-02 0.  1.
       -2    1    3    3    0  502  0.16493868149E+03  0.69943316956E+03  0.96905590996E+03  0.12064331245E+04  0.25500000920E-02 0. -1.
</event>
<event>
 5   0  0.9625225E-04  0.1742582E+04  0.7818609E-02  0.8737444E-01
       -2   -1    0    0    0  501  0.00000000000E+00  0.00000000000E+00  0.56101623779E+03  0.56101623780E+03  0.25500000920E-02 0. -1.
        2   -1    0    0  501    0  0.00000000000E+00  0.00000000000E+00 -0.13531652295E+04  0.13531652295E+04  0.25500000920E-02 0.  1.
    10030    2    1    2    0    0  0.00000000000E+00  0.00000000000E+00 -0.79214899174E+03  0.19141814673E+04  0.17425816092E+04 0.  0.
        1    1    3    3  502    0  0.81482181750E+03  0.30848586736E+03 -0.40380619069E+03  0.96029035416E+03  0.50400001928E-02 0.  1.
       -1    1    3    3    0  502 -0.81482181750E+03 -0.30848586736E+03 -0.38834280104E+03  0.95389111317E+03  0.50400001928E-02 0. -1.
</event>
<event>
 5   0  0.9312096E-04  0.1475552E+04  0.7818609E-02  0.8900875E-01
       -2   -1    0    0    0  501  0.00000000000E+00  0.00000000000E+00  0.10738891143E+04  0.10738891143E+04  0.25500000920E-02 0. -1.
        2   -1    0    0  501    0  0.00000000000E+00  0.00000000000E+00 -0.50686187036E+03  0.50686187036E+03  0.25500000920E-02 0.  1.
    10030    2    1    2    0    0  0.00000000000E+00  0.00000000000E+00  0.56702724391E+03  0.15807509846E+04  0.14755520255E+04 0.  0.
        3    1    3    3  502    0 -0.18903583573E+03 -0.69418894653E+03  0.45850098340E+03  0.85314477239E+03  0.10100000352E+00 0.  1.
       -3    1    3    3    0  502  0.18903583573E+03  0.69418894653E+03  0.10852626051E+03  0.72760621225E+03  0.10100000352E+00 0. -1.
</event>
<event>
 5   0  0.9625225E-04  0.1341574E+04  0.7818609E-02  0.8997231E-01
       -2   -1    0    0    0  501  0.00000000000E+00  0.00000000000E+00  0.88877306657E+03  0.88877306657E+03  0.25500000920E-02 0.  1.
        2   -1    0    0  501    0  0.00000000000E+00  0.00000000000E+00 -0.50626525551E+03  0.50626525551E+03  0.25500000920E-02 0. -1.
    10030    2    1    2    0    0  0.00000000000E+00  0.00000000000E+00  0.38250781106E+03  0.13950383221E+04  0.13415735889E+04 0.  0.
        1    1    3    3  502    0  0.14202065828E+03  0.42116460271E+03 -0.33116752979E+03  0.55427558378E+03  0.50400001928E-02 0. -1.
       -1    1    3    3    0  502 -0.14202065828E+03 -0.42116460271E+03  0.71367534085E+03  0.84076273831E+03  0.50400001928E-02 0.  1.
</event>
<event>
 5   0  0.9312096E-04  0.1683547E+04  0.7818609E-02  0.8770804E-01
       -2   -1    0    0    0  501  0.00000000000E+00  0.00000000000E+00  0.10045269081E+04  0.10045269081E+04  0.25500000920E-02 0. -1.
        2   -1    0    0  501    0  0.00000000000E+00  0.00000000000E+00 -0.70538977496E+03  0.70538977496E+03  0.25500000920E-02 0.  1.
    10030    2    1    2    0    0  0.00000000000E+00  0.00000000000E+00  0.29913713310E+03  0.17099166830E+04  0.16835474566E+04 0.  0.
        3    1    3    3  502    0  0.61357360491E+03 -0.41350595028E+03  0.55725729698E+03  0.92628043529E+03  0.10100000352E+00 0.  1.
       -3    1    3    3    0  502 -0.61357360491E+03  0.41350595028E+03 -0.25812016387E+03  0.78363624774E+03  0.10100000352E+00 0. -1.
</event>
<event>
 5   0  0.9610114E-04  0.1781140E+04  0.7818609E-02  0.8716394E-01
        2   -1    0    0  501    0  0.00000000000E+00  0.00000000000E+00  0.15818646533E+04  0.15818646533E+04  0.25500000920E-02 0.  1.
       -2   -1    0    0    0  501  0.00000000000E+00  0.00000000000E+00 -0.50137992252E+03  0.50137992252E+03  0.25500000920E-02 0. -1.
    10030    2    1    2    0    0  0.00000000000E+00  0.00000000000E+00  0.10804847307E+04  0.20832445758E+04  0.17811402834E+04 0.  0.
        2    1    3    3  502    0 -0.82791107092E+03 -0.18119112550E+03  0.22025498670E+03  0.87565930846E+03  0.25500000920E-02 0. -1.
       -2    1    3    3    0  502  0.82791107092E+03  0.18119112550E+03  0.86022974404E+03  0.12075852673E+04  0.25500000920E-02 0.  1.
</event>
<event>
 5   0  0.9625225E-04  0.1857201E+04  0.7818609E-02  0.8676459E-01
       -2   -1    0    0    0  501  0.00000000000E+00  0.00000000000E+00  0.72098992384E+03  0.72098992384E+03  0.25500000920E-02 0.  1.
        2   -1    0    0  501    0  0.00000000000E+00  0.00000000000E+00 -0.11959926763E+04  0.11959926763E+04  0.25500000920E-02 0. -1.
    10030    2    1    2    0    0  0.00000000000E+00  0.00000000000E+00 -0.47500275245E+03  0.19169826001E+04  0.18572007631E+04 0.  0.
        1    1    3    3  502    0  0.77066339716E+03 -0.22203396320E+03 -0.72062494153E+03  0.10782028839E+04  0.50400001928E-02 0.  1.
       -1    1    3    3    0  502 -0.77066339716E+03  0.22203396320E+03  0.24562218908E+03  0.83877971621E+03  0.50400001928E-02 0. -1.
</event>
<event>
 5   0  0.5059689E-04  0.1052019E+04  0.7818609E-02  0.9253262E-01
       -1   -1    0    0    0  501  0.00000000000E+00  0.00000000000E+00  0.19426953167E+03  0.19426953174E+03  0.50400001928E-02 0. -1.
        1   -1    0    0  501    0  0.00000000000E+00  0.00000000000E+00 -0.14242377771E+04  0.14242377771E+04  0.50400001928E-02 0.  1.
    10030    2    1    2    0    0  0.00000000000E+00  0.00000000000E+00 -0.12299682454E+04  0.16185073089E+04  0.10520190227E+04 0.  0.
        5    1    3    3  502    0  0.27360350001E+02  0.30197007729E+03  0.46255823000E+02  0.30675105132E+03  0.46999998093E+01 0. -1.
       -5    1    3    3    0  502 -0.27360350001E+02 -0.30197007729E+03 -0.12762240684E+04  0.13117562575E+04  0.46999998093E+01 0.  1.
</event>
<event>
 5   0  0.5059689E-04  0.1652921E+04  0.7818609E-02  0.8788680E-01
       -1   -1    0    0    0  501  0.00000000000E+00  0.00000000000E+00  0.39440593163E+03  0.39440593166E+03  0.50400001928E-02 0. -1.
        1   -1    0    0  501    0  0.00000000000E+00  0.00000000000E+00 -0.17318128109E+04  0.17318128109E+04  0.50400001928E-02 0.  1.
    10030    2    1    2    0    0  0.00000000000E+00  0.00000000000E+00 -0.13374068793E+04  0.21262187426E+04  0.16529213473E+04 0.  0.
        5    1    3    3  502    0  0.10197640500E+03 -0.74867117156E+03 -0.23800531512E+03  0.79219715370E+03  0.46999998093E+01 0. -1.
       -5    1    3    3    0  502 -0.10197640500E+03  0.74867117156E+03 -0.10994015642E+04  0.13340215889E+04  0.46999998093E+01 0.  1.
</event>
<event>
 5   0  0.9610114E-04  0.1729129E+04  0.7818609E-02  0.8744923E-01
       -2   -1    0    0    0  501  0.00000000000E+00  0.00000000000E+00  0.36155677541E+03  0.36155677542E+03  0.25500000920E-02 0.  1.
        2   -1    0    0  501    0  0.00000000000E+00  0.00000000000E+00 -0.20673698249E+04  0.20673698249E+04  0.25500000920E-02 0. -1.
    10030    2    1    2    0    0  0.00000000000E+00  0.00000000000E+00 -0.17058130495E+04  0.24289266003E+04  0.17291287604E+04 0.  0.
        2    1    3    3  502    0 -0.63564623421E+03 -0.25341183554E+03 -0.11065536037E+03  0.69318706151E+03  0.25500000920E-02 0. -1.
       -2    1    3    3    0  502  0.63564623421E+03  0.25341183554E+03 -0.15951576891E+04  0.17357395388E+04  0.25500000920E-02 0.  1.
</event>
<event>
 5   0  0.5009762E-04  0.1734619E+04  0.7818609E-02  0.8741863E-01
       -1   -1    0    0    0  501  0.00000000000E+00  0.00000000000E+00  0.66081884594E+03  0.66081884596E+03  0.50400001928E-02 0. -1.
        1   -1    0    0  501    0  0.00000000000E+00  0.00000000000E+00 -0.11383236950E+04  0.11383236950E+04  0.50400001928E-02 0.  1.
    10030    2    1    2    0    0  0.00000000000E+00  0.00000000000E+00 -0.47750484902E+03  0.17991425409E+04  0.17346189788E+04 0.  0.
        3    1    3    3  502    0  0.20482516205E+03  0.82845366885E+03 -0.39922304745E+03  0.94216128145E+03  0.10100000352E+00 0.  1.
       -3    1    3    3    0  502 -0.20482516205E+03 -0.82845366885E+03 -0.78281801572E+02  0.85698125948E+03  0.10100000352E+00 0. -1.
</event>
<event>
 5   0  0.5059689E-04  0.1854176E+04  0.7818609E-02  0.8678008E-01
        1   -1    0    0  501    0  0.00000000000E+00  0.00000000000E+00  0.20819989728E+04  0.20819989728E+04  0.50400001928E-02 0. -1.
       -1   -1    0    0    0  501  0.00000000000E+00  0.00000000000E+00 -0.41282083729E+03  0.41282083732E+03  0.50400001928E-02 0.  1.
    10030    2    1    2    0    0  0.00000000000E+00  0.00000000000E+00  0.16691781356E+04  0.24948198102E+04  0.18541764309E+04 0.  0.
        5    1    3    3  502    0  0.41385575457E+03  0.49172213517E+03  0.17335727102E+04  0.18488817365E+04  0.46999998093E+01 0. -1.
       -5    1    3    3    0  502 -0.41385575457E+03 -0.49172213517E+03 -0.64394574668E+02  0.64593807370E+03  0.46999998093E+01 0.  1.
</event>
<event>
 5   0  0.3523125E-04  0.1679628E+04  0.7818609E-02  0.8773069E-01
       -4   -1    0    0    0  501  0.00000000000E+00  0.00000000000E+00  0.55064956654E+03  0.55065103108E+03  0.12699999809E+01 0. -1.
        4   -1    0    0  501    0  0.00000000000E+00  0.00000000000E+00 -0.12808249900E+04  0.12808256197E+04  0.12699999809E+01 0.  1.
    10030    2    1    2    0    0  0.00000000000E+00  0.00000000000E+00 -0.73017542349E+03  0.18314766507E+04  0.16796281056E+04 0.  0.
        2    1    3    3  502    0 -0.13419569027E+03  0.41899876566E+03 -0.11451047815E+04  0.12267165156E+04  0.25500000920E-02 0.  1.
       -2    1    3    3    0  502  0.13419569027E+03 -0.41899876566E+03  0.41492935804E+03  0.60476013516E+03  0.25500000920E-02 0. -1.
</event>
<event>
 5   0  0.9312096E-04  0.1666402E+04  0.7818609E-02  0.8780762E-01
       -2   -1    0    0    0  501  0.00000000000E+00  0.00000000000E+00  0.46515482853E+03  0.46515482854E+03  0.25500000920E-02 0. -1.
        2   -1    0    0  501    0  0.00000000000E+00  0.00000000000E+00 -0.14924583608E+04  0.14924583608E+04  0.25500000920E-02 0.  1.
    10030    2    1    2    0    0  0.00000000000E+00  0.00000000000E+00 -0.10273035323E+04  0.19576131894E+04  0.16664023679E+04 0.  0.
        3    1    3    3  502    0  0.36037138147E+03 -0.47373300605E+03  0.17127497884E+03  0.61937518693E+03  0.10100000352E+00 0.  1.
       -3    1    3    3    0  502 -0.36037138147E+03  0.47373300605E+03 -0.11985785112E+04  0.13382380025E+04  0.10100000352E+00 0. -1.
</event>
<event>
 5   0  0.5059689E-04  0.1028650E+04  0.7818609E-02  0.9277668E-01
       -1   -1    0    0    0  501  0.00000000000E+00  0.00000000000E+00  0.45255083157E+03  0.45255083160E+03  0.50400001928E-02 0.  1.
        1   -1    0    0  501    0  0.00000000000E+00  0.00000000000E+00 -0.58453187338E+03  0.58453187340E+03  0.50400001928E-02 0. -1.
    10030    2    1    2    0    0  0.00000000000E+00  0.00000000000E+00 -0.13198104180E+03  0.10370827050E+04  0.10286503495E+04 0.  0.
        5    1    3    3  502    0 -0.27769217896E+03 -0.27697346821E+03 -0.40140533755E+03  0.56122685552E+03  0.46999998093E+01 0. -1.
       -5    1    3    3    0  502  0.27769217896E+03  0.27697346821E+03  0.26942429575E+03  0.47585584948E+03  0.46999998093E+01 0.  1.
</event>
<event>
 5   0  0.9610114E-04  0.1377887E+04  0.7818609E-02  0.8969983E-01
       -2   -1    0    0    0  501  0.00000000000E+00  0.00000000000E+00  0.39336798902E+03  0.39336798902E+03  0.25500000920E-02 0.  1.
        2   -1    0    0  501    0  0.00000000000E+00  0.00000000000E+00 -0.12066127374E+04  0.12066127374E+04  0.25500000920E-02 0. -1.
    10030    2    1    2    0    0  0.00000000000E+00  0.00000000000E+00 -0.81324474835E+03  0.15999807264E+04  0.13778865353E+04 0.  0.
        2    1    3    3  502    0 -0.56154713464E+03  0.39392441807E+03 -0.48125678577E+03  0.83792584721E+03  0.25500000920E-02 0. -1.
       -2    1    3    3    0  502  0.56154713464E+03 -0.39392441807E+03 -0.33198796259E+03  0.76205487918E+03  0.25500000920E-02 0.  1.
</event>
<event>
 5   0  0.5074133E-04  0.1704039E+04  0.7818609E-02  0.8759064E-01
        1   -1    0    0  501    0  0.00000000000E+00  0.00000000000E+00  0.93183846510E+03  0.93183846512E+03  0.50400001928E-02 0. -1.
       -1   -1    0    0    0  501  0.00000000000E+00  0.00000000000E+00 -0.77903770031E+03  0.77903770032E+03  0.50400001928E-02 0.  1.
    10030    2    1    2    0    0  0.00000000000E+00  0.00000000000E+00  0.15280076480E+03  0.17108761654E+04  0.17040390781E+04 0.  0.
        1    1    3    3  502    0  0.31005810603E+03 -0.74248203544E+03 -0.20494115284E+03  0.83031107317E+03  0.50400001928E-02 0.  1.
       -1    1    3    3    0  502 -0.31005810603E+03  0.74248203544E+03  0.35774191764E+03  0.88056509227E+03  0.50400001928E-02 0. -1.
</event>
<event>
 5   0  0.3523125E-04  0.8402414E+03  0.7818609E-02  0.9503529E-01
        3   -1    0    0  501    0  0.00000000000E+00  0.00000000000E+00  0.79148258154E+03  0.79148258798E+03  0.10100000352E+00 0. -1.
       -3   -1    0    0    0  501  0.00000000000E+00  0.00000000000E+00 -0.22300097585E+03  0.22300099872E+03  0.10100000352E+00 0.  1.
    10030    2    1    2    0    0  0.00000000000E+00  0.00000000000E+00  0.56848160569E+03  0.10144835867E+04  0.84024140084E+03 0.  0.
        5    1    3    3  502    0  0.34530990081E+03 -0.19044861552E+03  0.45907933932E+03  0.60521527785E+03  0.46999998093E+01 0. -1.
       -5    1    3    3    0  502 -0.34530990081E+03  0.19044861552E+03  0.10940226637E+03  0.40926830886E+03  0.46999998093E+01 0.  1.
</event>
<event>
 5   0  0.9625225E-04  0.1659371E+04  0.7818609E-02  0.8784882E-01
        2   -1    0    0  501    0  0.00000000000E+00  0.00000000000E+00  0.19725572516E+04  0.19725572516E+04  0.25500000920E-02 0.  1.
       -2   -1    0    0    0  501  0.00000000000E+00  0.00000000000E+00 -0.34897732317E+03  0.34897732318E+03  0.25500000920E-02 0. -1.
    10030    2    1    2    0    0  0.00000000000E+00  0.00000000000E+00  0.16235799284E+04  0.23215345747E+04  0.16593706632E+04 0.  0.
        1    1    3    3  502    0  0.65106759005E+02  0.80894340973E+03  0.10530975608E+04  0.13295272855E+04  0.50400001928E-02 0.  1.
       -1    1    3    3    0  502 -0.65106759005E+02 -0.80894340973E+03  0.57048236759E+03  0.99200728927E+03  0.50400001928E-02 0. -1.
</event>
<event>
 5   0  0.4947006E-04  0.1068647E+04  0.7818609E-02  0.9236301E-01
       -1   -1    0    0    0  501  0.00000000000E+00  0.00000000000E+00  0.76974038876E+03  0.76974038877E+03  0.50400001928E-02 0. -1.
        1   -1    0    0  501    0  0.00000000000E+00  0.00000000000E+00 -0.37090642481E+03  0.37090642485E+03  0.50400001928E-02 0.  1.
    10030    2    1    2    0    0  0.00000000000E+00  0.00000000000E+00  0.39883396394E+03  0.11406468136E+04  0.10686470992E+04 0.  0.
        2    1    3    3  502    0 -0.16678711255E+03  0.30467908922E+03  0.63279522932E+03  0.72185669671E+03  0.25500000920E-02 0. -1.
       -2    1    3    3    0  502  0.16678711255E+03 -0.30467908922E+03 -0.23396126538E+03  0.41879011692E+03  0.25500000920E-02 0.  1.
</event>
<event>
 5   0  0.5009762E-04  0.1709165E+04  0.7818609E-02  0.8756154E-01
        1   -1    0    0  501    0  0.00000000000E+00  0.00000000000E+00  0.15480236251E+04  0.15480236252E+04  0.50400001928E-02 0. -1.
       -1   -1    0    0    0  501  0.00000000000E+00  0.00000000000E+00 -0.47177034897E+03  0.47177034900E+03  0.50400001928E-02 0.  1.
    10030    2    1    2    0    0  0.00000000000E+00  0.00000000000E+00  0.10762532762E+04  0.20197939742E+04  0.17091654641E+04 0.  0.
        3    1    3    3  502    0 -0.27029624848E+03 -0.58045935455E+03  0.12069539235E+04  0.13662836118E+04  0.10100000352E+00 0. -1.
       -3    1    3    3    0  502  0.27029624848E+03  0.58045935455E+03 -0.13070064737E+03  0.65351036231E+03  0.10100000352E+00 0.  1.
</event>
<event>
 5   0  0.5059689E-04  0.1734844E+04  0.7818609E-02  0.8741737E-01
        1   -1    0    0  501    0  0.00000000000E+00  0.00000000000E+00  0.10768250852E+04  0.10768250852E+04  0.50400001928E-02 0.  1.
       -1   -1    0    0    0  501  0.00000000000E+00  0.00000000000E+00 -0.69874010001E+03  0.69874010003E+03  0.50400001928E-02 0. -1.
    10030    2    1    2    0    0  0.00000000000E+00  0.00000000000E+00  0.37808498522E+03  0.17755651853E+04  0.17348439328E+04 0.  0.
        5    1    3    3  502    0 -0.12061172140E+03  0.53286276484E+03  0.87858420234E+03  0.10346121032E+04  0.46999998093E+01 0.  1.
       -5    1    3    3    0  502  0.12061172140E+03 -0.53286276484E+03 -0.50049921712E+03  0.74095308207E+03  0.46999998093E+01 0. -1.
</event>
<event>
 5   0  0.4947006E-04  0.1551646E+04  0.7818609E-02  0.8850817E-01
        1   -1    0    0  501    0  0.00000000000E+00  0.00000000000E+00  0.55510482468E+03  0.55510482470E+03  0.50400001928E-02 0. -1.
       -1   -1    0    0    0  501  0.00000000000E+00  0.00000000000E+00 -0.10843018189E+04  0.10843018189E+04  0.50400001928E-02 0.  1.
    10030    2    1    2    0    0  0.00000000000E+00  0.00000000000E+00 -0.52919699420E+03  0.16394066436E+04  0.15516457986E+04 0.  0.
        2    1    3    3  502    0  0.44358728976E+03  0.63649442641E+03 -0.26193970160E+03  0.81884506824E+03  0.25500000920E-02 0. -1.
       -2    1    3    3    0  502 -0.44358728976E+03 -0.63649442641E+03 -0.26725729260E+03  0.82056157535E+03  0.25500000920E-02 0.  1.
</event>
<event>
 5   0  0.9284971E-04  0.1717482E+04  0.7818609E-02  0.8751456E-01
        2   -1    0    0  501    0  0.00000000000E+00  0.00000000000E+00  0.90318057317E+03  0.90318057317E+03  0.25500000920E-02 0.  1.
       -2   -1    0    0    0  501  0.00000000000E+00  0.00000000000E+00 -0.81648843905E+03  0.81648843906E+03  0.25500000920E-02 0. -1.
    10030    2    1    2    0    0  0.00000000000E+00  0.00000000000E+00  0.86692134117E+02  0.17196690122E+04  0.17174824557E+04 0.  0.
        4    1    3    3  502    0 -0.51435702476E+03 -0.19193769496E+02  0.73160997278E+03  0.89453133812E+03  0.12699999809E+01 0.  1.
       -4    1    3    3    0  502  0.51435702476E+03  0.19193769496E+02 -0.64491783867E+03  0.82513767411E+03  0.12699999809E+01 0. -1.
</event>
<event>
 5   0  0.5035495E-04  0.1597774E+04  0.7818609E-02  0.8821917E-01
        1   -1    0    0  501    0  0.00000000000E+00  0.00000000000E+00  0.11337572810E+04  0.11337572810E+04  0.50400001928E-02 0.  1.
       -1   -1    0    0    0  501  0.00000000000E+00  0.00000000000E+00 -0.56292498771E+03  0.56292498773E+03  0.50400001928E-02 0. -1.
    10030    2    1    2    0    0  0.00000000000E+00  0.00000000000E+00  0.57083229329E+03  0.16966822687E+04  0.15977738307E+04 0.  0.
        4    1    3    3  502    0 -0.26426382583E+03 -0.39684201529E+03 -0.39527977499E+03  0.61932759357E+03  0.12699999809E+01 0. -1.
       -4    1    3    3    0  502  0.26426382583E+03  0.39684201529E+03  0.96611206828E+03  0.10773546752E+04  0.12699999809E+01 0.  1.
</event>
<event>
 5   0  0.5059689E-04  0.1634453E+04  0.7818609E-02  0.8799657E-01
        1   -1    0    0  501    0  0.00000000000E+00  0.00000000000E+00  0.22629746993E+04  0.22629746993E+04  0.50400001928E-02 0. -1.
       -1   -1    0    0    0  501  0.00000000000E+00  0.00000000000E+00 -0.29512458153E+03  0.29512458157E+03  0.50400001928E-02 0.  1.
    10030    2    1    2    0    0  0.00000000000E+00  0.00000000000E+00  0.19678501178E+04  0.25580992809E+04  0.16344533780E+04 0.  0.
        5    1    3    3  502    0  0.15339809779E+03  0.51438114754E+03  0.19483661302E+04  0.20209580917E+04  0.46999998093E+01 0. -1.
       -5    1    3    3    0  502 -0.15339809779E+03 -0.51438114754E+03  0.19483987644E+02  0.53714118919E+03  0.46999998093E+01 0.  1.
</event>
<event>
 5   0  0.3523125E-04  0.1293172E+04  0.7818609E-02  0.9034997E-01
       -4   -1    0    0    0  501  0.00000000000E+00  0.00000000000E+00  0.10308099068E+04  0.10308106891E+04  0.12699999809E+01 0. -1.
        4   -1    0    0  501    0  0.00000000000E+00  0.00000000000E+00 -0.40557581797E+03  0.40557780637E+03  0.12699999809E+01 0.  1.
    10030    2    1    2    0    0  0.00000000000E+00  0.00000000000E+00  0.62523408879E+03  0.14363884955E+04  0.12931721634E+04 0.  0.
        3    1    3    3  502    0  0.49718609706E+03 -0.44345744076E+02  0.76912368173E+03  0.91690337993E+03  0.10100000352E+00 0. -1.
       -3    1    3    3    0  502 -0.49718609706E+03  0.44345744076E+02 -0.14388959294E+03  0.51948511555E+03  0.10100000352E+00 0.  1.
</event>
<event>
 5   0  0.9625225E-04  0.1534161E+04  0.7818609E-02  0.8862049E-01
        2   -1    0    0  501    0  0.00000000000E+00  0.00000000000E+00  0.10502525913E+04  0.10502525913E+04  0.25500000920E-02 0.  1.
       -2   -1    0    0    0  501  0.00000000000E+00  0.00000000000E+00 -0.56025833327E+03  0.56025833328E+03  0.25500000920E-02 0. -1.
    10030    2    1    2    0    0  0.00000000000E+00  0.00000000000E+00  0.48999425799E+03  0.16105109245E+04  0.15341613557E+04 0.  0.
        1    1    3    3  502    0 -0.12982317296E+03  0.27596599464E+03 -0.49387840441E+03  0.58045427451E+03  0.50400001928E-02 0. -1.
       -1    1    3    3    0  502  0.12982317296E+03 -0.27596599464E+03  0.98387266240E+03  0.10300566500E+04  0.50400001928E-02 0.  1.
</event>
<event>
 5   0  0.9312096E-04  0.1678973E+04  0.7818609E-02  0.8773449E-01
       -2   -1    0    0    0  501  0.00000000000E+00  0.00000000000E+00  0.10809843191E+04  0.10809843191E+04  0.25500000920E-02 0.  1.
        2   -1    0    0  501    0  0.00000000000E+00  0.00000000000E+00 -0.65194049920E+03  0.65194049920E+03  0.25500000920E-02 0. -1.
    10030    2    1    2    0    0  0.00000000000E+00  0.00000000000E+00  0.42904381993E+03  0.17329248183E+04  0.16789728487E+04 0.  0.
        3    1    3    3  502    0 -0.64598207962E+03 -0.26408683045E+03 -0.26705760091E+03  0.74723120493E+03  0.10100000352E+00 0. -1.
       -3    1    3    3    0  502  0.64598207962E+03  0.26408683045E+03  0.69610142084E+03  0.98569361340E+03  0.10100000352E+00 0.  1.
</event>
<event>
 5   0  0.9312096E-04  0.2142243E+04  0.7818609E-02  0.8542860E-01
       -2   -1    0    0    0  501  0.00000000000E+00  0.00000000000E+00  0.95314272638E+03  0.95314272638E+03  0.25500000920E-02 0. -1.
        2   -1    0    0  501    0  0.00000000000E+00  0.00000000000E+00 -0.12037038387E+04  0.12037038387E+04  0.25500000920E-02 0.  1.
    10030    2    1    2    0    0  0.00000000000E+00  0.00000000000E+00 -0.25056111233E+03  0.21568465651E+04  0.21422432715E+04 0.  0.
        3    1    3    3  502    0 -0.24433789500E+02 -0.10315149831E+04 -0.41478438813E+03  0.11120549758E+04  0.10100000352E+00 0. -1.
       -3    1    3    3    0  502  0.24433789500E+02  0.10315149831E+04  0.16422327581E+03  0.10447915892E+04  0.10100000352E+00 0.  1.
</event>
<event>
 5   0  0.5035495E-04  0.1666993E+04  0.7818609E-02  0.8780417E-01
       -1   -1    0    0    0  501  0.00000000000E+00  0.00000000000E+00  0.48602829820E+03  0.48602829823E+03  0.50400001928E-02 0.  1.
        1   -1    0    0  501    0  0.00000000000E+00  0.00000000000E+00 -0.14293746796E+04  0.14293746796E+04  0.50400001928E-02 0. -1.
    10030    2    1    2    0    0  0.00000000000E+00  0.00000000000E+00 -0.94334638137E+03  0.19154029778E+04  0.16669931530E+04 0.  0.
        4    1    3    3  502    0  0.15856375342E+03  0.41231304714E+03  0.34045521102E+03  0.55772383520E+03  0.12699999809E+01 0.  1.
       -4    1    3    3    0  502 -0.15856375342E+03 -0.41231304714E+03 -0.12838015924E+04  0.13576791426E+04  0.12699999809E+01 0. -1.
</event>
<event>
 5   0  0.9625225E-04  0.1671457E+04  0.7818609E-02  0.8777813E-01
       -2   -1    0    0    0  501  0.00000000000E+00  0.00000000000E+00  0.31629716648E+03  0.31629716649E+03  0.25500000920E-02 0.  1.
        2   -1    0    0  501    0  0.00000000000E+00  0.00000000000E+00 -0.22081836695E+04  0.22081836695E+04  0.25500000920E-02 0. -1.
    10030    2    1    2    0    0  0.00000000000E+00  0.00000000000E+00 -0.18918865031E+04  0.25244808360E+04  0.16714571341E+04 0.  0.
        1    1    3    3  502    0 -0.29507880092E+03  0.44457505578E+03 -0.19174192288E+04  0.19902801255E+04  0.50400001928E-02 0. -1.
       -1    1    3    3    0  502  0.29507880092E+03 -0.44457505578E+03  0.25532725786E+02  0.53420071049E+03  0.50400001928E-02 0.  1.
</event>
<event>
 5   0  0.4947006E-04  0.1680139E+04  0.7818609E-02  0.8772773E-01
        1   -1    0    0  501    0  0.00000000000E+00  0.00000000000E+00  0.80986868598E+03  0.80986868600E+03  0.50400001928E-02 0. -1.
       -1   -1    0    0    0  501  0.00000000000E+00  0.00000000000E+00 -0.87139700482E+03  0.87139700484E+03  0.50400001928E-02 0.  1.
    10030    2    1    2    0    0  0.00000000000E+00  0.00000000000E+00 -0.61528318839E+02  0.16812656908E+04  0.16801394553E+04 0.  0.
        2    1    3    3  502    0 -0.31848929474E+02  0.10292030576E+03 -0.86445539191E+03  0.87114296660E+03  0.25500000920E-02 0.  1.
       -2    1    3    3    0  502  0.31848929474E+02 -0.10292030576E+03  0.80292707307E+03  0.81012272424E+03  0.25500000920E-02 0. -1.
</event>
<event>
 5   0  0.5074133E-04  0.1685940E+04  0.7818609E-02  0.8769424E-01
        1   -1    0    0  501    0  0.00000000000E+00  0.00000000000E+00  0.67692345124E+03  0.67692345126E+03  0.50400001928E-02 0.  1.
       -1   -1    0    0    0  501  0.00000000000E+00  0.00000000000E+00 -0.10497471435E+04  0.10497471435E+04  0.50400001928E-02 0. -1.
    10030    2    1    2    0    0  0.00000000000E+00  0.00000000000E+00 -0.37282369221E+03  0.17266705947E+04  0.16859400456E+04 0.  0.
        1    1    3    3  502    0  0.93794486622E+02 -0.60115376773E+03  0.41113483576E+03  0.73431267957E+03  0.50400001928E-02 0.  1.
       -1    1    3    3    0  502 -0.93794486622E+02  0.60115376773E+03 -0.78395852797E+03  0.99235791516E+03  0.50400001928E-02 0. -1.
</event>
<event>
 5   0  0.5059689E-04  0.1702146E+04  0.7818609E-02  0.8760141E-01
       -1   -1    0    0    0  501  0.00000000000E+00  0.00000000000E+00  0.67070394714E+03  0.67070394716E+03  0.50400001928E-02 0.  1.
        1   -1    0    0  501    0  0.00000000000E+00  0.00000000000E+00 -0.10799475116E+04  0.10799475116E+04  0.50400001928E-02 0. -1.
    10030    2    1    2    0    0  0.00000000000E+00  0.00000000000E+00 -0.40924356449E+03  0.17506514588E+04  0.17021457738E+04 0.  0.
        5    1    3    3  502    0  0.59673248816E+03 -0.82903606558E+02  0.41362396636E+03  0.73080061984E+03  0.46999998093E+01 0.  1.
       -5    1    3    3    0  502 -0.59673248816E+03  0.82903606558E+02 -0.82286753085E+03  0.10198508390E+04  0.46999998093E+01 0. -1.
</event>
<event>
 5   0  0.9610114E-04  0.1646205E+04  0.7818609E-02  0.8792655E-01
        2   -1    0    0  501    0  0.00000000000E+00  0.00000000000E+00  0.81870010294E+03  0.81870010295E+03  0.25500000920E-02 0. -1.
       -2   -1    0    0    0  501  0.00000000000E+00  0.00000000000E+00 -0.82752871104E+03  0.82752871105E+03  0.25500000920E-02 0.  1.
    10030    2    1    2    0    0  0.00000000000E+00  0.00000000000E+00 -0.88286081030E+01  0.16462288140E+04  0.16462051402E+04 0.  0.
        2    1    3    3  502    0  0.65092510749E+03  0.44827630874E+03  0.22546439490E+03  0.82188158388E+03  0.25500000920E-02 0. -1.
       -2    1    3    3    0  502 -0.65092510749E+03 -0.44827630874E+03 -0.23429300300E+03  0.82434723012E+03  0.25500000920E-02 0.  1.
</event>
<event>
 5   0  0.9625225E-04  0.1713080E+04  0.7818609E-02  0.8753940E-01
       -2   -1    0    0    0  501  0.00000000000E+00  0.00000000000E+00  0.88198349050E+03  0.88198349050E+03  0.25500000920E-02 0.  1.
        2   -1    0    0  501    0  0.00000000000E+00  0.00000000000E+00 -0.83183005614E+03  0.83183005615E+03  0.25500000920E-02 0. -1.
    10030    2    1    2    0    0  0.00000000000E+00  0.00000000000E+00  0.50153434355E+02  0.17138135466E+04  0.17130795386E+04 0.  0.
        1    1    3    3  502    0  0.75824204153E+03  0.43966708370E+02 -0.37106808730E+03  0.84531390053E+03  0.50400001928E-02 0. -1.
       -1    1    3    3    0  502 -0.75824204153E+03 -0.43966708370E+02  0.42122152166E+03  0.86849964612E+03  0.50400001928E-02 0.  1.
</event>
<event>
 5   0  0.9312096E-04  0.1574131E+04  0.7818609E-02  0.8836600E-01
       -2   -1    0    0    0  501  0.00000000000E+00  0.00000000000E+00  0.60268696339E+03  0.60268696340E+03  0.25500000920E-02 0. -1.
        2   -1    0    0  501    0  0.00000000000E+00  0.00000000000E+00 -0.10278507341E+04  0.10278507341E+04  0.25500000920E-02 0.  1.
    10030    2    1    2    0    0  0.00000000000E+00  0.00000000000E+00 -0.42516377068E+03  0.16305376975E+04  0.15741311734E+04 0.  0.
        3    1    3    3  502    0  0.74796083474E+03 -0.23977759314E+03 -0.16044412695E+03  0.80167389415E+03  0.10100000352E+00 0.  1.
       -3    1    3    3    0  502 -0.74796083474E+03  0.23977759314E+03 -0.26471964373E+03  0.82886380332E+03  0.10100000352E+00 0. -1.
</event>
<event>
 5   0  0.3523125E-04  0.1767848E+04  0.7818609E-02  0.8723587E-01
       -3   -1    0    0    0  501  0.00000000000E+00  0.00000000000E+00  0.11084338031E+04  0.11084338078E+04  0.10100000352E+00 0. -1.
        3   -1    0    0  501    0  0.00000000000E+00  0.00000000000E+00 -0.70488768070E+03  0.70488768794E+03  0.10100000352E+00 0.  1.
    10030    2    1    2    0    0  0.00000000000E+00  0.00000000000E+00  0.40354612245E+03  0.18133214957E+04  0.17678476670E+04 0.  0.
        3    1    3    3  502    0 -0.63875598056E+03  0.59117815320E+03  0.43464061546E+02  0.87142982872E+03  0.10100000352E+00 0. -1.
       -3    1    3    3    0  502  0.63875598056E+03 -0.59117815320E+03  0.36008206090E+03  0.94189166697E+03  0.10100000352E+00 0.  1.
</event>
<event>
 5   0  0.3523125E-04  0.1724253E+04  0.7818609E-02  0.8747651E-01
       -4   -1    0    0    0  501  0.00000000000E+00  0.00000000000E+00  0.16035328085E+04  0.16035333115E+04  0.12699999809E+01 0.  1.
        4   -1    0    0  501    0  0.00000000000E+00  0.00000000000E+00 -0.46351412739E+03  0.46351586725E+03  0.12699999809E+01 0. -1.
    10030    2    1    2    0    0  0.00000000000E+00  0.00000000000E+00  0.11400186811E+04  0.20670491787E+04  0.17242533787E+04 0.  0.
        3    1    3    3  502    0 -0.10006292582E+03  0.51353951306E+03 -0.25143853027E+03  0.58047977166E+03  0.10100000352E+00 0. -1.
       -3    1    3    3    0  502  0.10006292582E+03 -0.51353951306E+03  0.13914572114E+04  0.14865694070E+04  0.10100000352E+00 0.  1.
</event>
<event>
 5   0  0.9284971E-04  0.1704641E+04  0.7818609E-02  0.8758722E-01
        2   -1    0    0  501    0  0.00000000000E+00  0.00000000000E+00  0.81008541262E+03  0.81008541262E+03  0.25500000920E-02 0. -1.
       -2   -1    0    0    0  501  0.00000000000E+00  0.00000000000E+00 -0.89675728266E+03  0.89675728267E+03  0.25500000920E-02 0.  1.
    10030    2    1    2    0    0  0.00000000000E+00  0.00000000000E+00 -0.86671870042E+02  0.17068426953E+04  0.17046407168E+04 0.  0.
        4    1    3    3  502    0  0.45331821839E+03 -0.67174778203E+03  0.22102384419E+03  0.83999740618E+03  0.12699999809E+01 0. -1.
       -4    1    3    3    0  502 -0.45331821839E+03  0.67174778203E+03 -0.30769571423E+03  0.86684528911E+03  0.12699999809E+01 0.  1.
</event>
<event>
 5   0  0.9625225E-04  0.1676422E+04  0.7818609E-02  0.8774927E-01
       -2   -1    0    0    0  501  0.00000000000E+00  0.00000000000E+00  0.74676550576E+03  0.74676550576E+03  0.25500000920E-02 0.  1.
        2   -1    0    0  501    0  0.00000000000E+00  0.00000000000E+00 -0.94085427818E+03  0.94085427818E+03  0.25500000920E-02 0. -1.
    10030    2    1    2    0    0  0.00000000000E+00  0.00000000000E+00 -0.19408877242E+03  0.16876197839E+04  0.16764218096E+04 0.  0.
        1    1    3    3  502    0 -0.82219941993E+03  0.15979084740E+03 -0.64385117982E+02  0.84005383428E+03  0.50400001928E-02 0. -1.
       -1    1    3    3    0  502  0.82219941993E+03 -0.15979084740E+03 -0.12970365444E+03  0.84756594967E+03  0.50400001928E-02 0.  1.
</event>
<event>
 5   0  0.5074133E-04  0.1645441E+04  0.7818609E-02  0.8793108E-01
        1   -1    0    0  501    0  0.00000000000E+00  0.00000000000E+00  0.10111769324E+04  0.10111769325E+04  0.50400001928E-02 0. -1.
       -1   -1    0    0    0  501  0.00000000000E+00  0.00000000000E+00 -0.66938747228E+03  0.66938747230E+03  0.50400001928E-02 0.  1.
    10030    2    1    2    0    0  0.00000000000E+00  0.00000000000E+00  0.34178946017E+03  0.16805644048E+04  0.16454411820E+04 0.  0.
        1    1    3    3  502    0  0.64143973614E+03 -0.68514169751E+02  0.69241157101E+03  0.94634714046E+03  0.50400001928E-02 0. -1.
       -1    1    3    3    0  502 -0.64143973614E+03  0.68514169751E+02 -0.35062211084E+03  0.73421726430E+03  0.50400001928E-02 0.  1.
</event>
<event>
 5   0  0.5059689E-04  0.1787366E+04  0.7818609E-02  0.8713047E-01
        1   -1    0    0  501    0  0.00000000000E+00  0.00000000000E+00  0.92805152344E+03  0.92805152346E+03  0.50400001928E-02 0.  1.
       -1   -1    0    0    0  501  0.00000000000E+00  0.00000000000E+00 -0.86058735105E+03  0.86058735106E+03  0.50400001928E-02 0. -1.
    10030    2    1    2    0    0  0.00000000000E+00  0.00000000000E+00  0.67464172394E+02  0.17886388745E+04  0.17873661094E+04 0.  0.
        5    1    3    3  502    0 -0.12694331386E+03  0.49198140910E+03  0.76943380904E+03  0.92206875467E+03  0.46999998093E+01 0.  1.
       -5    1    3    3    0  502  0.12694331386E+03 -0.49198140910E+03 -0.70196963665E+03  0.86657011985E+03  0.46999998093E+01 0. -1.
</event>
<event>
 5   0  0.1007187E-03  0.1144036E+04  0.7818609E-02  0.9163303E-01
       -2   -1    0    0    0  501  0.00000000000E+00  0.00000000000E+00  0.16496686096E+03  0.16496686098E+03  0.25500000920E-02 0.  1.
        2   -1    0    0  501    0  0.00000000000E+00  0.00000000000E+00 -0.19834556502E+04  0.19834556502E+04  0.25500000920E-02 0. -1.
    10030    2    1    2    0    0  0.00000000000E+00  0.00000000000E+00 -0.18184887892E+04  0.21484225111E+04  0.11440357555E+04 0.  0.
        5    1    3    3  502    0 -0.18450410586E+03 -0.53696519857E+03 -0.10394729617E+04  0.11844405927E+04  0.46999998093E+01 0.  1.
       -5    1    3    3    0  502  0.18450410586E+03  0.53696519857E+03 -0.77901582755E+03  0.96398191847E+03  0.46999998093E+01 0. -1.
</event>
<event>
 5   0  0.1007187E-03  0.1359050E+04  0.7818609E-02  0.8984005E-01
        2   -1    0    0  501    0  0.00000000000E+00  0.00000000000E+00  0.50073082035E+03  0.50073082036E+03  0.25500000920E-02 0. -1.
       -2   -1    0    0    0  501  0.00000000000E+00  0.00000000000E+00 -0.92216066028E+03  0.92216066029E+03  0.25500000920E-02 0.  1.
    10030    2    1    2    0    0  0.00000000000E+00  0.00000000000E+00 -0.42142983993E+03  0.14228914806E+04  0.13590500564E+04 0.  0.
        5    1    3    3  502    0  0.57664457423E+03  0.11029806932E+03 -0.56890823838E+03  0.81753489392E+03  0.46999998093E+01 0. -1.
       -5    1    3    3    0  502 -0.57664457423E+03 -0.11029806932E+03  0.14747839845E+03  0.60535658672E+03  0.46999998093E+01 0.  1.
</event>
<event>
 5   0  0.1007187E-03  0.1691389E+04  0.7818609E-02  0.8766291E-01
        2   -1    0    0  501    0  0.00000000000E+00  0.00000000000E+00  0.79864726976E+03  0.79864726976E+03  0.25500000920E-02 0. -1.
       -2   -1    0    0    0  501  0.00000000000E+00  0.00000000000E+00 -0.89551346414E+03  0.89551346415E+03  0.25500000920E-02 0.  1.
    10030    2    1    2    0    0  0.00000000000E+00  0.00000000000E+00 -0.96866194387E+02  0.16941607339E+04  0.16913892316E+04 0.  0.
        5    1    3    3  502    0 -0.59998117679E+03  0.59595863474E+03 -0.42662897584E+02  0.84675044709E+03  0.46999998093E+01 0.  1.
       -5    1    3    3    0  502  0.59998117679E+03 -0.59595863474E+03 -0.54203296803E+02  0.84741028682E+03  0.46999998093E+01 0. -1.
</event>
<event>
 5   0  0.9284971E-04  0.1666859E+04  0.7818609E-02  0.8780495E-01
       -2   -1    0    0    0  501  0.00000000000E+00  0.00000000000E+00  0.73925658896E+03  0.73925658897E+03  0.25500000920E-02 0. -1.
        2   -1    0    0  501    0  0.00000000000E+00  0.00000000000E+00 -0.93959908875E+03  0.93959908875E+03  0.25500000920E-02 0.  1.
    10030    2    1    2    0    0  0.00000000000E+00  0.00000000000E+00 -0.20034249978E+03  0.16788556777E+04  0.16668591030E+04 0.  0.
        4    1    3    3  502    0 -0.26533216353E+02 -0.82938338592E+03 -0.17833384756E+03  0.84875519821E+03  0.12699999809E+01 0.  1.
       -4    1    3    3    0  502  0.26533216353E+02  0.82938338592E+03 -0.22008652228E+02  0.83010047951E+03  0.12699999809E+01 0. -1.
</event>
<event>
 5   0  0.9284971E-04  0.1491875E+04  0.7818609E-02  0.8889874E-01
        2   -1    0    0  501    0  0.00000000000E+00  0.00000000000E+00  0.11612856385E+04  0.11612856385E+04  0.25500000920E-02 0. -1.
       -2   -1    0    0    0  501  0.00000000000E+00  0.00000000000E+00 -0.47914393028E+03  0.47914393029E+03  0.25500000920E-02 0.  1.
    10030    2    1    2    0    0  0.00000000000E+00  0.00000000000E+00  0.68214170820E+03  0.16404295688E+04  0.14918752830E+04 0.  0.
        4    1    3    3  502    0  0.16736677303E+03  0.72627507297E+03  0.37467964218E+03  0.83419036526E+03  0.12699999809E+01 0.  1.
       -4    1    3    3    0  502 -0.16736677303E+03 -0.72627507297E+03  0.30746206603E+03  0.80623920351E+03  0.12699999809E+01 0. -1.
</event>
<event>
 5   0  0.5059689E-04  0.1701946E+04  0.7818609E-02  0.8760255E-01
        1   -1    0    0  501    0  0.00000000000E+00  0.00000000000E+00  0.38349213981E+03  0.38349213985E+03  0.50400001928E-02 0. -1.
       -1   -1    0    0    0  501  0.00000000000E+00  0.00000000000E+00 -0.18883185914E+04  0.18883185914E+04  0.50400001928E-02 0.  1.
    10030    2    1    2    0    0  0.00000000000E+00  0.00000000000E+00 -0.15048264515E+04  0.22718107312E+04  0.17019463415E+04 0.  0.
        5    1    3    3  502    0  0.21368956323E+03  0.67484496190E+03 -0.13828355421E+04  0.15534912870E+04  0.46999998093E+01 0.  1.
       -5    1    3    3    0  502 -0.21368956323E+03 -0.67484496190E+03 -0.12199090941E+03  0.71831944427E+03  0.46999998093E+01 0. -1.
</event>
<event>
 5   0  0.9312096E-04  0.1707633E+04  0.7818609E-02  0.8757023E-01
        2   -1    0    0  501    0  0.00000000000E+00  0.00000000000E+00  0.14008463969E+04  0.14008463969E+04  0.25500000920E-02 0.  1.
       -2   -1    0    0    0  501  0.00000000000E+00  0.00000000000E+00 -0.52040142724E+03  0.52040142725E+03  0.25500000920E-02 0. -1.
    10030    2    1    2    0    0  0.00000000000E+00  0.00000000000E+00  0.88044496969E+03  0.19212478242E+04  0.17076328227E+04 0.  0.
        3    1    3    3  502    0  0.34907645955E+03 -0.38450164339E+03  0.12027231408E+04  0.13100529959E+04  0.10100000352E+00 0.  1.
       -3    1    3    3    0  502 -0.34907645955E+03  0.38450164339E+03 -0.32227817111E+03  0.61119482831E+03  0.10100000352E+00 0. -1.
</event>
<event>
 5   0  0.9610114E-04  0.1808152E+04  0.7818609E-02  0.8701976E-01
       -2   -1    0    0    0  501  0.00000000000E+00  0.00000000000E+00  0.63862977720E+03  0.63862977721E+03  0.25500000920E-02 0.  1.
        2   -1    0    0  501    0  0.00000000000E+00  0.00000000000E+00 -0.12798554041E+04  0.12798554041E+04  0.25500000920E-02 0. -1.
    10030    2    1    2    0    0  0.00000000000E+00  0.00000000000E+00 -0.64122562686E+03  0.19184851813E+04  0.18081523957E+04 0.  0.
        2    1    3    3  502    0 -0.48989934983E+03  0.92555315722E+02  0.47958587164E+03  0.69178787769E+03  0.25500000920E-02 0.  1.
       -2    1    3    3    0  502  0.48989934983E+03 -0.92555315722E+02 -0.11208114985E+04  0.12266973036E+04  0.25500000920E-02 0. -1.
</event>
<event>
 5   0  0.5009762E-04  0.1700706E+04  0.7818609E-02  0.8760962E-01
        1   -1    0    0  501    0  0.00000000000E+00  0.00000000000E+00  0.83168823081E+03  0.83168823083E+03  0.50400001928E-02 0.  1.
       -1   -1    0    0    0  501  0.00000000000E+00  0.00000000000E+00 -0.86943677663E+03  0.86943677664E+03  0.50400001928E-02 0. -1.
    10030    2    1    2    0    0  0.00000000000E+00  0.00000000000E+00 -0.37748545814E+02  0.17011250075E+04  0.17007061293E+04 0.  0.
        3    1    3    3  502    0 -0.54600973504E+03 -0.29935478961E+03 -0.59812000674E+03  0.86341616471E+03  0.10100000352E+00 0. -1.
       -3    1    3    3    0  502  0.54600973504E+03  0.29935478961E+03  0.56037146093E+03  0.83770884276E+03  0.10100000352E+00 0.  1.
</event>
<event>
 5   0  0.1007187E-03  0.1671882E+04  0.7818609E-02  0.8777566E-01
       -2   -1    0    0    0  501  0.00000000000E+00  0.00000000000E+00  0.44357092001E+03  0.44357092002E+03  0.25500000920E-02 0.  1.
        2   -1    0    0  501    0  0.00000000000E+00  0.00000000000E+00 -0.15753902570E+04  0.15753902570E+04  0.25500000920E-02 0. -1.
    10030    2    1    2    0    0  0.00000000000E+00  0.00000000000E+00 -0.11318193370E+04  0.20189611770E+04  0.16718819404E+04 0.  0.
        5    1    3    3  502    0 -0.65802271298E+03  0.24729074966E+03 -0.19641947934E+02  0.70324569091E+03  0.46999998093E+01 0.  1.
       -5    1    3    3    0  502  0.65802271298E+03 -0.24729074966E+03 -0.11121773891E+04  0.13157154861E+04  0.46999998093E+01 0. -1.
</event>
<event>
 5   0  0.9610114E-04  0.1468417E+04  0.7818609E-02  0.8905731E-01
        2   -1    0    0  501    0  0.00000000000E+00  0.00000000000E+00  0.38457732969E+03  0.38457732969E+03  0.25500000920E-02 0.  1.
       -2   -1    0    0    0  501  0.00000000000E+00  0.00000000000E+00 -0.14017001614E+04  0.14017001615E+04  0.25500000920E-02 0. -1.
    10030    2    1    2    0    0  0.00000000000E+00  0.00000000000E+00 -0.10171228318E+04  0.17862774911E+04  0.14684169777E+04 0.  0.
        2    1    3    3  502    0  0.58230426873E+02  0.94219904839E+01 -0.13988129635E+04  0.14000561644E+04  0.25500000920E-02 0. -1.
       -2    1    3    3    0  502 -0.58230426873E+02 -0.94219904839E+01  0.38169013178E+03  0.38622132673E+03  0.25500000920E-02 0.  1.
</event>
<event>
 5   0  0.5074133E-04  0.1460338E+04  0.7818609E-02  0.8911265E-01
        1   -1    0    0  501    0  0.00000000000E+00  0.00000000000E+00  0.11328046687E+04  0.11328046687E+04  0.50400001928E-02 0. -1.
       -1   -1    0    0    0  501  0.00000000000E+00  0.00000000000E+00 -0.47064306513E+03  0.47064306516E+03  0.50400001928E-02 0.  1.
    10030    2    1    2    0    0  0.00000000000E+00  0.00000000000E+00  0.66216160355E+03  0.16034477339E+04  0.14603378534E+04 0.  0.
        1    1    3    3  502    0 -0.35278971276E+03  0.10615016305E+03 -0.36110925119E+03  0.51587627380E+03  0.50400001928E-02 0.  1.
       -1    1    3    3    0  502  0.35278971276E+03 -0.10615016305E+03  0.10232708547E+04  0.10875714601E+04  0.50400001928E-02 0. -1.
</event>
<event>
 5   0  0.1007187E-03  0.1640111E+04  0.7818609E-02  0.8796278E-01
        2   -1    0    0  501    0  0.00000000000E+00  0.00000000000E+00  0.10143321566E+04  0.10143321566E+04  0.25500000920E-02 0. -1.
       -2   -1    0    0    0  501  0.00000000000E+00  0.00000000000E+00 -0.66298888467E+03  0.66298888467E+03  0.25500000920E-02 0.  1.
    10030    2    1    2    0    0  0.00000000000E+00  0.00000000000E+00  0.35134327189E+03  0.16773210412E+04  0.16401109050E+04 0.  0.
        5    1    3    3  502    0  0.57030628993E+03  0.14793419304E+02  0.77810384418E+03  0.96485013962E+03  0.46999998093E+01 0. -1.
       -5    1    3    3    0  502 -0.57030628993E+03 -0.14793419304E+02 -0.42676057229E+03  0.71247090162E+03  0.46999998093E+01 0.  1.
</event>
<event>
 5   0  0.1007187E-03  0.1708438E+04  0.7818609E-02  0.8756566E-01
        2   -1    0    0  501    0  0.00000000000E+00  0.00000000000E+00  0.12167766457E+04  0.12167766457E+04  0.25500000920E-02 0. -1.
       -2   -1    0    0    0  501  0.00000000000E+00  0.00000000000E+00 -0.59969107587E+03  0.59969107587E+03  0.25500000920E-02 0.  1.
    10030    2    1    2    0    0  0.00000000000E+00  0.00000000000E+00  0.61708556982E+03  0.18164677216E+04  0.17084379951E+04 0.  0.
        5    1    3    3  502    0  0.56412140259E+03  0.14472903123E+03 -0.35586179731E+03  0.68252410809E+03  0.46999998093E+01 0.  1.
       -5    1    3    3    0  502 -0.56412140259E+03 -0.14472903123E+03  0.97294736713E+03  0.11339436135E+04  0.46999998093E+01 0. -1.
</event>
<event>
 5   0  0.9312096E-04  0.1697309E+04  0.7818609E-02  0.8762900E-01
        2   -1    0    0  501    0  0.00000000000E+00  0.00000000000E+00  0.10070442172E+04  0.10070442172E+04  0.25500000920E-02 0. -1.
       -2   -1    0    0    0  501  0.00000000000E+00  0.00000000000E+00 -0.71517685530E+03  0.71517685531E+03  0.25500000920E-02 0.  1.
    10030    2    1    2    0    0  0.00000000000E+00  0.00000000000E+00  0.29186736193E+03  0.17222210725E+04  0.16973093017E+04 0.  0.
        3    1    3    3  502    0  0.77985972937E+03 -0.33466542538E+03  0.15172372875E+03  0.86209178427E+03  0.10100000352E+00 0. -1.
       -3    1    3    3    0  502 -0.77985972937E+03  0.33466542538E+03  0.14014363318E+03  0.86012928828E+03  0.10100000352E+00 0.  1.
</event>
<event>
 5   0  0.4947006E-04  0.1713716E+04  0.7818609E-02  0.8753580E-01
        1   -1    0    0  501    0  0.00000000000E+00  0.00000000000E+00  0.66303596364E+03  0.66303596366E+03  0.50400001928E-02 0. -1.
       -1   -1    0    0    0  501  0.00000000000E+00  0.00000000000E+00 -0.11073389980E+04  0.11073389980E+04  0.50400001928E-02 0.  1.
    10030    2    1    2    0    0  0.00000000000E+00  0.00000000000E+00 -0.44430303435E+03  0.17703749617E+04  0.17137159387E+04 0.  0.
        2    1    3    3  502    0 -0.12764335255E+03  0.16193241672E+03  0.63702495208E+03  0.66956383013E+03  0.25500000920E-02 0. -1.
       -2    1    3    3    0  502  0.12764335255E+03 -0.16193241672E+03 -0.10813279864E+04  0.11008111315E+04  0.25500000920E-02 0.  1.
</event>
<event>
 5   0  0.5059689E-04  0.1625436E+04  0.7818609E-02  0.8805073E-01
        1   -1    0    0  501    0  0.00000000000E+00  0.00000000000E+00  0.83926599049E+03  0.83926599051E+03  0.50400001928E-02 0. -1.
       -1   -1    0    0    0  501  0.00000000000E+00  0.00000000000E+00 -0.78700939718E+03  0.78700939720E+03  0.50400001928E-02 0.  1.
    10030    2    1    2    0    0  0.00000000000E+00  0.00000000000E+00  0.52256593308E+02  0.16262753877E+04  0.16254355986E+04 0.  0.
        5    1    3    3  502    0  0.27821274684E+03  0.71855323625E+03  0.28465499606E+03  0.82144485062E+03  0.46999998093E+01 0. -1.
       -5    1    3    3    0  502 -0.27821274684E+03 -0.71855323625E+03 -0.23239840275E+03  0.80483053709E+03  0.46999998093E+01 0.  1.
</event>
<event>
 5   0  0.9610114E-04  0.1693749E+04  0.7818609E-02  0.8764937E-01
       -2   -1    0    0    0  501  0.00000000000E+00  0.00000000000E+00  0.51111220169E+03  0.51111220170E+03  0.25500000920E-02 0. -1.
        2   -1    0    0  501    0  0.00000000000E+00  0.00000000000E+00 -0.14032076908E+04  0.14032076908E+04  0.25500000920E-02 0.  1.
    10030    2    1    2    0    0  0.00000000000E+00  0.00000000000E+00 -0.89209548913E+03  0.19143198925E+04  0.16937491813E+04 0.  0.
        2    1    3    3  502    0 -0.28282026628E+02 -0.56303399091E+03 -0.11603198574E+04  0.12900191159E+04  0.25500000920E-02 0.  1.
       -2    1    3    3    0  502  0.28282026628E+02  0.56303399091E+03  0.26822436826E+03  0.62430077662E+03  0.25500000920E-02 0. -1.
</event>
<event>
 5   0  0.9625225E-04  0.1701612E+04  0.7818609E-02  0.8760445E-01
       -2   -1    0    0    0  501  0.00000000000E+00  0.00000000000E+00  0.34787214542E+03  0.34787214543E+03  0.25500000920E-02 0.  1.
        2   -1    0    0  501    0  0.00000000000E+00  0.00000000000E+00 -0.20808536382E+04  0.20808536382E+04  0.25500000920E-02 0. -1.
    10030    2    1    2    0    0  0.00000000000E+00  0.00000000000E+00 -0.17329814928E+04  0.24287257836E+04  0.17016121996E+04 0.  0.
        1    1    3    3  502    0  0.74688948490E+03 -0.21180531609E+03 -0.36966098202E+03  0.85985733482E+03  0.50400001928E-02 0.  1.
       -1    1    3    3    0  502 -0.74688948490E+03  0.21180531609E+03 -0.13633205107E+04  0.15688684488E+04  0.50400001928E-02 0. -1.
</event>
<event>
 5   0  0.4947006E-04  0.1691547E+04  0.7818609E-02  0.8766200E-01
       -1   -1    0    0    0  501  0.00000000000E+00  0.00000000000E+00  0.65361620726E+03  0.65361620728E+03  0.50400001928E-02 0. -1.
        1   -1    0    0  501    0  0.00000000000E+00  0.00000000000E+00 -0.10944239231E+04  0.10944239231E+04  0.50400001928E-02 0.  1.
    10030    2    1    2    0    0  0.00000000000E+00  0.00000000000E+00 -0.44080771581E+03  0.17480401304E+04  0.16915474735E+04 0.  0.
        2    1    3    3  502    0  0.73526073382E+03  0.14258947537E+02  0.21130577359E+03  0.76515475182E+03  0.25500000920E-02 0. -1.
       -2    1    3    3    0  502 -0.73526073382E+03 -0.14258947537E+02 -0.65211348940E+03  0.98288537854E+03  0.25500000920E-02 0.  1.
</event>
<event>
 5   0  0.5009762E-04  0.1642707E+04  0.7818609E-02  0.8794733E-01
       -1   -1    0    0    0  501  0.00000000000E+00  0.00000000000E+00  0.45553982459E+03  0.45553982462E+03  0.50400001928E-02 0.  1.
        1   -1    0    0  501    0  0.00000000000E+00  0.00000000000E+00 -0.14809270033E+04  0.14809270033E+04  0.50400001928E-02 0. -1.
    10030    2    1    2    0    0  0.00000000000E+00  0.00000000000E+00 -0.10253871787E+04  0.19364668279E+04  0.16427065804E+04 0.  0.
        3    1    3    3  502    0 -0.44795679198E+03  0.61594258123E+03 -0.87521051597E+03  0.11601913671E+04  0.10100000352E+00 0. -1.
       -3    1    3    3    0  502  0.44795679198E+03 -0.61594258123E+03 -0.15017666276E+03  0.77627546083E+03  0.10100000352E+00 0.  1.
</event>
<event>
 5   0  0.9610114E-04  0.1837606E+04  0.7818609E-02  0.8686553E-01
        2   -1    0    0  501    0  0.00000000000E+00  0.00000000000E+00  0.95452163982E+03  0.95452163982E+03  0.25500000920E-02 0. -1.
       -2   -1    0    0    0  501  0.00000000000E+00  0.00000000000E+00 -0.88442057376E+03  0.88442057377E+03  0.25500000920E-02 0.  1.
    10030    2    1    2    0    0  0.00000000000E+00  0.00000000000E+00  0.70101066053E+02  0.18389422136E+04  0.18376055903E+04 0.  0.
        2    1    3    3  502    0 -0.42074175099E+03  0.87675645366E+01 -0.78230428304E+03  0.88831327947E+03  0.25500000920E-02 0.  1.
       -2    1    3    3    0  502  0.42074175099E+03 -0.87675645366E+01  0.85240534909E+03  0.95062893412E+03  0.25500000920E-02 0. -1.
</event>
<event>
 5   0  0.5074133E-04  0.1774865E+04  0.7818609E-02  0.8719781E-01
       -1   -1    0    0    0  501  0.00000000000E+00  0.00000000000E+00  0.84344264706E+03  0.84344264708E+03  0.50400001928E-02 0.  1.
        1   -1    0    0  501    0  0.00000000000E+00  0.00000000000E+00 -0.93371658756E+03  0.93371658757E+03  0.50400001928E-02 0. -1.
    10030    2    1    2    0    0  0.00000000000E+00  0.00000000000E+00 -0.90273940495E+02  0.17771592346E+04  0.17748649416E+04 0.  0.
        1    1    3    3  502    0  0.20932274208E+03 -0.86119690160E+03 -0.90585913538E+02  0.89088827663E+03  0.50400001928E-02 0.  1.
       -1    1    3    3    0  502 -0.20932274208E+03  0.86119690160E+03  0.31197304297E+00  0.88627095802E+03  0.50400001928E-02 0. -1.
</event>
<event>
 5   0  0.5074133E-04  0.1416586E+04  0.7818609E-02  0.8941899E-01
        1   -1    0    0  501    0  0.00000000000E+00  0.00000000000E+00  0.64166820154E+03  0.64166820156E+03  0.50400001928E-02 0.  1.
       -1   -1    0    0    0  501  0.00000000000E+00  0.00000000000E+00 -0.78183563015E+03  0.78183563017E+03  0.50400001928E-02 0. -1.
    10030    2    1    2    0    0  0.00000000000E+00  0.00000000000E+00 -0.14016742861E+03  0.14235038317E+04  0.14165861255E+04 0.  0.
        1    1    3    3  502    0  0.28806665307E+03  0.82738052317E+02  0.57480646248E+03  0.64825184245E+03  0.50400001928E-02 0.  1.
       -1    1    3    3    0  502 -0.28806665307E+03 -0.82738052317E+02 -0.71497389109E+03  0.77525198928E+03  0.50400001928E-02 0. -1.
</event>
<event>
 5   0  0.4947006E-04  0.1562419E+04  0.7818609E-02  0.8843974E-01
        1   -1    0    0  501    0  0.00000000000E+00  0.00000000000E+00  0.19853183999E+04  0.19853183999E+04  0.50400001928E-02 0.  1.
       -1   -1    0    0    0  501  0.00000000000E+00  0.00000000000E+00 -0.30740063183E+03  0.30740063187E+03  0.50400001928E-02 0. -1.
    10030    2    1    2    0    0  0.00000000000E+00  0.00000000000E+00  0.16779177680E+04  0.22927190317E+04  0.15624188050E+04 0.  0.
        2    1    3    3  502    0  0.13900611880E+03 -0.63848237634E+02  0.19631270978E+04  0.19690777792E+04  0.25500000920E-02 0.  1.
       -2    1    3    3    0  502 -0.13900611880E+03  0.63848237634E+02 -0.28520932979E+03  0.32364125250E+03  0.25500000920E-02 0. -1.
</event>
<event>
 5   0  0.9284971E-04  0.1680531E+04  0.7818609E-02  0.8772547E-01
       -2   -1    0    0    0  501  0.00000000000E+00  0.00000000000E+00  0.11337067428E+04  0.11337067428E+04  0.25500000920E-02 0.  1.
        2   -1    0    0  501    0  0.00000000000E+00  0.00000000000E+00 -0.62277670304E+03  0.62277670305E+03  0.25500000920E-02 0. -1.
    10030    2    1    2    0    0  0.00000000000E+00  0.00000000000E+00  0.51093003979E+03  0.17564834459E+04  0.16805310441E+04 0.  0.
        4    1    3    3  502    0 -0.65909669110E+03  0.44416041320E+03 -0.29545075615E+02  0.79533731540E+03  0.12699999809E+01 0. -1.
       -4    1    3    3    0  502  0.65909669110E+03 -0.44416041320E+03  0.54047511540E+03  0.96114613048E+03  0.12699999809E+01 0.  1.
</event>
<event>
 5   0  0.3523125E-04  0.1694779E+04  0.7818609E-02  0.8764348E-01
       -4   -1    0    0    0  501  0.00000000000E+00  0.00000000000E+00  0.71079936978E+03  0.71080050435E+03  0.12699999809E+01 0.  1.
        4   -1    0    0  501    0  0.00000000000E+00  0.00000000000E+00 -0.10102253242E+04  0.10102261225E+04  0.12699999809E+01 0. -1.
    10030    2    1    2    0    0  0.00000000000E+00  0.00000000000E+00 -0.29942595446E+03  0.17210266269E+04  0.16947792624E+04 0.  0.
        2    1    3    3  502    0 -0.45573151913E+02 -0.19857971699E+03 -0.98498336359E+03  0.10058345007E+04  0.25500000920E-02 0. -1.
       -2    1    3    3    0  502  0.45573151913E+02  0.19857971699E+03  0.68555740913E+03  0.71519212621E+03  0.25500000920E-02 0.  1.
</event>
<event>
 5   0  0.9284971E-04  0.1684735E+04  0.7818609E-02  0.8770119E-01
       -2   -1    0    0    0  501  0.00000000000E+00  0.00000000000E+00  0.51763083141E+03  0.51763083142E+03  0.25500000920E-02 0. -1.
        2   -1    0    0  501    0  0.00000000000E+00  0.00000000000E+00 -0.13708276005E+04  0.13708276005E+04  0.25500000920E-02 0.  1.
    10030    2    1    2    0    0  0.00000000000E+00  0.00000000000E+00 -0.85319676907E+03  0.18884584319E+04  0.16847345554E+04 0.  0.
        4    1    3    3  502    0  0.37066799253E+03 -0.67171095227E+03 -0.36699621487E+02  0.76807476146E+03  0.12699999809E+01 0. -1.
       -4    1    3    3    0  502 -0.37066799253E+03  0.67171095227E+03 -0.81649714758E+03  0.11203836704E+04  0.12699999809E+01 0.  1.
</event>
<event>
 5   0  0.9625225E-04  0.1583455E+04  0.7818609E-02  0.8830777E-01
        2   -1    0    0  501    0  0.00000000000E+00  0.00000000000E+00  0.20957112093E+04  0.20957112093E+04  0.25500000920E-02 0.  1.
       -2   -1    0    0    0  501  0.00000000000E+00  0.00000000000E+00 -0.29910249989E+03  0.29910249990E+03  0.25500000920E-02 0. -1.
    10030    2    1    2    0    0  0.00000000000E+00  0.00000000000E+00  0.17966087094E+04  0.23948137092E+04  0.15834550347E+04 0.  0.
        1    1    3    3  502    0 -0.37341313895E+03  0.13932097427E+03 -0.13631798972E+03  0.42122476252E+03  0.50400001928E-02 0. -1.
       -1    1    3    3    0  502  0.37341313895E+03 -0.13932097427E+03  0.19329266991E+04  0.19735889466E+04  0.50400001928E-02 0.  1.
</event>
<event>
 5   0  0.1007187E-03  0.1823599E+04  0.7818609E-02  0.8693849E-01
        2   -1    0    0  501    0  0.00000000000E+00  0.00000000000E+00  0.12993149278E+04  0.12993149278E+04  0.25500000920E-02 0. -1.
       -2   -1    0    0    0  501  0.00000000000E+00  0.00000000000E+00 -0.63985911972E+03  0.63985911972E+03  0.25500000920E-02 0.  1.
    10030    2    1    2    0    0  0.00000000000E+00  0.00000000000E+00  0.65945580813E+03  0.19391740476E+04  0.18235991950E+04 0.  0.
        5    1    3    3  502    0 -0.42016249871E+03  0.44975794962E+03 -0.38561581823E+03  0.72631975591E+03  0.46999998093E+01 0.  1.
       -5    1    3    3    0  502  0.42016249871E+03 -0.44975794962E+03  0.10450716264E+04  0.12128542917E+04  0.46999998093E+01 0. -1.
</event>
<event>
 5   0  0.9312096E-04  0.1688148E+04  0.7818609E-02  0.8768153E-01
       -2   -1    0    0    0  501  0.00000000000E+00  0.00000000000E+00  0.48749840100E+03  0.48749840101E+03  0.25500000920E-02 0.  1.
        2   -1    0    0  501    0  0.00000000000E+00  0.00000000000E+00 -0.14614628152E+04  0.14614628152E+04  0.25500000920E-02 0. -1.
    10030    2    1    2    0    0  0.00000000000E+00  0.00000000000E+00 -0.97396441424E+03  0.19489612163E+04  0.16881478437E+04 0.  0.
        3    1    3    3  502    0 -0.52913605640E+03  0.62379361491E+03 -0.72737642053E+03  0.10946140450E+04  0.10100000352E+00 0.  1.
       -3    1    3    3    0  502  0.52913605640E+03 -0.62379361491E+03 -0.24658799372E+03  0.85434717125E+03  0.10100000352E+00 0. -1.
</event>
<event>
 5   0  0.9284971E-04  0.1691656E+04  0.7818609E-02  0.8766138E-01
       -2   -1    0    0    0  501  0.00000000000E+00  0.00000000000E+00  0.53458876829E+03  0.53458876829E+03  0.25500000920E-02 0.  1.
        2   -1    0    0  501    0  0.00000000000E+00  0.00000000000E+00 -0.13382713179E+04  0.13382713179E+04  0.25500000920E-02 0. -1.
    10030    2    1    2    0    0  0.00000000000E+00  0.00000000000E+00 -0.80368254964E+03  0.18728600862E+04  0.16916557753E+04 0.  0.
        4    1    3    3  502    0  0.44215149177E+03 -0.64297560993E+03 -0.40528189176E+02  0.78138321178E+03  0.12699999809E+01 0. -1.
       -4    1    3    3    0  502 -0.44215149177E+03  0.64297560993E+03 -0.76315436047E+03  0.10914768744E+04  0.12699999809E+01 0.  1.
</event>
<event>
 5   0  0.5009762E-04  0.1709334E+04  0.7818609E-02  0.8756059E-01
        1   -1    0    0  501    0  0.00000000000E+00  0.00000000000E+00  0.16934923627E+04  0.16934923627E+04  0.50400001928E-02 0. -1.
       -1   -1    0    0    0  501  0.00000000000E+00  0.00000000000E+00 -0.43133097861E+03  0.43133097864E+03  0.50400001928E-02 0.  1.
    10030    2    1    2    0    0  0.00000000000E+00  0.00000000000E+00  0.12621613840E+04  0.21248233413E+04  0.17093340435E+04 0.  0.
        3    1    3    3  502    0 -0.55824014835E+03  0.62902948517E+03  0.82019729251E+03  0.11747483838E+04  0.10100000352E+00 0. -1.
       -3    1    3    3    0  502  0.55824014835E+03 -0.62902948517E+03  0.44196409154E+03  0.95007495750E+03  0.10100000352E+00 0.  1.
</event>
<event>
 5   0  0.4947006E-04  0.1691457E+04  0.7818609E-02  0.8766252E-01
       -1   -1    0    0    0  501  0.00000000000E+00  0.00000000000E+00  0.57176654977E+03  0.57176654979E+03  0.50400001928E-02 0.  1.
        1   -1    0    0  501    0  0.00000000000E+00  0.00000000000E+00 -0.12509594984E+04  0.12509594984E+04  0.50400001928E-02 0. -1.
    10030    2    1    2    0    0  0.00000000000E+00  0.00000000000E+00 -0.67919294863E+03  0.18227260482E+04  0.16914571190E+04 0.  0.
        2    1    3    3  502    0  0.67192141274E+03  0.41998491081E+03 -0.65815847943E+03  0.10300671309E+04  0.25500000920E-02 0. -1.
       -2    1    3    3    0  502 -0.67192141274E+03 -0.41998491081E+03 -0.21034469193E+02  0.79265891725E+03  0.25500000920E-02 0.  1.
</event>
<event>
 5   0  0.5059689E-04  0.9159777E+03  0.7818609E-02  0.9405826E-01
       -1   -1    0    0    0  501  0.00000000000E+00  0.00000000000E+00  0.57254449736E+03  0.57254449738E+03  0.50400001928E-02 0. -1.
        1   -1    0    0  501    0  0.00000000000E+00  0.00000000000E+00 -0.36635364594E+03  0.36635364597E+03  0.50400001928E-02 0.  1.
    10030    2    1    2    0    0  0.00000000000E+00  0.00000000000E+00  0.20619085142E+03  0.93889814335E+03  0.91597765059E+03 0.  0.
        5    1    3    3  502    0  0.35928294008E+03 -0.52685838854E+02  0.38913312672E+03  0.53226563759E+03  0.46999998093E+01 0. -1.
       -5    1    3    3    0  502 -0.35928294008E+03  0.52685838854E+02 -0.18294227530E+03  0.40663250576E+03  0.46999998093E+01 0.  1.
</event>
<event>
 5   0  0.9284971E-04  0.1694297E+04  0.7818609E-02  0.8764624E-01
        2   -1    0    0  501    0  0.00000000000E+00  0.00000000000E+00  0.12192836056E+04  0.12192836056E+04  0.25500000920E-02 0. -1.
       -2   -1    0    0    0  501  0.00000000000E+00  0.00000000000E+00 -0.58859208984E+03  0.58859208985E+03  0.25500000920E-02 0.  1.
    10030    2    1    2    0    0  0.00000000000E+00  0.00000000000E+00  0.63069151579E+03  0.18078756955E+04  0.16942971234E+04 0.  0.
        4    1    3    3  502    0  0.50315486496E+03 -0.66989039444E+03  0.18147160854E+03  0.85723480815E+03  0.12699999809E+01 0. -1.
       -4    1    3    3    0  502 -0.50315486496E+03  0.66989039444E+03  0.44921990725E+03  0.95064088734E+03  0.12699999809E+01 0.  1.
</event>
<event>
 5   0  0.5074133E-04  0.1697680E+04  0.7818609E-02  0.8762688E-01
        1   -1    0    0  501    0  0.00000000000E+00  0.00000000000E+00  0.20283025548E+04  0.20283025548E+04  0.50400001928E-02 0. -1.
       -1   -1    0    0    0  501  0.00000000000E+00  0.00000000000E+00 -0.35523776233E+03  0.35523776237E+03  0.50400001928E-02 0.  1.
    10030    2    1    2    0    0  0.00000000000E+00  0.00000000000E+00  0.16730647925E+04  0.23835403172E+04  0.16976803715E+04 0.  0.
        1    1    3    3  502    0 -0.70295021874E+03  0.18207810453E+03  0.21935063530E+03  0.75855530280E+03  0.50400001928E-02 0.  1.
       -1    1    3    3    0  502  0.70295021874E+03 -0.18207810453E+03  0.14537141572E+04  0.16249850144E+04  0.50400001928E-02 0. -1.
</event>
<event>
 5   0  0.5059689E-04  0.1661840E+04  0.7818609E-02  0.8783433E-01
        1   -1    0    0  501    0  0.00000000000E+00  0.00000000000E+00  0.97408222949E+03  0.97408222950E+03  0.50400001928E-02 0. -1.
       -1   -1    0    0    0  501  0.00000000000E+00  0.00000000000E+00 -0.70879855257E+03  0.70879855258E+03  0.50400001928E-02 0.  1.
    10030    2    1    2    0    0  0.00000000000E+00  0.00000000000E+00  0.26528367692E+03  0.16828807821E+04  0.16618400337E+04 0.  0.
        5    1    3    3  502    0 -0.75601047952E+03 -0.30536201601E+03  0.29469349594E+03  0.86698567031E+03  0.46999998093E+01 0. -1.
       -5    1    3    3    0  502  0.75601047952E+03  0.30536201601E+03 -0.29409819021E+02  0.81589511178E+03  0.46999998093E+01 0.  1.
</event>
<event>
 5   0  0.5074133E-04  0.1694947E+04  0.7818609E-02  0.8764252E-01
        1   -1    0    0  501    0  0.00000000000E+00  0.00000000000E+00  0.97238119315E+03  0.97238119316E+03  0.50400001928E-02 0. -1.
       -1   -1    0    0    0  501  0.00000000000E+00  0.00000000000E+00 -0.73861052122E+03  0.73861052124E+03  0.50400001928E-02 0.  1.
    10030    2    1    2    0    0  0.00000000000E+00  0.00000000000E+00  0.23377067192E+03  0.17109917144E+04  0.16949465831E+04 0.  0.
        1    1    3    3  502    0  0.63421327162E+03  0.53857644891E+03  0.27940603231E+03  0.87770085800E+03  0.50400001928E-02 0. -1.
       -1    1    3    3    0  502 -0.63421327162E+03 -0.53857644891E+03 -0.45635360388E+02  0.83329085640E+03  0.50400001928E-02 0.  1.
</event>
<event>
 5   0  0.4947006E-04  0.1296498E+04  0.7818609E-02  0.9032347E-01
        1   -1    0    0  501    0  0.00000000000E+00  0.00000000000E+00  0.84331927802E+03  0.84331927804E+03  0.50400001928E-02 0. -1.
       -1   -1    0    0    0  501  0.00000000000E+00  0.00000000000E+00 -0.49830089395E+03  0.49830089397E+03  0.50400001928E-02 0.  1.
    10030    2    1    2    0    0  0.00000000000E+00  0.00000000000E+00  0.34501838407E+03  0.13416201720E+04  0.12964979755E+04 0.  0.
        2    1    3    3  502    0  0.11376103991E+02 -0.57740712595E+03 -0.13218427383E+03  0.59245344720E+03  0.25500000920E-02 0.  1.
       -2    1    3    3    0  502 -0.11376103991E+02  0.57740712595E+03  0.47720265791E+03  0.74916672481E+03  0.25500000920E-02 0. -1.
</event>
<event>
 5   0  0.1007187E-03  0.1693462E+04  0.7818609E-02  0.8765102E-01
        2   -1    0    0  501    0  0.00000000000E+00  0.00000000000E+00  0.47644726353E+03  0.47644726354E+03  0.25500000920E-02 0.  1.
       -2   -1    0    0    0  501  0.00000000000E+00  0.00000000000E+00 -0.15047898142E+04  0.15047898142E+04  0.25500000920E-02 0. -1.
    10030    2    1    2    0    0  0.00000000000E+00  0.00000000000E+00 -0.10283425507E+04  0.19812370778E+04  0.16934615309E+04 0.  0.
        5    1    3    3  502    0  0.30147808301E+03 -0.66685846858E+03 -0.10123783496E+04  0.12492082550E+04  0.46999998093E+01 0. -1.
       -5    1    3    3    0  502 -0.30147808301E+03  0.66685846858E+03 -0.15964201117E+02  0.73202882277E+03  0.46999998093E+01 0.  1.
</event>
<event>
 5   0  0.9284971E-04  0.1016130E+04  0.7818609E-02  0.9291028E-01
       -2   -1    0    0    0  501  0.00000000000E+00  0.00000000000E+00  0.13756711643E+03  0.13756711645E+03  0.25500000920E-02 0.  1.
        2   -1    0    0  501    0  0.00000000000E+00  0.00000000000E+00 -0.18763936149E+04  0.18763936149E+04  0.25500000920E-02 0. -1.
    10030    2    1    2    0    0  0.00000000000E+00  0.00000000000E+00 -0.17388264985E+04  0.20139607313E+04  0.10161300289E+04 0.  0.
        4    1    3    3  502    0  0.14789919377E+02  0.50773534383E+03 -0.89062378870E+03  0.10252932590E+04  0.12699999809E+01 0.  1.
       -4    1    3    3    0  502 -0.14789919377E+02 -0.50773534383E+03 -0.84820270976E+03  0.98866747232E+03  0.12699999809E+01 0. -1.
</event>
<event>
 5   0  0.5009762E-04  0.1685993E+04  0.7818609E-02  0.8769393E-01
        1   -1    0    0  501    0  0.00000000000E+00  0.00000000000E+00  0.11903688621E+04  0.11903688621E+04  0.50400001928E-02 0. -1.
       -1   -1    0    0    0  501  0.00000000000E+00  0.00000000000E+00 -0.59699433236E+03  0.59699433238E+03  0.50400001928E-02 0.  1.
    10030    2    1    2    0    0  0.00000000000E+00  0.00000000000E+00  0.59337452970E+03  0.17873631945E+04  0.16859934331E+04 0.  0.
        3    1    3    3  502    0  0.12440657536E+03  0.40754943713E+03 -0.47441763873E+03  0.63768773379E+03  0.10100000352E+00 0.  1.
       -3    1    3    3    0  502 -0.12440657536E+03 -0.40754943713E+03  0.10677921684E+04  0.11496754607E+04  0.10100000352E+00 0. -1.
</event>
<event>
 5   0  0.4947006E-04  0.1729958E+04  0.7818609E-02  0.8744460E-01
        1   -1    0    0  501    0  0.00000000000E+00  0.00000000000E+00  0.96815548922E+03  0.96815548923E+03  0.50400001928E-02 0.  1.
       -1   -1    0    0    0  501  0.00000000000E+00  0.00000000000E+00 -0.77279776975E+03  0.77279776977E+03  0.50400001928E-02 0. -1.
    10030    2    1    2    0    0  0.00000000000E+00  0.00000000000E+00  0.19535771947E+03  0.17409532590E+04  0.17299576907E+04 0.  0.
        2    1    3    3  502    0 -0.98194166706E+02  0.16352199177E+03  0.94672778429E+03  0.96575102056E+03  0.25500000920E-02 0.  1.
       -2    1    3    3    0  502  0.98194166706E+02 -0.16352199177E+03 -0.75137006482E+03  0.77520223844E+03  0.25500000920E-02 0. -1.
</event>
<event>
 5   0  0.9284971E-04  0.1722807E+04  0.7818609E-02  0.8748462E-01
       -2   -1    0    0    0  501  0.00000000000E+00  0.00000000000E+00  0.12058086429E+04  0.12058086429E+04  0.25500000920E-02 0. -1.
        2   -1    0    0  501    0  0.00000000000E+00  0.00000000000E+00 -0.61536808817E+03  0.61536808818E+03  0.25500000920E-02 0.  1.
    10030    2    1    2    0    0  0.00000000000E+00  0.00000000000E+00  0.59044055469E+03  0.18211767310E+04  0.17228071967E+04 0.  0.
        4    1    3    3  502    0  0.22591357847E+03 -0.11068371302E+03  0.11661094434E+04  0.11929378341E+04  0.12699999809E+01 0. -1.
       -4    1    3    3    0  502 -0.22591357847E+03  0.11068371302E+03 -0.57566888870E+03  0.62823889690E+03  0.12699999809E+01 0.  1.
</event>
<event>
 5   0  0.5074133E-04  0.1712418E+04  0.7818609E-02  0.8754313E-01
        1   -1    0    0  501    0  0.00000000000E+00  0.00000000000E+00  0.18099604355E+04  0.18099604355E+04  0.50400001928E-02 0. -1.
       -1   -1    0    0    0  501  0.00000000000E+00  0.00000000000E+00 -0.40503306060E+03  0.40503306063E+03  0.50400001928E-02 0.  1.
    10030    2    1    2    0    0  0.00000000000E+00  0.00000000000E+00  0.14049273749E+04  0.22149934962E+04  0.17124179569E+04 0.  0.
        1    1    3    3  502    0  0.73131237792E+02 -0.17034806740E+03  0.17836897320E+04  0.17932974383E+04  0.50400001928E-02 0. -1.
       -1    1    3    3    0  502 -0.73131237792E+02  0.17034806740E+03 -0.37876235713E+03  0.42169605785E+03  0.50400001928E-02 0.  1.
</event>
<event>
 5   0  0.9625225E-04  0.1662428E+04  0.7818609E-02  0.8783088E-01
        2   -1    0    0  501    0  0.00000000000E+00  0.00000000000E+00  0.10071212370E+04  0.10071212370E+04  0.25500000920E-02 0. -1.
       -2   -1    0    0    0  501  0.00000000000E+00  0.00000000000E+00 -0.68603157306E+03  0.68603157306E+03  0.25500000920E-02 0.  1.
    10030    2    1    2    0    0  0.00000000000E+00  0.00000000000E+00  0.32108966390E+03  0.16931528100E+04  0.16624283040E+04 0.  0.
        1    1    3    3  502    0 -0.47977967612E+03 -0.67857753466E+03  0.14409207183E+03  0.84345630198E+03  0.50400001928E-02 0.  1.
       -1    1    3    3    0  502  0.47977967612E+03  0.67857753466E+03  0.17699759207E+03  0.84969650804E+03  0.50400001928E-02 0. -1.
</event>
<event>
 5   0  0.5074133E-04  0.1749239E+04  0.7818609E-02  0.8733769E-01
        1   -1    0    0  501    0  0.00000000000E+00  0.00000000000E+00  0.12040641194E+04  0.12040641194E+04  0.50400001928E-02 0.  1.
       -1   -1    0    0    0  501  0.00000000000E+00  0.00000000000E+00 -0.63531442010E+03  0.63531442012E+03  0.50400001928E-02 0. -1.
    10030    2    1    2    0    0  0.00000000000E+00  0.00000000000E+00  0.56874969929E+03  0.18393785395E+04  0.17492390320E+04 0.  0.
        1    1    3    3  502    0  0.37676675682E+03 -0.73239314071E+03 -0.25079747859E+02  0.82400357729E+03  0.50400001928E-02 0. -1.
       -1    1    3    3    0  502 -0.37676675682E+03  0.73239314071E+03  0.59382944715E+03  0.10153749622E+04  0.50400001928E-02 0.  1.
</event>
<event>
 5   0  0.5074133E-04  0.1617333E+04  0.7818609E-02  0.8809970E-01
        1   -1    0    0  501    0  0.00000000000E+00  0.00000000000E+00  0.10444411579E+04  0.10444411579E+04  0.50400001928E-02 0. -1.
       -1   -1    0    0    0  501  0.00000000000E+00  0.00000000000E+00 -0.62611611466E+03  0.62611611468E+03  0.50400001928E-02 0.  1.
    10030    2    1    2    0    0  0.00000000000E+00  0.00000000000E+00  0.41832504326E+03  0.16705572726E+04  0.16173329154E+04 0.  0.
        1    1    3    3  502    0 -0.51377427758E+03 -0.40512880168E+03 -0.28171161551E+03  0.71235860954E+03  0.50400001928E-02 0.  1.
       -1    1    3    3    0  502  0.51377427758E+03  0.40512880168E+03  0.70003665877E+03  0.95819866307E+03  0.50400001928E-02 0. -1.
</event>
<event>
 5   0  0.9312096E-04  0.1724382E+04  0.7818609E-02  0.8747579E-01
        2   -1    0    0  501    0  0.00000000000E+00  0.00000000000E+00  0.22748543470E+04  0.22748543470E+04  0.25500000920E-02 0. -1.
       -2   -1    0    0    0  501  0.00000000000E+00  0.00000000000E+00 -0.32677843184E+03  0.32677843185E+03  0.25500000920E-02 0.  1.
    10030    2    1    2    0    0  0.00000000000E+00  0.00000000000E+00  0.19480759152E+04  0.26016327789E+04  0.17243820182E+04 0.  0.
        3    1    3    3  502    0  0.40704522919E+03 -0.24495731821E+03  0.20595749762E+04  0.21136553643E+04  0.10100000352E+00 0. -1.
       -3    1    3    3    0  502 -0.40704522919E+03  0.24495731821E+03 -0.11149906098E+03  0.48797741459E+03  0.10100000352E+00 0.  1.
</event>
<event>
 5   0  0.5059689E-04  0.1679724E+04  0.7818609E-02  0.8773014E-01
        1   -1    0    0  501    0  0.00000000000E+00  0.00000000000E+00  0.20012511150E+04  0.20012511150E+04  0.50400001928E-02 0. -1.
       -1   -1    0    0    0  501  0.00000000000E+00  0.00000000000E+00 -0.35246348375E+03  0.35246348379E+03  0.50400001928E-02 0.  1.
    10030    2    1    2    0    0  0.00000000000E+00  0.00000000000E+00  0.16487876312E+04  0.23537145988E+04  0.16797237152E+04 0.  0.
        5    1    3    3  502    0 -0.72205951731E+03  0.42845803755E+03  0.85240529024E+03  0.11964794630E+04  0.46999998093E+01 0.  1.
       -5    1    3    3    0  502  0.72205951731E+03 -0.42845803755E+03  0.79638234097E+03  0.11572351358E+04  0.46999998093E+01 0. -1.
</event>
<event>
 5   0  0.9312096E-04  0.1659925E+04  0.7818609E-02  0.8784556E-01
        2   -1    0    0  501    0  0.00000000000E+00  0.00000000000E+00  0.26340967413E+04  0.26340967413E+04  0.25500000920E-02 0. -1.
       -2   -1    0    0    0  501  0.00000000000E+00  0.00000000000E+00 -0.26150825394E+03  0.26150825395E+03  0.25500000920E-02 0.  1.
    10030    2    1    2    0    0  0.00000000000E+00  0.00000000000E+00  0.23725884873E+04  0.28956049952E+04  0.16599253472E+04 0.  0.
        3    1    3    3  502    0 -0.80148092540E+03 -0.19653990939E+03  0.13407361002E+04  0.15743484082E+04  0.10100000352E+00 0. -1.
       -3    1    3    3    0  502  0.80148092540E+03  0.19653990939E+03  0.10318523871E+04  0.13212565871E+04  0.10100000352E+00 0.  1.
</event>
<event>
 5   0  0.9284971E-04  0.1703339E+04  0.7818609E-02  0.8759462E-01
        2   -1    0    0  501    0  0.00000000000E+00  0.00000000000E+00  0.53893167729E+03  0.53893167730E+03  0.25500000920E-02 0.  1.
       -2   -1    0    0    0  501  0.00000000000E+00  0.00000000000E+00 -0.13458865187E+04  0.13458865187E+04  0.25500000920E-02 0. -1.
    10030    2    1    2    0    0  0.00000000000E+00  0.00000000000E+00 -0.80695484144E+03  0.18848181960E+04  0.17033389316E+04 0.  0.
        4    1    3    3  502    0 -0.25968824862E+03  0.77363428082E+03 -0.67314561844E+03  0.10578632348E+04  0.12699999809E+01 0.  1.
       -4    1    3    3    0  502  0.25968824862E+03 -0.77363428082E+03 -0.13380922300E+03  0.82695496128E+03  0.12699999809E+01 0. -1.
</event>
<event>
 5   0  0.9312096E-04  0.1700062E+04  0.7818609E-02  0.8761329E-01
       -2   -1    0    0    0  501  0.00000000000E+00  0.00000000000E+00  0.17047781997E+04  0.17047781997E+04  0.25500000920E-02 0. -1.
        2   -1    0    0  501    0  0.00000000000E+00  0.00000000000E+00 -0.42383963816E+03  0.42383963817E+03  0.25500000920E-02 0.  1.
    10030    2    1    2    0    0  0.00000000000E+00  0.00000000000E+00  0.12809385615E+04  0.21286178378E+04  0.17000618522E+04 0.  0.
        3    1    3    3  502    0  0.43948741980E+03  0.58272065960E+03  0.94928973235E+02  0.73601907546E+03  0.10100000352E+00 0.  1.
       -3    1    3    3    0  502 -0.43948741980E+03 -0.58272065960E+03  0.11860095883E+04  0.13925987624E+04  0.10100000352E+00 0. -1.
</event>
<event>
 5   0  0.9625225E-04  0.1643755E+04  0.7818609E-02  0.8794110E-01
        2   -1    0    0  501    0  0.00000000000E+00  0.00000000000E+00  0.13354949024E+04  0.13354949024E+04  0.25500000920E-02 0. -1.
       -2   -1    0    0    0  501  0.00000000000E+00  0.00000000000E+00 -0.50579184602E+03  0.50579184602E+03  0.25500000920E-02 0.  1.
    10030    2    1    2    0    0  0.00000000000E+00  0.00000000000E+00  0.82970305636E+03  0.18412867484E+04  0.16437547652E+04 0.  0.
        1    1    3    3  502    0  0.12567663852E+03  0.69630984106E+03  0.88323905687E+03  0.11317036908E+04  0.50400001928E-02 0. -1.
       -1    1    3    3    0  502 -0.12567663852E+03 -0.69630984106E+03 -0.53536000512E+02  0.70958305757E+03  0.50400001928E-02 0.  1.
</event>
<event>
 5   0  0.4947006E-04  0.1702018E+04  0.7818609E-02  0.8760214E-01
       -1   -1    0    0    0  501  0.00000000000E+00  0.00000000000E+00  0.48754318718E+03  0.48754318721E+03  0.50400001928E-02 0. -1.
        1   -1    0    0  501    0  0.00000000000E+00  0.00000000000E+00 -0.14854402136E+04  0.14854402136E+04  0.50400001928E-02 0.  1.
    10030    2    1    2    0    0  0.00000000000E+00  0.00000000000E+00 -0.99789702640E+03  0.19729834008E+04  0.17020179272E+04 0.  0.
        2    1    3    3  502    0  0.73786497184E+03 -0.67723166357E+02 -0.13762917347E+02  0.74109416529E+03  0.25500000920E-02 0. -1.
       -2    1    3    3    0  502 -0.73786497184E+03  0.67723166357E+02 -0.98413410905E+03  0.12318892355E+04  0.25500000920E-02 0.  1.
</event>
<event>
 5   0  0.5035495E-04  0.1630858E+04  0.7818609E-02  0.8801812E-01
       -1   -1    0    0    0  501  0.00000000000E+00  0.00000000000E+00  0.93575340412E+03  0.93575340413E+03  0.50400001928E-02 0. -1.
        1   -1    0    0  501    0  0.00000000000E+00  0.00000000000E+00 -0.71057679749E+03  0.71057679750E+03  0.50400001928E-02 0.  1.
    10030    2    1    2    0    0  0.00000000000E+00  0.00000000000E+00  0.22517660664E+03  0.16463302016E+04  0.16308582491E+04 0.  0.
        4    1    3    3  502    0  0.31774902841E+03  0.56815264136E+03  0.60832883307E+03  0.89096994954E+03  0.12699999809E+01 0. -1.
       -4    1    3    3    0  502 -0.31774902841E+03 -0.56815264136E+03 -0.38315222643E+03  0.75536025210E+03  0.12699999809E+01 0.  1.
</event>
<event>
 5   0  0.1007187E-03  0.1730501E+04  0.7818609E-02  0.8744157E-01
        2   -1    0    0  501    0  0.00000000000E+00  0.00000000000E+00  0.26307650136E+04  0.26307650136E+04  0.25500000920E-02 0. -1.
       -2   -1    0    0    0  501  0.00000000000E+00  0.00000000000E+00 -0.28457809730E+03  0.28457809731E+03  0.25500000920E-02 0.  1.
    10030    2    1    2    0    0  0.00000000000E+00  0.00000000000E+00  0.23461869163E+04  0.29153431109E+04  0.17305006236E+04 0.  0.
        5    1    3    3  502    0 -0.54555552815E+03  0.42304419849E+02  0.43959970322E+02  0.54897638130E+03  0.46999998093E+01 0.  1.
       -5    1    3    3    0  502  0.54555552815E+03 -0.42304419849E+02  0.23022269460E+04  0.23663667296E+04  0.46999998093E+01 0. -1.
</event>
<event>
 5   0  0.5074133E-04  0.1761813E+04  0.7818609E-02  0.8726874E-01
        1   -1    0    0  501    0  0.00000000000E+00  0.00000000000E+00  0.74727938603E+03  0.74727938604E+03  0.50400001928E-02 0.  1.
       -1   -1    0    0    0  501  0.00000000000E+00  0.00000000000E+00 -0.10384291435E+04  0.10384291435E+04  0.50400001928E-02 0. -1.
    10030    2    1    2    0    0  0.00000000000E+00  0.00000000000E+00 -0.29114975743E+03  0.17857085295E+04  0.17618134893E+04 0.  0.
        1    1    3    3  502    0  0.57346142531E+03  0.28600176493E+03 -0.75820768741E+03  0.99274060718E+03  0.50400001928E-02 0. -1.
       -1    1    3    3    0  502 -0.57346142531E+03 -0.28600176493E+03  0.46705792998E+03  0.79296792233E+03  0.50400001928E-02 0.  1.
</event>
<event>
 5   0  0.5035495E-04  0.1709368E+04  0.7818609E-02  0.8756039E-01
        1   -1    0    0  501    0  0.00000000000E+00  0.00000000000E+00  0.16589115895E+04  0.16589115895E+04  0.50400001928E-02 0.  1.
       -1   -1    0    0    0  501  0.00000000000E+00  0.00000000000E+00 -0.44033980255E+03  0.44033980258E+03  0.50400001928E-02 0. -1.
    10030    2    1    2    0    0  0.00000000000E+00  0.00000000000E+00  0.12185717869E+04  0.20992513921E+04  0.17093680725E+04 0.  0.
        4    1    3    3  502    0 -0.83281985979E+03 -0.18823450151E+03  0.56232797269E+03  0.10223675993E+04  0.12699999809E+01 0. -1.
       -4    1    3    3    0  502  0.83281985979E+03  0.18823450151E+03  0.65624381423E+03  0.10768837927E+04  0.12699999809E+01 0.  1.
</event>
<event>
 5   0  0.5059689E-04  0.1726452E+04  0.7818609E-02  0.8746420E-01
       -1   -1    0    0    0  501  0.00000000000E+00  0.00000000000E+00  0.49697639744E+03  0.49697639747E+03  0.50400001928E-02 0. -1.
        1   -1    0    0  501    0  0.00000000000E+00  0.00000000000E+00 -0.14993848813E+04  0.14993848813E+04  0.50400001928E-02 0.  1.
    10030    2    1    2    0    0  0.00000000000E+00  0.00000000000E+00 -0.10024084839E+04  0.19963612788E+04  0.17264517332E+04 0.  0.
        5    1    3    3  502    0 -0.36545038479E+03 -0.67270444500E+03 -0.40042094211E+02  0.76662292776E+03  0.46999998093E+01 0. -1.
       -5    1    3    3    0  502  0.36545038479E+03  0.67270444500E+03 -0.96236638967E+03  0.12297383510E+04  0.46999998093E+01 0.  1.
</event>
<event>
 5   0  0.9284971E-04  0.1719626E+04  0.7818609E-02  0.8750249E-01
       -2   -1    0    0    0  501  0.00000000000E+00  0.00000000000E+00  0.95521571737E+03  0.95521571737E+03  0.25500000920E-02 0.  1.
        2   -1    0    0  501    0  0.00000000000E+00  0.00000000000E+00 -0.77393885167E+03  0.77393885168E+03  0.25500000920E-02 0. -1.
    10030    2    1    2    0    0  0.00000000000E+00  0.00000000000E+00  0.18127686570E+03  0.17291545690E+04  0.17196261866E+04 0.  0.
        4    1    3    3  502    0  0.29690192812E+03  0.87376532591E+02 -0.71598564894E+03  0.78001440740E+03  0.12699999809E+01 0. -1.
       -4    1    3    3    0  502 -0.29690192812E+03 -0.87376532591E+02  0.89726251464E+03  0.94914016164E+03  0.12699999809E+01 0.  1.
</event>
<event>
 5   0  0.5074133E-04  0.1695130E+04  0.7818609E-02  0.8764147E-01
       -1   -1    0    0    0  501  0.00000000000E+00  0.00000000000E+00  0.75279416603E+03  0.75279416604E+03  0.50400001928E-02 0.  1.
        1   -1    0    0  501    0  0.00000000000E+00  0.00000000000E+00 -0.95426702775E+03  0.95426702777E+03  0.50400001928E-02 0. -1.
    10030    2    1    2    0    0  0.00000000000E+00  0.00000000000E+00 -0.20147286173E+03  0.17070611938E+04  0.16951302621E+04 0.  0.
        1    1    3    3  502    0 -0.80612395962E+02 -0.17823268207E+03 -0.93122344940E+03  0.95154735041E+03  0.50400001928E-02 0. -1.
       -1    1    3    3    0  502  0.80612395962E+02  0.17823268207E+03  0.72975058767E+03  0.75551384340E+03  0.50400001928E-02 0.  1.
</event>
<event>
 5   0  0.9610114E-04  0.1601171E+04  0.7818609E-02  0.8819829E-01
        2   -1    0    0  501    0  0.00000000000E+00  0.00000000000E+00  0.98386249432E+03  0.98386249432E+03  0.25500000920E-02 0. -1.
       -2   -1    0    0    0  501  0.00000000000E+00  0.00000000000E+00 -0.65144967246E+03  0.65144967246E+03  0.25500000920E-02 0.  1.
    10030    2    1    2    0    0  0.00000000000E+00  0.00000000000E+00  0.33241282186E+03  0.16353121668E+04  0.16011706963E+04 0.  0.
        2    1    3    3  502    0  0.26517105267E+03 -0.57136825274E+03 -0.33845474343E+03  0.71507271013E+03  0.25500000920E-02 0.  1.
       -2    1    3    3    0  502 -0.26517105267E+03  0.57136825274E+03  0.67086756529E+03  0.92023945665E+03  0.25500000920E-02 0. -1.
</event>
<event>
 5   0  0.1007187E-03  0.1761808E+04  0.7818609E-02  0.8726878E-01
       -2   -1    0    0    0  501  0.00000000000E+00  0.00000000000E+00  0.13290157600E+04  0.13290157600E+04  0.25500000920E-02 0.  1.
        2   -1    0    0  501    0  0.00000000000E+00  0.00000000000E+00 -0.58388433677E+03  0.58388433678E+03  0.25500000920E-02 0. -1.
    10030    2    1    2    0    0  0.00000000000E+00  0.00000000000E+00  0.74513142322E+03  0.19129000968E+04  0.17618075781E+04 0.  0.
        5    1    3    3  502    0 -0.22254661238E+03 -0.36835357109E+03  0.12070893420E+04  0.12815217975E+04  0.46999998093E+01 0.  1.
       -5    1    3    3    0  502  0.22254661238E+03  0.36835357109E+03 -0.46195791877E+03  0.63137829923E+03  0.46999998093E+01 0. -1.
</event>
<event>
 5   0  0.5009762E-04  0.1711615E+04  0.7818609E-02  0.8754767E-01
        1   -1    0    0  501    0  0.00000000000E+00  0.00000000000E+00  0.14783695231E+04  0.14783695231E+04  0.50400001928E-02 0. -1.
       -1   -1    0    0    0  501  0.00000000000E+00  0.00000000000E+00 -0.49541517125E+03  0.49541517127E+03  0.50400001928E-02 0.  1.
    10030    2    1    2    0    0  0.00000000000E+00  0.00000000000E+00  0.98295435187E+03  0.19737846944E+04  0.17116152494E+04 0.  0.
        3    1    3    3  502    0 -0.43579001317E+03  0.28571533427E+03  0.12743268401E+04  0.13767552773E+04  0.10100000352E+00 0. -1.
       -3    1    3    3    0  502  0.43579001317E+03 -0.28571533427E+03 -0.29137248825E+03  0.59702941714E+03  0.10100000352E+00 0.  1.
</event>
<event>
 5   0  0.5059689E-04  0.1693190E+04  0.7818609E-02  0.8765258E-01
       -1   -1    0    0    0  501  0.00000000000E+00  0.00000000000E+00  0.38212977477E+03  0.38212977481E+03  0.50400001928E-02 0.  1.
        1   -1    0    0  501    0  0.00000000000E+00  0.00000000000E+00 -0.18756006339E+04  0.18756006339E+04  0.50400001928E-02 0. -1.
    10030    2    1    2    0    0  0.00000000000E+00  0.00000000000E+00 -0.14934708591E+04  0.22577304087E+04  0.16931897092E+04 0.  0.
        5    1    3    3  502    0  0.49973355817E+03  0.66196180159E+03 -0.52055015248E+03  0.97924542744E+03  0.46999998093E+01 0.  1.
       -5    1    3    3    0  502 -0.49973355817E+03 -0.66196180159E+03 -0.97292070664E+03  0.12784849813E+04  0.46999998093E+01 0. -1.
</event>
<event>
 5   0  0.9610114E-04  0.1712099E+04  0.7818609E-02  0.8754494E-01
       -2   -1    0    0    0  501  0.00000000000E+00  0.00000000000E+00  0.55580618797E+03  0.55580618798E+03  0.25500000920E-02 0. -1.
        2   -1    0    0  501    0  0.00000000000E+00  0.00000000000E+00 -0.13184824377E+04  0.13184824377E+04  0.25500000920E-02 0.  1.
    10030    2    1    2    0    0  0.00000000000E+00  0.00000000000E+00 -0.76267624974E+03  0.18742886257E+04  0.17120989430E+04 0.  0.
        2    1    3    3  502    0  0.48409079900E+03 -0.34597477887E+03 -0.10550902160E+04  0.12113041787E+04  0.25500000920E-02 0.  1.
       -2    1    3    3    0  502 -0.48409079900E+03  0.34597477887E+03  0.29241396630E+03  0.66298444701E+03  0.25500000920E-02 0. -1.
</event>
<event>
 5   0  0.5035495E-04  0.1691796E+04  0.7818609E-02  0.8766057E-01
       -1   -1    0    0    0  501  0.00000000000E+00  0.00000000000E+00  0.57480184335E+03  0.57480184337E+03  0.50400001928E-02 0. -1.
        1   -1    0    0  501    0  0.00000000000E+00  0.00000000000E+00 -0.12448518460E+04  0.12448518460E+04  0.50400001928E-02 0.  1.
    10030    2    1    2    0    0  0.00000000000E+00  0.00000000000E+00 -0.67005000264E+03  0.18196536894E+04  0.16917956565E+04 0.  0.
        4    1    3    3  502    0 -0.20973467283E+03  0.50838137730E+03  0.35627904553E+03  0.65526836407E+03  0.12699999809E+01 0. -1.
       -4    1    3    3    0  502  0.20973467283E+03 -0.50838137730E+03 -0.10263290482E+04  0.11643853253E+04  0.12699999809E+01 0.  1.
</event>
<event>
 5   0  0.9312096E-04  0.1702774E+04  0.7818609E-02  0.8759784E-01
       -2   -1    0    0    0  501  0.00000000000E+00  0.00000000000E+00  0.12137537900E+04  0.12137537900E+04  0.25500000920E-02 0. -1.
        2   -1    0    0  501    0  0.00000000000E+00  0.00000000000E+00 -0.59720481663E+03  0.59720481663E+03  0.25500000920E-02 0.  1.
    10030    2    1    2    0    0  0.00000000000E+00  0.00000000000E+00  0.61654897333E+03  0.18109586066E+04  0.17027737484E+04 0.  0.
        3    1    3    3  502    0  0.22069773637E+03  0.81209744672E+03  0.44550689418E+03  0.95220069143E+03  0.10100000352E+00 0.  1.
       -3    1    3    3    0  502 -0.22069773637E+03 -0.81209744672E+03  0.17104207915E+03  0.85875791516E+03  0.10100000352E+00 0. -1.
</event>
<event>
 5   0  0.1007187E-03  0.1832113E+04  0.7818609E-02  0.8689406E-01
       -2   -1    0    0    0  501  0.00000000000E+00  0.00000000000E+00  0.69154578602E+03  0.69154578603E+03  0.25500000920E-02 0. -1.
        2   -1    0    0  501    0  0.00000000000E+00  0.00000000000E+00 -0.12134551915E+04  0.12134551915E+04  0.25500000920E-02 0.  1.
    10030    2    1    2    0    0  0.00000000000E+00  0.00000000000E+00 -0.52190940544E+03  0.19050009775E+04  0.18321133417E+04 0.  0.
        5    1    3    3  502    0  0.28947512369E+03  0.26748602640E+03 -0.11207701170E+04  0.11880624422E+04  0.46999998093E+01 0.  1.
       -5    1    3    3    0  502 -0.28947512369E+03 -0.26748602640E+03  0.59886071152E+03  0.71693853527E+03  0.46999998093E+01 0. -1.
</event>
<event>
 5   0  0.9625225E-04  0.1658065E+04  0.7818609E-02  0.8785650E-01
        2   -1    0    0  501    0  0.00000000000E+00  0.00000000000E+00  0.22323811644E+04  0.22323811644E+04  0.25500000920E-02 0. -1.
       -2   -1    0    0    0  501  0.00000000000E+00  0.00000000000E+00 -0.30787524166E+03  0.30787524167E+03  0.25500000920E-02 0.  1.
    10030    2    1    2    0    0  0.00000000000E+00  0.00000000000E+00  0.19245059228E+04  0.25402564061E+04  0.16580650054E+04 0.  0.
        1    1    3    3  502    0  0.45405627195E+03  0.65084696702E+02  0.20202535708E+04  0.20716726591E+04  0.50400001928E-02 0. -1.
       -1    1    3    3    0  502 -0.45405627195E+03 -0.65084696702E+02 -0.95747648074E+02  0.46858374703E+03  0.50400001928E-02 0.  1.
</event>
<event>
 5   0  0.5035495E-04  0.1697983E+04  0.7818609E-02  0.8762515E-01
       -1   -1    0    0    0  501  0.00000000000E+00  0.00000000000E+00  0.29766026539E+03  0.29766026543E+03  0.50400001928E-02 0. -1.
        1   -1    0    0  501    0  0.00000000000E+00  0.00000000000E+00 -0.24215082062E+04  0.24215082062E+04  0.50400001928E-02 0.  1.
    10030    2    1    2    0    0  0.00000000000E+00  0.00000000000E+00 -0.21238479408E+04  0.27191684717E+04  0.16979832454E+04 0.  0.
        4    1    3    3  502    0  0.36148405058E+03 -0.70868611651E+03 -0.58719704471E+03  0.98879154162E+03  0.12699999809E+01 0.  1.
       -4    1    3    3    0  502 -0.36148405058E+03  0.70868611651E+03 -0.15366508961E+04  0.17303769300E+04  0.12699999809E+01 0. -1.
</event>
<event>
 5   0  0.9625225E-04  0.1772384E+04  0.7818609E-02  0.8721125E-01
        2   -1    0    0  501    0  0.00000000000E+00  0.00000000000E+00  0.16109738628E+04  0.16109738628E+04  0.25500000920E-02 0. -1.
       -2   -1    0    0    0  501  0.00000000000E+00  0.00000000000E+00 -0.48749175906E+03  0.48749175907E+03  0.25500000920E-02 0.  1.
    10030    2    1    2    0    0  0.00000000000E+00  0.00000000000E+00  0.11234821038E+04  0.20984656219E+04  0.17723842498E+04 0.  0.
        1    1    3    3  502    0 -0.59837850707E+03  0.22978034078E+03  0.12862748705E+04  0.14371356531E+04  0.50400001928E-02 0. -1.
       -1    1    3    3    0  502  0.59837850707E+03 -0.22978034078E+03 -0.16279276676E+03  0.66132996883E+03  0.50400001928E-02 0.  1.
</event>
<event>
 5   0  0.5035495E-04  0.1645407E+04  0.7818609E-02  0.8793128E-01
       -1   -1    0    0    0  501  0.00000000000E+00  0.00000000000E+00  0.12160447962E+04  0.12160447962E+04  0.50400001928E-02 0. -1.
        1   -1    0    0  501    0  0.00000000000E+00  0.00000000000E+00 -0.55659219551E+03  0.55659219554E+03  0.50400001928E-02 0.  1.
    10030    2    1    2    0    0  0.00000000000E+00  0.00000000000E+00  0.65945260067E+03  0.17726369917E+04  0.16454069928E+04 0.  0.
        4    1    3    3  502    0  0.22407509134E+03  0.35334323720E+03 -0.43341054892E+03  0.60241796673E+03  0.12699999809E+01 0.  1.
       -4    1    3    3    0  502 -0.22407509134E+03 -0.35334323720E+03  0.10928631496E+04  0.11702190250E+04  0.12699999809E+01 0. -1.
</event>
<event>
 5   0  0.9284971E-04  0.1630879E+04  0.7818609E-02  0.8801800E-01
       -2   -1    0    0    0  501  0.00000000000E+00  0.00000000000E+00  0.39340087156E+03  0.39340087157E+03  0.25500000920E-02 0. -1.
        2   -1    0    0  501    0  0.00000000000E+00  0.00000000000E+00 -0.16902382182E+04  0.16902382182E+04  0.25500000920E-02 0.  1.
    10030    2    1    2    0    0  0.00000000000E+00  0.00000000000E+00 -0.12968373466E+04  0.20836390897E+04  0.16308785218E+04 0.  0.
        4    1    3    3  502    0 -0.75920580915E+03 -0.55866244192E+02 -0.27500211350E+03  0.80940859473E+03  0.12699999809E+01 0. -1.
       -4    1    3    3    0  502  0.75920580915E+03  0.55866244192E+02 -0.10218352331E+04  0.12742304950E+04  0.12699999809E+01 0.  1.
</event>
<event>
 5   0  0.5074133E-04  0.1687874E+04  0.7818609E-02  0.8768310E-01
       -1   -1    0    0    0  501  0.00000000000E+00  0.00000000000E+00  0.15181558683E+04  0.15181558683E+04  0.50400001928E-02 0.  1.
        1   -1    0    0  501    0  0.00000000000E+00  0.00000000000E+00 -0.46914149128E+03  0.46914149131E+03  0.50400001928E-02 0. -1.
    10030    2    1    2    0    0  0.00000000000E+00  0.00000000000E+00  0.10490143770E+04  0.19872973596E+04  0.16878742940E+04 0.  0.
        1    1    3    3  502    0 -0.87701616077E+02  0.66374057613E+03 -0.80434964522E+02  0.67432403887E+03  0.50400001928E-02 0. -1.
       -1    1    3    3    0  502  0.87701616077E+02 -0.66374057613E+03  0.11294493416E+04  0.13129733208E+04  0.50400001928E-02 0.  1.
</event>
<event>
 5   0  0.1007187E-03  0.1682849E+04  0.7818609E-02  0.8771207E-01
        2   -1    0    0  501    0  0.00000000000E+00  0.00000000000E+00  0.83644988274E+03  0.83644988275E+03  0.25500000920E-02 0.  1.
       -2   -1    0    0    0  501  0.00000000000E+00  0.00000000000E+00 -0.84642882503E+03  0.84642882503E+03  0.25500000920E-02 0. -1.
    10030    2    1    2    0    0  0.00000000000E+00  0.00000000000E+00 -0.99789422820E+01  0.16828787078E+04  0.16828491215E+04 0.  0.
        5    1    3    3  502    0 -0.75408561120E+03 -0.36950439813E+03 -0.57854303117E+02  0.84175282574E+03  0.46999998093E+01 0.  1.
       -5    1    3    3    0  502  0.75408561120E+03  0.36950439813E+03  0.47875360835E+02  0.84112588204E+03  0.46999998093E+01 0. -1.
</event>
<event>
 5   0  0.1007187E-03  0.1698977E+04  0.7818609E-02  0.8761948E-01
        2   -1    0    0  501    0  0.00000000000E+00  0.00000000000E+00  0.17569016833E+04  0.17569016833E+04  0.25500000920E-02 0. -1.
       -2   -1    0    0    0  501  0.00000000000E+00  0.00000000000E+00 -0.41074042541E+03  0.41074042542E+03  0.25500000920E-02 0.  1.
    10030    2    1    2    0    0  0.00000000000E+00  0.00000000000E+00  0.13461612579E+04  0.21676421087E+04  0.16989768036E+04 0.  0.
        5    1    3    3  502    0  0.83827492403E+03 -0.12273752254E+03  0.75213306264E+03  0.11329146400E+04  0.46999998093E+01 0.  1.
       -5    1    3    3    0  502 -0.83827492403E+03  0.12273752254E+03  0.59402819526E+03  0.10347274687E+04  0.46999998093E+01 0. -1.
</event>
<event>
 5   0  0.9610114E-04  0.1620737E+04  0.7818609E-02  0.8807909E-01
        2   -1    0    0  501    0  0.00000000000E+00  0.00000000000E+00  0.41328233652E+03  0.41328233653E+03  0.25500000920E-02 0.  1.
       -2   -1    0    0    0  501  0.00000000000E+00  0.00000000000E+00 -0.15889791336E+04  0.15889791336E+04  0.25500000920E-02 0. -1.
    10030    2    1    2    0    0  0.00000000000E+00  0.00000000000E+00 -0.11756967971E+04  0.20022614701E+04  0.16207368806E+04 0.  0.
        2    1    3    3  502    0  0.26119179881E+03 -0.69970442157E+03 -0.97634169752E+03  0.12292479586E+04  0.25500000920E-02 0. -1.
       -2    1    3    3    0  502 -0.26119179881E+03  0.69970442157E+03 -0.19935509956E+03  0.77301351156E+03  0.25500000920E-02 0.  1.
</event>
<event>
 5   0  0.9610114E-04  0.1660679E+04  0.7818609E-02  0.8784114E-01
        2   -1    0    0  501    0  0.00000000000E+00  0.00000000000E+00  0.11319559038E+04  0.11319559038E+04  0.25500000920E-02 0. -1.
       -2   -1    0    0    0  501  0.00000000000E+00  0.00000000000E+00 -0.60909094586E+03  0.60909094587E+03  0.25500000920E-02 0.  1.
    10030    2    1    2    0    0  0.00000000000E+00  0.00000000000E+00  0.52286495790E+03  0.17410468496E+04  0.16606794900E+04 0.  0.
        2    1    3    3  502    0  0.34345124935E+02 -0.60713693401E+03 -0.33132230163E+03  0.69250943085E+03  0.25500000920E-02 0.  1.
       -2    1    3    3    0  502 -0.34345124935E+02  0.60713693401E+03  0.85418725953E+03  0.10485374188E+04  0.25500000920E-02 0. -1.
</event>
<event>
 5   0  0.9625225E-04  0.1660363E+04  0.7818609E-02  0.8784299E-01
       -2   -1    0    0    0  501  0.00000000000E+00  0.00000000000E+00  0.80618041953E+03  0.80618041953E+03  0.25500000920E-02 0.  1.
        2   -1    0    0  501    0  0.00000000000E+00  0.00000000000E+00 -0.85489729286E+03  0.85489729287E+03  0.25500000920E-02 0. -1.
    10030    2    1    2    0    0  0.00000000000E+00  0.00000000000E+00 -0.48716873333E+02  0.16610777124E+04  0.16603631630E+04 0.  0.
        1    1    3    3  502    0  0.45242896301E+02  0.18751349163E+03 -0.83216691017E+03  0.85423064545E+03  0.50400001928E-02 0. -1.
       -1    1    3    3    0  502 -0.45242896301E+02 -0.18751349163E+03  0.78345003684E+03  0.80684706696E+03  0.50400001928E-02 0.  1.
</event>
<event>
 5   0  0.5059689E-04  0.1737147E+04  0.7818609E-02  0.8740457E-01
       -1   -1    0    0    0  501  0.00000000000E+00  0.00000000000E+00  0.50344611321E+03  0.50344611324E+03  0.50400001928E-02 0. -1.
        1   -1    0    0  501    0  0.00000000000E+00  0.00000000000E+00 -0.14985115666E+04  0.14985115666E+04  0.50400001928E-02 0.  1.
    10030    2    1    2    0    0  0.00000000000E+00  0.00000000000E+00 -0.99506545340E+03  0.20019576799E+04  0.17371468837E+04 0.  0.
        5    1    3    3  502    0 -0.87049780882E+02 -0.34451697013E+03  0.41582828995E+03  0.54699621917E+03  0.46999998093E+01 0. -1.
       -5    1    3    3    0  502  0.87049780882E+02  0.34451697013E+03 -0.14108937433E+04  0.14549614607E+04  0.46999998093E+01 0.  1.
</event>
<event>
 5   0  0.5009762E-04  0.1724675E+04  0.7818609E-02  0.8747415E-01
       -1   -1    0    0    0  501  0.00000000000E+00  0.00000000000E+00  0.65591014295E+03  0.65591014297E+03  0.50400001928E-02 0. -1.
        1   -1    0    0  501    0  0.00000000000E+00  0.00000000000E+00 -0.11337317134E+04  0.11337317134E+04  0.50400001928E-02 0.  1.
    10030    2    1    2    0    0  0.00000000000E+00  0.00000000000E+00 -0.47782157045E+03  0.17896418564E+04  0.17246751929E+04 0.  0.
        3    1    3    3  502    0 -0.43859178982E+03 -0.13287423010E+03 -0.99691199167E+03  0.10972018267E+04  0.10100000352E+00 0.  1.
       -3    1    3    3    0  502  0.43859178982E+03  0.13287423010E+03  0.51909042122E+03  0.69244002970E+03  0.10100000352E+00 0. -1.
</event>
<event>
 5   0  0.9312096E-04  0.1639373E+04  0.7818609E-02  0.8796718E-01
       -2   -1    0    0    0  501  0.00000000000E+00  0.00000000000E+00  0.14353826855E+04  0.14353826855E+04  0.25500000920E-02 0.  1.
        2   -1    0    0  501    0  0.00000000000E+00  0.00000000000E+00 -0.46808849296E+03  0.46808849296E+03  0.25500000920E-02 0. -1.
    10030    2    1    2    0    0  0.00000000000E+00  0.00000000000E+00  0.96729419255E+03  0.19034711785E+04  0.16393731950E+04 0.  0.
        3    1    3    3  502    0 -0.60699924279E+03  0.25441443341E+03 -0.83642717704E+02  0.66345376561E+03  0.10100000352E+00 0. -1.
       -3    1    3    3    0  502  0.60699924279E+03 -0.25441443341E+03  0.10509369103E+04  0.12400174129E+04  0.10100000352E+00 0.  1.
</event>
<event>
 5   0  0.5074133E-04  0.1749697E+04  0.7818609E-02  0.8733517E-01
       -1   -1    0    0    0  501  0.00000000000E+00  0.00000000000E+00  0.12553492238E+04  0.12553492238E+04  0.50400001928E-02 0. -1.
        1   -1    0    0  501    0  0.00000000000E+00  0.00000000000E+00 -0.60967921977E+03  0.60967921979E+03  0.50400001928E-02 0.  1.
    10030    2    1    2    0    0  0.00000000000E+00  0.00000000000E+00  0.64567000400E+03  0.18650284436E+04  0.17496974999E+04 0.  0.
        1    1    3    3  502    0 -0.15514514998E+03  0.26912079241E+03 -0.54891408673E+03  0.63071601621E+03  0.50400001928E-02 0.  1.
       -1    1    3    3    0  502  0.15514514998E+03 -0.26912079241E+03  0.11945840907E+04  0.12343124273E+04  0.50400001928E-02 0. -1.
</event>
<event>
 5   0  0.9610114E-04  0.1672878E+04  0.7818609E-02  0.8776986E-01
       -2   -1    0    0    0  501  0.00000000000E+00  0.00000000000E+00  0.51340245020E+03  0.51340245021E+03  0.25500000920E-02 0. -1.
        2   -1    0    0  501    0  0.00000000000E+00  0.00000000000E+00 -0.13627323795E+04  0.13627323795E+04  0.25500000920E-02 0.  1.
    10030    2    1    2    0    0  0.00000000000E+00  0.00000000000E+00 -0.84932992934E+03  0.18761348297E+04  0.16728779305E+04 0.  0.
        2    1    3    3  502    0 -0.35681289492E+02 -0.81546646535E+03 -0.21979079032E+03  0.84532047299E+03  0.25500000920E-02 0.  1.
       -2    1    3    3    0  502  0.35681289492E+02  0.81546646535E+03 -0.62953913902E+03  0.10308143568E+04  0.25500000920E-02 0. -1.
</event>
<event>
 5   0  0.5035495E-04  0.1699790E+04  0.7818609E-02  0.8761484E-01
       -1   -1    0    0    0  501  0.00000000000E+00  0.00000000000E+00  0.40501223547E+03  0.40501223550E+03  0.50400001928E-02 0.  1.
        1   -1    0    0  501    0  0.00000000000E+00  0.00000000000E+00 -0.17834558001E+04  0.17834558001E+04  0.50400001928E-02 0. -1.
    10030    2    1    2    0    0  0.00000000000E+00  0.00000000000E+00 -0.13784435646E+04  0.21884680356E+04  0.16997898935E+04 0.  0.
        4    1    3    3  502    0 -0.77208321740E+02 -0.82423728812E+03 -0.44159570410E+03  0.93826254900E+03  0.12699999809E+01 0. -1.
       -4    1    3    3    0  502  0.77208321740E+02  0.82423728812E+03 -0.93684786050E+03  0.12502054866E+04  0.12699999809E+01 0.  1.
</event>
<event>
 5   0  0.5074133E-04  0.1663908E+04  0.7818609E-02  0.8782221E-01
        1   -1    0    0  501    0  0.00000000000E+00  0.00000000000E+00  0.12819438368E+04  0.12819438368E+04  0.50400001928E-02 0.  1.
       -1   -1    0    0    0  501  0.00000000000E+00  0.00000000000E+00 -0.53992000511E+03  0.53992000513E+03  0.50400001928E-02 0. -1.
    10030    2    1    2    0    0  0.00000000000E+00  0.00000000000E+00  0.74202383172E+03  0.18218638420E+04  0.16639075971E+04 0.  0.
        1    1    3    3  502    0  0.82838310658E+03  0.75788346989E+02  0.38589162508E+03  0.91699225250E+03  0.50400001928E-02 0. -1.
       -1    1    3    3    0  502 -0.82838310658E+03 -0.75788346989E+02  0.35613220664E+03  0.90487158947E+03  0.50400001928E-02 0.  1.
</event>
<event>
 5   0  0.4947006E-04  0.1695586E+04  0.7818609E-02  0.8763886E-01
        1   -1    0    0  501    0  0.00000000000E+00  0.00000000000E+00  0.17935563361E+04  0.17935563361E+04  0.50400001928E-02 0.  1.
       -1   -1    0    0    0  501  0.00000000000E+00  0.00000000000E+00 -0.40074185033E+03  0.40074185036E+03  0.50400001928E-02 0. -1.
    10030    2    1    2    0    0  0.00000000000E+00  0.00000000000E+00  0.13928144858E+04  0.21942981865E+04  0.16955861345E+04 0.  0.
        2    1    3    3  502    0 -0.48339792358E+03  0.40272811842E+03 -0.38957515288E+02  0.63038177154E+03  0.25500000920E-02 0. -1.
       -2    1    3    3    0  502  0.48339792358E+03 -0.40272811842E+03  0.14317720011E+04  0.15639164150E+04  0.25500000920E-02 0.  1.
</event>
<event>
 5   0  0.5009762E-04  0.1949359E+04  0.7818609E-02  0.8630670E-01
        1   -1    0    0  501    0  0.00000000000E+00  0.00000000000E+00  0.10912018294E+04  0.10912018294E+04  0.50400001928E-02 0.  1.
       -1   -1    0    0    0  501  0.00000000000E+00  0.00000000000E+00 -0.87060022288E+03  0.87060022289E+03  0.50400001928E-02 0. -1.
    10030    2    1    2    0    0  0.00000000000E+00  0.00000000000E+00  0.22060160653E+03  0.19618020523E+04  0.19493594393E+04 0.  0.
        3    1    3    3  502    0 -0.44236225311E+02 -0.91371612561E+03 -0.22824878152E+03  0.94283164897E+03  0.10100000352E+00 0.  1.
       -3    1    3    3    0  502  0.44236225311E+02  0.91371612561E+03  0.44885038805E+03  0.10189704033E+04  0.10100000352E+00 0. -1.
</event>
<event>
 5   0  0.9284971E-04  0.1651356E+04  0.7818609E-02  0.8789604E-01
       -2   -1    0    0    0  501  0.00000000000E+00  0.00000000000E+00  0.10491875085E+04  0.10491875085E+04  0.25500000920E-02 0. -1.
        2   -1    0    0  501    0  0.00000000000E+00  0.00000000000E+00 -0.64978324208E+03  0.64978324209E+03  0.25500000920E-02 0.  1.
    10030    2    1    2    0    0  0.00000000000E+00  0.00000000000E+00  0.39940426643E+03  0.16989707506E+04  0.16513563647E+04 0.  0.
        4    1    3    3  502    0  0.82499101740E+03 -0.14363064948E+02  0.16838819475E+03  0.84212390624E+03  0.12699999809E+01 0.  1.
       -4    1    3    3    0  502 -0.82499101740E+03  0.14363064948E+02  0.23101607168E+03  0.85684684437E+03  0.12699999809E+01 0. -1.
</event>
<event>
 5   0  0.9284971E-04  0.1709275E+04  0.7818609E-02  0.8756092E-01
       -2   -1    0    0    0  501  0.00000000000E+00  0.00000000000E+00  0.70137961816E+03  0.70137961816E+03  0.25500000920E-02 0.  1.
        2   -1    0    0  501    0  0.00000000000E+00  0.00000000000E+00 -0.10413835166E+04  0.10413835166E+04  0.25500000920E-02 0. -1.
    10030    2    1    2    0    0  0.00000000000E+00  0.00000000000E+00 -0.34000389841E+03  0.17427631347E+04  0.17092749027E+04 0.  0.
        4    1    3    3  502    0 -0.35099636769E+03  0.82901097503E+02  0.61998948604E+03  0.71725840379E+03  0.12699999809E+01 0.  1.
       -4    1    3    3    0  502  0.35099636769E+03 -0.82901097503E+02 -0.95999338445E+03  0.10255047309E+04  0.12699999809E+01 0. -1.
</event>
<event>
 5   0  0.4947006E-04  0.1296154E+04  0.7818609E-02  0.9032620E-01
        1   -1    0    0  501    0  0.00000000000E+00  0.00000000000E+00  0.14840584534E+04  0.14840584534E+04  0.50400001928E-02 0.  1.
       -1   -1    0    0    0  501  0.00000000000E+00  0.00000000000E+00 -0.28301040372E+03  0.28301040376E+03  0.50400001928E-02 0. -1.
    10030    2    1    2    0    0  0.00000000000E+00  0.00000000000E+00  0.12010480497E+04  0.17670688572E+04  0.12961542842E+04 0.  0.
        2    1    3    3  502    0  0.27432149894E+03 -0.32514283048E+03  0.12670644049E+04  0.13365711171E+04  0.25500000920E-02 0.  1.
       -2    1    3    3    0  502 -0.27432149894E+03  0.32514283048E+03 -0.66016355233E+02  0.43049774002E+03  0.25500000920E-02 0. -1.
</event>
<event>
 5   0  0.9284971E-04  0.1786784E+04  0.7818609E-02  0.8713359E-01
       -2   -1    0    0    0  501  0.00000000000E+00  0.00000000000E+00  0.91921798729E+03  0.91921798730E+03  0.25500000920E-02 0. -1.
        2   -1    0    0  501    0  0.00000000000E+00  0.00000000000E+00 -0.86829186353E+03  0.86829186353E+03  0.25500000920E-02 0.  1.
    10030    2    1    2    0    0  0.00000000000E+00  0.00000000000E+00  0.50926123766E+02  0.17875098508E+04  0.17867842614E+04 0.  0.
        4    1    3    3  502    0  0.50814860036E+03  0.47401286470E+03  0.58715761919E+03  0.90975759333E+03  0.12699999809E+01 0. -1.
       -4    1    3    3    0  502 -0.50814860036E+03 -0.47401286470E+03 -0.53623149543E+03  0.87775225750E+03  0.12699999809E+01 0.  1.
</event>
<event>
 5   0  0.9625225E-04  0.9265631E+03  0.7818609E-02  0.9392972E-01
       -2   -1    0    0    0  501  0.00000000000E+00  0.00000000000E+00  0.35002541539E+03  0.35002541540E+03  0.25500000920E-02 0.  1.
        2   -1    0    0  501    0  0.00000000000E+00  0.00000000000E+00 -0.61318348040E+03  0.61318348040E+03  0.25500000920E-02 0. -1.
    10030    2    1    2    0    0  0.00000000000E+00  0.00000000000E+00 -0.26315806501E+03  0.96320889580E+03  0.92656311699E+03 0.  0.
        1    1    3    3  502    0 -0.25071515656E+03 -0.36015981144E+03  0.22809480928E+02  0.43942400020E+03  0.50400001928E-02 0. -1.
       -1    1    3    3    0  502  0.25071515656E+03  0.36015981144E+03 -0.28596754594E+03  0.52378489560E+03  0.50400001928E-02 0.  1.
</event>
<event>
 5   0  0.9284971E-04  0.1736866E+04  0.7818609E-02  0.8740613E-01
       -2   -1    0    0    0  501  0.00000000000E+00  0.00000000000E+00  0.31239088410E+03  0.31239088411E+03  0.25500000920E-02 0. -1.
        2   -1    0    0  501    0  0.00000000000E+00  0.00000000000E+00 -0.24142051254E+04  0.24142051254E+04  0.25500000920E-02 0.  1.
    10030    2    1    2    0    0  0.00000000000E+00  0.00000000000E+00 -0.21018142413E+04  0.27265960095E+04  0.17368657675E+04 0.  0.
        4    1    3    3  502    0 -0.43240670032E+03  0.52132397421E+03 -0.19766093823E+03  0.70556764379E+03  0.12699999809E+01 0. -1.
       -4    1    3    3    0  502  0.43240670032E+03 -0.52132397421E+03 -0.19041533030E+04  0.20210283657E+04  0.12699999809E+01 0.  1.
</event>
<event>
 5   0  0.5059689E-04  0.1714782E+04  0.7818609E-02  0.8752978E-01
        1   -1    0    0  501    0  0.00000000000E+00  0.00000000000E+00  0.23150010882E+04  0.23150010882E+04  0.50400001928E-02 0. -1.
       -1   -1    0    0    0  501  0.00000000000E+00  0.00000000000E+00 -0.31754595227E+03  0.31754595231E+03  0.50400001928E-02 0.  1.
    10030    2    1    2    0    0  0.00000000000E+00  0.00000000000E+00  0.19974551359E+04  0.26325470405E+04  0.17147818813E+04 0.  0.
        5    1    3    3  502    0  0.35541425706E+03  0.27548730230E+03  0.21194132770E+04  0.21665980883E+04  0.46999998093E+01 0. -1.
       -5    1    3    3    0  502 -0.35541425706E+03 -0.27548730230E+03 -0.12195814104E+03  0.46594895216E+03  0.46999998093E+01 0.  1.
</event>
<event>
 5   0  0.1007187E-03  0.1711101E+04  0.7818609E-02  0.8755058E-01
       -2   -1    0    0    0  501  0.00000000000E+00  0.00000000000E+00  0.61439861237E+03  0.61439861237E+03  0.25500000920E-02 0. -1.
        2   -1    0    0  501    0  0.00000000000E+00  0.00000000000E+00 -0.11913542328E+04  0.11913542328E+04  0.25500000920E-02 0.  1.
    10030    2    1    2    0    0  0.00000000000E+00  0.00000000000E+00 -0.57695562046E+03  0.18057528452E+04  0.17111006838E+04 0.  0.
        5    1    3    3  502    0  0.79553548172E+03  0.19332176478E+03 -0.55060086983E+03  0.98662729299E+03  0.46999998093E+01 0.  1.
       -5    1    3    3    0  502 -0.79553548172E+03 -0.19332176478E+03 -0.26354750630E+02  0.81912555222E+03  0.46999998093E+01 0. -1.
</event>
<event>
 5   0  0.5059689E-04  0.1745512E+04  0.7818609E-02  0.8735824E-01
       -1   -1    0    0    0  501  0.00000000000E+00  0.00000000000E+00  0.74233918950E+03  0.74233918952E+03  0.50400001928E-02 0.  1.
        1   -1    0    0  501    0  0.00000000000E+00  0.00000000000E+00 -0.10260854341E+04  0.10260854341E+04  0.50400001928E-02 0. -1.
    10030    2    1    2    0    0  0.00000000000E+00  0.00000000000E+00 -0.28374624457E+03  0.17684246236E+04  0.17455124514E+04 0.  0.
        5    1    3    3  502    0  0.61340379423E+03  0.42576306401E+03  0.31587943870E+03  0.81076526272E+03  0.46999998093E+01 0.  1.
       -5    1    3    3    0  502 -0.61340379423E+03 -0.42576306401E+03 -0.59962568327E+03  0.95765936088E+03  0.46999998093E+01 0. -1.
</event>
<event>
 5   0  0.5009762E-04  0.1731453E+04  0.7818609E-02  0.8743626E-01
       -1   -1    0    0    0  501  0.00000000000E+00  0.00000000000E+00  0.81135707693E+03  0.81135707694E+03  0.50400001928E-02 0. -1.
        1   -1    0    0  501    0  0.00000000000E+00  0.00000000000E+00 -0.92373886650E+03  0.92373886652E+03  0.50400001928E-02 0.  1.
    10030    2    1    2    0    0  0.00000000000E+00  0.00000000000E+00 -0.11238178958E+03  0.17350959435E+04  0.17314526463E+04 0.  0.
        3    1    3    3  502    0  0.44847498075E+03  0.73502754041E+03 -0.14630654701E+03  0.87338474306E+03  0.10100000352E+00 0. -1.
       -3    1    3    3    0  502 -0.44847498075E+03 -0.73502754041E+03  0.33924757434E+02  0.86171120040E+03  0.10100000352E+00 0.  1.
</event>
<event>
 5   0  0.9312096E-04  0.1867036E+04  0.7818609E-02  0.8671441E-01
        2   -1    0    0  501    0  0.00000000000E+00  0.00000000000E+00  0.46340064855E+03  0.46340064855E+03  0.25500000920E-02 0.  1.
       -2   -1    0    0    0  501  0.00000000000E+00  0.00000000000E+00 -0.18805659505E+04  0.18805659505E+04  0.25500000920E-02 0. -1.
    10030    2    1    2    0    0  0.00000000000E+00  0.00000000000E+00 -0.14171653019E+04  0.23439665990E+04  0.18670355980E+04 0.  0.
        3    1    3    3  502    0 -0.77974577104E+03  0.37211754159E+03 -0.26474921515E+03  0.90364101796E+03  0.10100000352E+00 0.  1.
       -3    1    3    3    0  502  0.77974577104E+03 -0.37211754159E+03 -0.11524160868E+04  0.14403255811E+04  0.10100000352E+00 0. -1.
</event>
<event>
 5   0  0.5074133E-04  0.2216350E+04  0.7818609E-02  0.8511654E-01
       -1   -1    0    0    0  501  0.00000000000E+00  0.00000000000E+00  0.46133993572E+03  0.46133993575E+03  0.50400001928E-02 0.  1.
        1   -1    0    0  501    0  0.00000000000E+00  0.00000000000E+00 -0.26619236058E+04  0.26619236058E+04  0.50400001928E-02 0. -1.
    10030    2    1    2    0    0  0.00000000000E+00  0.00000000000E+00 -0.22005836701E+04  0.31232635416E+04  0.22163498508E+04 0.  0.
        1    1    3    3  502    0 -0.49319113583E+03 -0.10314922822E+03  0.29058500102E+03  0.58165015481E+03  0.50400001928E-02 0.  1.
       -1    1    3    3    0  502  0.49319113583E+03  0.10314922822E+03 -0.24911686711E+04  0.25416133867E+04  0.50400001928E-02 0. -1.
</event>
<event>
 5   0  0.5035495E-04  0.1722948E+04  0.7818609E-02  0.8748383E-01
        1   -1    0    0  501    0  0.00000000000E+00  0.00000000000E+00  0.10844998813E+04  0.10844998813E+04  0.50400001928E-02 0.  1.
       -1   -1    0    0    0  501  0.00000000000E+00  0.00000000000E+00 -0.68431326173E+03  0.68431326175E+03  0.50400001928E-02 0. -1.
    10030    2    1    2    0    0  0.00000000000E+00  0.00000000000E+00  0.40018661956E+03  0.17688131431E+04  0.17229482304E+04 0.  0.
        4    1    3    3  502    0  0.79343108995E+03 -0.33535366888E+03  0.21228636251E+03  0.88716519902E+03  0.12699999809E+01 0. -1.
       -4    1    3    3    0  502 -0.79343108995E+03  0.33535366888E+03  0.18790025705E+03  0.88164794404E+03  0.12699999809E+01 0.  1.
</event>
<event>
 5   0  0.5059689E-04  0.1688205E+04  0.7818609E-02  0.8768120E-01
       -1   -1    0    0    0  501  0.00000000000E+00  0.00000000000E+00  0.68328722688E+03  0.68328722690E+03  0.50400001928E-02 0.  1.
        1   -1    0    0  501    0  0.00000000000E+00  0.00000000000E+00 -0.10427660821E+04  0.10427660821E+04  0.50400001928E-02 0. -1.
    10030    2    1    2    0    0  0.00000000000E+00  0.00000000000E+00 -0.35947885519E+03  0.17260533090E+04  0.16882046612E+04 0.  0.
        5    1    3    3  502    0  0.22256401071E+03 -0.67512653824E+03 -0.64508752705E+03  0.95994301344E+03  0.46999998093E+01 0. -1.
       -5    1    3    3    0  502 -0.22256401071E+03  0.67512653824E+03  0.28560867186E+03  0.76611029555E+03  0.46999998093E+01 0.  1.
</event>
<event>
 5   0  0.5035495E-04  0.1710722E+04  0.7818609E-02  0.8755273E-01
        1   -1    0    0  501    0  0.00000000000E+00  0.00000000000E+00  0.15211581025E+04  0.15211581025E+04  0.50400001928E-02 0. -1.
       -1   -1    0    0    0  501  0.00000000000E+00  0.00000000000E+00 -0.48097737800E+03  0.48097737802E+03  0.50400001928E-02 0.  1.
    10030    2    1    2    0    0  0.00000000000E+00  0.00000000000E+00  0.10401807245E+04  0.20021354806E+04  0.17107222284E+04 0.  0.
        4    1    3    3  502    0 -0.55352643928E+03  0.49584733755E+03  0.10157766798E+04  0.12585944451E+04  0.12699999809E+01 0. -1.
       -4    1    3    3    0  502  0.55352643928E+03 -0.49584733755E+03  0.24404044767E+02  0.74354103548E+03  0.12699999809E+01 0.  1.
</event>
<event>
 5   0  0.5074133E-04  0.1298655E+04  0.7818609E-02  0.9030633E-01
        1   -1    0    0  501    0  0.00000000000E+00  0.00000000000E+00  0.11367459736E+04  0.11367459736E+04  0.50400001928E-02 0. -1.
       -1   -1    0    0    0  501  0.00000000000E+00  0.00000000000E+00 -0.37090612116E+03  0.37090612119E+03  0.50400001928E-02 0.  1.
    10030    2    1    2    0    0  0.00000000000E+00  0.00000000000E+00  0.76583985247E+03  0.15076520948E+04  0.12986547499E+04 0.  0.
        1    1    3    3  502    0 -0.61113244183E+03 -0.17704326385E+03  0.23245081816E+03  0.67739247237E+03  0.50400001928E-02 0. -1.
       -1    1    3    3    0  502  0.61113244183E+03  0.17704326385E+03  0.53338903431E+03  0.83025962246E+03  0.50400001928E-02 0.  1.
</event>
<event>
 5   0  0.9284971E-04  0.1773677E+04  0.7818609E-02  0.8720424E-01
       -2   -1    0    0    0  501  0.00000000000E+00  0.00000000000E+00  0.61343374785E+03  0.61343374786E+03  0.25500000920E-02 0.  1.
        2   -1    0    0  501    0  0.00000000000E+00  0.00000000000E+00 -0.12820986934E+04  0.12820986934E+04  0.25500000920E-02 0. -1.
    10030    2    1    2    0    0  0.00000000000E+00  0.00000000000E+00 -0.66866494555E+03  0.18955324413E+04  0.17736770919E+04 0.  0.
        4    1    3    3  502    0 -0.11366334299E+03 -0.53129173973E+03  0.41474363900E+03  0.68352334798E+03  0.12699999809E+01 0.  1.
       -4    1    3    3    0  502  0.11366334299E+03  0.53129173973E+03 -0.10834085845E+04  0.12120090933E+04  0.12699999809E+01 0. -1.
</event>
<event>
 5   0  0.5035495E-04  0.1445333E+04  0.7818609E-02  0.8921643E-01
       -1   -1    0    0    0  501  0.00000000000E+00  0.00000000000E+00  0.66567716586E+03  0.66567716588E+03  0.50400001928E-02 0.  1.
        1   -1    0    0  501    0  0.00000000000E+00  0.00000000000E+00 -0.78453454080E+03  0.78453454082E+03  0.50400001928E-02 0. -1.
    10030    2    1    2    0    0  0.00000000000E+00  0.00000000000E+00 -0.11885737494E+03  0.14502117067E+04  0.14453328055E+04 0.  0.
        4    1    3    3  502    0 -0.38830800594E+03  0.42998233112E+03 -0.49283260933E+03  0.76062704808E+03  0.12699999809E+01 0. -1.
       -4    1    3    3    0  502  0.38830800594E+03 -0.42998233112E+03  0.37397523439E+03  0.68958465861E+03  0.12699999809E+01 0.  1.
</event>
<event>
 5   0  0.5074133E-04  0.1322694E+04  0.7818609E-02  0.9011760E-01
       -1   -1    0    0    0  501  0.00000000000E+00  0.00000000000E+00  0.10172636192E+04  0.10172636192E+04  0.50400001928E-02 0.  1.
        1   -1    0    0  501    0  0.00000000000E+00  0.00000000000E+00 -0.42995723467E+03  0.42995723470E+03  0.50400001928E-02 0. -1.
    10030    2    1    2    0    0  0.00000000000E+00  0.00000000000E+00  0.58730638456E+03  0.14472208539E+04  0.13226939974E+04 0.  0.
        1    1    3    3  502    0 -0.17571499336E+03  0.58458055936E+03  0.57211218592E+03  0.83661373559E+03  0.50400001928E-02 0.  1.
       -1    1    3    3    0  502  0.17571499336E+03 -0.58458055936E+03  0.15194198639E+02  0.61060711834E+03  0.50400001928E-02 0. -1.
</event>
<event>
 5   0  0.5009762E-04  0.1555339E+04  0.7818609E-02  0.8848465E-01
        1   -1    0    0  501    0  0.00000000000E+00  0.00000000000E+00  0.16991910623E+04  0.16991910623E+04  0.50400001928E-02 0.  1.
       -1   -1    0    0    0  501  0.00000000000E+00  0.00000000000E+00 -0.35591638770E+03  0.35591638774E+03  0.50400001928E-02 0. -1.
    10030    2    1    2    0    0  0.00000000000E+00  0.00000000000E+00  0.13432746746E+04  0.20551074501E+04  0.15553391205E+04 0.  0.
        3    1    3    3  502    0  0.45665548144E+03 -0.59665646575E+03  0.93668317104E+03  0.12007949617E+04  0.10100000352E+00 0.  1.
       -3    1    3    3    0  502 -0.45665548144E+03  0.59665646575E+03  0.40659150357E+03  0.85431248839E+03  0.10100000352E+00 0. -1.
</event>
<event>
 5   0  0.5009762E-04  0.1702070E+04  0.7818609E-02  0.8760185E-01
        1   -1    0    0  501    0  0.00000000000E+00  0.00000000000E+00  0.15327770547E+04  0.15327770547E+04  0.50400001928E-02 0. -1.
       -1   -1    0    0    0  501  0.00000000000E+00  0.00000000000E+00 -0.47251530371E+03  0.47251530374E+03  0.50400001928E-02 0.  1.
    10030    2    1    2    0    0  0.00000000000E+00  0.00000000000E+00  0.10602617510E+04  0.20052923585E+04  0.17020700521E+04 0.  0.
        3    1    3    3  502    0 -0.44889169567E+03  0.64290627234E+03  0.91986213887E+03  0.12087094747E+04  0.10100000352E+00 0. -1.
       -3    1    3    3    0  502  0.44889169567E+03 -0.64290627234E+03  0.14039961215E+03  0.79658288379E+03  0.10100000352E+00 0.  1.
</event>
<event>
 5   0  0.9284971E-04  0.1711578E+04  0.7818609E-02  0.8754788E-01
        2   -1    0    0  501    0  0.00000000000E+00  0.00000000000E+00  0.92297233544E+03  0.92297233545E+03  0.25500000920E-02 0.  1.
       -2   -1    0    0    0  501  0.00000000000E+00  0.00000000000E+00 -0.79349636833E+03  0.79349636833E+03  0.25500000920E-02 0. -1.
    10030    2    1    2    0    0  0.00000000000E+00  0.00000000000E+00  0.12947596712E+03  0.17164687038E+04  0.17115784484E+04 0.  0.
        4    1    3    3  502    0  0.74434819371E+02  0.62214440243E+03  0.64930081931E+03  0.90232885727E+03  0.12699999809E+01 0.  1.
       -4    1    3    3    0  502 -0.74434819371E+02 -0.62214440243E+03 -0.51982485219E+03  0.81413984650E+03  0.12699999809E+01 0. -1.
</event>
<event>
 5   0  0.4947006E-04  0.1679975E+04  0.7818609E-02  0.8772869E-01
       -1   -1    0    0    0  501  0.00000000000E+00  0.00000000000E+00  0.92436268288E+03  0.92436268289E+03  0.50400001928E-02 0. -1.
        1   -1    0    0  501    0  0.00000000000E+00  0.00000000000E+00 -0.76331368932E+03  0.76331368933E+03  0.50400001928E-02 0.  1.
    10030    2    1    2    0    0  0.00000000000E+00  0.00000000000E+00  0.16104899356E+03  0.16876763722E+04  0.16799746305E+04 0.  0.
        2    1    3    3  502    0 -0.20157872269E+03 -0.72134835527E+03  0.46253251915E+03  0.88029186204E+03  0.25500000920E-02 0. -1.
       -2    1    3    3    0  502  0.20157872269E+03  0.72134835527E+03 -0.30148352559E+03  0.80738451019E+03  0.25500000920E-02 0.  1.
</event>
<event>
 5   0  0.5035495E-04  0.1616089E+04  0.7818609E-02  0.8810725E-01
        1   -1    0    0  501    0  0.00000000000E+00  0.00000000000E+00  0.96262654163E+03  0.96262654164E+03  0.50400001928E-02 0.  1.
       -1   -1    0    0    0  501  0.00000000000E+00  0.00000000000E+00 -0.67828544985E+03  0.67828544986E+03  0.50400001928E-02 0. -1.
    10030    2    1    2    0    0  0.00000000000E+00  0.00000000000E+00  0.28434109178E+03  0.16409119915E+04  0.16160885828E+04 0.  0.
        4    1    3    3  502    0 -0.46450919882E+03 -0.64175938534E+03 -0.19364481472E+02  0.79246482604E+03  0.12699999809E+01 0.  1.
       -4    1    3    3    0  502  0.46450919882E+03  0.64175938534E+03  0.30370557325E+03  0.84844716547E+03  0.12699999809E+01 0. -1.
</event>
<event>
 5   0  0.9284971E-04  0.1723794E+04  0.7818609E-02  0.8747909E-01
       -2   -1    0    0    0  501  0.00000000000E+00  0.00000000000E+00  0.87775115559E+03  0.87775115560E+03  0.25500000920E-02 0.  1.
        2   -1    0    0  501    0  0.00000000000E+00  0.00000000000E+00 -0.84632912532E+03  0.84632912533E+03  0.25500000920E-02 0. -1.
    10030    2    1    2    0    0  0.00000000000E+00  0.00000000000E+00  0.31422030270E+02  0.17240802809E+04  0.17237939178E+04 0.  0.
        4    1    3    3  502    0 -0.38850408230E+03  0.15216619490E+03 -0.73858585728E+03  0.84829278808E+03  0.12699999809E+01 0. -1.
       -4    1    3    3    0  502  0.38850408230E+03 -0.15216619490E+03  0.77000788755E+03  0.87578749285E+03  0.12699999809E+01 0.  1.
</event>
<event>
 5   0  0.1007187E-03  0.1752275E+04  0.7818609E-02  0.8732099E-01
       -2   -1    0    0    0  501  0.00000000000E+00  0.00000000000E+00  0.46985498632E+03  0.46985498633E+03  0.25500000920E-02 0.  1.
        2   -1    0    0  501    0  0.00000000000E+00  0.00000000000E+00 -0.16337316017E+04  0.16337316017E+04  0.25500000920E-02 0. -1.
    10030    2    1    2    0    0  0.00000000000E+00  0.00000000000E+00 -0.11638766154E+04  0.21035865881E+04  0.17522750234E+04 0.  0.
        5    1    3    3  502    0  0.72104791169E+03 -0.25206694678E+03 -0.66780292084E+02  0.76676563174E+03  0.46999998093E+01 0.  1.
       -5    1    3    3    0  502 -0.72104791169E+03  0.25206694678E+03 -0.10970963233E+04  0.13368209563E+04  0.46999998093E+01 0. -1.
</event>
<event>
 5   0  0.5035495E-04  0.1676761E+04  0.7818609E-02  0.8774731E-01
       -1   -1    0    0    0  501  0.00000000000E+00  0.00000000000E+00  0.86554309251E+03  0.86554309253E+03  0.50400001928E-02 0. -1.
        1   -1    0    0  501    0  0.00000000000E+00  0.00000000000E+00 -0.81207019591E+03  0.81207019592E+03  0.50400001928E-02 0.  1.
    10030    2    1    2    0    0  0.00000000000E+00  0.00000000000E+00  0.53472896607E+02  0.16776132885E+04  0.16767608640E+04 0.  0.
        4    1    3    3  502    0 -0.56868513119E+03 -0.12248058800E+03 -0.57728883139E+03  0.81955370819E+03  0.12699999809E+01 0.  1.
       -4    1    3    3    0  502  0.56868513119E+03  0.12248058800E+03  0.63076172799E+03  0.85805958026E+03  0.12699999809E+01 0. -1.
</event>
<event>
 5   0  0.9284971E-04  0.1728098E+04  0.7818609E-02  0.8745499E-01
       -2   -1    0    0    0  501  0.00000000000E+00  0.00000000000E+00  0.88812871194E+03  0.88812871194E+03  0.25500000920E-02 0. -1.
        2   -1    0    0  501    0  0.00000000000E+00  0.00000000000E+00 -0.84062264393E+03  0.84062264393E+03  0.25500000920E-02 0.  1.
    10030    2    1    2    0    0  0.00000000000E+00  0.00000000000E+00  0.47506068012E+02  0.17287513559E+04  0.17280984995E+04 0.  0.
        4    1    3    3  502    0  0.18330777654E+03  0.63899601661E+03 -0.52841730392E+03  0.84920204320E+03  0.12699999809E+01 0.  1.
       -4    1    3    3    0  502 -0.18330777654E+03 -0.63899601661E+03  0.57592337193E+03  0.87954931267E+03  0.12699999809E+01 0. -1.
</event>
<event>
 5   0  0.9312096E-04  0.1714981E+04  0.7818609E-02  0.8752866E-01
        2   -1    0    0  501    0  0.00000000000E+00  0.00000000000E+00  0.32433430352E+03  0.32433430353E+03  0.25500000920E-02 0.  1.
       -2   -1    0    0    0  501  0.00000000000E+00  0.00000000000E+00 -0.22670742064E+04  0.22670742064E+04  0.25500000920E-02 0. -1.
    10030    2    1    2    0    0  0.00000000000E+00  0.00000000000E+00 -0.19427399029E+04  0.25914085099E+04  0.17149809722E+04 0.  0.
        3    1    3    3  502    0 -0.10325503964E+03 -0.36520270642E+03 -0.21332575049E+04  0.21667538421E+04  0.10100000352E+00 0. -1.
       -3    1    3    3    0  502  0.10325503964E+03  0.36520270642E+03  0.19051760203E+03  0.42465466778E+03  0.10100000352E+00 0.  1.
</event>
<event>
 5   0  0.5059689E-04  0.1693997E+04  0.7818609E-02  0.8764795E-01
        1   -1    0    0  501    0  0.00000000000E+00  0.00000000000E+00  0.13502767911E+04  0.13502767911E+04  0.50400001928E-02 0. -1.
       -1   -1    0    0    0  501  0.00000000000E+00  0.00000000000E+00 -0.53130332265E+03  0.53130332267E+03  0.50400001928E-02 0.  1.
    10030    2    1    2    0    0  0.00000000000E+00  0.00000000000E+00  0.81897346841E+03  0.18815801137E+04  0.16939971023E+04 0.  0.
        5    1    3    3  502    0 -0.59252588437E+01 -0.62090967392E+03  0.10493124240E+04  0.12192795352E+04  0.46999998093E+01 0. -1.
       -5    1    3    3    0  502  0.59252588437E+01  0.62090967392E+03 -0.23033895558E+03  0.66230057853E+03  0.46999998093E+01 0.  1.
</event>
<event>
 5   0  0.9610114E-04  0.1704977E+04  0.7818609E-02  0.8758531E-01
       -2   -1    0    0    0  501  0.00000000000E+00  0.00000000000E+00  0.37189883928E+03  0.37189883929E+03  0.25500000920E-02 0. -1.
        2   -1    0    0  501    0  0.00000000000E+00  0.00000000000E+00 -0.19541235728E+04  0.19541235728E+04  0.25500000920E-02 0.  1.
    10030    2    1    2    0    0  0.00000000000E+00  0.00000000000E+00 -0.15822247335E+04  0.23260224121E+04  0.17049765846E+04 0.  0.
        2    1    3    3  502    0 -0.83386010306E+03  0.85392442663E+02 -0.10029971957E+04  0.13071411230E+04  0.25500000920E-02 0.  1.
       -2    1    3    3    0  502  0.83386010306E+03 -0.85392442663E+02 -0.57922753777E+03  0.10188812891E+04  0.25500000920E-02 0. -1.
</event>
<event>
 5   0  0.3523125E-04  0.1239146E+04  0.7818609E-02  0.9079266E-01
       -3   -1    0    0    0  501  0.00000000000E+00  0.00000000000E+00  0.16068165139E+04  0.16068165171E+04  0.10100000352E+00 0. -1.
        3   -1    0    0  501    0  0.00000000000E+00  0.00000000000E+00 -0.23890126841E+03  0.23890128976E+03  0.10100000352E+00 0.  1.
    10030    2    1    2    0    0  0.00000000000E+00  0.00000000000E+00  0.13679152455E+04  0.18457178069E+04  0.12391457153E+04 0.  0.
        2    1    3    3  502    0  0.50619845633E+03  0.30614072428E+03  0.95825171828E+03  0.11261462498E+04  0.25500000920E-02 0.  1.
       -2    1    3    3    0  502 -0.50619845633E+03 -0.30614072428E+03  0.40966352725E+03  0.71957155712E+03  0.25500000920E-02 0. -1.
</event>
<event>
 5   0  0.9610114E-04  0.1596896E+04  0.7818609E-02  0.8822457E-01
        2   -1    0    0  501    0  0.00000000000E+00  0.00000000000E+00  0.13333894875E+04  0.13333894875E+04  0.25500000920E-02 0.  1.
       -2   -1    0    0    0  501  0.00000000000E+00  0.00000000000E+00 -0.47811922508E+03  0.47811922508E+03  0.25500000920E-02 0. -1.
    10030    2    1    2    0    0  0.00000000000E+00  0.00000000000E+00  0.85527026240E+03  0.18115087126E+04  0.15968959246E+04 0.  0.
        2    1    3    3  502    0  0.54516704381E+03  0.54719598330E+03  0.65702008526E+03  0.10140542107E+04  0.25500000920E-02 0.  1.
       -2    1    3    3    0  502 -0.54516704381E+03 -0.54719598330E+03  0.19825017714E+03  0.79745450186E+03  0.25500000920E-02 0. -1.
</event>
<event>
 5   0  0.5009762E-04  0.1724480E+04  0.7818609E-02  0.8747524E-01
       -1   -1    0    0    0  501  0.00000000000E+00  0.00000000000E+00  0.96116988992E+03  0.96116988993E+03  0.50400001928E-02 0. -1.
        1   -1    0    0  501    0  0.00000000000E+00  0.00000000000E+00 -0.77349256163E+03  0.77349256164E+03  0.50400001928E-02 0.  1.
    10030    2    1    2    0    0  0.00000000000E+00  0.00000000000E+00  0.18767732829E+03  0.17346624516E+04  0.17244799336E+04 0.  0.
        3    1    3    3  502    0  0.28719743482E+03  0.67348071872E+03 -0.36426131471E+03  0.81776828053E+03  0.10100000352E+00 0. -1.
       -3    1    3    3    0  502 -0.28719743482E+03 -0.67348071872E+03  0.55193864300E+03  0.91689417104E+03  0.10100000352E+00 0.  1.
</event>
<event>
 5   0  0.9312096E-04  0.1746616E+04  0.7818609E-02  0.8735215E-01
        2   -1    0    0  501    0  0.00000000000E+00  0.00000000000E+00  0.16517288010E+04  0.16517288010E+04  0.25500000920E-02 0.  1.
       -2   -1    0    0    0  501  0.00000000000E+00  0.00000000000E+00 -0.46173871367E+03  0.46173871368E+03  0.25500000920E-02 0. -1.
    10030    2    1    2    0    0  0.00000000000E+00  0.00000000000E+00  0.11899900873E+04  0.21134675147E+04  0.17466163081E+04 0.  0.
        3    1    3    3  502    0 -0.16970806202E+03 -0.40594508065E+03 -0.31781997375E+03  0.54277231022E+03  0.10100000352E+00 0. -1.
       -3    1    3    3    0  502  0.16970806202E+03  0.40594508065E+03  0.15078100611E+04  0.15706952045E+04  0.10100000352E+00 0.  1.
</event>
<event>
 5   0  0.4947006E-04  0.1661667E+04  0.7818609E-02  0.8783534E-01
        1   -1    0    0  501    0  0.00000000000E+00  0.00000000000E+00  0.11625722610E+04  0.11625722610E+04  0.50400001928E-02 0.  1.
       -1   -1    0    0    0  501  0.00000000000E+00  0.00000000000E+00 -0.59375611916E+03  0.59375611918E+03  0.50400001928E-02 0. -1.
    10030    2    1    2    0    0  0.00000000000E+00  0.00000000000E+00  0.56881614188E+03  0.17563283802E+04  0.16616671074E+04 0.  0.
        2    1    3    3  502    0 -0.34667871828E+03 -0.12258013188E+03  0.10718825748E+04  0.11332008986E+04  0.25500000920E-02 0.  1.
       -2    1    3    3    0  502  0.34667871828E+03  0.12258013188E+03 -0.50306643291E+03  0.62312748163E+03  0.25500000920E-02 0. -1.
</event>
<event>
 5   0  0.5074133E-04  0.1670590E+04  0.7818609E-02  0.8778318E-01
       -1   -1    0    0    0  501  0.00000000000E+00  0.00000000000E+00  0.61112368216E+03  0.61112368218E+03  0.50400001928E-02 0. -1.
        1   -1    0    0  501    0  0.00000000000E+00  0.00000000000E+00 -0.11416962628E+04  0.11416962628E+04  0.50400001928E-02 0.  1.
    10030    2    1    2    0    0  0.00000000000E+00  0.00000000000E+00 -0.53057258067E+03  0.17528199450E+04  0.16705898648E+04 0.  0.
        1    1    3    3  502    0  0.40474106433E+03  0.12314930681E+02 -0.10318295468E+04  0.11084399850E+04  0.50400001928E-02 0.  1.
       -1    1    3    3    0  502 -0.40474106433E+03 -0.12314930681E+02  0.50125696617E+03  0.64437995999E+03  0.50400001928E-02 0. -1.
</event>
<event>
 5   0  0.9610114E-04  0.1690915E+04  0.7818609E-02  0.8766563E-01
        2   -1    0    0  501    0  0.00000000000E+00  0.00000000000E+00  0.67660162532E+03  0.67660162532E+03  0.25500000920E-02 0. -1.
       -2   -1    0    0    0  501  0.00000000000E+00  0.00000000000E+00 -0.10564544589E+04  0.10564544589E+04  0.25500000920E-02 0.  1.
    10030    2    1    2    0    0  0.00000000000E+00  0.00000000000E+00 -0.37985283360E+03  0.17330560842E+04  0.16909154964E+04 0.  0.
        2    1    3    3  502    0 -0.49678967833E+03  0.97546570170E+02 -0.88391537712E+03  0.10186371836E+04  0.25500000920E-02 0.  1.
       -2    1    3    3    0  502  0.49678967833E+03 -0.97546570170E+02  0.50406254352E+03  0.71441890067E+03  0.25500000920E-02 0. -1.
</event>
<event>
 5   0  0.5009762E-04  0.1724277E+04  0.7818609E-02  0.8747638E-01
        1   -1    0    0  501    0  0.00000000000E+00  0.00000000000E+00  0.73956421984E+03  0.73956421986E+03  0.50400001928E-02 0.  1.
       -1   -1    0    0    0  501  0.00000000000E+00  0.00000000000E+00 -0.10050277967E+04  0.10050277967E+04  0.50400001928E-02 0. -1.
    10030    2    1    2    0    0  0.00000000000E+00  0.00000000000E+00 -0.26546357682E+03  0.17445920165E+04  0.17242767741E+04 0.  0.
        3    1    3    3  502    0  0.83137980793E+03  0.22047060190E+03 -0.73020223228E+02  0.86321007556E+03  0.10100000352E+00 0. -1.
       -3    1    3    3    0  502 -0.83137980793E+03 -0.22047060190E+03 -0.19244335359E+03  0.88138194098E+03  0.10100000352E+00 0.  1.
</event>
<event>
 5   0  0.9284971E-04  0.1722777E+04  0.7818609E-02  0.8748480E-01
       -2   -1    0    0    0  501  0.00000000000E+00  0.00000000000E+00  0.50389690178E+03  0.50389690179E+03  0.25500000920E-02 0. -1.
        2   -1    0    0  501    0  0.00000000000E+00  0.00000000000E+00 -0.14725031500E+04  0.14725031500E+04  0.25500000920E-02 0.  1.
    10030    2    1    2    0    0  0.00000000000E+00  0.00000000000E+00 -0.96860624822E+03  0.19764000518E+04  0.17227765672E+04 0.  0.
        4    1    3    3  502    0  0.22757933395E+03  0.51880103723E+03  0.26010010072E+03  0.62337833197E+03  0.12699999809E+01 0. -1.
       -4    1    3    3    0  502 -0.22757933395E+03 -0.51880103723E+03 -0.12287063489E+04  0.13530217198E+04  0.12699999809E+01 0.  1.
</event>
<event>
 5   0  0.9312096E-04  0.1856870E+04  0.7818609E-02  0.8676628E-01
        2   -1    0    0  501    0  0.00000000000E+00  0.00000000000E+00  0.11538017980E+04  0.11538017980E+04  0.25500000920E-02 0. -1.
       -2   -1    0    0    0  501  0.00000000000E+00  0.00000000000E+00 -0.74708835126E+03  0.74708835126E+03  0.25500000920E-02 0.  1.
    10030    2    1    2    0    0  0.00000000000E+00  0.00000000000E+00  0.40671344676E+03  0.19008901493E+04  0.18568703595E+04 0.  0.
        3    1    3    3  502    0  0.70119998237E+03 -0.13862370657E+02  0.82615257495E+03  0.10836981443E+04  0.10100000352E+00 0.  1.
       -3    1    3    3    0  502 -0.70119998237E+03  0.13862370657E+02 -0.41943912819E+03  0.81719200501E+03  0.10100000352E+00 0. -1.
</event>
<event>
 5   0  0.1007187E-03  0.1707548E+04  0.7818609E-02  0.8757071E-01
       -2   -1    0    0    0  501  0.00000000000E+00  0.00000000000E+00  0.10426785384E+04  0.10426785384E+04  0.25500000920E-02 0.  1.
        2   -1    0    0  501    0  0.00000000000E+00  0.00000000000E+00 -0.69909359487E+03  0.69909359488E+03  0.25500000920E-02 0. -1.
    10030    2    1    2    0    0  0.00000000000E+00  0.00000000000E+00  0.34358494355E+03  0.17417721333E+04  0.17075478180E+04 0.  0.
        5    1    3    3  502    0  0.59012173265E+03 -0.37517362237E+03  0.67141456607E+03  0.96944237363E+03  0.46999998093E+01 0.  1.
       -5    1    3    3    0  502 -0.59012173265E+03  0.37517362237E+03 -0.32782962252E+03  0.77232975967E+03  0.46999998093E+01 0. -1.
</event>
<event>
 5   0  0.5035495E-04  0.1699688E+04  0.7818609E-02  0.8761542E-01
       -1   -1    0    0    0  501  0.00000000000E+00  0.00000000000E+00  0.48447123744E+03  0.48447123746E+03  0.50400001928E-02 0.  1.
        1   -1    0    0  501    0  0.00000000000E+00  0.00000000000E+00 -0.14907690055E+04  0.14907690055E+04  0.50400001928E-02 0. -1.
    10030    2    1    2    0    0  0.00000000000E+00  0.00000000000E+00 -0.10062977681E+04  0.19752402430E+04  0.16996878594E+04 0.  0.
        4    1    3    3  502    0 -0.23782049784E+03 -0.65623780099E+03  0.60241103441E+02  0.70059777625E+03  0.12699999809E+01 0.  1.
       -4    1    3    3    0  502  0.23782049784E+03  0.65623780099E+03 -0.10665388715E+04  0.12746424668E+04  0.12699999809E+01 0. -1.
</event>
<event>
 5   0  0.5009762E-04  0.1716566E+04  0.7818609E-02  0.8751972E-01
        1   -1    0    0  501    0  0.00000000000E+00  0.00000000000E+00  0.18664604434E+04  0.18664604434E+04  0.50400001928E-02 0. -1.
       -1   -1    0    0    0  501  0.00000000000E+00  0.00000000000E+00 -0.39467734911E+03  0.39467734914E+03  0.50400001928E-02 0.  1.
    10030    2    1    2    0    0  0.00000000000E+00  0.00000000000E+00  0.14717830943E+04  0.22611377926E+04  0.17165659440E+04 0.  0.
        3    1    3    3  502    0 -0.46838117284E+03  0.77587753179E+01  0.16832173693E+04  0.17471868372E+04  0.10100000352E+00 0. -1.
       -3    1    3    3    0  502  0.46838117284E+03 -0.77587753179E+01 -0.21143427498E+03  0.51395095535E+03  0.10100000352E+00 0.  1.
</event>
<event>
 5   0  0.5059689E-04  0.1728376E+04  0.7818609E-02  0.8745344E-01
       -1   -1    0    0    0  501  0.00000000000E+00  0.00000000000E+00  0.62230755397E+03  0.62230755399E+03  0.50400001928E-02 0.  1.
        1   -1    0    0  501    0  0.00000000000E+00  0.00000000000E+00 -0.12000831678E+04  0.12000831678E+04  0.50400001928E-02 0. -1.
    10030    2    1    2    0    0  0.00000000000E+00  0.00000000000E+00 -0.57777561379E+03  0.18223907218E+04  0.17283759090E+04 0.  0.
        5    1    3    3  502    0 -0.23412254985E+03 -0.71915917715E+03 -0.72971496376E+03  0.10509563781E+04  0.46999998093E+01 0. -1.
       -5    1    3    3    0  502  0.23412254985E+03  0.71915917715E+03  0.15193934997E+03  0.77143434361E+03  0.46999998093E+01 0.  1.
</event>
<event>
 5   0  0.9284971E-04  0.1710785E+04  0.7818609E-02  0.8755237E-01
        2   -1    0    0  501    0  0.00000000000E+00  0.00000000000E+00  0.17380156092E+04  0.17380156092E+04  0.25500000920E-02 0. -1.
       -2   -1    0    0    0  501  0.00000000000E+00  0.00000000000E+00 -0.42099513708E+03  0.42099513709E+03  0.25500000920E-02 0.  1.
    10030    2    1    2    0    0  0.00000000000E+00  0.00000000000E+00  0.13170204721E+04  0.21590107463E+04  0.17107847552E+04 0.  0.
        4    1    3    3  502    0  0.68701052105E+03 -0.27088723378E+03  0.12032664252E+04  0.14118126831E+04  0.12699999809E+01 0. -1.
       -4    1    3    3    0  502 -0.68701052105E+03  0.27088723378E+03  0.11375404694E+03  0.74719806314E+03  0.12699999809E+01 0.  1.
</event>
<event>
 5   0  0.9625225E-04  0.1711098E+04  0.7818609E-02  0.8755060E-01
        2   -1    0    0  501    0  0.00000000000E+00  0.00000000000E+00  0.97956805774E+03  0.97956805774E+03  0.25500000920E-02 0.  1.
       -2   -1    0    0    0  501  0.00000000000E+00  0.00000000000E+00 -0.74723156343E+03  0.74723156343E+03  0.25500000920E-02 0. -1.
    10030    2    1    2    0    0  0.00000000000E+00  0.00000000000E+00  0.23233649431E+03  0.17267996212E+04  0.17110980934E+04 0.  0.
        1    1    3    3  502    0 -0.85823126775E+02 -0.70132841967E+02  0.97229237761E+03  0.97858913350E+03  0.50400001928E-02 0.  1.
       -1    1    3    3    0  502  0.85823126775E+02  0.70132841967E+02 -0.73995588330E+03  0.74821048768E+03  0.50400001928E-02 0. -1.
</event>
<event>
 5   0  0.1007187E-03  0.1713323E+04  0.7818609E-02  0.8753802E-01
       -2   -1    0    0    0  501  0.00000000000E+00  0.00000000000E+00  0.90727830943E+03  0.90727830944E+03  0.25500000920E-02 0. -1.
        2   -1    0    0  501    0  0.00000000000E+00  0.00000000000E+00 -0.80886891843E+03  0.80886891843E+03  0.25500000920E-02 0.  1.
    10030    2    1    2    0    0  0.00000000000E+00  0.00000000000E+00  0.98409391009E+02  0.17161472279E+04  0.17133233494E+04 0.  0.
        5    1    3    3  502    0 -0.44905439408E+03 -0.13939368591E+03  0.76646221608E+03  0.89920346261E+03  0.46999998093E+01 0. -1.
       -5    1    3    3    0  502  0.44905439408E+03  0.13939368591E+03 -0.66805282507E+03  0.81694376525E+03  0.46999998093E+01 0.  1.
</event>
<event>
 5   0  0.9284971E-04  0.1721335E+04  0.7818609E-02  0.8749289E-01
       -2   -1    0    0    0  501  0.00000000000E+00  0.00000000000E+00  0.55693893658E+03  0.55693893659E+03  0.25500000920E-02 0.  1.
        2   -1    0    0  501    0  0.00000000000E+00  0.00000000000E+00 -0.13300352163E+04  0.13300352163E+04  0.25500000920E-02 0. -1.
    10030    2    1    2    0    0  0.00000000000E+00  0.00000000000E+00 -0.77309627967E+03  0.18869741528E+04  0.17213348297E+04 0.  0.
        4    1    3    3  502    0 -0.38492667449E+03 -0.57594858771E+03  0.17334553336E+03  0.71409775750E+03  0.12699999809E+01 0.  1.
       -4    1    3    3    0  502  0.38492667449E+03  0.57594858771E+03 -0.94644181303E+03  0.11728763954E+04  0.12699999809E+01 0. -1.
</event>
<event>
 5   0  0.9610114E-04  0.1687994E+04  0.7818609E-02  0.8768242E-01
       -2   -1    0    0    0  501  0.00000000000E+00  0.00000000000E+00  0.75256627771E+03  0.75256627771E+03  0.25500000920E-02 0. -1.
        2   -1    0    0  501    0  0.00000000000E+00  0.00000000000E+00 -0.94653555466E+03  0.94653555466E+03  0.25500000920E-02 0.  1.
    10030    2    1    2    0    0  0.00000000000E+00  0.00000000000E+00 -0.19396927695E+03  0.16991018324E+04  0.16879937667E+04 0.  0.
        2    1    3    3  502    0  0.35883588338E+03  0.15946186476E+03 -0.84898826371E+03  0.93539956673E+03  0.25500000920E-02 0.  1.
       -2    1    3    3    0  502 -0.35883588338E+03 -0.15946186476E+03  0.65501898677E+03  0.76370226564E+03  0.25500000920E-02 0. -1.
</event>
<event>
 5   0  0.1007187E-03  0.1706763E+04  0.7818609E-02  0.8757517E-01
        2   -1    0    0  501    0  0.00000000000E+00  0.00000000000E+00  0.79866812628E+03  0.79866812629E+03  0.25500000920E-02 0.  1.
       -2   -1    0    0    0  501  0.00000000000E+00  0.00000000000E+00 -0.91184303201E+03  0.91184303201E+03  0.25500000920E-02 0. -1.
    10030    2    1    2    0    0  0.00000000000E+00  0.00000000000E+00 -0.11317490572E+03  0.17105111583E+04  0.17067629781E+04 0.  0.
        5    1    3    3  502    0  0.27282327276E+03 -0.57266117559E+03 -0.62868651187E+03  0.89310815717E+03  0.46999998093E+01 0. -1.
       -5    1    3    3    0  502 -0.27282327276E+03  0.57266117559E+03  0.51551160615E+03  0.81740300113E+03  0.46999998093E+01 0.  1.
</event>
<event>
 5   0  0.1007187E-03  0.1725092E+04  0.7818609E-02  0.8747182E-01
       -2   -1    0    0    0  501  0.00000000000E+00  0.00000000000E+00  0.52374776862E+03  0.52374776862E+03  0.25500000920E-02 0.  1.
        2   -1    0    0  501    0  0.00000000000E+00  0.00000000000E+00 -0.14205034096E+04  0.14205034096E+04  0.25500000920E-02 0. -1.
    10030    2    1    2    0    0  0.00000000000E+00  0.00000000000E+00 -0.89675564096E+03  0.19442511782E+04  0.17250918713E+04 0.  0.
        5    1    3    3  502    0  0.17325082726E+03  0.35334342415E+03  0.41665616492E+03  0.57314210655E+03  0.46999998093E+01 0.  1.
       -5    1    3    3    0  502 -0.17325082726E+03 -0.35334342415E+03 -0.13134118059E+04  0.13711090717E+04  0.46999998093E+01 0. -1.
</event>
<event>
 5   0  0.4947006E-04  0.1617128E+04  0.7818609E-02  0.8810094E-01
        1   -1    0    0  501    0  0.00000000000E+00  0.00000000000E+00  0.75070186479E+03  0.75070186481E+03  0.50400001928E-02 0.  1.
       -1   -1    0    0    0  501  0.00000000000E+00  0.00000000000E+00 -0.87088593961E+03  0.87088593963E+03  0.50400001928E-02 0. -1.
    10030    2    1    2    0    0  0.00000000000E+00  0.00000000000E+00 -0.12018407482E+03  0.16215878044E+04  0.16171279466E+04 0.  0.
        2    1    3    3  502    0 -0.34137929003E+03 -0.66442564598E+03 -0.37041999142E+03  0.83379387665E+03  0.25500000920E-02 0.  1.
       -2    1    3    3    0  502  0.34137929003E+03  0.66442564598E+03  0.25023591660E+03  0.78779392779E+03  0.25500000920E-02 0. -1.
</event>
<event>
 5   0  0.4947006E-04  0.1781152E+04  0.7818609E-02  0.8716387E-01
        1   -1    0    0  501    0  0.00000000000E+00  0.00000000000E+00  0.27435257742E+04  0.27435257742E+04  0.50400001928E-02 0. -1.
       -1   -1    0    0    0  501  0.00000000000E+00  0.00000000000E+00 -0.28908999282E+03  0.28908999287E+03  0.50400001928E-02 0.  1.
    10030    2    1    2    0    0  0.00000000000E+00  0.00000000000E+00  0.24544357814E+04  0.30326157671E+04  0.17811522635E+04 0.  0.
        2    1    3    3  502    0  0.75495395894E+03 -0.38070492006E+03  0.75099039041E+03  0.11308750076E+04  0.25500000920E-02 0. -1.
       -2    1    3    3    0  502 -0.75495395894E+03  0.38070492006E+03  0.17034453910E+04  0.19017407595E+04  0.25500000920E-02 0.  1.
</event>
<event>
 5   0  0.3523125E-04  0.1646493E+04  0.7818609E-02  0.8792484E-01
       -4   -1    0    0    0  501  0.00000000000E+00  0.00000000000E+00  0.82552424101E+03  0.82552521791E+03  0.12699999809E+01 0.  1.
        4   -1    0    0  501    0  0.00000000000E+00  0.00000000000E+00 -0.82097278652E+03  0.82097376883E+03  0.12699999809E+01 0. -1.
    10030    2    1    2    0    0  0.00000000000E+00  0.00000000000E+00  0.45514544887E+01  0.16464989867E+04  0.16464926959E+04 0.  0.
        3    1    3    3  502    0 -0.27358000216E+03 -0.70100142215E+03  0.33617148894E+03  0.82417248900E+03  0.10100000352E+00 0.  1.
       -3    1    3    3    0  502  0.27358000216E+03  0.70100142215E+03 -0.33162003446E+03  0.82232649774E+03  0.10100000352E+00 0. -1.
</event>
<event>
 5   0  0.5059689E-04  0.1705643E+04  0.7818609E-02  0.8758152E-01
        1   -1    0    0  501    0  0.00000000000E+00  0.00000000000E+00  0.95882680883E+03  0.95882680885E+03  0.50400001928E-02 0. -1.
       -1   -1    0    0    0  501  0.00000000000E+00  0.00000000000E+00 -0.75853621835E+03  0.75853621837E+03  0.50400001928E-02 0.  1.
    10030    2    1    2    0    0  0.00000000000E+00  0.00000000000E+00  0.20029059048E+03  0.17173630272E+04  0.17056434113E+04 0.  0.
        5    1    3    3  502    0 -0.82134022347E+03 -0.22950688289E+03  0.10326491773E+03  0.85904534526E+03  0.46999998093E+01 0.  1.
       -5    1    3    3    0  502  0.82134022347E+03  0.22950688289E+03  0.97025672749E+02  0.85831768195E+03  0.46999998093E+01 0. -1.
</event>
<event>
 5   0  0.9312096E-04  0.1699127E+04  0.7818609E-02  0.8761863E-01
        2   -1    0    0  501    0  0.00000000000E+00  0.00000000000E+00  0.11742713500E+04  0.11742713500E+04  0.25500000920E-02 0. -1.
       -2   -1    0    0    0  501  0.00000000000E+00  0.00000000000E+00 -0.61464311363E+03  0.61464311363E+03  0.25500000920E-02 0.  1.
    10030    2    1    2    0    0  0.00000000000E+00  0.00000000000E+00  0.55962823636E+03  0.17889144636E+04  0.16991265978E+04 0.  0.
        3    1    3    3  502    0  0.79927554212E+03 -0.13700189970E+03  0.54647026054E+03  0.97787558953E+03  0.10100000352E+00 0. -1.
       -3    1    3    3    0  502 -0.79927554212E+03  0.13700189970E+03  0.13157975823E+02  0.81103887409E+03  0.10100000352E+00 0.  1.
</event>
<event>
 5   0  0.5074133E-04  0.1708761E+04  0.7818609E-02  0.8756384E-01
        1   -1    0    0  501    0  0.00000000000E+00  0.00000000000E+00  0.45900669630E+03  0.45900669633E+03  0.50400001928E-02 0. -1.
       -1   -1    0    0    0  501  0.00000000000E+00  0.00000000000E+00 -0.15903158399E+04  0.15903158399E+04  0.50400001928E-02 0.  1.
    10030    2    1    2    0    0  0.00000000000E+00  0.00000000000E+00 -0.11313091436E+04  0.20493225362E+04  0.17087605096E+04 0.  0.
        1    1    3    3  502    0  0.44643443198E+03 -0.16933910275E+03 -0.14153729281E+04  0.14937402583E+04  0.50400001928E-02 0.  1.
       -1    1    3    3    0  502 -0.44643443198E+03  0.16933910275E+03  0.28406378452E+03  0.55558227787E+03  0.50400001928E-02 0. -1.
</event>
<event>
 5   0  0.4947006E-04  0.1695871E+04  0.7818609E-02  0.8763723E-01
        1   -1    0    0  501    0  0.00000000000E+00  0.00000000000E+00  0.43917384686E+03  0.43917384689E+03  0.50400001928E-02 0.  1.
       -1   -1    0    0    0  501  0.00000000000E+00  0.00000000000E+00 -0.16371530174E+04  0.16371530174E+04  0.50400001928E-02 0. -1.
    10030    2    1    2    0    0  0.00000000000E+00  0.00000000000E+00 -0.11979791705E+04  0.20763268643E+04  0.16958712081E+04 0.  0.
        2    1    3    3  502    0  0.52698321738E+03  0.52410464089E+03 -0.10987219655E+04  0.13264942305E+04  0.25500000920E-02 0. -1.
       -2    1    3    3    0  502 -0.52698321738E+03 -0.52410464089E+03 -0.99257205038E+02  0.74983263383E+03  0.25500000920E-02 0.  1.
</event>
<event>
 5   0  0.5059689E-04  0.1721657E+04  0.7818609E-02  0.8749108E-01
        1   -1    0    0  501    0  0.00000000000E+00  0.00000000000E+00  0.56568245263E+03  0.56568245265E+03  0.50400001928E-02 0.  1.
       -1   -1    0    0    0  501  0.00000000000E+00  0.00000000000E+00 -0.13099672410E+04  0.13099672410E+04  0.50400001928E-02 0. -1.
    10030    2    1    2    0    0  0.00000000000E+00  0.00000000000E+00 -0.74428478840E+03  0.18756496937E+04  0.17216567391E+04 0.  0.
        5    1    3    3  502    0 -0.40141275870E+03 -0.24144018494E+03 -0.11589430687E+04  0.12500386763E+04  0.46999998093E+01 0. -1.
       -5    1    3    3    0  502  0.40141275870E+03  0.24144018494E+03  0.41465828026E+03  0.62561101744E+03  0.46999998093E+01 0.  1.
</event>
<event>
 5   0  0.9610114E-04  0.1732905E+04  0.7818609E-02  0.8742817E-01
       -2   -1    0    0    0  501  0.00000000000E+00  0.00000000000E+00  0.34955845188E+03  0.34955845189E+03  0.25500000920E-02 0.  1.
        2   -1    0    0  501    0  0.00000000000E+00  0.00000000000E+00 -0.21476804022E+04  0.21476804022E+04  0.25500000920E-02 0. -1.
    10030    2    1    2    0    0  0.00000000000E+00  0.00000000000E+00 -0.17981219503E+04  0.24972388541E+04  0.17329048867E+04 0.  0.
        2    1    3    3  502    0 -0.81098413945E+03  0.15585330261E+03 -0.52119714578E+03  0.97654082923E+03  0.25500000920E-02 0.  1.
       -2    1    3    3    0  502  0.81098413945E+03 -0.15585330261E+03 -0.12769248046E+04  0.15206980249E+04  0.25500000920E-02 0. -1.
</event>
<event>
 5   0  0.9284971E-04  0.1676891E+04  0.7818609E-02  0.8774655E-01
       -2   -1    0    0    0  501  0.00000000000E+00  0.00000000000E+00  0.54156678897E+03  0.54156678898E+03  0.25500000920E-02 0.  1.
        2   -1    0    0  501    0  0.00000000000E+00  0.00000000000E+00 -0.12980683048E+04  0.12980683048E+04  0.25500000920E-02 0. -1.
    10030    2    1    2    0    0  0.00000000000E+00  0.00000000000E+00 -0.75650151583E+03  0.18396350938E+04  0.16768907939E+04 0.  0.
        4    1    3    3  502    0 -0.50841131226E+03 -0.24483932094E+03  0.30206317238E+03  0.64005634792E+03  0.12699999809E+01 0.  1.
       -4    1    3    3    0  502  0.50841131226E+03  0.24483932094E+03 -0.10585646882E+04  0.11995787459E+04  0.12699999809E+01 0. -1.
</event>
<event>
 5   0  0.5009762E-04  0.1695332E+04  0.7818609E-02  0.8764031E-01
       -1   -1    0    0    0  501  0.00000000000E+00  0.00000000000E+00  0.47832149360E+03  0.47832149362E+03  0.50400001928E-02 0. -1.
        1   -1    0    0  501    0  0.00000000000E+00  0.00000000000E+00 -0.15022059685E+04  0.15022059685E+04  0.50400001928E-02 0.  1.
    10030    2    1    2    0    0  0.00000000000E+00  0.00000000000E+00 -0.10238844749E+04  0.19805274621E+04  0.16953317110E+04 0.  0.
        3    1    3    3  502    0 -0.64691304282E+03  0.48993048807E+03 -0.22576540933E+03  0.84231727892E+03  0.10100000352E+00 0. -1.
       -3    1    3    3    0  502  0.64691304282E+03 -0.48993048807E+03 -0.79811906553E+03  0.11382101832E+04  0.10100000352E+00 0.  1.
</event>
<event>
 5   0  0.9610114E-04  0.1753254E+04  0.7818609E-02  0.8731561E-01
        2   -1    0    0  501    0  0.00000000000E+00  0.00000000000E+00  0.12825788864E+04  0.12825788864E+04  0.25500000920E-02 0. -1.
       -2   -1    0    0    0  501  0.00000000000E+00  0.00000000000E+00 -0.59916363336E+03  0.59916363337E+03  0.25500000920E-02 0.  1.
    10030    2    1    2    0    0  0.00000000000E+00  0.00000000000E+00  0.68341525307E+03  0.18817425198E+04  0.17532536903E+04 0.  0.
        2    1    3    3  502    0 -0.27567076861E+03  0.25695162131E+02  0.12344209094E+04  0.12650887698E+04  0.25500000920E-02 0. -1.
       -2    1    3    3    0  502  0.27567076861E+03 -0.25695162131E+02 -0.55100565633E+03  0.61665374996E+03  0.25500000920E-02 0.  1.
</event>
<event>
 5   0  0.5059689E-04  0.1687734E+04  0.7818609E-02  0.8768391E-01
        1   -1    0    0  501    0  0.00000000000E+00  0.00000000000E+00  0.88295716839E+03  0.88295716841E+03  0.50400001928E-02 0. -1.
       -1   -1    0    0    0  501  0.00000000000E+00  0.00000000000E+00 -0.80650781168E+03  0.80650781169E+03  0.50400001928E-02 0.  1.
    10030    2    1    2    0    0  0.00000000000E+00  0.00000000000E+00  0.76449356713E+02  0.16894649801E+04  0.16877344029E+04 0.  0.
        5    1    3    3  502    0 -0.46129566251E+03 -0.51716959287E+03 -0.44375806489E+03  0.82292246670E+03  0.46999998093E+01 0.  1.
       -5    1    3    3    0  502  0.46129566251E+03  0.51716959287E+03  0.52020742161E+03  0.86654251340E+03  0.46999998093E+01 0. -1.
</event>
<event>
 5   0  0.5035495E-04  0.1670782E+04  0.7818609E-02  0.8778206E-01
       -1   -1    0    0    0  501  0.00000000000E+00  0.00000000000E+00  0.70655055166E+03  0.70655055168E+03  0.50400001928E-02 0.  1.
        1   -1    0    0  501    0  0.00000000000E+00  0.00000000000E+00 -0.98772625528E+03  0.98772625529E+03  0.50400001928E-02 0. -1.
    10030    2    1    2    0    0  0.00000000000E+00  0.00000000000E+00 -0.28117570362E+03  0.16942768070E+04  0.16707824880E+04 0.  0.
        4    1    3    3  502    0 -0.10736523478E+03 -0.43645479907E+03  0.57348513154E+03  0.72863358025E+03  0.12699999809E+01 0.  1.
       -4    1    3    3    0  502  0.10736523478E+03  0.43645479907E+03 -0.85466083516E+03  0.96564322673E+03  0.12699999809E+01 0. -1.
</event>
<event>
 5   0  0.4947006E-04  0.1709613E+04  0.7818609E-02  0.8755901E-01
       -1   -1    0    0    0  501  0.00000000000E+00  0.00000000000E+00  0.29901950948E+03  0.29901950952E+03  0.50400001928E-02 0. -1.
        1   -1    0    0  501    0  0.00000000000E+00  0.00000000000E+00 -0.24436328234E+04  0.24436328234E+04  0.50400001928E-02 0.  1.
    10030    2    1    2    0    0  0.00000000000E+00  0.00000000000E+00 -0.21446133139E+04  0.27426523329E+04  0.17096126910E+04 0.  0.
        2    1    3    3  502    0 -0.36850145061E+03  0.18388982350E+03 -0.22739826756E+04  0.23109751178E+04  0.25500000920E-02 0.  1.
       -2    1    3    3    0  502  0.36850145061E+03 -0.18388982350E+03  0.12936936168E+03  0.43167721510E+03  0.25500000920E-02 0. -1.
</event>
<event>
 5   0  0.5059689E-04  0.1741942E+04  0.7818609E-02  0.8737798E-01
       -1   -1    0    0    0  501  0.00000000000E+00  0.00000000000E+00  0.56998202062E+03  0.56998202064E+03  0.50400001928E-02 0.  1.
        1   -1    0    0  501    0  0.00000000000E+00  0.00000000000E+00 -0.13309020948E+04  0.13309020948E+04  0.50400001928E-02 0. -1.
    10030    2    1    2    0    0  0.00000000000E+00  0.00000000000E+00 -0.76092007414E+03  0.19008841154E+04  0.17419417502E+04 0.  0.
        5    1    3    3  502    0  0.77143570776E+03  0.31521300721E+03 -0.65673217246E+03  0.10610332358E+04  0.46999998093E+01 0.  1.
       -5    1    3    3    0  502 -0.77143570776E+03 -0.31521300721E+03 -0.10418790168E+03  0.83985087961E+03  0.46999998093E+01 0. -1.
</event>
<event>
 5   0  0.5074133E-04  0.1634764E+04  0.7818609E-02  0.8799471E-01
       -1   -1    0    0    0  501  0.00000000000E+00  0.00000000000E+00  0.86595756224E+03  0.86595756226E+03  0.50400001928E-02 0.  1.
        1   -1    0    0  501    0  0.00000000000E+00  0.00000000000E+00 -0.77153129553E+03  0.77153129555E+03  0.50400001928E-02 0. -1.
    10030    2    1    2    0    0  0.00000000000E+00  0.00000000000E+00  0.94426266709E+02  0.16374888578E+04  0.16347640318E+04 0.  0.
        1    1    3    3  502    0  0.47602004902E+03  0.42367569435E+02  0.71143474224E+03  0.85704695933E+03  0.50400001928E-02 0.  1.
       -1    1    3    3    0  502 -0.47602004902E+03 -0.42367569435E+02 -0.61700847553E+03  0.78044189848E+03  0.50400001928E-02 0. -1.
</event>
<event>
 5   0  0.9312096E-04  0.1720536E+04  0.7818609E-02  0.8749738E-01
       -2   -1    0    0    0  501  0.00000000000E+00  0.00000000000E+00  0.26633130540E+03  0.26633130541E+03  0.25500000920E-02 0.  1.
        2   -1    0    0  501    0  0.00000000000E+00  0.00000000000E+00 -0.27787223090E+04  0.27787223090E+04  0.25500000920E-02 0. -1.
    10030    2    1    2    0    0  0.00000000000E+00  0.00000000000E+00 -0.25123910036E+04  0.30450536144E+04  0.17205356607E+04 0.  0.
        3    1    3    3  502    0  0.17906498525E+03 -0.76397307992E+03 -0.63211662917E+03  0.10076162855E+04  0.10100000352E+00 0.  1.
       -3    1    3    3    0  502 -0.17906498525E+03  0.76397307992E+03 -0.18802743744E+04  0.20374373289E+04  0.10100000352E+00 0. -1.
</event>
<event>
 5   0  0.9312096E-04  0.1726249E+04  0.7818609E-02  0.8746534E-01
        2   -1    0    0  501    0  0.00000000000E+00  0.00000000000E+00  0.17822957697E+04  0.17822957697E+04  0.25500000920E-02 0.  1.
       -2   -1    0    0    0  501  0.00000000000E+00  0.00000000000E+00 -0.41799105916E+03  0.41799105917E+03  0.25500000920E-02 0. -1.
    10030    2    1    2    0    0  0.00000000000E+00  0.00000000000E+00  0.13643047106E+04  0.22002868289E+04  0.17262487614E+04 0.  0.
        3    1    3    3  502    0 -0.15187795193E+01  0.66680385471E+03  0.13806945243E+04  0.15332798398E+04  0.10100000352E+00 0.  1.
       -3    1    3    3    0  502  0.15187795193E+01 -0.66680385471E+03 -0.16389813759E+02  0.66700698913E+03  0.10100000352E+00 0. -1.
</event>
<event>
 5   0  0.5059689E-04  0.1700472E+04  0.7818609E-02  0.8761095E-01
        1   -1    0    0  501    0  0.00000000000E+00  0.00000000000E+00  0.18964773051E+04  0.18964773051E+04  0.50400001928E-02 0.  1.
       -1   -1    0    0    0  501  0.00000000000E+00  0.00000000000E+00 -0.38118128474E+03  0.38118128478E+03  0.50400001928E-02 0. -1.
    10030    2    1    2    0    0  0.00000000000E+00  0.00000000000E+00  0.15152960204E+04  0.22776585899E+04  0.17004724705E+04 0.  0.
        5    1    3    3  502    0  0.43839383824E+03 -0.12448022169E+03  0.17190496869E+04  0.17784370663E+04  0.46999998093E+01 0.  1.
       -5    1    3    3    0  502 -0.43839383824E+03  0.12448022169E+03 -0.20375366648E+03  0.49922152358E+03  0.46999998093E+01 0. -1.
</event>
<event>
 5   0  0.5009762E-04  0.1715802E+04  0.7818609E-02  0.8752403E-01
       -1   -1    0    0    0  501  0.00000000000E+00  0.00000000000E+00  0.10180758564E+04  0.10180758564E+04  0.50400001928E-02 0. -1.
        1   -1    0    0  501    0  0.00000000000E+00  0.00000000000E+00 -0.72292683427E+03  0.72292683429E+03  0.50400001928E-02 0.  1.
    10030    2    1    2    0    0  0.00000000000E+00  0.00000000000E+00  0.29514902213E+03  0.17410026907E+04  0.17158022683E+04 0.  0.
        3    1    3    3  502    0  0.66161685156E+03  0.39930997857E+03 -0.23046836803E+03  0.80641242310E+03  0.10100000352E+00 0.  1.
       -3    1    3    3    0  502 -0.66161685156E+03 -0.39930997857E+03  0.52561739017E+03  0.93459026761E+03  0.10100000352E+00 0. -1.
</event>
<event>
 5   0  0.5009762E-04  0.1692316E+04  0.7818609E-02  0.8765759E-01
       -1   -1    0    0    0  501  0.00000000000E+00  0.00000000000E+00  0.34556258596E+03  0.34556258599E+03  0.50400001928E-02 0.  1.
        1   -1    0    0  501    0  0.00000000000E+00  0.00000000000E+00 -0.20719362632E+04  0.20719362632E+04  0.50400001928E-02 0. -1.
    10030    2    1    2    0    0  0.00000000000E+00  0.00000000000E+00 -0.17263736772E+04  0.24174988492E+04  0.16923163453E+04 0.  0.
        3    1    3    3  502    0  0.14728449031E+03 -0.35199932969E+03 -0.19420582528E+04  0.19791883479E+04  0.10100000352E+00 0. -1.
       -3    1    3    3    0  502 -0.14728449031E+03  0.35199932969E+03  0.21568457555E+03  0.43831050126E+03  0.10100000352E+00 0.  1.
</event>
<event>
 5   0  0.9610114E-04  0.1680792E+04  0.7818609E-02  0.8772396E-01
        2   -1    0    0  501    0  0.00000000000E+00  0.00000000000E+00  0.77235248813E+03  0.77235248813E+03  0.25500000920E-02 0.  1.
       -2   -1    0    0    0  501  0.00000000000E+00  0.00000000000E+00 -0.91443421741E+03  0.91443421741E+03  0.25500000920E-02 0. -1.
    10030    2    1    2    0    0  0.00000000000E+00  0.00000000000E+00 -0.14208172928E+03  0.16867867055E+04  0.16807921264E+04 0.  0.
        2    1    3    3  502    0 -0.60518499544E+03  0.26180456296E+03 -0.59393180045E+03  0.88743759864E+03  0.25500000920E-02 0. -1.
       -2    1    3    3    0  502  0.60518499544E+03 -0.26180456296E+03  0.45185007117E+03  0.79934910691E+03  0.25500000920E-02 0.  1.
</event>
<event>
 5   0  0.9610114E-04  0.1596929E+04  0.7818609E-02  0.8822437E-01
        2   -1    0    0  501    0  0.00000000000E+00  0.00000000000E+00  0.10710696637E+04  0.10710696637E+04  0.25500000920E-02 0. -1.
       -2   -1    0    0    0  501  0.00000000000E+00  0.00000000000E+00 -0.59524173257E+03  0.59524173257E+03  0.25500000920E-02 0.  1.
    10030    2    1    2    0    0  0.00000000000E+00  0.00000000000E+00  0.47582793118E+03  0.16663113963E+04  0.15969287553E+04 0.  0.
        2    1    3    3  502    0 -0.64743505232E+03 -0.23722659199E+03 -0.18219097574E+03  0.71319152727E+03  0.25500000920E-02 0. -1.
       -2    1    3    3    0  502  0.64743505232E+03  0.23722659199E+03  0.65801890692E+03  0.95311986905E+03  0.25500000920E-02 0.  1.
</event>
<event>
 5   0  0.5035495E-04  0.1680894E+04  0.7818609E-02  0.8772337E-01
        1   -1    0    0  501    0  0.00000000000E+00  0.00000000000E+00  0.66963088420E+03  0.66963088422E+03  0.50400001928E-02 0. -1.
       -1   -1    0    0    0  501  0.00000000000E+00  0.00000000000E+00 -0.10548365564E+04  0.10548365564E+04  0.50400001928E-02 0.  1.
    10030    2    1    2    0    0  0.00000000000E+00  0.00000000000E+00 -0.38520567217E+03  0.17244674406E+04  0.16808939716E+04 0.  0.
        4    1    3    3  502    0  0.13547799531E+03  0.50722196293E+03  0.48070359264E+03  0.71183282009E+03  0.12699999809E+01 0. -1.
       -4    1    3    3    0  502 -0.13547799531E+03 -0.50722196293E+03 -0.86590926481E+03  0.10126346205E+04  0.12699999809E+01 0.  1.
</event>
<event>
 5   0  0.9625225E-04  0.1689407E+04  0.7818609E-02  0.8767429E-01
        2   -1    0    0  501    0  0.00000000000E+00  0.00000000000E+00  0.22542148198E+04  0.22542148198E+04  0.25500000920E-02 0.  1.
       -2   -1    0    0    0  501  0.00000000000E+00  0.00000000000E+00 -0.31652900413E+03  0.31652900414E+03  0.25500000920E-02 0. -1.
    10030    2    1    2    0    0  0.00000000000E+00  0.00000000000E+00  0.19376858157E+04  0.25707438240E+04  0.16894074370E+04 0.  0.
        1    1    3    3  502    0  0.70983205961E+03  0.19347593355E+03  0.16003506101E+04  0.17613678108E+04  0.50400001928E-02 0.  1.
       -1    1    3    3    0  502 -0.70983205961E+03 -0.19347593355E+03  0.33733520560E+03  0.80937601316E+03  0.50400001928E-02 0. -1.
</event>
<event>
 5   0  0.3523125E-04  0.1752615E+04  0.7818609E-02  0.8731912E-01
        3   -1    0    0  501    0  0.00000000000E+00  0.00000000000E+00  0.18170153955E+04  0.18170153983E+04  0.10100000352E+00 0.  1.
       -3   -1    0    0    0  501  0.00000000000E+00  0.00000000000E+00 -0.42262447209E+03  0.42262448416E+03  0.10100000352E+00 0. -1.
    10030    2    1    2    0    0  0.00000000000E+00  0.00000000000E+00  0.13943909234E+04  0.22396398824E+04  0.17526154044E+04 0.  0.
        5    1    3    3  502    0  0.51509136196E+03 -0.18341593008E+03 -0.17788255472E+03  0.57499983291E+03  0.46999998093E+01 0. -1.
       -5    1    3    3    0  502 -0.51509136196E+03  0.18341593008E+03  0.15722734781E+04  0.16646400495E+04  0.46999998093E+01 0.  1.
</event>
<event>
 5   0  0.1007187E-03  0.1772159E+04  0.7818609E-02  0.8721247E-01
        2   -1    0    0  501    0  0.00000000000E+00  0.00000000000E+00  0.11382921568E+04  0.11382921568E+04  0.25500000920E-02 0. -1.
       -2   -1    0    0    0  501  0.00000000000E+00  0.00000000000E+00 -0.68974991227E+03  0.68974991227E+03  0.25500000920E-02 0.  1.
    10030    2    1    2    0    0  0.00000000000E+00  0.00000000000E+00  0.44854224458E+03  0.18280420691E+04  0.17721590395E+04 0.  0.
        5    1    3    3  502    0  0.47392221574E+03  0.30940961453E+03 -0.47897345093E+03  0.74146762089E+03  0.46999998093E+01 0.  1.
       -5    1    3    3    0  502 -0.47392221574E+03 -0.30940961453E+03  0.92751569550E+03  0.10865744482E+04  0.46999998093E+01 0. -1.
</event>
<event>
 5   0  0.1007187E-03  0.1679721E+04  0.7818609E-02  0.8773015E-01
       -2   -1    0    0    0  501  0.00000000000E+00  0.00000000000E+00  0.43733895800E+03  0.43733895800E+03  0.25500000920E-02 0.  1.
        2   -1    0    0  501    0  0.00000000000E+00  0.00000000000E+00 -0.16128585832E+04  0.16128585832E+04  0.25500000920E-02 0. -1.
    10030    2    1    2    0    0  0.00000000000E+00  0.00000000000E+00 -0.11755196252E+04  0.20501975412E+04  0.16797212771E+04 0.  0.
        5    1    3    3  502    0  0.57735221343E+03 -0.35155956936E+03 -0.11961001302E+04  0.13739022238E+04  0.46999998093E+01 0. -1.
       -5    1    3    3    0  502 -0.57735221343E+03  0.35155956936E+03  0.20580504974E+02  0.67629531740E+03  0.46999998093E+01 0.  1.
</event>
<event>
 5   0  0.9610114E-04  0.1722712E+04  0.7818609E-02  0.8748516E-01
        2   -1    0    0  501    0  0.00000000000E+00  0.00000000000E+00  0.83427229176E+03  0.83427229177E+03  0.25500000920E-02 0. -1.
       -2   -1    0    0    0  501  0.00000000000E+00  0.00000000000E+00 -0.88931860436E+03  0.88931860436E+03  0.25500000920E-02 0.  1.
    10030    2    1    2    0    0  0.00000000000E+00  0.00000000000E+00 -0.55046312596E+02  0.17235908961E+04  0.17227116650E+04 0.  0.
        2    1    3    3  502    0 -0.64890249310E+03 -0.27532844135E+03 -0.52280477011E+03  0.87761325413E+03  0.25500000920E-02 0.  1.
       -2    1    3    3    0  502  0.64890249310E+03  0.27532844135E+03  0.46775845752E+03  0.84597764200E+03  0.25500000920E-02 0. -1.
</event>
<event>
 5   0  0.5059689E-04  0.1722672E+04  0.7818609E-02  0.8748538E-01
       -1   -1    0    0    0  501  0.00000000000E+00  0.00000000000E+00  0.13576700804E+04  0.13576700804E+04  0.50400001928E-02 0.  1.
        1   -1    0    0  501    0  0.00000000000E+00  0.00000000000E+00 -0.54645078838E+03  0.54645078840E+03  0.50400001928E-02 0. -1.
    10030    2    1    2    0    0  0.00000000000E+00  0.00000000000E+00  0.81121929198E+03  0.19041208688E+04  0.17226722100E+04 0.  0.
        5    1    3    3  502    0  0.30133375413E+03 -0.67800423829E+03  0.88916585876E+03  0.11580715837E+04  0.46999998093E+01 0.  1.
       -5    1    3    3    0  502 -0.30133375413E+03  0.67800423829E+03 -0.77946566781E+02  0.74604928510E+03  0.46999998093E+01 0. -1.
</event>
<event>
 5   0  0.9312096E-04  0.1742643E+04  0.7818609E-02  0.8737410E-01
        2   -1    0    0  501    0  0.00000000000E+00  0.00000000000E+00  0.14918061202E+04  0.14918061202E+04  0.25500000920E-02 0. -1.
       -2   -1    0    0    0  501  0.00000000000E+00  0.00000000000E+00 -0.50891415898E+03  0.50891415898E+03  0.25500000920E-02 0.  1.
    10030    2    1    2    0    0  0.00000000000E+00  0.00000000000E+00  0.98289196120E+03  0.20007202792E+04  0.17426431155E+04 0.  0.
        3    1    3    3  502    0 -0.73676808190E+03  0.41396006388E+03  0.24786814866E+03  0.88069788822E+03  0.10100000352E+00 0.  1.
       -3    1    3    3    0  502  0.73676808190E+03 -0.41396006388E+03  0.73502381254E+03  0.11200223909E+04  0.10100000352E+00 0. -1.
</event>
<event>
 5   0  0.5009762E-04  0.1411346E+04  0.7818609E-02  0.8945646E-01
        1   -1    0    0  501    0  0.00000000000E+00  0.00000000000E+00  0.79229226013E+03  0.79229226014E+03  0.50400001928E-02 0. -1.
       -1   -1    0    0    0  501  0.00000000000E+00  0.00000000000E+00 -0.62852376410E+03  0.62852376412E+03  0.50400001928E-02 0.  1.
    10030    2    1    2    0    0  0.00000000000E+00  0.00000000000E+00  0.16376849603E+03  0.14208160243E+04  0.14113461852E+04 0.  0.
        3    1    3    3  502    0 -0.36672112451E+03 -0.57776291706E+03 -0.91550936358E+02  0.69041723302E+03  0.10100000352E+00 0.  1.
       -3    1    3    3    0  502  0.36672112451E+03  0.57776291706E+03  0.25531943239E+03  0.73039879125E+03  0.10100000352E+00 0. -1.
</event>
<event>
 5   0  0.9284971E-04  0.1724196E+04  0.7818609E-02  0.8747683E-01
        2   -1    0    0  501    0  0.00000000000E+00  0.00000000000E+00  0.17177751864E+04  0.17177751864E+04  0.25500000920E-02 0.  1.
       -2   -1    0    0    0  501  0.00000000000E+00  0.00000000000E+00 -0.43266035977E+03  0.43266035978E+03  0.25500000920E-02 0. -1.
    10030    2    1    2    0    0  0.00000000000E+00  0.00000000000E+00  0.12851148267E+04  0.21504355462E+04  0.17241963115E+04 0.  0.
        4    1    3    3  502    0 -0.31360587368E+02 -0.82126636616E+03  0.31792389099E+03  0.88121458453E+03  0.12699999809E+01 0. -1.
       -4    1    3    3    0  502  0.31360587368E+02  0.82126636616E+03  0.96719093567E+03  0.12692209617E+04  0.12699999809E+01 0.  1.
</event>
<event>
 5   0  0.4947006E-04  0.1764195E+04  0.7818609E-02  0.8725575E-01
        1   -1    0    0  501    0  0.00000000000E+00  0.00000000000E+00  0.68554641840E+03  0.68554641842E+03  0.50400001928E-02 0. -1.
       -1   -1    0    0    0  501  0.00000000000E+00  0.00000000000E+00 -0.11350011075E+04  0.11350011076E+04  0.50400001928E-02 0.  1.
    10030    2    1    2    0    0  0.00000000000E+00  0.00000000000E+00 -0.44945468914E+03  0.18205475260E+04  0.17641949373E+04 0.  0.
        2    1    3    3  502    0  0.31451276162E+03 -0.70249219105E+03  0.21994570242E+03  0.80049339018E+03  0.25500000920E-02 0. -1.
       -2    1    3    3    0  502 -0.31451276162E+03  0.70249219105E+03 -0.66940039156E+03  0.10200541358E+04  0.25500000920E-02 0.  1.
</event>
<event>
 5   0  0.5074133E-04  0.1671537E+04  0.7818609E-02  0.8777766E-01
        1   -1    0    0  501    0  0.00000000000E+00  0.00000000000E+00  0.11059943458E+04  0.11059943458E+04  0.50400001928E-02 0. -1.
       -1   -1    0    0    0  501  0.00000000000E+00  0.00000000000E+00 -0.63156658579E+03  0.63156658581E+03  0.50400001928E-02 0.  1.
    10030    2    1    2    0    0  0.00000000000E+00  0.00000000000E+00  0.47442776003E+03  0.17375609316E+04  0.16715371045E+04 0.  0.
        1    1    3    3  502    0 -0.12273178768E+03  0.41214507289E+03  0.98216726240E+03  0.10721843051E+04  0.50400001928E-02 0. -1.
       -1    1    3    3    0  502  0.12273178768E+03 -0.41214507289E+03 -0.50773950237E+03  0.66537662651E+03  0.50400001928E-02 0.  1.
</event>
<event>
 5   0  0.1007187E-03  0.1413477E+04  0.7818609E-02  0.8944121E-01
       -2   -1    0    0    0  501  0.00000000000E+00  0.00000000000E+00  0.17809037359E+04  0.17809037359E+04  0.25500000920E-02 0.  1.
        2   -1    0    0  501    0  0.00000000000E+00  0.00000000000E+00 -0.28046378175E+03  0.28046378176E+03  0.25500000920E-02 0. -1.
    10030    2    1    2    0    0  0.00000000000E+00  0.00000000000E+00  0.15004399541E+04  0.20613675176E+04  0.14134765604E+04 0.  0.
        5    1    3    3  502    0 -0.38543245958E+03 -0.89228058244E+02  0.16042517726E+04  0.16523212966E+04  0.46999998093E+01 0.  1.
       -5    1    3    3    0  502  0.38543245958E+03  0.89228058244E+02 -0.10381181851E+03  0.40904622102E+03  0.46999998093E+01 0. -1.
</event>
<event>
 5   0  0.5059689E-04  0.9312616E+03  0.7818609E-02  0.9387325E-01
        1   -1    0    0  501    0  0.00000000000E+00  0.00000000000E+00  0.36976878026E+03  0.36976878029E+03  0.50400001928E-02 0. -1.
       -1   -1    0    0    0  501  0.00000000000E+00  0.00000000000E+00 -0.58634486366E+03  0.58634486368E+03  0.50400001928E-02 0.  1.
    10030    2    1    2    0    0  0.00000000000E+00  0.00000000000E+00 -0.21657608340E+03  0.95611364397E+03  0.93126156384E+03 0.  0.
        5    1    3    3  502    0  0.51042734319E+02  0.40781227435E+03 -0.33292770501E+03  0.52894154554E+03  0.46999998093E+01 0.  1.
       -5    1    3    3    0  502 -0.51042734319E+02 -0.40781227435E+03  0.11635162161E+03  0.42717209844E+03  0.46999998093E+01 0. -1.
</event>
<event>
 5   0  0.9312096E-04  0.1711206E+04  0.7818609E-02  0.8754999E-01
        2   -1    0    0  501    0  0.00000000000E+00  0.00000000000E+00  0.10163262787E+04  0.10163262787E+04  0.25500000920E-02 0.  1.
       -2   -1    0    0    0  501  0.00000000000E+00  0.00000000000E+00 -0.72029710855E+03  0.72029710855E+03  0.25500000920E-02 0. -1.
    10030    2    1    2    0    0  0.00000000000E+00  0.00000000000E+00  0.29602917012E+03  0.17366233872E+04  0.17112064515E+04 0.  0.
        3    1    3    3  502    0 -0.79347744538E+03 -0.15875413780E+03 -0.13404804898E+03  0.82023059089E+03  0.10100000352E+00 0. -1.
       -3    1    3    3    0  502  0.79347744538E+03  0.15875413780E+03  0.43007721910E+03  0.91639279634E+03  0.10100000352E+00 0.  1.
</event>
<event>
 5   0  0.9625225E-04  0.1462194E+04  0.7818609E-02  0.8909990E-01
       -2   -1    0    0    0  501  0.00000000000E+00  0.00000000000E+00  0.10994419288E+04  0.10994419288E+04  0.25500000920E-02 0.  1.
        2   -1    0    0  501    0  0.00000000000E+00  0.00000000000E+00 -0.48615820744E+03  0.48615820745E+03  0.25500000920E-02 0. -1.
    10030    2    1    2    0    0  0.00000000000E+00  0.00000000000E+00  0.61328372135E+03  0.15856001362E+04  0.14621938549E+04 0.  0.
        1    1    3    3  502    0  0.44083026519E+03 -0.48667290803E+03  0.65520604317E+03  0.92761888788E+03  0.50400001928E-02 0. -1.
       -1    1    3    3    0  502 -0.44083026519E+03  0.48667290803E+03 -0.41922321819E+02  0.65798124837E+03  0.50400001928E-02 0.  1.
</event>
<event>
 5   0  0.4947006E-04  0.1683765E+04  0.7818609E-02  0.8770678E-01
       -1   -1    0    0    0  501  0.00000000000E+00  0.00000000000E+00  0.11884611599E+04  0.11884611599E+04  0.50400001928E-02 0. -1.
        1   -1    0    0  501    0  0.00000000000E+00  0.00000000000E+00 -0.59637331660E+03  0.59637331663E+03  0.50400001928E-02 0.  1.
    10030    2    1    2    0    0  0.00000000000E+00  0.00000000000E+00  0.59208784330E+03  0.17848344765E+04  0.16837654511E+04 0.  0.
        2    1    3    3  502    0 -0.31789692709E+03  0.76332576487E+03  0.46378889133E+03  0.94806371901E+03  0.25500000920E-02 0. -1.
       -2    1    3    3    0  502  0.31789692709E+03 -0.76332576487E+03  0.12829895197E+03  0.83677075753E+03  0.25500000920E-02 0.  1.
</event>
<event>
 5   0  0.4947006E-04  0.1697302E+04  0.7818609E-02  0.8762904E-01
        1   -1    0    0  501    0  0.00000000000E+00  0.00000000000E+00  0.11171038407E+04  0.11171038407E+04  0.50400001928E-02 0.  1.
       -1   -1    0    0    0  501  0.00000000000E+00  0.00000000000E+00 -0.64471072883E+03  0.64471072885E+03  0.50400001928E-02 0. -1.
    10030    2    1    2    0    0  0.00000000000E+00  0.00000000000E+00  0.47239311189E+03  0.17618145696E+04  0.16973023671E+04 0.  0.
        2    1    3    3  502    0 -0.18413223101E+03 -0.61736912914E+03 -0.33721235211E+03  0.72715987962E+03  0.25500000920E-02 0. -1.
       -2    1    3    3    0  502  0.18413223101E+03  0.61736912914E+03  0.80960546400E+03  0.10346546900E+04  0.25500000920E-02 0.  1.
</event>
<event>
 5   0  0.9312096E-04  0.1384922E+04  0.7818609E-02  0.8964806E-01
       -2   -1    0    0    0  501  0.00000000000E+00  0.00000000000E+00  0.44627881028E+03  0.44627881029E+03  0.25500000920E-02 0. -1.
        2   -1    0    0  501    0  0.00000000000E+00  0.00000000000E+00 -0.10744456269E+04  0.10744456269E+04  0.25500000920E-02 0.  1.
    10030    2    1    2    0    0  0.00000000000E+00  0.00000000000E+00 -0.62816681666E+03  0.15207244372E+04  0.13849221149E+04 0.  0.
        3    1    3    3  502    0 -0.43895582779E+03  0.18364540719E+03  0.23833289439E+03  0.53217519021E+03  0.10100000352E+00 0. -1.
       -3    1    3    3    0  502  0.43895582779E+03 -0.18364540719E+03 -0.86649971104E+03  0.98854924701E+03  0.10100000352E+00 0.  1.
</event>
<event>
 5   0  0.9312096E-04  0.1871503E+04  0.7818609E-02  0.8669173E-01
        2   -1    0    0  501    0  0.00000000000E+00  0.00000000000E+00  0.24019208072E+04  0.24019208072E+04  0.25500000920E-02 0. -1.
       -2   -1    0    0    0  501  0.00000000000E+00  0.00000000000E+00 -0.36455435752E+03  0.36455435753E+03  0.25500000920E-02 0.  1.
    10030    2    1    2    0    0  0.00000000000E+00  0.00000000000E+00  0.20373664497E+04  0.27664751647E+04  0.18715028151E+04 0.  0.
        3    1    3    3  502    0 -0.53845751934E+03  0.74325659934E+03  0.74908171987E+03  0.11846899619E+04  0.10100000352E+00 0. -1.
       -3    1    3    3    0  502  0.53845751934E+03 -0.74325659934E+03  0.12882847298E+04  0.15817852028E+04  0.10100000352E+00 0.  1.
</event>
<event>
 5   0  0.5035495E-04  0.1673251E+04  0.7818609E-02  0.8776769E-01
        1   -1    0    0  501    0  0.00000000000E+00  0.00000000000E+00  0.11898868345E+04  0.11898868345E+04  0.50400001928E-02 0. -1.
       -1   -1    0    0    0  501  0.00000000000E+00  0.00000000000E+00 -0.58824242454E+03  0.58824242457E+03  0.50400001928E-02 0.  1.
    10030    2    1    2    0    0  0.00000000000E+00  0.00000000000E+00  0.60164440997E+03  0.17781292591E+04  0.16732506286E+04 0.  0.
        4    1    3    3  502    0  0.11900750345E+03 -0.66353676796E+03  0.82735443714E+03  0.10672210670E+04  0.12699999809E+01 0. -1.
       -4    1    3    3    0  502 -0.11900750345E+03  0.66353676796E+03 -0.22571002717E+03  0.71090819209E+03  0.12699999809E+01 0.  1.
</event>
<event>
 5   0  0.5035495E-04  0.1322133E+04  0.7818609E-02  0.9012196E-01
       -1   -1    0    0    0  501  0.00000000000E+00  0.00000000000E+00  0.41134351435E+03  0.41134351438E+03  0.50400001928E-02 0. -1.
        1   -1    0    0  501    0  0.00000000000E+00  0.00000000000E+00 -0.10623936123E+04  0.10623936123E+04  0.50400001928E-02 0.  1.
    10030    2    1    2    0    0  0.00000000000E+00  0.00000000000E+00 -0.65105009794E+03  0.14737371267E+04  0.13221327046E+04 0.  0.
        4    1    3    3  502    0 -0.52211558437E+03  0.37507478428E+03 -0.15384710155E+03  0.66102671716E+03  0.12699999809E+01 0. -1.
       -4    1    3    3    0  502  0.52211558437E+03 -0.37507478428E+03 -0.49720299638E+03  0.81271040953E+03  0.12699999809E+01 0.  1.
</event>
<event>
 5   0  0.5074133E-04  0.1591922E+04  0.7818609E-02  0.8825526E-01
        1   -1    0    0  501    0  0.00000000000E+00  0.00000000000E+00  0.11243774305E+04  0.11243774306E+04  0.50400001928E-02 0.  1.
       -1   -1    0    0    0  501  0.00000000000E+00  0.00000000000E+00 -0.56347112332E+03  0.56347112334E+03  0.50400001928E-02 0. -1.
    10030    2    1    2    0    0  0.00000000000E+00  0.00000000000E+00  0.56090630723E+03  0.16878485539E+04  0.15919223773E+04 0.  0.
        1    1    3    3  502    0  0.63360131892E+03 -0.15157176673E+03 -0.20441015769E+03  0.68279436466E+03  0.50400001928E-02 0.  1.
       -1    1    3    3    0  502 -0.63360131892E+03  0.15157176673E+03  0.76531646493E+03  0.10050541892E+04  0.50400001928E-02 0. -1.
</event>
<event>
 5   0  0.5074133E-04  0.1681514E+04  0.7818609E-02  0.8771979E-01
        1   -1    0    0  501    0  0.00000000000E+00  0.00000000000E+00  0.19035831691E+04  0.19035831691E+04  0.50400001928E-02 0.  1.
       -1   -1    0    0    0  501  0.00000000000E+00  0.00000000000E+00 -0.37133765428E+03  0.37133765432E+03  0.50400001928E-02 0. -1.
    10030    2    1    2    0    0  0.00000000000E+00  0.00000000000E+00  0.15322455148E+04  0.22749208234E+04  0.16815137333E+04 0.  0.
        1    1    3    3  502    0  0.35853145601E+03  0.49500109480E+03 -0.14937102210E+02  0.61138695264E+03  0.50400001928E-02 0. -1.
       -1    1    3    3    0  502 -0.35853145601E+03 -0.49500109480E+03  0.15471826170E+04  0.16635338708E+04  0.50400001928E-02 0.  1.
</event>
<event>
 5   0  0.4947006E-04  0.1703884E+04  0.7818609E-02  0.8759152E-01
       -1   -1    0    0    0  501  0.00000000000E+00  0.00000000000E+00  0.41487600010E+03  0.41487600013E+03  0.50400001928E-02 0. -1.
        1   -1    0    0  501    0  0.00000000000E+00  0.00000000000E+00 -0.17494511517E+04  0.17494511517E+04  0.50400001928E-02 0.  1.
    10030    2    1    2    0    0  0.00000000000E+00  0.00000000000E+00 -0.13345751516E+04  0.21643271518E+04  0.17038841465E+04 0.  0.
        2    1    3    3  502    0  0.45169842773E+03 -0.70106050714E+03 -0.44622354424E+03  0.94585028188E+03  0.25500000920E-02 0. -1.
       -2    1    3    3    0  502 -0.45169842773E+03  0.70106050714E+03 -0.88835160735E+03  0.12184768699E+04  0.25500000920E-02 0.  1.
</event>
<event>
 5   0  0.5059689E-04  0.1706034E+04  0.7818609E-02  0.8757930E-01
        1   -1    0    0  501    0  0.00000000000E+00  0.00000000000E+00  0.64517492236E+03  0.64517492238E+03  0.50400001928E-02 0. -1.
       -1   -1    0    0    0  501  0.00000000000E+00  0.00000000000E+00 -0.11278152396E+04  0.11278152396E+04  0.50400001928E-02 0.  1.
    10030    2    1    2    0    0  0.00000000000E+00  0.00000000000E+00 -0.48264031721E+03  0.17729901620E+04  0.17060341259E+04 0.  0.
        5    1    3    3  502    0  0.51212526225E+03 -0.56599172184E+03  0.15440920725E+03  0.77877031704E+03  0.46999998093E+01 0. -1.
       -5    1    3    3    0  502 -0.51212526225E+03  0.56599172184E+03 -0.63704952446E+03  0.99421984492E+03  0.46999998093E+01 0.  1.
</event>
<event>
 5   0  0.4947006E-04  0.1716072E+04  0.7818609E-02  0.8752251E-01
       -1   -1    0    0    0  501  0.00000000000E+00  0.00000000000E+00  0.43521706526E+03  0.43521706529E+03  0.50400001928E-02 0.  1.
        1   -1    0    0  501    0  0.00000000000E+00  0.00000000000E+00 -0.16916289519E+04  0.16916289519E+04  0.50400001928E-02 0. -1.
    10030    2    1    2    0    0  0.00000000000E+00  0.00000000000E+00 -0.12564118866E+04  0.21268460172E+04  0.17160720125E+04 0.  0.
        2    1    3    3  502    0 -0.72412962258E+03  0.95110339645E+02 -0.70054882407E+02  0.73370114731E+03  0.25500000920E-02 0.  1.
       -2    1    3    3    0  502  0.72412962258E+03 -0.95110339645E+02 -0.11863570042E+04  0.13931448699E+04  0.25500000920E-02 0. -1.
</event>
<event>
 5   0  0.9625225E-04  0.1704905E+04  0.7818609E-02  0.8758572E-01
       -2   -1    0    0    0  501  0.00000000000E+00  0.00000000000E+00  0.71285167387E+03  0.71285167388E+03  0.25500000920E-02 0.  1.
        2   -1    0    0  501    0  0.00000000000E+00  0.00000000000E+00 -0.10193923270E+04  0.10193923270E+04  0.25500000920E-02 0. -1.
    10030    2    1    2    0    0  0.00000000000E+00  0.00000000000E+00 -0.30654065315E+03  0.17322440009E+04  0.17049053072E+04 0.  0.
        1    1    3    3  502    0 -0.22755871551E+03  0.76902313669E+03  0.14031988229E+03  0.81416781020E+03  0.50400001928E-02 0.  1.
       -1    1    3    3    0  502  0.22755871551E+03 -0.76902313669E+03 -0.44686053544E+03  0.91807619070E+03  0.50400001928E-02 0. -1.
</event>
<event>
 5   0  0.9625225E-04  0.1691397E+04  0.7818609E-02  0.8766286E-01
       -2   -1    0    0    0  501  0.00000000000E+00  0.00000000000E+00  0.41382016722E+03  0.41382016723E+03  0.25500000920E-02 0. -1.
        2   -1    0    0  501    0  0.00000000000E+00  0.00000000000E+00 -0.17283007311E+04  0.17283007311E+04  0.25500000920E-02 0.  1.
    10030    2    1    2    0    0  0.00000000000E+00  0.00000000000E+00 -0.13144805639E+04  0.21421208983E+04  0.16913966981E+04 0.  0.
        1    1    3    3  502    0 -0.25030545613E+03 -0.48551865907E+03  0.16042418057E+03  0.56931283791E+03  0.50400001928E-02 0. -1.
       -1    1    3    3    0  502  0.25030545613E+03  0.48551865907E+03 -0.14749047445E+04  0.15728080604E+04  0.50400001928E-02 0.  1.
</event>
<event>
 5   0  0.9610114E-04  0.1525925E+04  0.7818609E-02  0.8867394E-01
        2   -1    0    0  501    0  0.00000000000E+00  0.00000000000E+00  0.99708540828E+03  0.99708540829E+03  0.25500000920E-02 0.  1.
       -2   -1    0    0    0  501  0.00000000000E+00  0.00000000000E+00 -0.58381356573E+03  0.58381356573E+03  0.25500000920E-02 0. -1.
    10030    2    1    2    0    0  0.00000000000E+00  0.00000000000E+00  0.41327184256E+03  0.15808989740E+04  0.15259252767E+04 0.  0.
        2    1    3    3  502    0 -0.27818846112E+03 -0.28355977727E+03 -0.46822779144E+03  0.61402950407E+03  0.25500000920E-02 0. -1.
       -2    1    3    3    0  502  0.27818846112E+03  0.28355977727E+03  0.88149963399E+03  0.96686946995E+03  0.25500000920E-02 0.  1.
</event>
<event>
 5   0  0.5035495E-04  0.1626490E+04  0.7818609E-02  0.8804437E-01
       -1   -1    0    0    0  501  0.00000000000E+00  0.00000000000E+00  0.29913620512E+03  0.29913620516E+03  0.50400001928E-02 0. -1.
        1   -1    0    0  501    0  0.00000000000E+00  0.00000000000E+00 -0.22109241160E+04  0.22109241160E+04  0.50400001928E-02 0.  1.
    10030    2    1    2    0    0  0.00000000000E+00  0.00000000000E+00 -0.19117879109E+04  0.25100603212E+04  0.16264900245E+04 0.  0.
        4    1    3    3  502    0  0.33977709616E+03 -0.55259422629E+03 -0.19898832019E+03  0.67853284259E+03  0.12699999809E+01 0. -1.
       -4    1    3    3    0  502 -0.33977709616E+03  0.55259422629E+03 -0.17127995907E+04  0.18315274786E+04  0.12699999809E+01 0.  1.
</event>
<event>
 5   0  0.5035495E-04  0.1652128E+04  0.7818609E-02  0.8789149E-01
        1   -1    0    0  501    0  0.00000000000E+00  0.00000000000E+00  0.17479542858E+04  0.17479542859E+04  0.50400001928E-02 0. -1.
       -1   -1    0    0    0  501  0.00000000000E+00  0.00000000000E+00 -0.39038873671E+03  0.39038873674E+03  0.50400001928E-02 0.  1.
    10030    2    1    2    0    0  0.00000000000E+00  0.00000000000E+00  0.13575655491E+04  0.21383430226E+04  0.16521279194E+04 0.  0.
        4    1    3    3  502    0 -0.75229117578E+02 -0.17218171614E+03 -0.36236100390E+03  0.40818264730E+03  0.12699999809E+01 0.  1.
       -4    1    3    3    0  502  0.75229117578E+02  0.17218171614E+03  0.17199265530E+04  0.17301603753E+04  0.12699999809E+01 0. -1.
</event>
<event>
 5   0  0.5074133E-04  0.1702916E+04  0.7818609E-02  0.8759703E-01
        1   -1    0    0  501    0  0.00000000000E+00  0.00000000000E+00  0.95745360304E+03  0.95745360305E+03  0.50400001928E-02 0. -1.
       -1   -1    0    0    0  501  0.00000000000E+00  0.00000000000E+00 -0.75719631344E+03  0.75719631345E+03  0.50400001928E-02 0.  1.
    10030    2    1    2    0    0  0.00000000000E+00  0.00000000000E+00  0.20025728960E+03  0.17146499165E+04  0.17029155452E+04 0.  0.
        1    1    3    3  502    0 -0.73455025087E+03  0.35513768777E+03 -0.14505181779E+03  0.82868985646E+03  0.50400001928E-02 0.  1.
       -1    1    3    3    0  502  0.73455025087E+03 -0.35513768777E+03  0.34530910739E+03  0.88596006005E+03  0.50400001928E-02 0. -1.
</event>
<event>
 5   0  0.4947006E-04  0.1720326E+04  0.7818609E-02  0.8749856E-01
       -1   -1    0    0    0  501  0.00000000000E+00  0.00000000000E+00  0.47867746127E+03  0.47867746130E+03  0.50400001928E-02 0. -1.
        1   -1    0    0  501    0  0.00000000000E+00  0.00000000000E+00 -0.15456759387E+04  0.15456759387E+04  0.50400001928E-02 0.  1.
    10030    2    1    2    0    0  0.00000000000E+00  0.00000000000E+00 -0.10669984774E+04  0.20243534000E+04  0.17203258230E+04 0.  0.
        2    1    3    3  502    0  0.41071970852E+03  0.35382707986E+03  0.25235333881E+03  0.59796863549E+03  0.25500000920E-02 0. -1.
       -2    1    3    3    0  502 -0.41071970852E+03 -0.35382707986E+03 -0.13193518162E+04  0.14263847645E+04  0.25500000920E-02 0.  1.
</event>
<event>
 5   0  0.4947006E-04  0.1651827E+04  0.7818609E-02  0.8789326E-01
       -1   -1    0    0    0  501  0.00000000000E+00  0.00000000000E+00  0.80840871651E+03  0.80840871653E+03  0.50400001928E-02 0. -1.
        1   -1    0    0  501    0  0.00000000000E+00  0.00000000000E+00 -0.84379758779E+03  0.84379758781E+03  0.50400001928E-02 0.  1.
    10030    2    1    2    0    0  0.00000000000E+00  0.00000000000E+00 -0.35388871279E+02  0.16522063043E+04  0.16518272609E+04 0.  0.
        2    1    3    3  502    0  0.10484126358E+03 -0.61877578787E+03  0.51932555157E+03  0.81460063511E+03  0.25500000920E-02 0. -1.
       -2    1    3    3    0  502 -0.10484126358E+03  0.61877578787E+03 -0.55471442284E+03  0.83760566923E+03  0.25500000920E-02 0.  1.
</event>
<event>
 5   0  0.9312096E-04  0.1686993E+04  0.7818609E-02  0.8768818E-01
        2   -1    0    0  501    0  0.00000000000E+00  0.00000000000E+00  0.79010544735E+03  0.79010544735E+03  0.25500000920E-02 0. -1.
       -2   -1    0    0    0  501  0.00000000000E+00  0.00000000000E+00 -0.90049514529E+03  0.90049514529E+03  0.25500000920E-02 0.  1.
    10030    2    1    2    0    0  0.00000000000E+00  0.00000000000E+00 -0.11038969794E+03  0.16906005926E+04  0.16869927322E+04 0.  0.
        3    1    3    3  502    0 -0.48447220814E+03 -0.79330309319E+02 -0.74257684608E+03  0.89018368946E+03  0.10100000352E+00 0.  1.
       -3    1    3    3    0  502  0.48447220814E+03  0.79330309319E+02  0.63218714814E+03  0.80041690319E+03  0.10100000352E+00 0. -1.
</event>
<event>
 5   0  0.9625225E-04  0.1671732E+04  0.7818609E-02  0.8777653E-01
       -2   -1    0    0    0  501  0.00000000000E+00  0.00000000000E+00  0.66192444834E+03  0.66192444834E+03  0.25500000920E-02 0. -1.
        2   -1    0    0  501    0  0.00000000000E+00  0.00000000000E+00 -0.10555162054E+04  0.10555162054E+04  0.25500000920E-02 0.  1.
    10030    2    1    2    0    0  0.00000000000E+00  0.00000000000E+00 -0.39359175706E+03  0.17174406537E+04  0.16717320144E+04 0.  0.
        1    1    3    3  502    0 -0.63405646459E+03 -0.83345121624E+02  0.35615659765E+03  0.73199831398E+03  0.50400001928E-02 0. -1.
       -1    1    3    3    0  502  0.63405646459E+03  0.83345121624E+02 -0.74974835471E+03  0.98544233977E+03  0.50400001928E-02 0.  1.
</event>
<event>
 5   0  0.9312096E-04  0.1653604E+04  0.7818609E-02  0.8788277E-01
        2   -1    0    0  501    0  0.00000000000E+00  0.00000000000E+00  0.72808732505E+03  0.72808732506E+03  0.25500000920E-02 0. -1.
       -2   -1    0    0    0  501  0.00000000000E+00  0.00000000000E+00 -0.93890054233E+03  0.93890054233E+03  0.25500000920E-02 0.  1.
    10030    2    1    2    0    0  0.00000000000E+00  0.00000000000E+00 -0.21081321728E+03  0.16669878674E+04  0.16536040449E+04 0.  0.
        3    1    3    3  502    0  0.49768305029E+03 -0.14078951014E+03  0.54486578802E+03  0.75125817258E+03  0.10100000352E+00 0. -1.
       -3    1    3    3    0  502 -0.49768305029E+03  0.14078951014E+03 -0.75567900530E+03  0.91572969481E+03  0.10100000352E+00 0.  1.
</event>
<event>
 5   0  0.5074133E-04  0.1141583E+04  0.7818609E-02  0.9165584E-01
        1   -1    0    0  501    0  0.00000000000E+00  0.00000000000E+00  0.28326178278E+03  0.28326178283E+03  0.50400001928E-02 0.  1.
       -1   -1    0    0    0  501  0.00000000000E+00  0.00000000000E+00 -0.11501838911E+04  0.11501838912E+04  0.50400001928E-02 0. -1.
    10030    2    1    2    0    0  0.00000000000E+00  0.00000000000E+00 -0.86692210836E+03  0.14334456740E+04  0.11415833558E+04 0.  0.
        1    1    3    3  502    0  0.38773374877E+03 -0.31971480293E+03 -0.93623112690E+02  0.51119497494E+03  0.50400001928E-02 0.  1.
       -1    1    3    3    0  502 -0.38773374877E+03  0.31971480293E+03 -0.77329899567E+03  0.92225069904E+03  0.50400001928E-02 0. -1.
</event>
<event>
 5   0  0.9610114E-04  0.1805649E+04  0.7818609E-02  0.8703301E-01
        2   -1    0    0  501    0  0.00000000000E+00  0.00000000000E+00  0.89284233662E+03  0.89284233662E+03  0.25500000920E-02 0. -1.
       -2   -1    0    0    0  501  0.00000000000E+00  0.00000000000E+00 -0.91291798798E+03  0.91291798798E+03  0.25500000920E-02 0.  1.
    10030    2    1    2    0    0  0.00000000000E+00  0.00000000000E+00 -0.20075651359E+02  0.18057603246E+04  0.18056487250E+04 0.  0.
        2    1    3    3  502    0  0.23402494510E+03  0.85358985257E+03  0.16804203798E+03  0.90090034847E+03  0.25500000920E-02 0. -1.
       -2    1    3    3    0  502 -0.23402494510E+03 -0.85358985257E+03 -0.18811768934E+03  0.90485997613E+03  0.25500000920E-02 0.  1.
</event>
<event>
 5   0  0.9610114E-04  0.1683969E+04  0.7818609E-02  0.8770561E-01
       -2   -1    0    0    0  501  0.00000000000E+00  0.00000000000E+00  0.52625395381E+03  0.52625395382E+03  0.25500000920E-02 0.  1.
        2   -1    0    0  501    0  0.00000000000E+00  0.00000000000E+00 -0.13471399343E+04  0.13471399343E+04  0.25500000920E-02 0. -1.
    10030    2    1    2    0    0  0.00000000000E+00  0.00000000000E+00 -0.82088598050E+03  0.18733938881E+04  0.16839687845E+04 0.  0.
        2    1    3    3  502    0 -0.93741490465E+02 -0.78287200201E+03 -0.81813265716E+02  0.79269757727E+03  0.25500000920E-02 0. -1.
       -2    1    3    3    0  502  0.93741490465E+02  0.78287200201E+03 -0.73907271479E+03  0.10806963109E+04  0.25500000920E-02 0.  1.
</event>
<event>
 5   0  0.5074133E-04  0.1720177E+04  0.7818609E-02  0.8749939E-01
       -1   -1    0    0    0  501  0.00000000000E+00  0.00000000000E+00  0.15128559556E+04  0.15128559556E+04  0.50400001928E-02 0. -1.
        1   -1    0    0  501    0  0.00000000000E+00  0.00000000000E+00 -0.48897744134E+03  0.48897744137E+03  0.50400001928E-02 0.  1.
    10030    2    1    2    0    0  0.00000000000E+00  0.00000000000E+00  0.10238785143E+04  0.20018333970E+04  0.17201772401E+04 0.  0.
        1    1    3    3  502    0 -0.77412005632E+03 -0.27483323495E+03  0.21534099576E+03  0.84921546919E+03  0.50400001928E-02 0.  1.
       -1    1    3    3    0  502  0.77412005632E+03  0.27483323495E+03  0.80853751853E+03  0.11526179278E+04  0.50400001928E-02 0. -1.
</event>
<event>
 5   0  0.5035495E-04  0.1664539E+04  0.7818609E-02  0.8781851E-01
       -1   -1    0    0    0  501  0.00000000000E+00  0.00000000000E+00  0.48693861322E+03  0.48693861324E+03  0.50400001928E-02 0.  1.
        1   -1    0    0  501    0  0.00000000000E+00  0.00000000000E+00 -0.14225055516E+04  0.14225055516E+04  0.50400001928E-02 0. -1.
    10030    2    1    2    0    0  0.00000000000E+00  0.00000000000E+00 -0.93556693835E+03  0.19094441648E+04  0.16645394325E+04 0.  0.
        4    1    3    3  502    0 -0.30012159629E+03 -0.71805789564E+03 -0.80612119101E+03  0.11204968101E+04  0.12699999809E+01 0.  1.
       -4    1    3    3    0  502  0.30012159629E+03  0.71805789564E+03 -0.12944574734E+03  0.78894735467E+03  0.12699999809E+01 0. -1.
</event>
<event>
 5   0  0.5059689E-04  0.1688391E+04  0.7818609E-02  0.8768013E-01
        1   -1    0    0  501    0  0.00000000000E+00  0.00000000000E+00  0.10744930731E+04  0.10744930731E+04  0.50400001928E-02 0.  1.
       -1   -1    0    0    0  501  0.00000000000E+00  0.00000000000E+00 -0.66325766231E+03  0.66325766233E+03  0.50400001928E-02 0. -1.
    10030    2    1    2    0    0  0.00000000000E+00  0.00000000000E+00  0.41123541081E+03  0.17377507355E+04  0.16883906703E+04 0.  0.
        5    1    3    3  502    0  0.72587150689E+03 -0.30700039485E+03  0.51695913769E+03  0.94255372631E+03  0.46999998093E+01 0.  1.
       -5    1    3    3    0  502 -0.72587150689E+03  0.30700039485E+03 -0.10572372688E+03  0.79519700915E+03  0.46999998093E+01 0. -1.
</event>
<event>
 5   0  0.9284971E-04  0.1663190E+04  0.7818609E-02  0.8782642E-01
       -2   -1    0    0    0  501  0.00000000000E+00  0.00000000000E+00  0.84120696831E+03  0.84120696831E+03  0.25500000920E-02 0. -1.
        2   -1    0    0  501    0  0.00000000000E+00  0.00000000000E+00 -0.82209258419E+03  0.82209258419E+03  0.25500000920E-02 0.  1.
    10030    2    1    2    0    0  0.00000000000E+00  0.00000000000E+00  0.19114384117E+02  0.16632995525E+04  0.16631897191E+04 0.  0.
        4    1    3    3  502    0 -0.11083093483E+03 -0.77044521787E+03  0.30228639140E+03  0.83501377545E+03  0.12699999809E+01 0. -1.
       -4    1    3    3    0  502  0.11083093483E+03  0.77044521787E+03 -0.28317200729E+03  0.82828577705E+03  0.12699999809E+01 0.  1.
</event>
<event>
 5   0  0.5059689E-04  0.1654962E+04  0.7818609E-02  0.8787477E-01
        1   -1    0    0  501    0  0.00000000000E+00  0.00000000000E+00  0.15443784667E+04  0.15443784667E+04  0.50400001928E-02 0. -1.
       -1   -1    0    0    0  501  0.00000000000E+00  0.00000000000E+00 -0.44336580189E+03  0.44336580192E+03  0.50400001928E-02 0.  1.
    10030    2    1    2    0    0  0.00000000000E+00  0.00000000000E+00  0.11010126648E+04  0.19877442686E+04  0.16549617486E+04 0.  0.
        5    1    3    3  502    0  0.15915567106E+03 -0.74043106249E+03  0.15010485278E+03  0.77208953027E+03  0.46999998093E+01 0.  1.
       -5    1    3    3    0  502 -0.15915567106E+03  0.74043106249E+03  0.95090781202E+03  0.12156547384E+04  0.46999998093E+01 0. -1.
</event>
<event>
 5   0  0.9625225E-04  0.1689958E+04  0.7818609E-02  0.8767113E-01
        2   -1    0    0  501    0  0.00000000000E+00  0.00000000000E+00  0.16931814634E+04  0.16931814634E+04  0.25500000920E-02 0.  1.
       -2   -1    0    0    0  501  0.00000000000E+00  0.00000000000E+00 -0.42168502486E+03  0.42168502486E+03  0.25500000920E-02 0. -1.
    10030    2    1    2    0    0  0.00000000000E+00  0.00000000000E+00  0.12714964386E+04  0.21148664883E+04  0.16899577125E+04 0.  0.
        1    1    3    3  502    0  0.69177555141E+03 -0.37299750481E+03  0.10241130666E+04  0.12909252981E+04  0.50400001928E-02 0.  1.
       -1    1    3    3    0  502 -0.69177555141E+03  0.37299750481E+03  0.24738337200E+03  0.82394119019E+03  0.50400001928E-02 0. -1.
</event>
<event>
 5   0  0.5059689E-04  0.1677473E+04  0.7818609E-02  0.8774318E-01
       -1   -1    0    0    0  501  0.00000000000E+00  0.00000000000E+00  0.12916949971E+04  0.12916949971E+04  0.50400001928E-02 0.  1.
        1   -1    0    0  501    0  0.00000000000E+00  0.00000000000E+00 -0.54461665892E+03  0.54461665894E+03  0.50400001928E-02 0. -1.
    10030    2    1    2    0    0  0.00000000000E+00  0.00000000000E+00  0.74707833819E+03  0.18363116561E+04  0.16774726391E+04 0.  0.
        5    1    3    3  502    0 -0.50160876755E+03  0.62061756904E+03  0.90865414101E+02  0.80315386829E+03  0.46999998093E+01 0.  1.
       -5    1    3    3    0  502  0.50160876755E+03 -0.62061756904E+03  0.65621292409E+03  0.10331577878E+04  0.46999998093E+01 0. -1.
</event>
<event>
 5   0  0.5009762E-04  0.1573698E+04  0.7818609E-02  0.8836871E-01
        1   -1    0    0  501    0  0.00000000000E+00  0.00000000000E+00  0.56114717886E+03  0.56114717889E+03  0.50400001928E-02 0. -1.
       -1   -1    0    0    0  501  0.00000000000E+00  0.00000000000E+00 -0.11033318325E+04  0.11033318325E+04  0.50400001928E-02 0.  1.
    10030    2    1    2    0    0  0.00000000000E+00  0.00000000000E+00 -0.54218465363E+03  0.16644790114E+04  0.15736982496E+04 0.  0.
        3    1    3    3  502    0  0.11142881656E+03 -0.48254397874E+03  0.37562592185E+03  0.62157856780E+03  0.10100000352E+00 0. -1.
       -3    1    3    3    0  502 -0.11142881656E+03  0.48254397874E+03 -0.91781057548E+03  0.10429004436E+04  0.10100000352E+00 0.  1.
</event>
<event>
 5   0  0.5009762E-04  0.1555940E+04  0.7818609E-02  0.8848083E-01
       -1   -1    0    0    0  501  0.00000000000E+00  0.00000000000E+00  0.48241636202E+03  0.48241636205E+03  0.50400001928E-02 0. -1.
        1   -1    0    0  501    0  0.00000000000E+00  0.00000000000E+00 -0.12545952684E+04  0.12545952684E+04  0.50400001928E-02 0.  1.
    10030    2    1    2    0    0  0.00000000000E+00  0.00000000000E+00 -0.77217890642E+03  0.17370116305E+04  0.15559399542E+04 0.  0.
        3    1    3    3  502    0  0.56564774376E+03 -0.48534244491E+03 -0.13715392772E+03  0.75784290519E+03  0.10100000352E+00 0. -1.
       -3    1    3    3    0  502 -0.56564774376E+03  0.48534244491E+03 -0.63502497870E+03  0.97916872531E+03  0.10100000352E+00 0.  1.
</event>
<event>
 5   0  0.5059689E-04  0.1629254E+04  0.7818609E-02  0.8802775E-01
       -1   -1    0    0    0  501  0.00000000000E+00  0.00000000000E+00  0.32792970164E+03  0.32792970168E+03  0.50400001928E-02 0.  1.
        1   -1    0    0  501    0  0.00000000000E+00  0.00000000000E+00 -0.20236576399E+04  0.20236576399E+04  0.50400001928E-02 0. -1.
    10030    2    1    2    0    0  0.00000000000E+00  0.00000000000E+00 -0.16957279383E+04  0.23515873416E+04  0.16292543646E+04 0.  0.
        5    1    3    3  502    0  0.44233955569E+03 -0.64420589452E+03 -0.51579942443E+03  0.93634216679E+03  0.46999998093E+01 0.  1.
       -5    1    3    3    0  502 -0.44233955569E+03  0.64420589452E+03 -0.11799285139E+04  0.14152451748E+04  0.46999998093E+01 0. -1.
</event>
<event>
 5   0  0.9284971E-04  0.1625812E+04  0.7818609E-02  0.8804846E-01
        2   -1    0    0  501    0  0.00000000000E+00  0.00000000000E+00  0.11751877846E+04  0.11751877846E+04  0.25500000920E-02 0. -1.
       -2   -1    0    0    0  501  0.00000000000E+00  0.00000000000E+00 -0.56230681806E+03  0.56230681807E+03  0.25500000920E-02 0.  1.
    10030    2    1    2    0    0  0.00000000000E+00  0.00000000000E+00  0.61288096658E+03  0.17374946027E+04  0.16258119249E+04 0.  0.
        4    1    3    3  502    0  0.66459579202E+01 -0.68543495881E+03  0.77343537060E+03  0.10334743039E+04  0.12699999809E+01 0. -1.
       -4    1    3    3    0  502 -0.66459579202E+01  0.68543495881E+03 -0.16055440402E+03  0.70402029876E+03  0.12699999809E+01 0.  1.
</event>
<event>
 5   0  0.9312096E-04  0.1692947E+04  0.7818609E-02  0.8765397E-01
       -2   -1    0    0    0  501  0.00000000000E+00  0.00000000000E+00  0.10122885474E+04  0.10122885474E+04  0.25500000920E-02 0. -1.
        2   -1    0    0  501    0  0.00000000000E+00  0.00000000000E+00 -0.70781964217E+03  0.70781964217E+03  0.25500000920E-02 0.  1.
    10030    2    1    2    0    0  0.00000000000E+00  0.00000000000E+00  0.30446890526E+03  0.17201081896E+04  0.16929473913E+04 0.  0.
        3    1    3    3  502    0 -0.23575314415E+03  0.77725921449E+03  0.39439894234E+03  0.90291858293E+03  0.10100000352E+00 0. -1.
       -3    1    3    3    0  502  0.23575314415E+03 -0.77725921449E+03 -0.89930037073E+02  0.81718960668E+03  0.10100000352E+00 0.  1.
</event>
<event>
 5   0  0.9610114E-04  0.1704935E+04  0.7818609E-02  0.8758555E-01
        2   -1    0    0  501    0  0.00000000000E+00  0.00000000000E+00  0.16530460799E+04  0.16530460799E+04  0.25500000920E-02 0.  1.
       -2   -1    0    0    0  501  0.00000000000E+00  0.00000000000E+00 -0.43961334843E+03  0.43961334844E+03  0.25500000920E-02 0. -1.
    10030    2    1    2    0    0  0.00000000000E+00  0.00000000000E+00  0.12134327314E+04  0.20926594283E+04  0.17049353328E+04 0.  0.
        2    1    3    3  502    0 -0.22002008339E+03  0.59243958573E+03 -0.95496372013E+02  0.63915026160E+03  0.25500000920E-02 0. -1.
       -2    1    3    3    0  502  0.22002008339E+03 -0.59243958573E+03  0.13089291035E+04  0.14535091667E+04  0.25500000920E-02 0.  1.
</event>
<event>
 5   0  0.9625225E-04  0.1740223E+04  0.7818609E-02  0.8738750E-01
       -2   -1    0    0    0  501  0.00000000000E+00  0.00000000000E+00  0.99415115382E+03  0.99415115382E+03  0.25500000920E-02 0. -1.
        2   -1    0    0  501    0  0.00000000000E+00  0.00000000000E+00 -0.76154854881E+03  0.76154854882E+03  0.25500000920E-02 0.  1.
    10030    2    1    2    0    0  0.00000000000E+00  0.00000000000E+00  0.23260260501E+03  0.17556997026E+04  0.17402233977E+04 0.  0.
        1    1    3    3  502    0  0.29883786311E+03 -0.39840824956E+02  0.93977271504E+03  0.98694686570E+03  0.50400001928E-02 0. -1.
       -1    1    3    3    0  502 -0.29883786311E+03  0.39840824956E+02 -0.70717011003E+03  0.76875283694E+03  0.50400001928E-02 0.  1.
</event>
<event>
 5   0  0.1007187E-03  0.1873898E+04  0.7818609E-02  0.8667959E-01
        2   -1    0    0  501    0  0.00000000000E+00  0.00000000000E+00  0.63138361445E+03  0.63138361446E+03  0.25500000920E-02 0.  1.
       -2   -1    0    0    0  501  0.00000000000E+00  0.00000000000E+00 -0.13903959546E+04  0.13903959546E+04  0.25500000920E-02 0. -1.
    10030    2    1    2    0    0  0.00000000000E+00  0.00000000000E+00 -0.75901234018E+03  0.20217795691E+04  0.18738977809E+04 0.  0.
        5    1    3    3  502    0 -0.25404569701E+02 -0.81345090474E+03 -0.88036454071E+03  0.11989210070E+04  0.46999998093E+01 0. -1.
       -5    1    3    3    0  502  0.25404569701E+02  0.81345090474E+03  0.12135220052E+03  0.82285856206E+03  0.46999998093E+01 0.  1.
</event>
<event>
 5   0  0.9312096E-04  0.1833990E+04  0.7818609E-02  0.8688430E-01
        2   -1    0    0  501    0  0.00000000000E+00  0.00000000000E+00  0.15942413724E+04  0.15942413724E+04  0.25500000920E-02 0. -1.
       -2   -1    0    0    0  501  0.00000000000E+00  0.00000000000E+00 -0.52744798248E+03  0.52744798249E+03  0.25500000920E-02 0.  1.
    10030    2    1    2    0    0  0.00000000000E+00  0.00000000000E+00  0.10667933899E+04  0.21216893549E+04  0.18339895261E+04 0.  0.
        3    1    3    3  502    0  0.81572046996E+03  0.37624514137E+03  0.74645921843E+03  0.11679733158E+04  0.10100000352E+00 0.  1.
       -3    1    3    3    0  502 -0.81572046996E+03 -0.37624514137E+03  0.32033417147E+03  0.95371603904E+03  0.10100000352E+00 0. -1.
</event>
<event>
 5   0  0.5074133E-04  0.1719696E+04  0.7818609E-02  0.8750210E-01
        1   -1    0    0  501    0  0.00000000000E+00  0.00000000000E+00  0.79786133940E+03  0.79786133942E+03  0.50400001928E-02 0. -1.
       -1   -1    0    0    0  501  0.00000000000E+00  0.00000000000E+00 -0.92665066579E+03  0.92665066580E+03  0.50400001928E-02 0.  1.
    10030    2    1    2    0    0  0.00000000000E+00  0.00000000000E+00 -0.12878932639E+03  0.17245120052E+04  0.17196961841E+04 0.  0.
        1    1    3    3  502    0 -0.82228517869E+03 -0.24803674701E+03 -0.10529611680E+03  0.86531058886E+03  0.50400001928E-02 0.  1.
       -1    1    3    3    0  502  0.82228517869E+03  0.24803674701E+03 -0.23493209587E+02  0.85920141636E+03  0.50400001928E-02 0. -1.
</event>
<event>
 5   0  0.5009762E-04  0.1685681E+04  0.7818609E-02  0.8769573E-01
       -1   -1    0    0    0  501  0.00000000000E+00  0.00000000000E+00  0.11956782423E+04  0.11956782423E+04  0.50400001928E-02 0. -1.
        1   -1    0    0  501    0  0.00000000000E+00  0.00000000000E+00 -0.59412328553E+03  0.59412328555E+03  0.50400001928E-02 0.  1.
    10030    2    1    2    0    0  0.00000000000E+00  0.00000000000E+00  0.60155495675E+03  0.17898015278E+04  0.16856812104E+04 0.  0.
        3    1    3    3  502    0  0.48758096083E+03  0.91807376633E+02  0.10241961424E+04  0.11380428534E+04  0.10100000352E+00 0. -1.
       -3    1    3    3    0  502 -0.48758096083E+03 -0.91807376633E+02 -0.42264118565E+03  0.65175867449E+03  0.10100000352E+00 0.  1.
</event>
<event>
 5   0  0.5059689E-04  0.1593953E+04  0.7818609E-02  0.8824272E-01
       -1   -1    0    0    0  501  0.00000000000E+00  0.00000000000E+00  0.76484418771E+03  0.76484418773E+03  0.50400001928E-02 0. -1.
        1   -1    0    0  501    0  0.00000000000E+00  0.00000000000E+00 -0.83045836245E+03  0.83045836247E+03  0.50400001928E-02 0.  1.
    10030    2    1    2    0    0  0.00000000000E+00  0.00000000000E+00 -0.65614174737E+02  0.15953025502E+04  0.15939526363E+04 0.  0.
        5    1    3    3  502    0  0.44433102933E+02 -0.73649291307E+03  0.26870051143E+03  0.78525038458E+03  0.46999998093E+01 0. -1.
       -5    1    3    3    0  502 -0.44433102933E+02  0.73649291307E+03 -0.33431468617E+03  0.81005216562E+03  0.46999998093E+01 0.  1.
</event>
<event>
 5   0  0.5009762E-04  0.1747577E+04  0.7818609E-02  0.8734685E-01
        1   -1    0    0  501    0  0.00000000000E+00  0.00000000000E+00  0.12180704003E+04  0.12180704003E+04  0.50400001928E-02 0.  1.
       -1   -1    0    0    0  501  0.00000000000E+00  0.00000000000E+00 -0.62681618213E+03  0.62681618215E+03  0.50400001928E-02 0. -1.
    10030    2    1    2    0    0  0.00000000000E+00  0.00000000000E+00  0.59125421819E+03  0.18448865825E+04  0.17475768800E+04 0.  0.
        3    1    3    3  502    0 -0.66729782722E+03 -0.13061816710E+03  0.87496390323E+03  0.11081107065E+04  0.10100000352E+00 0.  1.
       -3    1    3    3    0  502  0.66729782722E+03  0.13061816710E+03 -0.28370968503E+03  0.73677587594E+03  0.10100000352E+00 0. -1.
</event>
<event>
 5   0  0.9610114E-04  0.1998153E+04  0.7818609E-02  0.8607485E-01
       -2   -1    0    0    0  501  0.00000000000E+00  0.00000000000E+00  0.68418492141E+03  0.68418492141E+03  0.25500000920E-02 0. -1.
        2   -1    0    0  501    0  0.00000000000E+00  0.00000000000E+00 -0.14588944199E+04  0.14588944199E+04  0.25500000920E-02 0.  1.
    10030    2    1    2    0    0  0.00000000000E+00  0.00000000000E+00 -0.77470949845E+03  0.21430793413E+04  0.19981527109E+04 0.  0.
        2    1    3    3  502    0 -0.84407397101E+03  0.36027562950E+03  0.36117060692E+02  0.91845731519E+03  0.25500000920E-02 0. -1.
       -2    1    3    3    0  502  0.84407397101E+03 -0.36027562950E+03 -0.81082655914E+03  0.12246220261E+04  0.25500000920E-02 0.  1.
</event>
<event>
 5   0  0.9312096E-04  0.1695849E+04  0.7818609E-02  0.8763736E-01
       -2   -1    0    0    0  501  0.00000000000E+00  0.00000000000E+00  0.30917941366E+03  0.30917941367E+03  0.25500000920E-02 0.  1.
        2   -1    0    0  501    0  0.00000000000E+00  0.00000000000E+00 -0.23254314770E+04  0.23254314770E+04  0.25500000920E-02 0. -1.
    10030    2    1    2    0    0  0.00000000000E+00  0.00000000000E+00 -0.20162520633E+04  0.26346108906E+04  0.16958485081E+04 0.  0.
        3    1    3    3  502    0 -0.21631653497E+03 -0.11734812254E+03 -0.22687290207E+04  0.22820374240E+04  0.10100000352E+00 0. -1.
       -3    1    3    3    0  502  0.21631653497E+03  0.11734812254E+03  0.25247695737E+03  0.35257346662E+03  0.10100000352E+00 0.  1.
</event>
<event>
 5   0  0.5009762E-04  0.1677183E+04  0.7818609E-02  0.8774486E-01
        1   -1    0    0  501    0  0.00000000000E+00  0.00000000000E+00  0.10084534710E+04  0.10084534710E+04  0.50400001928E-02 0. -1.
       -1   -1    0    0    0  501  0.00000000000E+00  0.00000000000E+00 -0.69734059447E+03  0.69734059448E+03  0.50400001928E-02 0.  1.
    10030    2    1    2    0    0  0.00000000000E+00  0.00000000000E+00  0.31111287653E+03  0.17057940655E+04  0.16771828081E+04 0.  0.
        3    1    3    3  502    0 -0.52925705414E+03  0.27376788857E+03 -0.44457191435E+03  0.74344205114E+03  0.10100000352E+00 0.  1.
       -3    1    3    3    0  502  0.52925705414E+03 -0.27376788857E+03  0.75568479088E+03  0.96235201436E+03  0.10100000352E+00 0. -1.
</event>
<event>
 5   0  0.4947006E-04  0.1704389E+04  0.7818609E-02  0.8758865E-01
        1   -1    0    0  501    0  0.00000000000E+00  0.00000000000E+00  0.49874147252E+03  0.49874147254E+03  0.50400001928E-02 0.  1.
       -1   -1    0    0    0  501  0.00000000000E+00  0.00000000000E+00 -0.14561357767E+04  0.14561357767E+04  0.50400001928E-02 0. -1.
    10030    2    1    2    0    0  0.00000000000E+00  0.00000000000E+00 -0.95739430416E+03  0.19548772492E+04  0.17043888071E+04 0.  0.
        2    1    3    3  502    0  0.44312418291E+03  0.69390131782E+03 -0.22642385814E+03  0.85388866013E+03  0.25500000920E-02 0. -1.
       -2    1    3    3    0  502 -0.44312418291E+03 -0.69390131782E+03 -0.73097044602E+03  0.11009885891E+04  0.25500000920E-02 0.  1.
</event>
<event>
 5   0  0.9610114E-04  0.1669186E+04  0.7818609E-02  0.8779136E-01
        2   -1    0    0  501    0  0.00000000000E+00  0.00000000000E+00  0.24065942188E+04  0.24065942188E+04  0.25500000920E-02 0. -1.
       -2   -1    0    0    0  501  0.00000000000E+00  0.00000000000E+00 -0.28943219235E+03  0.28943219236E+03  0.25500000920E-02 0.  1.
    10030    2    1    2    0    0  0.00000000000E+00  0.00000000000E+00  0.21171620265E+04  0.26960264112E+04  0.16691864376E+04 0.  0.
        2    1    3    3  502    0 -0.16685496391E+03 -0.65957807905E+03  0.27782855915E+03  0.73489627134E+03  0.25500000920E-02 0.  1.
       -2    1    3    3    0  502  0.16685496391E+03  0.65957807905E+03  0.18393334673E+04  0.19611301398E+04  0.25500000920E-02 0. -1.
</event>
<event>
 5   0  0.5035495E-04  0.1637821E+04  0.7818609E-02  0.8797644E-01
       -1   -1    0    0    0  501  0.00000000000E+00  0.00000000000E+00  0.52042426457E+03  0.52042426460E+03  0.50400001928E-02 0.  1.
        1   -1    0    0  501    0  0.00000000000E+00  0.00000000000E+00 -0.12885922812E+04  0.12885922812E+04  0.50400001928E-02 0. -1.
    10030    2    1    2    0    0  0.00000000000E+00  0.00000000000E+00 -0.76816801658E+03  0.18090165458E+04  0.16378213459E+04 0.  0.
        4    1    3    3  502    0 -0.79724347582E+03  0.56138032151E+02 -0.58124870288E+03  0.98823089705E+03  0.12699999809E+01 0. -1.
       -4    1    3    3    0  502  0.79724347582E+03 -0.56138032151E+02 -0.18691931370E+03  0.82078564871E+03  0.12699999809E+01 0.  1.
</event>
<event>
 5   0  0.9625225E-04  0.1718267E+04  0.7818609E-02  0.8751014E-01
        2   -1    0    0  501    0  0.00000000000E+00  0.00000000000E+00  0.16707758694E+04  0.16707758694E+04  0.25500000920E-02 0. -1.
       -2   -1    0    0    0  501  0.00000000000E+00  0.00000000000E+00 -0.44177680238E+03  0.44177680239E+03  0.25500000920E-02 0.  1.
    10030    2    1    2    0    0  0.00000000000E+00  0.00000000000E+00  0.12289990670E+04  0.21125526718E+04  0.17182665929E+04 0.  0.
        1    1    3    3  502    0 -0.38257469205E+02 -0.85142413936E+03  0.74761923858E+03  0.11337200823E+04  0.50400001928E-02 0.  1.
       -1    1    3    3    0  502  0.38257469205E+02  0.85142413936E+03  0.48137982846E+03  0.97883258952E+03  0.50400001928E-02 0. -1.
</event>
<event>
 5   0  0.5035495E-04  0.1662927E+04  0.7818609E-02  0.8782796E-01
        1   -1    0    0  501    0  0.00000000000E+00  0.00000000000E+00  0.12320826115E+04  0.12320826115E+04  0.50400001928E-02 0.  1.
       -1   -1    0    0    0  501  0.00000000000E+00  0.00000000000E+00 -0.56110799547E+03  0.56110799550E+03  0.50400001928E-02 0. -1.
    10030    2    1    2    0    0  0.00000000000E+00  0.00000000000E+00  0.67097461599E+03  0.17931906070E+04  0.16629268227E+04 0.  0.
        4    1    3    3  502    0 -0.27690782632E+03 -0.59710702047E+03  0.88333518567E+03  0.11015885808E+04  0.12699999809E+01 0.  1.
       -4    1    3    3    0  502  0.27690782632E+03  0.59710702047E+03 -0.21236056968E+03  0.69160202619E+03  0.12699999809E+01 0. -1.
</event>
<event>
 5   0  0.5009762E-04  0.1027581E+04  0.7818609E-02  0.9278801E-01
        1   -1    0    0  501    0  0.00000000000E+00  0.00000000000E+00  0.18254148679E+04  0.18254148679E+04  0.50400001928E-02 0.  1.
       -1   -1    0    0    0  501  0.00000000000E+00  0.00000000000E+00 -0.14461410084E+03  0.14461410093E+03  0.50400001928E-02 0. -1.
    10030    2    1    2    0    0  0.00000000000E+00  0.00000000000E+00  0.16808007670E+04  0.19700289688E+04  0.10275811012E+04 0.  0.
        3    1    3    3  502    0  0.12896430432E+03 -0.43424032798E+03  0.37557798008E+03  0.58843460431E+03  0.10100000352E+00 0. -1.
       -3    1    3    3    0  502 -0.12896430432E+03  0.43424032798E+03  0.13052227869E+04  0.13815943645E+04  0.10100000352E+00 0.  1.
</event>
<event>
 5   0  0.4947006E-04  0.1746016E+04  0.7818609E-02  0.8735546E-01
        1   -1    0    0  501    0  0.00000000000E+00  0.00000000000E+00  0.94003991447E+03  0.94003991448E+03  0.50400001928E-02 0.  1.
       -1   -1    0    0    0  501  0.00000000000E+00  0.00000000000E+00 -0.81075579453E+03  0.81075579455E+03  0.50400001928E-02 0. -1.
    10030    2    1    2    0    0  0.00000000000E+00  0.00000000000E+00  0.12928411994E+03  0.17507957090E+04  0.17460158164E+04 0.  0.
        2    1    3    3  502    0 -0.25092496189E+03 -0.76070847229E+03  0.41272648588E+03  0.90110147513E+03  0.25500000920E-02 0.  1.
       -2    1    3    3    0  502  0.25092496189E+03  0.76070847229E+03 -0.28344236594E+03  0.84969423391E+03  0.25500000920E-02 0. -1.
</event>
<event>
 5   0  0.9625225E-04  0.1635174E+04  0.7818609E-02  0.8799226E-01
        2   -1    0    0  501    0  0.00000000000E+00  0.00000000000E+00  0.13335231877E+04  0.13335231877E+04  0.25500000920E-02 0. -1.
       -2   -1    0    0    0  501  0.00000000000E+00  0.00000000000E+00 -0.50126500220E+03  0.50126500221E+03  0.25500000920E-02 0.  1.
    10030    2    1    2    0    0  0.00000000000E+00  0.00000000000E+00  0.83225818553E+03  0.18347881899E+04  0.16351740013E+04 0.  0.
        1    1    3    3  502    0 -0.33794518386E+03 -0.34853231646E+03  0.11542863961E+04  0.12522215488E+04  0.50400001928E-02 0. -1.
       -1    1    3    3    0  502  0.33794518386E+03  0.34853231646E+03 -0.32202821062E+03  0.58256664115E+03  0.50400001928E-02 0.  1.
</event>
<event>
 5   0  0.1007187E-03  0.1700573E+04  0.7818609E-02  0.8761037E-01
       -2   -1    0    0    0  501  0.00000000000E+00  0.00000000000E+00  0.63250301837E+03  0.63250301838E+03  0.25500000920E-02 0. -1.
        2   -1    0    0  501    0  0.00000000000E+00  0.00000000000E+00 -0.11430576559E+04  0.11430576559E+04  0.25500000920E-02 0.  1.
    10030    2    1    2    0    0  0.00000000000E+00  0.00000000000E+00 -0.51055463753E+03  0.17755606743E+04  0.17005733357E+04 0.  0.
        5    1    3    3  502    0  0.67072082354E+03  0.36440309646E+03 -0.64637330806E+03  0.10002382632E+04  0.46999998093E+01 0.  1.
       -5    1    3    3    0  502 -0.67072082354E+03 -0.36440309646E+03  0.13581867053E+03  0.77532241107E+03  0.46999998093E+01 0. -1.
</event>
<event>
 5   0  0.5059689E-04  0.1718049E+04  0.7818609E-02  0.8751137E-01
       -1   -1    0    0    0  501  0.00000000000E+00  0.00000000000E+00  0.10625185941E+04  0.10625185941E+04  0.50400001928E-02 0. -1.
        1   -1    0    0  501    0  0.00000000000E+00  0.00000000000E+00 -0.69450391896E+03  0.69450391898E+03  0.50400001928E-02 0.  1.
    10030    2    1    2    0    0  0.00000000000E+00  0.00000000000E+00  0.36801467515E+03  0.17570225131E+04  0.17180492747E+04 0.  0.
        5    1    3    3  502    0 -0.57508111220E+03 -0.22934150419E+03  0.79298610625E+03  0.10060640466E+04  0.46999998093E+01 0. -1.
       -5    1    3    3    0  502  0.57508111220E+03  0.22934150419E+03 -0.42497143110E+03  0.75095846650E+03  0.46999998093E+01 0.  1.
</event>
<event>
 5   0  0.9284971E-04  0.1694252E+04  0.7818609E-02  0.8764649E-01
        2   -1    0    0  501    0  0.00000000000E+00  0.00000000000E+00  0.70687403951E+03  0.70687403952E+03  0.25500000920E-02 0. -1.
       -2   -1    0    0    0  501  0.00000000000E+00  0.00000000000E+00 -0.10152057627E+04  0.10152057627E+04  0.25500000920E-02 0.  1.
    10030    2    1    2    0    0  0.00000000000E+00  0.00000000000E+00 -0.30833172317E+03  0.17220798022E+04  0.16942521635E+04 0.  0.
        4    1    3    3  502    0  0.37799154666E+03  0.67006647853E+03  0.20627716673E+03  0.79650397200E+03  0.12699999809E+01 0. -1.
       -4    1    3    3    0  502 -0.37799154666E+03 -0.67006647853E+03 -0.51460888989E+03  0.92557583020E+03  0.12699999809E+01 0.  1.
</event>
<event>
 5   0  0.5074133E-04  0.1719984E+04  0.7818609E-02  0.8750048E-01
        1   -1    0    0  501    0  0.00000000000E+00  0.00000000000E+00  0.14156571111E+04  0.14156571111E+04  0.50400001928E-02 0.  1.
       -1   -1    0    0    0  501  0.00000000000E+00  0.00000000000E+00 -0.52243289434E+03  0.52243289437E+03  0.50400001928E-02 0. -1.
    10030    2    1    2    0    0  0.00000000000E+00  0.00000000000E+00  0.89322421675E+03  0.19380900055E+04  0.17199835371E+04 0.  0.
        1    1    3    3  502    0  0.57691095476E+03 -0.42402288980E+03 -0.90207429213E+02  0.72163636348E+03  0.50400001928E-02 0. -1.
       -1    1    3    3    0  502 -0.57691095476E+03  0.42402288980E+03  0.98343164597E+03  0.12164536420E+04  0.50400001928E-02 0.  1.
</event>
<event>
 5   0  0.5059689E-04  0.1702318E+04  0.7818609E-02  0.8760044E-01
        1   -1    0    0  501    0  0.00000000000E+00  0.00000000000E+00  0.16629544031E+04  0.16629544031E+04  0.50400001928E-02 0.  1.
       -1   -1    0    0    0  501  0.00000000000E+00  0.00000000000E+00 -0.43565312103E+03  0.43565312106E+03  0.50400001928E-02 0. -1.
    10030    2    1    2    0    0  0.00000000000E+00  0.00000000000E+00  0.12273012821E+04  0.20986075242E+04  0.17023175684E+04 0.  0.
        5    1    3    3  502    0 -0.11920398422E+03  0.46250275790E+03  0.14821635050E+04  0.15572248189E+04  0.46999998093E+01 0.  1.
       -5    1    3    3    0  502  0.11920398422E+03 -0.46250275790E+03 -0.25486222294E+03  0.54138270530E+03  0.46999998093E+01 0. -1.
</event>
<event>
 5   0  0.4947006E-04  0.1774893E+04  0.7818609E-02  0.8719766E-01
       -1   -1    0    0    0  501  0.00000000000E+00  0.00000000000E+00  0.57412276303E+03  0.57412276305E+03  0.50400001928E-02 0. -1.
        1   -1    0    0  501    0  0.00000000000E+00  0.00000000000E+00 -0.13717644532E+04  0.13717644532E+04  0.50400001928E-02 0.  1.
    10030    2    1    2    0    0  0.00000000000E+00  0.00000000000E+00 -0.79764169016E+03  0.19458872162E+04  0.17748928961E+04 0.  0.
        2    1    3    3  502    0  0.52051317673E+03  0.57259947601E+03  0.77497302839E+02  0.77769528675E+03  0.25500000920E-02 0. -1.
       -2    1    3    3    0  502 -0.52051317673E+03 -0.57259947601E+03 -0.87513899300E+03  0.11681919295E+04  0.25500000920E-02 0.  1.
</event>
<event>
 5   0  0.4947006E-04  0.1682062E+04  0.7818609E-02  0.8771662E-01
       -1   -1    0    0    0  501  0.00000000000E+00  0.00000000000E+00  0.66802687246E+03  0.66802687248E+03  0.50400001928E-02 0. -1.
        1   -1    0    0  501    0  0.00000000000E+00  0.00000000000E+00 -0.10588396850E+04  0.10588396850E+04  0.50400001928E-02 0.  1.
    10030    2    1    2    0    0  0.00000000000E+00  0.00000000000E+00 -0.39081281257E+03  0.17268665575E+04  0.16820622619E+04 0.  0.
        2    1    3    3  502    0 -0.21972802724E+03 -0.28459609472E+03  0.58514664778E+03  0.68678376691E+03  0.25500000920E-02 0. -1.
       -2    1    3    3    0  502  0.21972802724E+03  0.28459609472E+03 -0.97595946035E+03  0.10400827906E+04  0.25500000920E-02 0.  1.
</event>
<event>
 5   0  0.5059689E-04  0.1657421E+04  0.7818609E-02  0.8786028E-01
        1   -1    0    0  501    0  0.00000000000E+00  0.00000000000E+00  0.10264703175E+04  0.10264703175E+04  0.50400001928E-02 0. -1.
       -1   -1    0    0    0  501  0.00000000000E+00  0.00000000000E+00 -0.66905134571E+03  0.66905134573E+03  0.50400001928E-02 0.  1.
    10030    2    1    2    0    0  0.00000000000E+00  0.00000000000E+00  0.35741897177E+03  0.16955216632E+04  0.16574213071E+04 0.  0.
        5    1    3    3  502    0  0.13075671866E+03  0.57250330791E+03  0.77685724488E+03  0.97385143937E+03  0.46999998093E+01 0. -1.
       -5    1    3    3    0  502 -0.13075671866E+03 -0.57250330791E+03 -0.41943827311E+03  0.72167022385E+03  0.46999998093E+01 0.  1.
</event>
<event>
 5   0  0.5059689E-04  0.1696582E+04  0.7818609E-02  0.8763316E-01
       -1   -1    0    0    0  501  0.00000000000E+00  0.00000000000E+00  0.43754626876E+03  0.43754626879E+03  0.50400001928E-02 0.  1.
        1   -1    0    0  501    0  0.00000000000E+00  0.00000000000E+00 -0.16446210689E+04  0.16446210689E+04  0.50400001928E-02 0. -1.
    10030    2    1    2    0    0  0.00000000000E+00  0.00000000000E+00 -0.12070748001E+04  0.20821673377E+04  0.16965822258E+04 0.  0.
        5    1    3    3  502    0  0.37583452665E+03 -0.58875442163E+03 -0.12797132869E+02  0.69861950804E+03  0.46999998093E+01 0.  1.
       -5    1    3    3    0  502 -0.37583452665E+03  0.58875442163E+03 -0.11942776672E+04  0.13835478296E+04  0.46999998093E+01 0. -1.
</event>
<event>
 5   0  0.4947006E-04  0.1664217E+04  0.7818609E-02  0.8782040E-01
        1   -1    0    0  501    0  0.00000000000E+00  0.00000000000E+00  0.41979035565E+03  0.41979035568E+03  0.50400001928E-02 0.  1.
       -1   -1    0    0    0  501  0.00000000000E+00  0.00000000000E+00 -0.16494064216E+04  0.16494064216E+04  0.50400001928E-02 0. -1.
    10030    2    1    2    0    0  0.00000000000E+00  0.00000000000E+00 -0.12296160659E+04  0.20691967773E+04  0.16642174237E+04 0.  0.
        2    1    3    3  502    0 -0.22274021960E+03 -0.44346896827E+03 -0.14452723403E+04  0.15281001501E+04  0.25500000920E-02 0. -1.
       -2    1    3    3    0  502  0.22274021960E+03  0.44346896827E+03  0.21565627433E+03  0.54109662715E+03  0.25500000920E-02 0.  1.
</event>
<event>
 5   0  0.4947006E-04  0.1720137E+04  0.7818609E-02  0.8749962E-01
        1   -1    0    0  501    0  0.00000000000E+00  0.00000000000E+00  0.21749133328E+04  0.21749133328E+04  0.50400001928E-02 0. -1.
       -1   -1    0    0    0  501  0.00000000000E+00  0.00000000000E+00 -0.34011388923E+03  0.34011388926E+03  0.50400001928E-02 0.  1.
    10030    2    1    2    0    0  0.00000000000E+00  0.00000000000E+00  0.18347994436E+04  0.25150272221E+04  0.17201374740E+04 0.  0.
        2    1    3    3  502    0  0.27589898441E+03  0.36700691015E+03  0.19807293668E+04  0.20332494058E+04  0.25500000920E-02 0. -1.
       -2    1    3    3    0  502 -0.27589898441E+03 -0.36700691015E+03 -0.14592992326E+03  0.48177781623E+03  0.25500000920E-02 0.  1.
</event>
<event>
 5   0  0.3523125E-04  0.1703625E+04  0.7818609E-02  0.8759300E-01
        4   -1    0    0  501    0  0.00000000000E+00  0.00000000000E+00  0.19627887008E+04  0.19627891116E+04  0.12699999809E+01 0.  1.
       -4   -1    0    0    0  501  0.00000000000E+00  0.00000000000E+00 -0.36966869179E+03  0.36967087333E+03  0.12699999809E+01 0. -1.
    10030    2    1    2    0    0  0.00000000000E+00  0.00000000000E+00  0.15931200090E+04  0.23324599850E+04  0.17036250228E+04 0.  0.
        3    1    3    3  502    0  0.39594850774E+03 -0.60258984099E+03  0.17561683309E+03  0.74211253830E+03  0.10100000352E+00 0. -1.
       -3    1    3    3    0  502 -0.39594850774E+03  0.60258984099E+03  0.14175031759E+04  0.15903474467E+04  0.10100000352E+00 0.  1.
</event>
<event>
 5   0  0.9625225E-04  0.1741262E+04  0.7818609E-02  0.8738175E-01
       -2   -1    0    0    0  501  0.00000000000E+00  0.00000000000E+00  0.12116448302E+04  0.12116448302E+04  0.25500000920E-02 0.  1.
        2   -1    0    0  501    0  0.00000000000E+00  0.00000000000E+00 -0.62559420202E+03  0.62559420202E+03  0.25500000920E-02 0. -1.
    10030    2    1    2    0    0  0.00000000000E+00  0.00000000000E+00  0.58605062817E+03  0.18372390322E+04  0.17412615894E+04 0.  0.
        1    1    3    3  502    0 -0.25238598574E+02  0.25158193813E+03  0.11720529008E+04  0.11990156215E+04  0.50400001928E-02 0.  1.
       -1    1    3    3    0  502  0.25238598574E+02 -0.25158193813E+03 -0.58600227259E+03  0.63822341069E+03  0.50400001928E-02 0. -1.
</event>
<event>
 5   0  0.5059689E-04  0.1586604E+04  0.7818609E-02  0.8828820E-01
       -1   -1    0    0    0  501  0.00000000000E+00  0.00000000000E+00  0.31056371445E+03  0.31056371450E+03  0.50400001928E-02 0.  1.
        1   -1    0    0  501    0  0.00000000000E+00  0.00000000000E+00 -0.20264059525E+04  0.20264059525E+04  0.50400001928E-02 0. -1.
    10030    2    1    2    0    0  0.00000000000E+00  0.00000000000E+00 -0.17158422381E+04  0.23369696670E+04  0.15866041216E+04 0.  0.
        5    1    3    3  502    0 -0.14621766831E+03  0.77969635584E+03 -0.85826911408E+03  0.11687403373E+04  0.46999998093E+01 0.  1.
       -5    1    3    3    0  502  0.14621766831E+03 -0.77969635584E+03 -0.85757312397E+03  0.11682293297E+04  0.46999998093E+01 0. -1.
</event>
<event>
 5   0  0.4947006E-04  0.1707445E+04  0.7818609E-02  0.8757130E-01
       -1   -1    0    0    0  501  0.00000000000E+00  0.00000000000E+00  0.63620581979E+03  0.63620581981E+03  0.50400001928E-02 0. -1.
        1   -1    0    0  501    0  0.00000000000E+00  0.00000000000E+00 -0.11456070822E+04  0.11456070823E+04  0.50400001928E-02 0.  1.
    10030    2    1    2    0    0  0.00000000000E+00  0.00000000000E+00 -0.50940126245E+03  0.17818129021E+04  0.17074447493E+04 0.  0.
        2    1    3    3  502    0  0.19222768206E+03  0.76504346546E+03  0.86014809907E+02  0.79349954841E+03  0.25500000920E-02 0. -1.
       -2    1    3    3    0  502 -0.19222768206E+03 -0.76504346546E+03 -0.59541607236E+03  0.98831335366E+03  0.25500000920E-02 0.  1.
</event>
<event>
 5   0  0.5074133E-04  0.1731178E+04  0.7818609E-02  0.8743780E-01
       -1   -1    0    0    0  501  0.00000000000E+00  0.00000000000E+00  0.12776513316E+04  0.12776513316E+04  0.50400001928E-02 0. -1.
        1   -1    0    0  501    0  0.00000000000E+00  0.00000000000E+00 -0.58642311802E+03  0.58642311804E+03  0.50400001928E-02 0.  1.
    10030    2    1    2    0    0  0.00000000000E+00  0.00000000000E+00  0.69122821360E+03  0.18640744497E+04  0.17311779546E+04 0.  0.
        1    1    3    3  502    0 -0.30921468358E+03  0.20408681420E+03 -0.49673059086E+03  0.61968252210E+03  0.50400001928E-02 0.  1.
       -1    1    3    3    0  502  0.30921468358E+03 -0.20408681420E+03  0.11879588045E+04  0.12443919276E+04  0.50400001928E-02 0. -1.
</event>
<event>
 5   0  0.1007187E-03  0.1757479E+04  0.7818609E-02  0.8729244E-01
       -2   -1    0    0    0  501  0.00000000000E+00  0.00000000000E+00  0.68628671595E+03  0.68628671596E+03  0.25500000920E-02 0.  1.
        2   -1    0    0  501    0  0.00000000000E+00  0.00000000000E+00 -0.11251609476E+04  0.11251609476E+04  0.25500000920E-02 0. -1.
    10030    2    1    2    0    0  0.00000000000E+00  0.00000000000E+00 -0.43887423162E+03  0.18114476635E+04  0.17574788894E+04 0.  0.
        5    1    3    3  502    0 -0.13629812844E+03  0.50259550788E+03  0.51009853044E+03  0.72897326776E+03  0.46999998093E+01 0.  1.
       -5    1    3    3    0  502  0.13629812844E+03 -0.50259550788E+03 -0.94897276206E+03  0.10824743958E+04  0.46999998093E+01 0. -1.
</event>
<event>
 5   0  0.1007187E-03  0.1681398E+04  0.7818609E-02  0.8772046E-01
        2   -1    0    0  501    0  0.00000000000E+00  0.00000000000E+00  0.11548078378E+04  0.11548078378E+04  0.25500000920E-02 0. -1.
       -2   -1    0    0    0  501  0.00000000000E+00  0.00000000000E+00 -0.61202789717E+03  0.61202789718E+03  0.25500000920E-02 0.  1.
    10030    2    1    2    0    0  0.00000000000E+00  0.00000000000E+00  0.54277994060E+03  0.17668357350E+04  0.16813977669E+04 0.  0.
        5    1    3    3  502    0 -0.26388649446E+03  0.20403488383E+03 -0.53949931405E+03  0.63430900643E+03  0.46999998093E+01 0.  1.
       -5    1    3    3    0  502  0.26388649446E+03 -0.20403488383E+03  0.10822792547E+04  0.11325267285E+04  0.46999998093E+01 0. -1.
</event>
<event>
 5   0  0.9284971E-04  0.1668393E+04  0.7818609E-02  0.8779599E-01
        2   -1    0    0  501    0  0.00000000000E+00  0.00000000000E+00  0.92244546687E+03  0.92244546687E+03  0.25500000920E-02 0. -1.
       -2   -1    0    0    0  501  0.00000000000E+00  0.00000000000E+00 -0.75438973884E+03  0.75438973885E+03  0.25500000920E-02 0.  1.
    10030    2    1    2    0    0  0.00000000000E+00  0.00000000000E+00  0.16805572803E+03  0.16768352057E+04  0.16683925136E+04 0.  0.
        4    1    3    3  502    0  0.11666483684E+03  0.48708749773E+03  0.75449946500E+03  0.90561358768E+03  0.12699999809E+01 0. -1.
       -4    1    3    3    0  502 -0.11666483684E+03 -0.48708749773E+03 -0.58644373698E+03  0.77122161804E+03  0.12699999809E+01 0.  1.
</event>
<event>
 5   0  0.5059689E-04  0.1393499E+04  0.7818609E-02  0.8958538E-01
        1   -1    0    0  501    0  0.00000000000E+00  0.00000000000E+00  0.71125082023E+03  0.71125082025E+03  0.50400001928E-02 0.  1.
       -1   -1    0    0    0  501  0.00000000000E+00  0.00000000000E+00 -0.68254401974E+03  0.68254401976E+03  0.50400001928E-02 0. -1.
    10030    2    1    2    0    0  0.00000000000E+00  0.00000000000E+00  0.28706800492E+02  0.13937948400E+04  0.13934991839E+04 0.  0.
        5    1    3    3  502    0  0.19878813261E+03  0.32921095570E+03  0.59545973740E+03  0.70886597033E+03  0.46999998093E+01 0.  1.
       -5    1    3    3    0  502 -0.19878813261E+03 -0.32921095570E+03 -0.56675293691E+03  0.68492886968E+03  0.46999998093E+01 0. -1.
</event>
<event>
 5   0  0.9610114E-04  0.1886857E+04  0.7818609E-02  0.8661426E-01
        2   -1    0    0  501    0  0.00000000000E+00  0.00000000000E+00  0.12960524994E+04  0.12960524994E+04  0.25500000920E-02 0.  1.
       -2   -1    0    0    0  501  0.00000000000E+00  0.00000000000E+00 -0.68674478069E+03  0.68674478070E+03  0.25500000920E-02 0. -1.
    10030    2    1    2    0    0  0.00000000000E+00  0.00000000000E+00  0.60930771874E+03  0.19827972801E+04  0.18868569522E+04 0.  0.
        2    1    3    3  502    0 -0.56405722673E+03 -0.11718576196E+03  0.10897454751E+04  0.12326549632E+04  0.25500000920E-02 0.  1.
       -2    1    3    3    0  502  0.56405722673E+03  0.11718576196E+03 -0.48043775639E+03  0.75014231690E+03  0.25500000920E-02 0. -1.
</event>
<event>
 5   0  0.4947006E-04  0.1681391E+04  0.7818609E-02  0.8772049E-01
        1   -1    0    0  501    0  0.00000000000E+00  0.00000000000E+00  0.20322207679E+04  0.20322207679E+04  0.50400001928E-02 0. -1.
       -1   -1    0    0    0  501  0.00000000000E+00  0.00000000000E+00 -0.34778171241E+03  0.34778171244E+03  0.50400001928E-02 0.  1.
    10030    2    1    2    0    0  0.00000000000E+00  0.00000000000E+00  0.16844390555E+04  0.23800024804E+04  0.16813913509E+04 0.  0.
        2    1    3    3  502    0 -0.56249306474E+03  0.37138345089E+03  0.13101899045E+03  0.68665136084E+03  0.25500000920E-02 0.  1.
       -2    1    3    3    0  502  0.56249306474E+03 -0.37138345089E+03  0.15534200651E+04  0.16933511195E+04  0.25500000920E-02 0. -1.
</event>
<event>
 5   0  0.9610114E-04  0.1750535E+04  0.7818609E-02  0.8733056E-01
        2   -1    0    0  501    0  0.00000000000E+00  0.00000000000E+00  0.11791055447E+04  0.11791055447E+04  0.25500000920E-02 0. -1.
       -2   -1    0    0    0  501  0.00000000000E+00  0.00000000000E+00 -0.64972383851E+03  0.64972383852E+03  0.25500000920E-02 0.  1.
    10030    2    1    2    0    0  0.00000000000E+00  0.00000000000E+00  0.52938170618E+03  0.18288293832E+04  0.17505347532E+04 0.  0.
        2    1    3    3  502    0  0.42139114362E+03  0.75852311837E+03  0.14481945192E+03  0.87971614211E+03  0.25500000920E-02 0. -1.
       -2    1    3    3    0  502 -0.42139114362E+03 -0.75852311837E+03  0.38456225426E+03  0.94911324110E+03  0.25500000920E-02 0.  1.
</event>
<event>
 5   0  0.5059689E-04  0.1116868E+04  0.7818609E-02  0.9188905E-01
       -1   -1    0    0    0  501  0.00000000000E+00  0.00000000000E+00  0.65519121433E+03  0.65519121435E+03  0.50400001928E-02 0.  1.
        1   -1    0    0  501    0  0.00000000000E+00  0.00000000000E+00 -0.47596581175E+03  0.47596581178E+03  0.50400001928E-02 0. -1.
    10030    2    1    2    0    0  0.00000000000E+00  0.00000000000E+00  0.17922540258E+03  0.11311570261E+04  0.11168681537E+04 0.  0.
        5    1    3    3  502    0 -0.11305603851E+03 -0.61837520982E+01 -0.46419806299E+03  0.47783034470E+03  0.46999998093E+01 0. -1.
       -5    1    3    3    0  502  0.11305603851E+03  0.61837520982E+01  0.64342346556E+03  0.65332668143E+03  0.46999998093E+01 0.  1.
</event>
<event>
 5   0  0.9284971E-04  0.1701600E+04  0.7818609E-02  0.8760452E-01
        2   -1    0    0  501    0  0.00000000000E+00  0.00000000000E+00  0.14926044919E+04  0.14926044919E+04  0.25500000920E-02 0. -1.
       -2   -1    0    0    0  501  0.00000000000E+00  0.00000000000E+00 -0.48496494682E+03  0.48496494683E+03  0.25500000920E-02 0.  1.
    10030    2    1    2    0    0  0.00000000000E+00  0.00000000000E+00  0.10076395451E+04  0.19775694388E+04  0.17016002563E+04 0.  0.
        4    1    3    3  502    0  0.48768060421E+03  0.25946666814E+03  0.12558368687E+04  0.13719632565E+04  0.12699999809E+01 0. -1.
       -4    1    3    3    0  502 -0.48768060421E+03 -0.25946666814E+03 -0.24819732359E+03  0.60560618222E+03  0.12699999809E+01 0.  1.
</event>
<event>
 5   0  0.5074133E-04  0.1454611E+04  0.7818609E-02  0.8915210E-01
        1   -1    0    0  501    0  0.00000000000E+00  0.00000000000E+00  0.10790852326E+04  0.10790852326E+04  0.50400001928E-02 0. -1.
       -1   -1    0    0    0  501  0.00000000000E+00  0.00000000000E+00 -0.49020541761E+03  0.49020541764E+03  0.50400001928E-02 0.  1.
    10030    2    1    2    0    0  0.00000000000E+00  0.00000000000E+00  0.58887981496E+03  0.15692906502E+04  0.14546111881E+04 0.  0.
        1    1    3    3  502    0  0.19588419184E+03 -0.25666036402E+03  0.99753173028E+03  0.10484820990E+04  0.50400001928E-02 0. -1.
       -1    1    3    3    0  502 -0.19588419184E+03  0.25666036402E+03 -0.40865191532E+03  0.52080855119E+03  0.50400001928E-02 0.  1.
</event>
<event>
 5   0  0.5059689E-04  0.1712801E+04  0.7818609E-02  0.8754097E-01
       -1   -1    0    0    0  501  0.00000000000E+00  0.00000000000E+00  0.56016145777E+03  0.56016145779E+03  0.50400001928E-02 0. -1.
        1   -1    0    0  501    0  0.00000000000E+00  0.00000000000E+00 -0.13093036264E+04  0.13093036264E+04  0.50400001928E-02 0.  1.
    10030    2    1    2    0    0  0.00000000000E+00  0.00000000000E+00 -0.74914216867E+03  0.18694650842E+04  0.17128005466E+04 0.  0.
        5    1    3    3  502    0  0.36531216214E+03  0.53518737468E+03  0.23657322173E+03  0.68983148744E+03  0.46999998093E+01 0. -1.
       -5    1    3    3    0  502 -0.36531216214E+03 -0.53518737468E+03 -0.98571539040E+03  0.11796335968E+04  0.46999998093E+01 0.  1.
</event>
<event>
 5   0  0.5074133E-04  0.1779097E+04  0.7818609E-02  0.8717495E-01
       -1   -1    0    0    0  501  0.00000000000E+00  0.00000000000E+00  0.60392320057E+03  0.60392320059E+03  0.50400001928E-02 0.  1.
        1   -1    0    0  501    0  0.00000000000E+00  0.00000000000E+00 -0.13102596807E+04  0.13102596807E+04  0.50400001928E-02 0. -1.
    10030    2    1    2    0    0  0.00000000000E+00  0.00000000000E+00 -0.70633648010E+03  0.19141828813E+04  0.17790966471E+04 0.  0.
        1    1    3    3  502    0 -0.33998543770E+03  0.74308255853E+02  0.52763934456E+03  0.63207206289E+03  0.50400001928E-02 0.  1.
       -1    1    3    3    0  502  0.33998543770E+03 -0.74308255853E+02 -0.12339758247E+04  0.12821108184E+04  0.50400001928E-02 0. -1.
</event>
<event>
 5   0  0.9610114E-04  0.1526834E+04  0.7818609E-02  0.8866802E-01
       -2   -1    0    0    0  501  0.00000000000E+00  0.00000000000E+00  0.84377441147E+03  0.84377441148E+03  0.25500000920E-02 0. -1.
        2   -1    0    0  501    0  0.00000000000E+00  0.00000000000E+00 -0.69071217962E+03  0.69071217962E+03  0.25500000920E-02 0.  1.
    10030    2    1    2    0    0  0.00000000000E+00  0.00000000000E+00  0.15306223186E+03  0.15344865911E+04  0.15268336686E+04 0.  0.
        2    1    3    3  502    0 -0.74447070296E+03  0.91133469019E+01 -0.93091563695E+02  0.75032374339E+03  0.25500000920E-02 0.  1.
       -2    1    3    3    0  502  0.74447070296E+03 -0.91133469019E+01  0.24615379555E+03  0.78416284771E+03  0.25500000920E-02 0. -1.
</event>
<event>
 5   0  0.9312096E-04  0.1477704E+04  0.7818609E-02  0.8899416E-01
       -2   -1    0    0    0  501  0.00000000000E+00  0.00000000000E+00  0.34683182872E+03  0.34683182873E+03  0.25500000920E-02 0. -1.
        2   -1    0    0  501    0  0.00000000000E+00  0.00000000000E+00 -0.15739686034E+04  0.15739686034E+04  0.25500000920E-02 0.  1.
    10030    2    1    2    0    0  0.00000000000E+00  0.00000000000E+00 -0.12271367747E+04  0.19208004321E+04  0.14777041775E+04 0.  0.
        3    1    3    3  502    0  0.19725604811E+03 -0.68446877942E+03 -0.86860149860E+03  0.11233325563E+04  0.10100000352E+00 0.  1.
       -3    1    3    3    0  502 -0.19725604811E+03  0.68446877942E+03 -0.35853527606E+03  0.79746787578E+03  0.10100000352E+00 0. -1.
</event>
<event>
 5   0  0.5059689E-04  0.1751150E+04  0.7818609E-02  0.8732717E-01
        1   -1    0    0  501    0  0.00000000000E+00  0.00000000000E+00  0.11131147637E+04  0.11131147637E+04  0.50400001928E-02 0. -1.
       -1   -1    0    0    0  501  0.00000000000E+00  0.00000000000E+00 -0.68872672064E+03  0.68872672066E+03  0.50400001928E-02 0.  1.
    10030    2    1    2    0    0  0.00000000000E+00  0.00000000000E+00  0.42438804302E+03  0.18018414843E+04  0.17511503429E+04 0.  0.
        5    1    3    3  502    0 -0.67428527753E+03  0.37917287784E+03  0.63415914533E+03  0.10003062623E+04  0.46999998093E+01 0. -1.
       -5    1    3    3    0  502  0.67428527753E+03 -0.37917287784E+03 -0.20977110231E+03  0.80153522203E+03  0.46999998093E+01 0.  1.
</event>
<event>
 5   0  0.1007187E-03  0.1715024E+04  0.7818609E-02  0.8752842E-01
       -2   -1    0    0    0  501  0.00000000000E+00  0.00000000000E+00  0.45255187698E+03  0.45255187698E+03  0.25500000920E-02 0. -1.
        2   -1    0    0  501    0  0.00000000000E+00  0.00000000000E+00 -0.16248446878E+04  0.16248446878E+04  0.25500000920E-02 0.  1.
    10030    2    1    2    0    0  0.00000000000E+00  0.00000000000E+00 -0.11722928108E+04  0.20773965647E+04  0.17150236304E+04 0.  0.
        5    1    3    3  502    0 -0.24043935773E+03 -0.82062173141E+03 -0.66345417828E+03  0.10823237258E+04  0.46999998093E+01 0.  1.
       -5    1    3    3    0  502  0.24043935773E+03  0.82062173141E+03 -0.50883863249E+03  0.99507283891E+03  0.46999998093E+01 0. -1.
</event>
<event>
 5   0  0.1007187E-03  0.1680779E+04  0.7818609E-02  0.8772403E-01
       -2   -1    0    0    0  501  0.00000000000E+00  0.00000000000E+00  0.48490105433E+03  0.48490105433E+03  0.25500000920E-02 0. -1.
        2   -1    0    0  501    0  0.00000000000E+00  0.00000000000E+00 -0.14564928228E+04  0.14564928228E+04  0.25500000920E-02 0.  1.
    10030    2    1    2    0    0  0.00000000000E+00  0.00000000000E+00 -0.97159176851E+03  0.19413938772E+04  0.16807794685E+04 0.  0.
        5    1    3    3  502    0 -0.25365580692E+03 -0.18515622333E+03  0.41456147818E+03  0.52010326342E+03  0.46999998093E+01 0. -1.
       -5    1    3    3    0  502  0.25365580692E+03  0.18515622333E+03 -0.13861532467E+04  0.14212906138E+04  0.46999998093E+01 0.  1.
</event>
<event>
 5   0  0.1007187E-03  0.1745538E+04  0.7818609E-02  0.8735810E-01
       -2   -1    0    0    0  501  0.00000000000E+00  0.00000000000E+00  0.92806493966E+03  0.92806493966E+03  0.25500000920E-02 0. -1.
        2   -1    0    0  501    0  0.00000000000E+00  0.00000000000E+00 -0.82076785844E+03  0.82076785844E+03  0.25500000920E-02 0.  1.
    10030    2    1    2    0    0  0.00000000000E+00  0.00000000000E+00  0.10729708122E+03  0.17488327981E+04  0.17455381669E+04 0.  0.
        5    1    3    3  502    0 -0.39896378448E+03 -0.57049123203E+02  0.82923956405E+03  0.92200165313E+03  0.46999998093E+01 0. -1.
       -5    1    3    3    0  502  0.39896378448E+03  0.57049123203E+02 -0.72194248283E+03  0.82683114498E+03  0.46999998093E+01 0.  1.
</event>
<event>
 5   0  0.5074133E-04  0.1710461E+04  0.7818609E-02  0.8755421E-01
        1   -1    0    0  501    0  0.00000000000E+00  0.00000000000E+00  0.88650735454E+03  0.88650735455E+03  0.50400001928E-02 0.  1.
       -1   -1    0    0    0  501  0.00000000000E+00  0.00000000000E+00 -0.82505675389E+03  0.82505675390E+03  0.50400001928E-02 0. -1.
    10030    2    1    2    0    0  0.00000000000E+00  0.00000000000E+00  0.61450600650E+02  0.17115641085E+04  0.17104606166E+04 0.  0.
        1    1    3    3  502    0 -0.98407192789E+02  0.18170919402E+03 -0.79969965215E+03  0.82596715459E+03  0.50400001928E-02 0. -1.
       -1    1    3    3    0  502  0.98407192789E+02 -0.18170919402E+03  0.86115025280E+03  0.88559695387E+03  0.50400001928E-02 0.  1.
</event>
<event>
 5   0  0.9284971E-04  0.1450438E+04  0.7818609E-02  0.8918097E-01
        2   -1    0    0  501    0  0.00000000000E+00  0.00000000000E+00  0.18372504937E+04  0.18372504937E+04  0.25500000920E-02 0.  1.
       -2   -1    0    0    0  501  0.00000000000E+00  0.00000000000E+00 -0.28626613540E+03  0.28626613541E+03  0.25500000920E-02 0. -1.
    10030    2    1    2    0    0  0.00000000000E+00  0.00000000000E+00  0.15509843583E+04  0.21235166291E+04  0.14504380009E+04 0.  0.
        4    1    3    3  502    0 -0.66221828023E+02 -0.21340445951E+03 -0.23461264944E+03  0.32399305860E+03  0.12699999809E+01 0. -1.
       -4    1    3    3    0  502  0.66221828023E+02  0.21340445951E+03  0.17855970077E+04  0.17995235705E+04  0.12699999809E+01 0.  1.
</event>
<event>
 5   0  0.5074133E-04  0.1754685E+04  0.7818609E-02  0.8730776E-01
        1   -1    0    0  501    0  0.00000000000E+00  0.00000000000E+00  0.16466363368E+04  0.16466363368E+04  0.50400001928E-02 0. -1.
       -1   -1    0    0    0  501  0.00000000000E+00  0.00000000000E+00 -0.46745599004E+03  0.46745599007E+03  0.50400001928E-02 0.  1.
    10030    2    1    2    0    0  0.00000000000E+00  0.00000000000E+00  0.11791803467E+04  0.21140923269E+04  0.17546851787E+04 0.  0.
        1    1    3    3  502    0  0.14933779654E+03  0.84421135497E+03  0.81413915003E+03  0.11822931722E+04  0.50400001928E-02 0. -1.
       -1    1    3    3    0  502 -0.14933779654E+03 -0.84421135497E+03  0.36504119671E+03  0.93179915468E+03  0.50400001928E-02 0.  1.
</event>
<event>
 5   0  0.5009762E-04  0.1711092E+04  0.7818609E-02  0.8755064E-01
       -1   -1    0    0    0  501  0.00000000000E+00  0.00000000000E+00  0.35365247345E+03  0.35365247349E+03  0.50400001928E-02 0.  1.
        1   -1    0    0  501    0  0.00000000000E+00  0.00000000000E+00 -0.20697118300E+04  0.20697118300E+04  0.50400001928E-02 0. -1.
    10030    2    1    2    0    0  0.00000000000E+00  0.00000000000E+00 -0.17160593565E+04  0.24233643035E+04  0.17110917077E+04 0.  0.
        3    1    3    3  502    0 -0.39294025898E+03  0.61866608894E+03 -0.14831301697E+04  0.16543351799E+04  0.10100000352E+00 0. -1.
       -3    1    3    3    0  502  0.39294025898E+03 -0.61866608894E+03 -0.23292918681E+03  0.76902912364E+03  0.10100000352E+00 0.  1.
</event>
<event>
 5   0  0.4947006E-04  0.1726207E+04  0.7818609E-02  0.8746557E-01
       -1   -1    0    0    0  501  0.00000000000E+00  0.00000000000E+00  0.93523090237E+03  0.93523090238E+03  0.50400001928E-02 0. -1.
        1   -1    0    0  501    0  0.00000000000E+00  0.00000000000E+00 -0.79653891095E+03  0.79653891096E+03  0.50400001928E-02 0.  1.
    10030    2    1    2    0    0  0.00000000000E+00  0.00000000000E+00  0.13869199142E+03  0.17317698133E+04  0.17262071770E+04 0.  0.
        2    1    3    3  502    0 -0.39625760527E+02 -0.99804464165E+02 -0.78981120913E+03  0.79707771142E+03  0.25500000920E-02 0.  1.
       -2    1    3    3    0  502  0.39625760527E+02  0.99804464165E+02  0.92850320055E+03  0.93469210193E+03  0.25500000920E-02 0. -1.
</event>
<event>
 5   0  0.9284971E-04  0.1689473E+04  0.7818609E-02  0.8767391E-01
       -2   -1    0    0    0  501  0.00000000000E+00  0.00000000000E+00  0.77904936016E+03  0.77904936016E+03  0.25500000920E-02 0.  1.
        2   -1    0    0  501    0  0.00000000000E+00  0.00000000000E+00 -0.91596259392E+03  0.91596259393E+03  0.25500000920E-02 0. -1.
    10030    2    1    2    0    0  0.00000000000E+00  0.00000000000E+00 -0.13691323376E+03  0.16950119541E+04  0.16894733768E+04 0.  0.
        4    1    3    3  502    0 -0.56851084129E+02 -0.19270389142E+01  0.77712469093E+03  0.77920482378E+03  0.12699999809E+01 0.  1.
       -4    1    3    3    0  502  0.56851084129E+02  0.19270389142E+01 -0.91403792470E+03  0.91580713031E+03  0.12699999809E+01 0. -1.
</event>
<event>
 5   0  0.5035495E-04  0.1661026E+04  0.7818609E-02  0.8783910E-01
       -1   -1    0    0    0  501  0.00000000000E+00  0.00000000000E+00  0.20773239800E+04  0.20773239800E+04  0.50400001928E-02 0. -1.
        1   -1    0    0  501    0  0.00000000000E+00  0.00000000000E+00 -0.33203872479E+03  0.33203872483E+03  0.50400001928E-02 0.  1.
    10030    2    1    2    0    0  0.00000000000E+00  0.00000000000E+00  0.17452852552E+04  0.24093627048E+04  0.16610261953E+04 0.  0.
        4    1    3    3  502    0 -0.24919516557E+03 -0.79068814834E+03  0.94465092370E+03  0.12568424559E+04  0.12699999809E+01 0. -1.
       -4    1    3    3    0  502  0.24919516557E+03  0.79068814834E+03  0.80063433150E+03  0.11525202489E+04  0.12699999809E+01 0.  1.
</event>
<event>
 5   0  0.5009762E-04  0.1698430E+04  0.7818609E-02  0.8762260E-01
       -1   -1    0    0    0  501  0.00000000000E+00  0.00000000000E+00  0.33496036106E+03  0.33496036110E+03  0.50400001928E-02 0.  1.
        1   -1    0    0  501    0  0.00000000000E+00  0.00000000000E+00 -0.21529906091E+04  0.21529906091E+04  0.50400001928E-02 0. -1.
    10030    2    1    2    0    0  0.00000000000E+00  0.00000000000E+00 -0.18180302481E+04  0.24879509703E+04  0.16984304659E+04 0.  0.
        3    1    3    3  502    0  0.32272652299E+03  0.19025292351E+03 -0.20254002690E+04  0.20597560155E+04  0.10100000352E+00 0. -1.
       -3    1    3    3    0  502 -0.32272652299E+03 -0.19025292351E+03  0.20737002088E+03  0.42819495479E+03  0.10100000352E+00 0.  1.
</event>
<event>
 5   0  0.9625225E-04  0.1682633E+04  0.7818609E-02  0.8771332E-01
        2   -1    0    0  501    0  0.00000000000E+00  0.00000000000E+00  0.12235703998E+04  0.12235703998E+04  0.25500000920E-02 0. -1.
       -2   -1    0    0    0  501  0.00000000000E+00  0.00000000000E+00 -0.57848185443E+03  0.57848185444E+03  0.25500000920E-02 0.  1.
    10030    2    1    2    0    0  0.00000000000E+00  0.00000000000E+00  0.64508854533E+03  0.18020522542E+04  0.16826327869E+04 0.  0.
        1    1    3    3  502    0 -0.36955368667E+03 -0.16164364631E+02 -0.48671794444E+03  0.61133098358E+03  0.50400001928E-02 0.  1.
       -1    1    3    3    0  502  0.36955368667E+03  0.16164364631E+02  0.11318064898E+04  0.11907212706E+04  0.50400001928E-02 0. -1.
</event>
<event>
 5   0  0.1007187E-03  0.1708562E+04  0.7818609E-02  0.8756496E-01
        2   -1    0    0  501    0  0.00000000000E+00  0.00000000000E+00  0.14470024464E+04  0.14470024464E+04  0.25500000920E-02 0.  1.
       -2   -1    0    0    0  501  0.00000000000E+00  0.00000000000E+00 -0.50435044755E+03  0.50435044756E+03  0.25500000920E-02 0. -1.
    10030    2    1    2    0    0  0.00000000000E+00  0.00000000000E+00  0.94265199889E+03  0.19513528940E+04  0.17085623565E+04 0.  0.
        5    1    3    3  502    0  0.64547928128E+03 -0.16418000558E+03  0.10822980356E+04  0.12708224521E+04  0.46999998093E+01 0.  1.
       -5    1    3    3    0  502 -0.64547928128E+03  0.16418000558E+03 -0.13964603675E+03  0.68053044191E+03  0.46999998093E+01 0. -1.
</event>
<event>
 5   0  0.5035495E-04  0.1685618E+04  0.7818609E-02  0.8769610E-01
       -1   -1    0    0    0  501  0.00000000000E+00  0.00000000000E+00  0.45581814487E+03  0.45581814489E+03  0.50400001928E-02 0.  1.
        1   -1    0    0  501    0  0.00000000000E+00  0.00000000000E+00 -0.15583561573E+04  0.15583561573E+04  0.50400001928E-02 0. -1.
    10030    2    1    2    0    0  0.00000000000E+00  0.00000000000E+00 -0.11025380125E+04  0.20141743022E+04  0.16856180026E+04 0.  0.
        4    1    3    3  502    0  0.56308369381E+03  0.55989786794E+03 -0.21376769558E+03  0.82234245259E+03  0.12699999809E+01 0.  1.
       -4    1    3    3    0  502 -0.56308369381E+03 -0.55989786794E+03 -0.88877031687E+03  0.11918318496E+04  0.12699999809E+01 0. -1.
</event>
<event>
 5   0  0.9284971E-04  0.1674432E+04  0.7818609E-02  0.8776083E-01
        2   -1    0    0  501    0  0.00000000000E+00  0.00000000000E+00  0.62856467653E+03  0.62856467653E+03  0.25500000920E-02 0. -1.
       -2   -1    0    0    0  501  0.00000000000E+00  0.00000000000E+00 -0.11151288504E+04  0.11151288504E+04  0.25500000920E-02 0.  1.
    10030    2    1    2    0    0  0.00000000000E+00  0.00000000000E+00 -0.48656417385E+03  0.17436935269E+04  0.16744319695E+04 0.  0.
        4    1    3    3  502    0 -0.12837449886E+02 -0.53488531055E+03  0.42729654885E+03  0.68472698875E+03  0.12699999809E+01 0. -1.
       -4    1    3    3    0  502  0.12837449886E+02  0.53488531055E+03 -0.91386072270E+03  0.10589665382E+04  0.12699999809E+01 0.  1.
</event>
<event>
 5   0  0.9610114E-04  0.1762122E+04  0.7818609E-02  0.8726706E-01
        2   -1    0    0  501    0  0.00000000000E+00  0.00000000000E+00  0.17410873022E+04  0.17410873022E+04  0.25500000920E-02 0. -1.
       -2   -1    0    0    0  501  0.00000000000E+00  0.00000000000E+00 -0.44585254719E+03  0.44585254720E+03  0.25500000920E-02 0.  1.
    10030    2    1    2    0    0  0.00000000000E+00  0.00000000000E+00  0.12952347550E+04  0.21869398494E+04  0.17621216855E+04 0.  0.
        2    1    3    3  502    0  0.80523953225E+03 -0.13648996568E+03  0.10577911814E+04  0.13363990417E+04  0.25500000920E-02 0. -1.
       -2    1    3    3    0  502 -0.80523953225E+03  0.13648996568E+03  0.23744357360E+03  0.85054080777E+03  0.25500000920E-02 0.  1.
</event>
<event>
 5   0  0.5074133E-04  0.1731073E+04  0.7818609E-02  0.8743838E-01
       -1   -1    0    0    0  501  0.00000000000E+00  0.00000000000E+00  0.12293488785E+04  0.12293488785E+04  0.50400001928E-02 0. -1.
        1   -1    0    0  501    0  0.00000000000E+00  0.00000000000E+00 -0.60939014837E+03  0.60939014839E+03  0.50400001928E-02 0.  1.
    10030    2    1    2    0    0  0.00000000000E+00  0.00000000000E+00  0.61995873016E+03  0.18387390269E+04  0.17310726103E+04 0.  0.
        1    1    3    3  502    0  0.44818422347E+03 -0.10285276933E+03 -0.46891214461E+03  0.65675443639E+03  0.50400001928E-02 0.  1.
       -1    1    3    3    0  502 -0.44818422347E+03  0.10285276933E+03  0.10888708748E+04  0.11819845905E+04  0.50400001928E-02 0. -1.
</event>
<event>
 5   0  0.9610114E-04  0.1720398E+04  0.7818609E-02  0.8749815E-01
        2   -1    0    0  501    0  0.00000000000E+00  0.00000000000E+00  0.59878493573E+03  0.59878493573E+03  0.25500000920E-02 0.  1.
       -2   -1    0    0    0  501  0.00000000000E+00  0.00000000000E+00 -0.12357402090E+04  0.12357402090E+04  0.25500000920E-02 0. -1.
    10030    2    1    2    0    0  0.00000000000E+00  0.00000000000E+00 -0.63695527328E+03  0.18345251447E+04  0.17203983511E+04 0.  0.
        2    1    3    3  502    0 -0.16932091559E+03 -0.29993023746E+03  0.52204717134E+03  0.62542862815E+03  0.25500000920E-02 0.  1.
       -2    1    3    3    0  502  0.16932091559E+03  0.29993023746E+03 -0.11590024446E+04  0.12090965166E+04  0.25500000920E-02 0. -1.
</event>
<event>
 5   0  0.4947006E-04  0.1643065E+04  0.7818609E-02  0.8794520E-01
       -1   -1    0    0    0  501  0.00000000000E+00  0.00000000000E+00  0.11568246079E+04  0.11568246079E+04  0.50400001928E-02 0.  1.
        1   -1    0    0  501    0  0.00000000000E+00  0.00000000000E+00 -0.58342054677E+03  0.58342054679E+03  0.50400001928E-02 0. -1.
    10030    2    1    2    0    0  0.00000000000E+00  0.00000000000E+00  0.57340406112E+03  0.17402451547E+04  0.16430645091E+04 0.  0.
        2    1    3    3  502    0 -0.35174949921E+03  0.47701045532E+03 -0.31584736949E+03  0.67158487587E+03  0.25500000920E-02 0. -1.
       -2    1    3    3    0  502  0.35174949921E+03 -0.47701045532E+03  0.88925143060E+03  0.10686602788E+04  0.25500000920E-02 0.  1.
</event>
<event>
 5   0  0.5035495E-04  0.1794739E+04  0.7818609E-02  0.8709102E-01
       -1   -1    0    0    0  501  0.00000000000E+00  0.00000000000E+00  0.49252024401E+03  0.49252024404E+03  0.50400001928E-02 0. -1.
        1   -1    0    0  501    0  0.00000000000E+00  0.00000000000E+00 -0.16350037800E+04  0.16350037800E+04  0.50400001928E-02 0.  1.
    10030    2    1    2    0    0  0.00000000000E+00  0.00000000000E+00 -0.11424835359E+04  0.21275240240E+04  0.17947394916E+04 0.  0.
        4    1    3    3  502    0  0.27422070319E+03  0.34752736659E+03 -0.14965536474E+04  0.15606558548E+04  0.12699999809E+01 0.  1.
       -4    1    3    3    0  502 -0.27422070319E+03 -0.34752736659E+03  0.35407011144E+03  0.56686816925E+03  0.12699999809E+01 0. -1.
</event>
<event>
 5   0  0.9625225E-04  0.1690790E+04  0.7818609E-02  0.8766635E-01
        2   -1    0    0  501    0  0.00000000000E+00  0.00000000000E+00  0.76118585932E+03  0.76118585933E+03  0.25500000920E-02 0.  1.
       -2   -1    0    0    0  501  0.00000000000E+00  0.00000000000E+00 -0.93891967450E+03  0.93891967450E+03  0.25500000920E-02 0. -1.
    10030    2    1    2    0    0  0.00000000000E+00  0.00000000000E+00 -0.17773381517E+03  0.17001055338E+04  0.16907896135E+04 0.  0.
        1    1    3    3  502    0 -0.47305025968E+03  0.55037785206E+03  0.34711181369E+03  0.80447432491E+03  0.50400001928E-02 0.  1.
       -1    1    3    3    0  502  0.47305025968E+03 -0.55037785206E+03 -0.52484562886E+03  0.89563120891E+03  0.50400001928E-02 0. -1.
</event>
<event>
 5   0  0.9610114E-04  0.1686199E+04  0.7818609E-02  0.8769275E-01
       -2   -1    0    0    0  501  0.00000000000E+00  0.00000000000E+00  0.61675198072E+03  0.61675198073E+03  0.25500000920E-02 0.  1.
        2   -1    0    0  501    0  0.00000000000E+00  0.00000000000E+00 -0.11525169693E+04  0.11525169693E+04  0.25500000920E-02 0. -1.
    10030    2    1    2    0    0  0.00000000000E+00  0.00000000000E+00 -0.53576498862E+03  0.17692689501E+04  0.16861994232E+04 0.  0.
        2    1    3    3  502    0  0.16099776149E+03 -0.57533957754E+03 -0.89206799237E+03  0.10736485513E+04  0.25500000920E-02 0. -1.
       -2    1    3    3    0  502 -0.16099776149E+03  0.57533957754E+03  0.35630300375E+03  0.69562039877E+03  0.25500000920E-02 0.  1.
</event>
<event>
 5   0  0.5074133E-04  0.1668447E+04  0.7818609E-02  0.8779567E-01
       -1   -1    0    0    0  501  0.00000000000E+00  0.00000000000E+00  0.53416935222E+03  0.53416935224E+03  0.50400001928E-02 0.  1.
        1   -1    0    0  501    0  0.00000000000E+00  0.00000000000E+00 -0.13028249140E+04  0.13028249140E+04  0.50400001928E-02 0. -1.
    10030    2    1    2    0    0  0.00000000000E+00  0.00000000000E+00 -0.76865556181E+03  0.18369942663E+04  0.16684473506E+04 0.  0.
        1    1    3    3  502    0  0.70530057146E+03  0.29186585447E+03 -0.13732541097E+02  0.76342855318E+03  0.50400001928E-02 0.  1.
       -1    1    3    3    0  502 -0.70530057146E+03 -0.29186585447E+03 -0.75492302071E+03  0.10735657131E+04  0.50400001928E-02 0. -1.
</event>
<event>
 5   0  0.4947006E-04  0.1721441E+04  0.7818609E-02  0.8749229E-01
       -1   -1    0    0    0  501  0.00000000000E+00  0.00000000000E+00  0.17103407233E+04  0.17103407233E+04  0.50400001928E-02 0. -1.
        1   -1    0    0  501    0  0.00000000000E+00  0.00000000000E+00 -0.43315354578E+03  0.43315354581E+03  0.50400001928E-02 0.  1.
    10030    2    1    2    0    0  0.00000000000E+00  0.00000000000E+00  0.12771871775E+04  0.21434942691E+04  0.17214414295E+04 0.  0.
        2    1    3    3  502    0  0.52877272226E+03  0.57300144021E+02 -0.20404641160E+03  0.56966554785E+03  0.25500000920E-02 0.  1.
       -2    1    3    3    0  502 -0.52877272226E+03 -0.57300144021E+02  0.14812335891E+04  0.15738287212E+04  0.25500000920E-02 0. -1.
</event>
<event>
 5   0  0.9625225E-04  0.1686342E+04  0.7818609E-02  0.8769193E-01
        2   -1    0    0  501    0  0.00000000000E+00  0.00000000000E+00  0.38599722465E+03  0.38599722466E+03  0.25500000920E-02 0.  1.
       -2   -1    0    0    0  501  0.00000000000E+00  0.00000000000E+00 -0.18418194841E+04  0.18418194841E+04  0.25500000920E-02 0. -1.
    10030    2    1    2    0    0  0.00000000000E+00  0.00000000000E+00 -0.14558222595E+04  0.22278167088E+04  0.16863418505E+04 0.  0.
        1    1    3    3  502    0 -0.58860179328E+03  0.36431069898E+03 -0.13639091336E+04  0.15295170745E+04  0.50400001928E-02 0. -1.
       -1    1    3    3    0  502  0.58860179328E+03 -0.36431069898E+03 -0.91913125806E+02  0.69829963423E+03  0.50400001928E-02 0.  1.
</event>
<event>
 5   0  0.4947006E-04  0.1720077E+04  0.7818609E-02  0.8749996E-01
       -1   -1    0    0    0  501  0.00000000000E+00  0.00000000000E+00  0.97420096346E+03  0.97420096347E+03  0.50400001928E-02 0.  1.
        1   -1    0    0  501    0  0.00000000000E+00  0.00000000000E+00 -0.75925439487E+03  0.75925439489E+03  0.50400001928E-02 0. -1.
    10030    2    1    2    0    0  0.00000000000E+00  0.00000000000E+00  0.21494656859E+03  0.17334553584E+04  0.17200771646E+04 0.  0.
        2    1    3    3  502    0  0.70031402302E+03 -0.49555716797E+03  0.46590454657E+02  0.85917827489E+03  0.25500000920E-02 0.  1.
       -2    1    3    3    0  502 -0.70031402302E+03  0.49555716797E+03  0.16835611393E+03  0.87427708347E+03  0.25500000920E-02 0. -1.
</event>
<event>
 5   0  0.5009762E-04  0.1879461E+04  0.7818609E-02  0.8665148E-01
       -1   -1    0    0    0  501  0.00000000000E+00  0.00000000000E+00  0.38863648327E+03  0.38863648330E+03  0.50400001928E-02 0.  1.
        1   -1    0    0  501    0  0.00000000000E+00  0.00000000000E+00 -0.22722874027E+04  0.22722874027E+04  0.50400001928E-02 0. -1.
    10030    2    1    2    0    0  0.00000000000E+00  0.00000000000E+00 -0.18836509194E+04  0.26609238860E+04  0.18794613965E+04 0.  0.
        3    1    3    3  502    0  0.89644399108E+03 -0.23941704660E+03 -0.73106076181E+03  0.11812629678E+04  0.10100000352E+00 0.  1.
       -3    1    3    3    0  502 -0.89644399108E+03  0.23941704660E+03 -0.11525901576E+04  0.14796609182E+04  0.10100000352E+00 0. -1.
</event>
<event>
 5   0  0.9284971E-04  0.1621575E+04  0.7818609E-02  0.8807402E-01
        2   -1    0    0  501    0  0.00000000000E+00  0.00000000000E+00  0.22319286420E+04  0.22319286420E+04  0.25500000920E-02 0. -1.
       -2   -1    0    0    0  501  0.00000000000E+00  0.00000000000E+00 -0.29453279298E+03  0.29453279299E+03  0.25500000920E-02 0.  1.
    10030    2    1    2    0    0  0.00000000000E+00  0.00000000000E+00  0.19373958490E+04  0.25264614350E+04  0.16215747613E+04 0.  0.
        4    1    3    3  502    0 -0.56034041181E+03  0.37285182290E+03  0.26434670888E+03  0.72310487092E+03  0.12699999809E+01 0.  1.
       -4    1    3    3    0  502  0.56034041181E+03 -0.37285182290E+03  0.16730491401E+04  0.18033565640E+04  0.12699999809E+01 0. -1.
</event>
<event>
 5   0  0.9284971E-04  0.1572770E+04  0.7818609E-02  0.8837453E-01
        2   -1    0    0  501    0  0.00000000000E+00  0.00000000000E+00  0.19085257778E+04  0.19085257778E+04  0.25500000920E-02 0. -1.
       -2   -1    0    0    0  501  0.00000000000E+00  0.00000000000E+00 -0.32402046399E+03  0.32402046400E+03  0.25500000920E-02 0.  1.
    10030    2    1    2    0    0  0.00000000000E+00  0.00000000000E+00  0.15845053138E+04  0.22325462418E+04  0.15727700507E+04 0.  0.
        4    1    3    3  502    0  0.27568515162E+03  0.14686299020E+03 -0.23217833605E+03  0.38920358856E+03  0.12699999809E+01 0.  1.
       -4    1    3    3    0  502 -0.27568515162E+03 -0.14686299020E+03  0.18166836499E+04  0.18433426533E+04  0.12699999809E+01 0. -1.
</event>
<event>
 5   0  0.9284971E-04  0.1584747E+04  0.7818609E-02  0.8829974E-01
        2   -1    0    0  501    0  0.00000000000E+00  0.00000000000E+00  0.20273532730E+04  0.20273532730E+04  0.25500000920E-02 0. -1.
       -2   -1    0    0    0  501  0.00000000000E+00  0.00000000000E+00 -0.30969237872E+03  0.30969237873E+03  0.25500000920E-02 0.  1.
    10030    2    1    2    0    0  0.00000000000E+00  0.00000000000E+00  0.17176608942E+04  0.23370456517E+04  0.15847471188E+04 0.  0.
        4    1    3    3  502    0  0.12078148594E+03  0.21632415666E+03  0.19687606214E+04  0.19842893704E+04  0.12699999809E+01 0. -1.
       -4    1    3    3    0  502 -0.12078148594E+03 -0.21632415666E+03 -0.25109972719E+03  0.35275628130E+03  0.12699999809E+01 0.  1.
</event>
<event>
 5   0  0.9312096E-04  0.1482821E+04  0.7818609E-02  0.8895957E-01
       -2   -1    0    0    0  501  0.00000000000E+00  0.00000000000E+00  0.43570185953E+03  0.43570185954E+03  0.25500000920E-02 0. -1.
        2   -1    0    0  501    0  0.00000000000E+00  0.00000000000E+00 -0.12616193507E+04  0.12616193507E+04  0.25500000920E-02 0.  1.
    10030    2    1    2    0    0  0.00000000000E+00  0.00000000000E+00 -0.82591749113E+03  0.16973212102E+04  0.14828214958E+04 0.  0.
        3    1    3    3  502    0 -0.60871771857E+03 -0.60599031714E+02  0.66542182859E+02  0.61533517358E+03  0.10100000352E+00 0. -1.
       -3    1    3    3    0  502  0.60871771857E+03  0.60599031714E+02 -0.89245967399E+03  0.10819860366E+04  0.10100000352E+00 0.  1.
</event>
<event>
 5   0  0.5074133E-04  0.1725045E+04  0.7818609E-02  0.8747208E-01
        1   -1    0    0  501    0  0.00000000000E+00  0.00000000000E+00  0.11788768900E+04  0.11788768900E+04  0.50400001928E-02 0.  1.
       -1   -1    0    0    0  501  0.00000000000E+00  0.00000000000E+00 -0.63106254553E+03  0.63106254555E+03  0.50400001928E-02 0. -1.
    10030    2    1    2    0    0  0.00000000000E+00  0.00000000000E+00  0.54781434449E+03  0.18099394356E+04  0.17250449862E+04 0.  0.
        1    1    3    3  502    0 -0.29548921361E+03 -0.22650086518E+03 -0.54241048492E+03  0.65789486354E+03  0.50400001928E-02 0. -1.
       -1    1    3    3    0  502  0.29548921361E+03  0.22650086518E+03  0.10902248294E+04  0.11520445720E+04  0.50400001928E-02 0.  1.
</event>
<event>
 5   0  0.9610114E-04  0.1525689E+04  0.7818609E-02  0.8867547E-01
       -2   -1    0    0    0  501  0.00000000000E+00  0.00000000000E+00  0.52576630510E+03  0.52576630511E+03  0.25500000920E-02 0.  1.
        2   -1    0    0  501    0  0.00000000000E+00  0.00000000000E+00 -0.11068261434E+04  0.11068261434E+04  0.25500000920E-02 0. -1.
    10030    2    1    2    0    0  0.00000000000E+00  0.00000000000E+00 -0.58105983829E+03  0.16325924485E+04  0.15256892106E+04 0.  0.
        2    1    3    3  502    0  0.12314501423E+03 -0.48480094592E+03  0.32579185721E+03  0.59693968366E+03  0.25500000920E-02 0.  1.
       -2    1    3    3    0  502 -0.12314501423E+03  0.48480094592E+03 -0.90685169550E+03  0.10356527648E+04  0.25500000920E-02 0. -1.
</event>
<event>
 5   0  0.9625225E-04  0.1707541E+04  0.7818609E-02  0.8757075E-01
       -2   -1    0    0    0  501  0.00000000000E+00  0.00000000000E+00  0.35147734610E+03  0.35147734611E+03  0.25500000920E-02 0.  1.
        2   -1    0    0  501    0  0.00000000000E+00  0.00000000000E+00 -0.20738871387E+04  0.20738871387E+04  0.25500000920E-02 0. -1.
    10030    2    1    2    0    0  0.00000000000E+00  0.00000000000E+00 -0.17224097926E+04  0.24253644848E+04  0.17075413291E+04 0.  0.
        1    1    3    3  502    0  0.80957282813E+03 -0.26997044338E+03 -0.89691684481E+03  0.12380436304E+04  0.50400001928E-02 0. -1.
       -1    1    3    3    0  502 -0.80957282813E+03  0.26997044338E+03 -0.82549294780E+03  0.11873208544E+04  0.50400001928E-02 0.  1.
</event>
<event>
 5   0  0.4947006E-04  0.1564748E+04  0.7818609E-02  0.8842502E-01
        1   -1    0    0  501    0  0.00000000000E+00  0.00000000000E+00  0.10197730599E+04  0.10197730599E+04  0.50400001928E-02 0.  1.
       -1   -1    0    0    0  501  0.00000000000E+00  0.00000000000E+00 -0.60024024648E+03  0.60024024650E+03  0.50400001928E-02 0. -1.
    10030    2    1    2    0    0  0.00000000000E+00  0.00000000000E+00  0.41953281345E+03  0.16200133064E+04  0.15647476894E+04 0.  0.
        2    1    3    3  502    0  0.55870891338E+03 -0.42051466911E+03  0.57304484132E+03  0.90408441365E+03  0.25500000920E-02 0.  1.
       -2    1    3    3    0  502 -0.55870891338E+03  0.42051466911E+03 -0.15351202787E+03  0.71592889280E+03  0.25500000920E-02 0. -1.
</event>
<event>
 5   0  0.4947006E-04  0.1682726E+04  0.7818609E-02  0.8771278E-01
       -1   -1    0    0    0  501  0.00000000000E+00  0.00000000000E+00  0.43536527026E+03  0.43536527029E+03  0.50400001928E-02 0.  1.
        1   -1    0    0  501    0  0.00000000000E+00  0.00000000000E+00 -0.16259716323E+04  0.16259716323E+04  0.50400001928E-02 0. -1.
    10030    2    1    2    0    0  0.00000000000E+00  0.00000000000E+00 -0.11906063620E+04  0.20613369026E+04  0.16827258590E+04 0.  0.
        2    1    3    3  502    0 -0.35400220032E+02  0.48569258125E+03 -0.14357818151E+04  0.15161200083E+04  0.25500000920E-02 0. -1.
       -2    1    3    3    0  502  0.35400220032E+02 -0.48569258125E+03  0.24517545304E+03  0.54521689430E+03  0.25500000920E-02 0.  1.
</event>
<event>
 5   0  0.9284971E-04  0.1693384E+04  0.7818609E-02  0.8765147E-01
       -2   -1    0    0    0  501  0.00000000000E+00  0.00000000000E+00  0.59149811664E+03  0.59149811665E+03  0.25500000920E-02 0.  1.
        2   -1    0    0  501    0  0.00000000000E+00  0.00000000000E+00 -0.12119854644E+04  0.12119854644E+04  0.25500000920E-02 0. -1.
    10030    2    1    2    0    0  0.00000000000E+00  0.00000000000E+00 -0.62048734779E+03  0.18034835811E+04  0.16933837363E+04 0.  0.
        4    1    3    3  502    0 -0.18288311399E+03  0.30846731649E+03 -0.11271109596E+04  0.11827844465E+04  0.12699999809E+01 0. -1.
       -4    1    3    3    0  502  0.18288311399E+03 -0.30846731649E+03  0.50662361181E+03  0.62069913458E+03  0.12699999809E+01 0.  1.
</event>
<event>
 5   0  0.9284971E-04  0.1677655E+04  0.7818609E-02  0.8774212E-01
        2   -1    0    0  501    0  0.00000000000E+00  0.00000000000E+00  0.13872401399E+04  0.13872401400E+04  0.25500000920E-02 0.  1.
       -2   -1    0    0    0  501  0.00000000000E+00  0.00000000000E+00 -0.50721694251E+03  0.50721694252E+03  0.25500000920E-02 0. -1.
    10030    2    1    2    0    0  0.00000000000E+00  0.00000000000E+00  0.88002319743E+03  0.18944570825E+04  0.16776551521E+04 0.  0.
        4    1    3    3  502    0 -0.37289329497E+03  0.33254795479E+03 -0.32085134540E+03  0.59378847279E+03  0.12699999809E+01 0. -1.
       -4    1    3    3    0  502  0.37289329497E+03 -0.33254795479E+03  0.12008745428E+04  0.13006686097E+04  0.12699999809E+01 0.  1.
</event>
<event>
 5   0  0.9284971E-04  0.1337487E+04  0.7818609E-02  0.9000355E-01
        2   -1    0    0  501    0  0.00000000000E+00  0.00000000000E+00  0.20592581814E+04  0.20592581814E+04  0.25500000920E-02 0.  1.
       -2   -1    0    0    0  501  0.00000000000E+00  0.00000000000E+00 -0.21717427365E+03  0.21717427367E+03  0.25500000920E-02 0. -1.
    10030    2    1    2    0    0  0.00000000000E+00  0.00000000000E+00  0.18420839078E+04  0.22764324551E+04  0.13374870464E+04 0.  0.
        4    1    3    3  502    0 -0.24241600267E+03 -0.59102804633E+03  0.58433132539E+03  0.86575076126E+03  0.12699999809E+01 0.  1.
       -4    1    3    3    0  502  0.24241600267E+03  0.59102804633E+03  0.12577525824E+04  0.14106816938E+04  0.12699999809E+01 0. -1.
</event>
<event>
 5   0  0.5009762E-04  0.1707036E+04  0.7818609E-02  0.8757362E-01
       -1   -1    0    0    0  501  0.00000000000E+00  0.00000000000E+00  0.47253359562E+03  0.47253359565E+03  0.50400001928E-02 0.  1.
        1   -1    0    0  501    0  0.00000000000E+00  0.00000000000E+00 -0.15416743875E+04  0.15416743875E+04  0.50400001928E-02 0. -1.
    10030    2    1    2    0    0  0.00000000000E+00  0.00000000000E+00 -0.10691407919E+04  0.20142079831E+04  0.17070359593E+04 0.  0.
        3    1    3    3  502    0  0.80722699006E+02 -0.26796700848E+03  0.41685613975E+03  0.50208716695E+03  0.10100000352E+00 0.  1.
       -3    1    3    3    0  502 -0.80722699006E+02  0.26796700848E+03 -0.14859969316E+04  0.15121208162E+04  0.10100000352E+00 0. -1.
</event>
<event>
 5   0  0.5059689E-04  0.1699464E+04  0.7818609E-02  0.8761670E-01
        1   -1    0    0  501    0  0.00000000000E+00  0.00000000000E+00  0.14230037289E+04  0.14230037289E+04  0.50400001928E-02 0. -1.
       -1   -1    0    0    0  501  0.00000000000E+00  0.00000000000E+00 -0.50740866638E+03  0.50740866640E+03  0.50400001928E-02 0.  1.
    10030    2    1    2    0    0  0.00000000000E+00  0.00000000000E+00  0.91559506249E+03  0.19304123953E+04  0.16994639441E+04 0.  0.
        5    1    3    3  502    0 -0.73130676616E+03 -0.19085933712E+03  0.89887805071E+03  0.11744107939E+04  0.46999998093E+01 0. -1.
       -5    1    3    3    0  502  0.73130676616E+03  0.19085933712E+03  0.16717011783E+02  0.75600160138E+03  0.46999998093E+01 0.  1.
</event>
<event>
 5   0  0.9610114E-04  0.1732198E+04  0.7818609E-02  0.8743211E-01
        2   -1    0    0  501    0  0.00000000000E+00  0.00000000000E+00  0.18503946315E+04  0.18503946315E+04  0.25500000920E-02 0. -1.
       -2   -1    0    0    0  501  0.00000000000E+00  0.00000000000E+00 -0.40538803872E+03  0.40538803873E+03  0.25500000920E-02 0.  1.
    10030    2    1    2    0    0  0.00000000000E+00  0.00000000000E+00  0.14450065928E+04  0.22557826702E+04  0.17321984304E+04 0.  0.
        2    1    3    3  502    0 -0.68720439088E+02  0.10016871502E+02  0.18467629792E+04  0.18480682720E+04  0.25500000920E-02 0. -1.
       -2    1    3    3    0  502  0.68720439088E+02 -0.10016871502E+02 -0.40175638646E+03  0.40771439824E+03  0.25500000920E-02 0.  1.
</event>
<event>
 5   0  0.4947006E-04  0.1709798E+04  0.7818609E-02  0.8755796E-01
       -1   -1    0    0    0  501  0.00000000000E+00  0.00000000000E+00  0.62800533601E+03  0.62800533603E+03  0.50400001928E-02 0.  1.
        1   -1    0    0  501    0  0.00000000000E+00  0.00000000000E+00 -0.11637679051E+04  0.11637679052E+04  0.50400001928E-02 0. -1.
    10030    2    1    2    0    0  0.00000000000E+00  0.00000000000E+00 -0.53576256913E+03  0.17917732412E+04  0.17097981803E+04 0.  0.
        2    1    3    3  502    0 -0.46374811615E+03 -0.46843895302E+03  0.30260392408E+03  0.72530442079E+03  0.25500000920E-02 0.  1.
       -2    1    3    3    0  502  0.46374811615E+03  0.46843895302E+03 -0.83836649321E+03  0.10664688204E+04  0.25500000920E-02 0. -1.
</event>
<event>
 5   0  0.4947006E-04  0.1685286E+04  0.7818609E-02  0.8769801E-01
       -1   -1    0    0    0  501  0.00000000000E+00  0.00000000000E+00  0.79967666202E+03  0.79967666204E+03  0.50400001928E-02 0. -1.
        1   -1    0    0  501    0  0.00000000000E+00  0.00000000000E+00 -0.88791807813E+03  0.88791807815E+03  0.50400001928E-02 0.  1.
    10030    2    1    2    0    0  0.00000000000E+00  0.00000000000E+00 -0.88241416114E+02  0.16875947402E+04  0.16852861655E+04 0.  0.
        2    1    3    3  502    0 -0.18659384212E+03  0.68784702353E+03  0.40604663296E+03  0.82025889684E+03  0.25500000920E-02 0. -1.
       -2    1    3    3    0  502  0.18659384212E+03 -0.68784702353E+03 -0.49428804908E+03  0.86733584335E+03  0.25500000920E-02 0.  1.
</event>
<event>
 5   0  0.5074133E-04  0.1683242E+04  0.7818609E-02  0.8770980E-01
        1   -1    0    0  501    0  0.00000000000E+00  0.00000000000E+00  0.69805740677E+03  0.69805740679E+03  0.50400001928E-02 0. -1.
       -1   -1    0    0    0  501  0.00000000000E+00  0.00000000000E+00 -0.10147101230E+04  0.10147101230E+04  0.50400001928E-02 0.  1.
    10030    2    1    2    0    0  0.00000000000E+00  0.00000000000E+00 -0.31665271621E+03  0.17127675298E+04  0.16832420112E+04 0.  0.
        1    1    3    3  502    0 -0.12940237677E+03  0.48408392193E+03  0.52973271117E+03  0.72917690850E+03  0.50400001928E-02 0. -1.
       -1    1    3    3    0  502  0.12940237677E+03 -0.48408392193E+03 -0.84638542738E+03  0.98359062129E+03  0.50400001928E-02 0.  1.
</event>
<event>
 5   0  0.9610114E-04  0.1295557E+04  0.7818609E-02  0.9033096E-01
       -2   -1    0    0    0  501  0.00000000000E+00  0.00000000000E+00  0.91064827735E+03  0.91064827736E+03  0.25500000920E-02 0. -1.
        2   -1    0    0  501    0  0.00000000000E+00  0.00000000000E+00 -0.46078924178E+03  0.46078924179E+03  0.25500000920E-02 0.  1.
    10030    2    1    2    0    0  0.00000000000E+00  0.00000000000E+00  0.44985903557E+03  0.13714375191E+04  0.12955569139E+04 0.  0.
        2    1    3    3  502    0  0.39741831806E+03  0.27277267378E+03 -0.23316429053E+03  0.53545479499E+03  0.25500000920E-02 0.  1.
       -2    1    3    3    0  502 -0.39741831806E+03 -0.27277267378E+03  0.68302332610E+03  0.83598272416E+03  0.25500000920E-02 0. -1.
</event>
<event>
 5   0  0.9284971E-04  0.1726747E+04  0.7818609E-02  0.8746255E-01
       -2   -1    0    0    0  501  0.00000000000E+00  0.00000000000E+00  0.43241935880E+03  0.43241935881E+03  0.25500000920E-02 0. -1.
        2   -1    0    0  501    0  0.00000000000E+00  0.00000000000E+00 -0.17238209127E+04  0.17238209127E+04  0.25500000920E-02 0.  1.
    10030    2    1    2    0    0  0.00000000000E+00  0.00000000000E+00 -0.12914015539E+04  0.21562402715E+04  0.17267466911E+04 0.  0.
        4    1    3    3  502    0 -0.81808395296E+03 -0.77101117173E+02 -0.97656940257E+03  0.12762818448E+04  0.12699999809E+01 0.  1.
       -4    1    3    3    0  502  0.81808395296E+03  0.77101117173E+02 -0.31483215131E+03  0.87995842672E+03  0.12699999809E+01 0. -1.
</event>
<event>
 5   0  0.5074133E-04  0.1658098E+04  0.7818609E-02  0.8785630E-01
        1   -1    0    0  501    0  0.00000000000E+00  0.00000000000E+00  0.72094127355E+03  0.72094127357E+03  0.50400001928E-02 0.  1.
       -1   -1    0    0    0  501  0.00000000000E+00  0.00000000000E+00 -0.95336784478E+03  0.95336784480E+03  0.50400001928E-02 0. -1.
    10030    2    1    2    0    0  0.00000000000E+00  0.00000000000E+00 -0.23242657123E+03  0.16743091184E+04  0.16580979805E+04 0.  0.
        1    1    3    3  502    0  0.78669774582E+03 -0.26098008326E+03 -0.98198427842E+02  0.83465374761E+03  0.50400001928E-02 0. -1.
       -1    1    3    3    0  502 -0.78669774582E+03  0.26098008326E+03 -0.13422814339E+03  0.83965537076E+03  0.50400001928E-02 0.  1.
</event>
<event>
 5   0  0.9625225E-04  0.1695262E+04  0.7818609E-02  0.8764071E-01
        2   -1    0    0  501    0  0.00000000000E+00  0.00000000000E+00  0.19375102004E+04  0.19375102004E+04  0.25500000920E-02 0.  1.
       -2   -1    0    0    0  501  0.00000000000E+00  0.00000000000E+00 -0.37082565000E+03  0.37082565001E+03  0.25500000920E-02 0. -1.
    10030    2    1    2    0    0  0.00000000000E+00  0.00000000000E+00  0.15666845504E+04  0.23083358504E+04  0.16952621974E+04 0.  0.
        1    1    3    3  502    0 -0.15238888408E+03  0.39936032633E+03 -0.21332517741E+03  0.47772238128E+03  0.50400001928E-02 0. -1.
       -1    1    3    3    0  502  0.15238888408E+03 -0.39936032633E+03  0.17800097278E+04  0.18306134691E+04  0.50400001928E-02 0.  1.
</event>
<event>
 5   0  0.4947006E-04  0.1723391E+04  0.7818609E-02  0.8748135E-01
        1   -1    0    0  501    0  0.00000000000E+00  0.00000000000E+00  0.51072355338E+03  0.51072355340E+03  0.50400001928E-02 0.  1.
       -1   -1    0    0    0  501  0.00000000000E+00  0.00000000000E+00 -0.14538576860E+04  0.14538576860E+04  0.50400001928E-02 0. -1.
    10030    2    1    2    0    0  0.00000000000E+00  0.00000000000E+00 -0.94313413266E+03  0.19645812394E+04  0.17233912656E+04 0.  0.
        2    1    3    3  502    0 -0.41125693300E+03  0.45594294481E+03 -0.11607454623E+04  0.13131436563E+04  0.25500000920E-02 0. -1.
       -2    1    3    3    0  502  0.41125693300E+03 -0.45594294481E+03  0.21761132968E+03  0.65143758310E+03  0.25500000920E-02 0.  1.
</event>
<event>
 5   0  0.5074133E-04  0.1711027E+04  0.7818609E-02  0.8755100E-01
       -1   -1    0    0    0  501  0.00000000000E+00  0.00000000000E+00  0.29988545369E+03  0.29988545373E+03  0.50400001928E-02 0. -1.
        1   -1    0    0  501    0  0.00000000000E+00  0.00000000000E+00 -0.24406085015E+04  0.24406085015E+04  0.50400001928E-02 0.  1.
    10030    2    1    2    0    0  0.00000000000E+00  0.00000000000E+00 -0.21407230478E+04  0.27404939552E+04  0.17110265782E+04 0.  0.
        1    1    3    3  502    0  0.34176817980E+03  0.69576207179E+03 -0.49062763343E+03  0.91739076950E+03  0.50400001928E-02 0. -1.
       -1    1    3    3    0  502 -0.34176817980E+03 -0.69576207179E+03 -0.16500954144E+04  0.18231031857E+04  0.50400001928E-02 0.  1.
</event>
<event>
 5   0  0.5009762E-04  0.1756785E+04  0.7818609E-02  0.8729624E-01
        1   -1    0    0  501    0  0.00000000000E+00  0.00000000000E+00  0.12415218066E+04  0.12415218066E+04  0.50400001928E-02 0.  1.
       -1   -1    0    0    0  501  0.00000000000E+00  0.00000000000E+00 -0.62147390234E+03  0.62147390236E+03  0.50400001928E-02 0. -1.
    10030    2    1    2    0    0  0.00000000000E+00  0.00000000000E+00  0.62004790425E+03  0.18629957090E+04  0.17567850204E+04 0.  0.
        3    1    3    3  502    0  0.73769889604E+03 -0.45758446673E+03  0.16778744911E+03  0.88415826847E+03  0.10100000352E+00 0.  1.
       -3    1    3    3    0  502 -0.73769889604E+03  0.45758446673E+03  0.45226045514E+03  0.97883744049E+03  0.10100000352E+00 0. -1.
</event>
<event>
 5   0  0.5074133E-04  0.1711444E+04  0.7818609E-02  0.8754864E-01
        1   -1    0    0  501    0  0.00000000000E+00  0.00000000000E+00  0.92656597035E+03  0.92656597037E+03  0.50400001928E-02 0.  1.
       -1   -1    0    0    0  501  0.00000000000E+00  0.00000000000E+00 -0.79029509995E+03  0.79029509996E+03  0.50400001928E-02 0. -1.
    10030    2    1    2    0    0  0.00000000000E+00  0.00000000000E+00  0.13627087041E+03  0.17168610703E+04  0.17114444732E+04 0.  0.
        1    1    3    3  502    0  0.52281036144E+03 -0.43934016679E+03  0.58543218339E+03  0.89948946495E+03  0.50400001928E-02 0.  1.
       -1    1    3    3    0  502 -0.52281036144E+03  0.43934016679E+03 -0.44916131298E+03  0.81737160538E+03  0.50400001928E-02 0. -1.
</event>
<event>
 5   0  0.5074133E-04  0.2037155E+04  0.7818609E-02  0.8589444E-01
       -1   -1    0    0    0  501  0.00000000000E+00  0.00000000000E+00  0.11390652803E+04  0.11390652803E+04  0.50400001928E-02 0.  1.
        1   -1    0    0  501    0  0.00000000000E+00  0.00000000000E+00 -0.91083459462E+03  0.91083459463E+03  0.50400001928E-02 0. -1.
    10030    2    1    2    0    0  0.00000000000E+00  0.00000000000E+00  0.22823068570E+03  0.20498998750E+04  0.20371549405E+04 0.  0.
        1    1    3    3  502    0 -0.74772155664E+03 -0.49113218099E+03 -0.37596524676E+03  0.97038559979E+03  0.50400001928E-02 0.  1.
       -1    1    3    3    0  502  0.74772155664E+03  0.49113218099E+03  0.60419593246E+03  0.10795142752E+04  0.50400001928E-02 0. -1.
</event>
<event>
 5   0  0.4947006E-04  0.1782429E+04  0.7818609E-02  0.8715699E-01
        1   -1    0    0  501    0  0.00000000000E+00  0.00000000000E+00  0.10672719625E+04  0.10672719625E+04  0.50400001928E-02 0. -1.
       -1   -1    0    0    0  501  0.00000000000E+00  0.00000000000E+00 -0.74419989973E+03  0.74419989975E+03  0.50400001928E-02 0.  1.
    10030    2    1    2    0    0  0.00000000000E+00  0.00000000000E+00  0.32307206276E+03  0.18114718622E+04  0.17824294516E+04 0.  0.
        2    1    3    3  502    0 -0.30923946747E+03  0.68871807915E+03  0.64285819601E+03  0.99157869127E+03  0.25500000920E-02 0. -1.
       -2    1    3    3    0  502  0.30923946747E+03 -0.68871807915E+03 -0.31978613325E+03  0.81989317098E+03  0.25500000920E-02 0.  1.
</event>
<event>
 5   0  0.5074133E-04  0.1691620E+04  0.7818609E-02  0.8766158E-01
        1   -1    0    0  501    0  0.00000000000E+00  0.00000000000E+00  0.91871836823E+03  0.91871836824E+03  0.50400001928E-02 0.  1.
       -1   -1    0    0    0  501  0.00000000000E+00  0.00000000000E+00 -0.77868770857E+03  0.77868770859E+03  0.50400001928E-02 0. -1.
    10030    2    1    2    0    0  0.00000000000E+00  0.00000000000E+00  0.14003065966E+03  0.16974060768E+04  0.16916201713E+04 0.  0.
        1    1    3    3  502    0  0.27768140580E+03  0.73682089738E+03  0.37991257123E+03  0.87426858559E+03  0.50400001928E-02 0. -1.
       -1    1    3    3    0  502 -0.27768140580E+03 -0.73682089738E+03 -0.23988191157E+03  0.82313749123E+03  0.50400001928E-02 0.  1.
</event>
<event>
 5   0  0.9610114E-04  0.1688384E+04  0.7818609E-02  0.8768017E-01
       -2   -1    0    0    0  501  0.00000000000E+00  0.00000000000E+00  0.52615648082E+03  0.52615648083E+03  0.25500000920E-02 0.  1.
        2   -1    0    0  501    0  0.00000000000E+00  0.00000000000E+00 -0.13544649141E+04  0.13544649141E+04  0.25500000920E-02 0. -1.
    10030    2    1    2    0    0  0.00000000000E+00  0.00000000000E+00 -0.82830843327E+03  0.18806213949E+04  0.16883844261E+04 0.  0.
        2    1    3    3  502    0 -0.14503900960E+03 -0.15846563143E+03 -0.13235109550E+04  0.13408314282E+04  0.25500000920E-02 0. -1.
       -2    1    3    3    0  502  0.14503900960E+03  0.15846563143E+03  0.49520252176E+03  0.53978996676E+03  0.25500000920E-02 0.  1.
</event>
<event>
 5   0  0.4947006E-04  0.1702902E+04  0.7818609E-02  0.8759711E-01
       -1   -1    0    0    0  501  0.00000000000E+00  0.00000000000E+00  0.93065447157E+03  0.93065447159E+03  0.50400001928E-02 0. -1.
        1   -1    0    0  501    0  0.00000000000E+00  0.00000000000E+00 -0.77898775577E+03  0.77898775579E+03  0.50400001928E-02 0.  1.
    10030    2    1    2    0    0  0.00000000000E+00  0.00000000000E+00  0.15166671580E+03  0.17096422274E+04  0.17029015688E+04 0.  0.
        2    1    3    3  502    0 -0.79573110212E+03 -0.94661377830E+02 -0.21308986536E+03  0.82918999877E+03  0.25500000920E-02 0.  1.
       -2    1    3    3    0  502  0.79573110212E+03  0.94661377830E+02  0.36475658117E+03  0.88045222860E+03  0.25500000920E-02 0. -1.
</event>
<event>
 5   0  0.5059689E-04  0.1725327E+04  0.7818609E-02  0.8747050E-01
        1   -1    0    0  501    0  0.00000000000E+00  0.00000000000E+00  0.10070511885E+04  0.10070511885E+04  0.50400001928E-02 0. -1.
       -1   -1    0    0    0  501  0.00000000000E+00  0.00000000000E+00 -0.73897760838E+03  0.73897760839E+03  0.50400001928E-02 0.  1.
    10030    2    1    2    0    0  0.00000000000E+00  0.00000000000E+00  0.26807358010E+03  0.17460287969E+04  0.17253269589E+04 0.  0.
        5    1    3    3  502    0 -0.68607500069E+03  0.50763958939E+03  0.69540389248E+01  0.85350296305E+03  0.46999998093E+01 0.  1.
       -5    1    3    3    0  502  0.68607500069E+03 -0.50763958939E+03  0.26111954118E+03  0.89252583383E+03  0.46999998093E+01 0. -1.
</event>
<event>
 5   0  0.9625225E-04  0.1648179E+04  0.7818609E-02  0.8791484E-01
       -2   -1    0    0    0  501  0.00000000000E+00  0.00000000000E+00  0.12476281636E+04  0.12476281637E+04  0.25500000920E-02 0.  1.
        2   -1    0    0  501    0  0.00000000000E+00  0.00000000000E+00 -0.54433171109E+03  0.54433171110E+03  0.25500000920E-02 0. -1.
    10030    2    1    2    0    0  0.00000000000E+00  0.00000000000E+00  0.70329645256E+03  0.17919598747E+04  0.16481790839E+04 0.  0.
        1    1    3    3  502    0 -0.28672876525E+03 -0.12751838487E+01  0.11916453261E+04  0.12256563932E+04  0.50400001928E-02 0.  1.
       -1    1    3    3    0  502  0.28672876525E+03  0.12751838487E+01 -0.48834887354E+03  0.56630348156E+03  0.50400001928E-02 0. -1.
</event>
<event>
 5   0  0.9625225E-04  0.1676956E+04  0.7818609E-02  0.8774617E-01
       -2   -1    0    0    0  501  0.00000000000E+00  0.00000000000E+00  0.85114949058E+03  0.85114949058E+03  0.25500000920E-02 0. -1.
        2   -1    0    0  501    0  0.00000000000E+00  0.00000000000E+00 -0.82599538168E+03  0.82599538168E+03  0.25500000920E-02 0.  1.
    10030    2    1    2    0    0  0.00000000000E+00  0.00000000000E+00  0.25154108899E+02  0.16771448723E+04  0.16769562288E+04 0.  0.
        1    1    3    3  502    0 -0.10065015877E+03 -0.40992977884E+03 -0.71198540968E+03  0.82770532296E+03  0.50400001928E-02 0.  1.
       -1    1    3    3    0  502  0.10065015877E+03  0.40992977884E+03  0.73713951857E+03  0.84943954930E+03  0.50400001928E-02 0. -1.
</event>
<event>
 5   0  0.9610114E-04  0.1644039E+04  0.7818609E-02  0.8793941E-01
       -2   -1    0    0    0  501  0.00000000000E+00  0.00000000000E+00  0.32819653032E+03  0.32819653033E+03  0.25500000920E-02 0. -1.
        2   -1    0    0  501    0  0.00000000000E+00  0.00000000000E+00 -0.20588768065E+04  0.20588768065E+04  0.25500000920E-02 0.  1.
    10030    2    1    2    0    0  0.00000000000E+00  0.00000000000E+00 -0.17306802762E+04  0.23870733368E+04  0.16440392018E+04 0.  0.
        2    1    3    3  502    0  0.72628814084E+03 -0.38438330995E+03 -0.83382125084E+03  0.11706847871E+04  0.25500000920E-02 0. -1.
       -2    1    3    3    0  502 -0.72628814084E+03  0.38438330995E+03 -0.89685902535E+03  0.12163885497E+04  0.25500000920E-02 0.  1.
</event>
<event>
 5   0  0.1007187E-03  0.1632051E+04  0.7818609E-02  0.8801096E-01
        2   -1    0    0  501    0  0.00000000000E+00  0.00000000000E+00  0.15225819481E+04  0.15225819481E+04  0.25500000920E-02 0. -1.
       -2   -1    0    0    0  501  0.00000000000E+00  0.00000000000E+00 -0.43734746729E+03  0.43734746730E+03  0.25500000920E-02 0.  1.
    10030    2    1    2    0    0  0.00000000000E+00  0.00000000000E+00  0.10852344808E+04  0.19599294154E+04  0.16320506839E+04 0.  0.
        5    1    3    3  502    0 -0.62138258961E+03 -0.50917870875E+03  0.71454310806E+03  0.10751619522E+04  0.46999998093E+01 0.  1.
       -5    1    3    3    0  502  0.62138258961E+03  0.50917870875E+03  0.37069137271E+03  0.88476746319E+03  0.46999998093E+01 0. -1.
</event>
<event>
 5   0  0.5035495E-04  0.1615845E+04  0.7818609E-02  0.8810873E-01
        1   -1    0    0  501    0  0.00000000000E+00  0.00000000000E+00  0.64641549055E+03  0.64641549057E+03  0.50400001928E-02 0.  1.
       -1   -1    0    0    0  501  0.00000000000E+00  0.00000000000E+00 -0.10097819530E+04  0.10097819531E+04  0.50400001928E-02 0. -1.
    10030    2    1    2    0    0  0.00000000000E+00  0.00000000000E+00 -0.36336646250E+03  0.16561974436E+04  0.16158449140E+04 0.  0.
        4    1    3    3  502    0 -0.29470335621E+03 -0.46236193065E+02  0.58789967937E+03  0.65925374448E+03  0.12699999809E+01 0.  1.
       -4    1    3    3    0  502  0.29470335621E+03  0.46236193065E+02 -0.95126614187E+03  0.99694369915E+03  0.12699999809E+01 0. -1.
</event>
<event>
 5   0  0.9625225E-04  0.1695259E+04  0.7818609E-02  0.8764073E-01
       -2   -1    0    0    0  501  0.00000000000E+00  0.00000000000E+00  0.60502456129E+03  0.60502456130E+03  0.25500000920E-02 0. -1.
        2   -1    0    0  501    0  0.00000000000E+00  0.00000000000E+00 -0.11875145286E+04  0.11875145286E+04  0.25500000920E-02 0.  1.
    10030    2    1    2    0    0  0.00000000000E+00  0.00000000000E+00 -0.58248996730E+03  0.17925390899E+04  0.16952586312E+04 0.  0.
        1    1    3    3  502    0  0.50692785104E+03  0.47129186181E+03  0.22609954463E+03  0.72815717347E+03  0.50400001928E-02 0. -1.
       -1    1    3    3    0  502 -0.50692785104E+03 -0.47129186181E+03 -0.80858951192E+03  0.10643819164E+04  0.50400001928E-02 0.  1.
</event>
<event>
 5   0  0.5074133E-04  0.1712294E+04  0.7818609E-02  0.8754383E-01
        1   -1    0    0  501    0  0.00000000000E+00  0.00000000000E+00  0.98339690599E+03  0.98339690600E+03  0.50400001928E-02 0. -1.
       -1   -1    0    0    0  501  0.00000000000E+00  0.00000000000E+00 -0.74536324896E+03  0.74536324898E+03  0.50400001928E-02 0.  1.
    10030    2    1    2    0    0  0.00000000000E+00  0.00000000000E+00  0.23803365703E+03  0.17287601550E+04  0.17122942655E+04 0.  0.
        1    1    3    3  502    0  0.44506825199E+03  0.41991933106E+03 -0.48554854421E+03  0.78113723656E+03  0.50400001928E-02 0.  1.
       -1    1    3    3    0  502 -0.44506825199E+03 -0.41991933106E+03  0.72358220124E+03  0.94762291842E+03  0.50400001928E-02 0. -1.
</event>
<event>
 5   0  0.4947006E-04  0.1754666E+04  0.7818609E-02  0.8730786E-01
       -1   -1    0    0    0  501  0.00000000000E+00  0.00000000000E+00  0.56398639896E+03  0.56398639898E+03  0.50400001928E-02 0.  1.
        1   -1    0    0  501    0  0.00000000000E+00  0.00000000000E+00 -0.13647732622E+04  0.13647732622E+04  0.50400001928E-02 0. -1.
    10030    2    1    2    0    0  0.00000000000E+00  0.00000000000E+00 -0.80078686320E+03  0.19287596612E+04  0.17546664157E+04 0.  0.
        2    1    3    3  502    0 -0.69220395192E+03 -0.24673336115E+03 -0.92720402002E+03  0.11831022599E+04  0.25500000920E-02 0. -1.
       -2    1    3    3    0  502  0.69220395192E+03  0.24673336115E+03  0.12641715682E+03  0.74565740129E+03  0.25500000920E-02 0.  1.
</event>
<event>
 5   0  0.5074133E-04  0.1777295E+04  0.7818609E-02  0.8718468E-01
        1   -1    0    0  501    0  0.00000000000E+00  0.00000000000E+00  0.60488528446E+03  0.60488528448E+03  0.50400001928E-02 0. -1.
       -1   -1    0    0    0  501  0.00000000000E+00  0.00000000000E+00 -0.13055280294E+04  0.13055280294E+04  0.50400001928E-02 0.  1.
    10030    2    1    2    0    0  0.00000000000E+00  0.00000000000E+00 -0.70064274490E+03  0.19104133138E+04  0.17772953535E+04 0.  0.
        1    1    3    3  502    0  0.33442753809E+03  0.24791689698E+03  0.49358752869E+03  0.64570365846E+03  0.50400001928E-02 0. -1.
       -1    1    3    3    0  502 -0.33442753809E+03 -0.24791689698E+03 -0.11942302736E+04  0.12647096554E+04  0.50400001928E-02 0.  1.
</event>
<event>
 5   0  0.5059689E-04  0.1621672E+04  0.7818609E-02  0.8807344E-01
        1   -1    0    0  501    0  0.00000000000E+00  0.00000000000E+00  0.11575314738E+04  0.11575314739E+04  0.50400001928E-02 0.  1.
       -1   -1    0    0    0  501  0.00000000000E+00  0.00000000000E+00 -0.56798018872E+03  0.56798018874E+03  0.50400001928E-02 0. -1.
    10030    2    1    2    0    0  0.00000000000E+00  0.00000000000E+00  0.58955128513E+03  0.17255116626E+04  0.16216719089E+04 0.  0.
        5    1    3    3  502    0 -0.48185445718E+03  0.28935146340E+03  0.91659762516E+03  0.10752122040E+04  0.46999998093E+01 0.  1.
       -5    1    3    3    0  502  0.48185445718E+03 -0.28935146340E+03 -0.32704634003E+03  0.65029945855E+03  0.46999998093E+01 0. -1.
</event>
<event>
 5   0  0.4947006E-04  0.1761037E+04  0.7818609E-02  0.8727298E-01
        1   -1    0    0  501    0  0.00000000000E+00  0.00000000000E+00  0.56019010467E+03  0.56019010469E+03  0.50400001928E-02 0.  1.
       -1   -1    0    0    0  501  0.00000000000E+00  0.00000000000E+00 -0.13840178508E+04  0.13840178508E+04  0.50400001928E-02 0. -1.
    10030    2    1    2    0    0  0.00000000000E+00  0.00000000000E+00 -0.82382774612E+03  0.19442079555E+04  0.17610373133E+04 0.  0.
        2    1    3    3  502    0  0.84039566144E+03 -0.63651073304E+01 -0.70193057176E+03  0.10949940228E+04  0.25500000920E-02 0. -1.
       -2    1    3    3    0  502 -0.84039566144E+03  0.63651073304E+01 -0.12189717435E+03  0.84921393269E+03  0.25500000920E-02 0.  1.
</event>
<event>
 5   0  0.9625225E-04  0.1741946E+04  0.7818609E-02  0.8737796E-01
        2   -1    0    0  501    0  0.00000000000E+00  0.00000000000E+00  0.27344996175E+03  0.27344996176E+03  0.25500000920E-02 0.  1.
       -2   -1    0    0    0  501  0.00000000000E+00  0.00000000000E+00 -0.27741599913E+04  0.27741599913E+04  0.25500000920E-02 0. -1.
    10030    2    1    2    0    0  0.00000000000E+00  0.00000000000E+00 -0.25007100295E+04  0.30476099531E+04  0.17419459734E+04 0.  0.
        1    1    3    3  502    0  0.77891220543E+03 -0.35590296192E+03 -0.97249800186E+03  0.12958099806E+04  0.50400001928E-02 0. -1.
       -1    1    3    3    0  502 -0.77891220543E+03  0.35590296192E+03 -0.15282120277E+04  0.17517999725E+04  0.50400001928E-02 0.  1.
</event>
<event>
 5   0  0.9312096E-04  0.1722882E+04  0.7818609E-02  0.8748420E-01
        2   -1    0    0  501    0  0.00000000000E+00  0.00000000000E+00  0.80790914514E+03  0.80790914514E+03  0.25500000920E-02 0.  1.
       -2   -1    0    0    0  501  0.00000000000E+00  0.00000000000E+00 -0.91852031615E+03  0.91852031615E+03  0.25500000920E-02 0. -1.
    10030    2    1    2    0    0  0.00000000000E+00  0.00000000000E+00 -0.11061117101E+03  0.17264294613E+04  0.17228824260E+04 0.  0.
        3    1    3    3  502    0  0.25009245769E+03 -0.21698789634E+03 -0.85221072651E+03  0.91427190547E+03  0.10100000352E+00 0. -1.
       -3    1    3    3    0  502 -0.25009245769E+03  0.21698789634E+03  0.74159955551E+03  0.81215755582E+03  0.10100000352E+00 0.  1.
</event>
<event>
 5   0  0.5074133E-04  0.1715231E+04  0.7818609E-02  0.8752725E-01
       -1   -1    0    0    0  501  0.00000000000E+00  0.00000000000E+00  0.10641622481E+04  0.10641622482E+04  0.50400001928E-02 0.  1.
        1   -1    0    0  501    0  0.00000000000E+00  0.00000000000E+00 -0.69115773199E+03  0.69115773201E+03  0.50400001928E-02 0. -1.
    10030    2    1    2    0    0  0.00000000000E+00  0.00000000000E+00  0.37300451615E+03  0.17553199802E+04  0.17152305570E+04 0.  0.
        1    1    3    3  502    0  0.61875053965E+03 -0.46958508222E+03 -0.18550682933E+03  0.79860826662E+03  0.50400001928E-02 0.  1.
       -1    1    3    3    0  502 -0.61875053965E+03  0.46958508222E+03  0.55851134548E+03  0.95671171354E+03  0.50400001928E-02 0. -1.
</event>
<event>
 5   0  0.4947006E-04  0.1773824E+04  0.7818609E-02  0.8720345E-01
       -1   -1    0    0    0  501  0.00000000000E+00  0.00000000000E+00  0.71369217758E+03  0.71369217759E+03  0.50400001928E-02 0. -1.
        1   -1    0    0  501    0  0.00000000000E+00  0.00000000000E+00 -0.11021740223E+04  0.11021740224E+04  0.50400001928E-02 0.  1.
    10030    2    1    2    0    0  0.00000000000E+00  0.00000000000E+00 -0.38848184477E+03  0.18158662000E+04  0.17738240929E+04 0.  0.
        2    1    3    3  502    0 -0.73579610583E+00 -0.33376209234E+03  0.64694972140E+03  0.72797089070E+03  0.25500000920E-02 0. -1.
       -2    1    3    3    0  502  0.73579610583E+00  0.33376209234E+03 -0.10354315662E+04  0.10878953093E+04  0.25500000920E-02 0.  1.
</event>
<event>
 5   0  0.5074133E-04  0.1684593E+04  0.7818609E-02  0.8770200E-01
       -1   -1    0    0    0  501  0.00000000000E+00  0.00000000000E+00  0.13082487297E+04  0.13082487297E+04  0.50400001928E-02 0. -1.
        1   -1    0    0  501    0  0.00000000000E+00  0.00000000000E+00 -0.54230034441E+03  0.54230034443E+03  0.50400001928E-02 0.  1.
    10030    2    1    2    0    0  0.00000000000E+00  0.00000000000E+00  0.76594838533E+03  0.18505490742E+04  0.16845934070E+04 0.  0.
        1    1    3    3  502    0 -0.46488389077E+02  0.25786149578E+03 -0.49639279001E+03  0.56130163310E+03  0.50400001928E-02 0.  1.
       -1    1    3    3    0  502  0.46488389077E+02 -0.25786149578E+03  0.12623411753E+04  0.12892474411E+04  0.50400001928E-02 0. -1.
</event>
<event>
 5   0  0.4947006E-04  0.1786886E+04  0.7818609E-02  0.8713305E-01
       -1   -1    0    0    0  501  0.00000000000E+00  0.00000000000E+00  0.69741504752E+03  0.69741504754E+03  0.50400001928E-02 0.  1.
        1   -1    0    0  501    0  0.00000000000E+00  0.00000000000E+00 -0.11445697163E+04  0.11445697164E+04  0.50400001928E-02 0. -1.
    10030    2    1    2    0    0  0.00000000000E+00  0.00000000000E+00 -0.44715466883E+03  0.18419847639E+04  0.17868857189E+04 0.  0.
        2    1    3    3  502    0  0.11730450106E+03  0.83276189861E+03  0.87365050120E+02  0.84550894598E+03  0.25500000920E-02 0.  1.
       -2    1    3    3    0  502 -0.11730450106E+03 -0.83276189861E+03 -0.53451971895E+03  0.99647581792E+03  0.25500000920E-02 0. -1.
</event>
<event>
 5   0  0.5009762E-04  0.1467666E+04  0.7818609E-02  0.8906244E-01
       -1   -1    0    0    0  501  0.00000000000E+00  0.00000000000E+00  0.50429599510E+03  0.50429599512E+03  0.50400001928E-02 0.  1.
        1   -1    0    0  501    0  0.00000000000E+00  0.00000000000E+00 -0.10678467010E+04  0.10678467010E+04  0.50400001928E-02 0. -1.
    10030    2    1    2    0    0  0.00000000000E+00  0.00000000000E+00 -0.56355070588E+03  0.15721426961E+04  0.14676659221E+04 0.  0.
        3    1    3    3  502    0 -0.37661703312E+03 -0.18715002581E+03 -0.92595374685E+03  0.10169837134E+04  0.10100000352E+00 0. -1.
       -3    1    3    3    0  502  0.37661703312E+03  0.18715002581E+03  0.36240304097E+03  0.55515898272E+03  0.10100000352E+00 0.  1.
</event>
<event>
 5   0  0.9625225E-04  0.1672243E+04  0.7818609E-02  0.8777355E-01
        2   -1    0    0  501    0  0.00000000000E+00  0.00000000000E+00  0.97885298931E+03  0.97885298931E+03  0.25500000920E-02 0. -1.
       -2   -1    0    0    0  501  0.00000000000E+00  0.00000000000E+00 -0.71420233474E+03  0.71420233474E+03  0.25500000920E-02 0.  1.
    10030    2    1    2    0    0  0.00000000000E+00  0.00000000000E+00  0.26465065457E+03  0.16930553241E+04  0.16722429134E+04 0.  0.
        1    1    3    3  502    0 -0.52145731793E+03 -0.21638927641E+03 -0.49208131362E+03  0.74892327552E+03  0.50400001928E-02 0.  1.
       -1    1    3    3    0  502  0.52145731793E+03  0.21638927641E+03  0.75673196819E+03  0.94413204854E+03  0.50400001928E-02 0. -1.
</event>
<event>
 5   0  0.5059689E-04  0.1714759E+04  0.7818609E-02  0.8752991E-01
       -1   -1    0    0    0  501  0.00000000000E+00  0.00000000000E+00  0.84425394884E+03  0.84425394885E+03  0.50400001928E-02 0. -1.
        1   -1    0    0  501    0  0.00000000000E+00  0.00000000000E+00 -0.87070925010E+03  0.87070925012E+03  0.50400001928E-02 0.  1.
    10030    2    1    2    0    0  0.00000000000E+00  0.00000000000E+00 -0.26455301266E+02  0.17149631990E+04  0.17147591349E+04 0.  0.
        5    1    3    3  502    0  0.22705890709E+03  0.81278303230E+02 -0.83607444345E+03  0.87017496796E+03  0.46999998093E+01 0.  1.
       -5    1    3    3    0  502 -0.22705890709E+03 -0.81278303230E+02  0.80961914219E+03  0.84478823101E+03  0.46999998093E+01 0. -1.
</event>
<event>
 5   0  0.9610114E-04  0.1705348E+04  0.7818609E-02  0.8758320E-01
       -2   -1    0    0    0  501  0.00000000000E+00  0.00000000000E+00  0.88412330932E+03  0.88412330932E+03  0.25500000920E-02 0. -1.
        2   -1    0    0  501    0  0.00000000000E+00  0.00000000000E+00 -0.82234342112E+03  0.82234342112E+03  0.25500000920E-02 0.  1.
    10030    2    1    2    0    0  0.00000000000E+00  0.00000000000E+00  0.61779888197E+02  0.17064667304E+04  0.17053480429E+04 0.  0.
        2    1    3    3  502    0 -0.68648079026E+02 -0.62117631525E+02 -0.81729916676E+03  0.82252604025E+03  0.25500000920E-02 0.  1.
       -2    1    3    3    0  502  0.68648079026E+02  0.62117631525E+02  0.87907905496E+03  0.88394069019E+03  0.25500000920E-02 0. -1.
</event>
<event>
 5   0  0.4947006E-04  0.1687100E+04  0.7818609E-02  0.8768756E-01
       -1   -1    0    0    0  501  0.00000000000E+00  0.00000000000E+00  0.53067263846E+03  0.53067263848E+03  0.50400001928E-02 0.  1.
        1   -1    0    0  501    0  0.00000000000E+00  0.00000000000E+00 -0.13408955909E+04  0.13408955909E+04  0.50400001928E-02 0. -1.
    10030    2    1    2    0    0  0.00000000000E+00  0.00000000000E+00 -0.81022295248E+03  0.18715682294E+04  0.16870999984E+04 0.  0.
        2    1    3    3  502    0  0.77906746076E+03  0.32178651492E+03 -0.44163441964E+03  0.95159530800E+03  0.25500000920E-02 0.  1.
       -2    1    3    3    0  502 -0.77906746076E+03 -0.32178651492E+03 -0.36858853284E+03  0.91997292142E+03  0.25500000920E-02 0. -1.
</event>
<event>
 5   0  0.9312096E-04  0.1027774E+04  0.7818609E-02  0.9278596E-01
       -2   -1    0    0    0  501  0.00000000000E+00  0.00000000000E+00  0.51505915661E+03  0.51505915662E+03  0.25500000920E-02 0. -1.
        2   -1    0    0  501    0  0.00000000000E+00  0.00000000000E+00 -0.51271763233E+03  0.51271763234E+03  0.25500000920E-02 0.  1.
    10030    2    1    2    0    0  0.00000000000E+00  0.00000000000E+00  0.23415242796E+01  0.10277767890E+04  0.10277741217E+04 0.  0.
        3    1    3    3  502    0 -0.19551345126E+03 -0.26822796737E+03 -0.39114154692E+03  0.51299461209E+03  0.10100000352E+00 0.  1.
       -3    1    3    3    0  502  0.19551345126E+03  0.26822796737E+03  0.39348307120E+03  0.51478217687E+03  0.10100000352E+00 0. -1.
</event>
<event>
 5   0  0.5074133E-04  0.1679556E+04  0.7818609E-02  0.8773111E-01
        1   -1    0    0  501    0  0.00000000000E+00  0.00000000000E+00  0.78530280911E+03  0.78530280912E+03  0.50400001928E-02 0. -1.
       -1   -1    0    0    0  501  0.00000000000E+00  0.00000000000E+00 -0.89803224694E+03  0.89803224695E+03  0.50400001928E-02 0.  1.
    10030    2    1    2    0    0  0.00000000000E+00  0.00000000000E+00 -0.11272943783E+03  0.16833350561E+04  0.16795561869E+04 0.  0.
        1    1    3    3  502    0  0.43552708354E+03 -0.11242595606E+03 -0.76711737901E+03  0.88926515129E+03  0.50400001928E-02 0.  1.
       -1    1    3    3    0  502 -0.43552708354E+03  0.11242595606E+03  0.65438794118E+03  0.79406990478E+03  0.50400001928E-02 0. -1.
</event>
<event>
 5   0  0.9312096E-04  0.1746877E+04  0.7818609E-02  0.8735071E-01
        2   -1    0    0  501    0  0.00000000000E+00  0.00000000000E+00  0.14498048987E+04  0.14498048987E+04  0.25500000920E-02 0. -1.
       -2   -1    0    0    0  501  0.00000000000E+00  0.00000000000E+00 -0.52620494936E+03  0.52620494937E+03  0.25500000920E-02 0.  1.
    10030    2    1    2    0    0  0.00000000000E+00  0.00000000000E+00  0.92359994935E+03  0.19760098481E+04  0.17468766566E+04 0.  0.
        3    1    3    3  502    0  0.31675233110E+03 -0.58172433753E+03  0.11058299461E+04  0.12890287522E+04  0.10100000352E+00 0. -1.
       -3    1    3    3    0  502 -0.31675233110E+03  0.58172433753E+03 -0.18222999678E+03  0.68698109585E+03  0.10100000352E+00 0.  1.
</event>
<event>
 5   0  0.5009762E-04  0.1695618E+04  0.7818609E-02  0.8763868E-01
       -1   -1    0    0    0  501  0.00000000000E+00  0.00000000000E+00  0.48792349024E+03  0.48792349026E+03  0.50400001928E-02 0. -1.
        1   -1    0    0  501    0  0.00000000000E+00  0.00000000000E+00 -0.14731409023E+04  0.14731409023E+04  0.50400001928E-02 0.  1.
    10030    2    1    2    0    0  0.00000000000E+00  0.00000000000E+00 -0.98521741204E+03  0.19610643925E+04  0.16956179413E+04 0.  0.
        3    1    3    3  502    0 -0.54296997874E+03  0.12944420868E+03 -0.12306351382E+04  0.13513086452E+04  0.10100000352E+00 0.  1.
       -3    1    3    3    0  502  0.54296997874E+03 -0.12944420868E+03  0.24541772613E+03  0.60975574739E+03  0.10100000352E+00 0. -1.
</event>
<event>
 5   0  0.5059689E-04  0.1713994E+04  0.7818609E-02  0.8753423E-01
        1   -1    0    0  501    0  0.00000000000E+00  0.00000000000E+00  0.14416764869E+04  0.14416764869E+04  0.50400001928E-02 0. -1.
       -1   -1    0    0    0  501  0.00000000000E+00  0.00000000000E+00 -0.50943738399E+03  0.50943738402E+03  0.50400001928E-02 0.  1.
    10030    2    1    2    0    0  0.00000000000E+00  0.00000000000E+00  0.93223910287E+03  0.19511138709E+04  0.17139940467E+04 0.  0.
        5    1    3    3  502    0  0.54338366742E+03  0.22172014385E+03 -0.24477221058E+03  0.63589398273E+03  0.46999998093E+01 0.  1.
       -5    1    3    3    0  502 -0.54338366742E+03 -0.22172014385E+03  0.11770113135E+04  0.13152198882E+04  0.46999998093E+01 0. -1.
</event>
<event>
 5   0  0.5009762E-04  0.1624017E+04  0.7818609E-02  0.8805928E-01
       -1   -1    0    0    0  501  0.00000000000E+00  0.00000000000E+00  0.64960145673E+03  0.64960145675E+03  0.50400001928E-02 0.  1.
        1   -1    0    0  501    0  0.00000000000E+00  0.00000000000E+00 -0.10150186154E+04  0.10150186154E+04  0.50400001928E-02 0. -1.
    10030    2    1    2    0    0  0.00000000000E+00  0.00000000000E+00 -0.36541715864E+03  0.16646200721E+04  0.16240167132E+04 0.  0.
        3    1    3    3  502    0  0.55659348807E+03  0.30547135162E+03 -0.70157468456E+03  0.94621144880E+03  0.10100000352E+00 0. -1.
       -3    1    3    3    0  502 -0.55659348807E+03 -0.30547135162E+03  0.33615752593E+03  0.71840862332E+03  0.10100000352E+00 0.  1.
</event>
<event>
 5   0  0.1007187E-03  0.1766684E+04  0.7818609E-02  0.8724220E-01
       -2   -1    0    0    0  501  0.00000000000E+00  0.00000000000E+00  0.67650180324E+03  0.67650180324E+03  0.25500000920E-02 0. -1.
        2   -1    0    0  501    0  0.00000000000E+00  0.00000000000E+00 -0.11534238386E+04  0.11534238386E+04  0.25500000920E-02 0.  1.
    10030    2    1    2    0    0  0.00000000000E+00  0.00000000000E+00 -0.47692203537E+03  0.18299256418E+04  0.17666842465E+04 0.  0.
        5    1    3    3  502    0  0.54080215860E+03  0.47501735888E+03 -0.76880787403E+03  0.10531837936E+04  0.46999998093E+01 0.  1.
       -5    1    3    3    0  502 -0.54080215860E+03 -0.47501735888E+03  0.29188583866E+03  0.77674184823E+03  0.46999998093E+01 0. -1.
</event>
<event>
 5   0  0.9625225E-04  0.1722219E+04  0.7818609E-02  0.8748792E-01
       -2   -1    0    0    0  501  0.00000000000E+00  0.00000000000E+00  0.40312047461E+03  0.40312047462E+03  0.25500000920E-02 0. -1.
        2   -1    0    0  501    0  0.00000000000E+00  0.00000000000E+00 -0.18394251031E+04  0.18394251031E+04  0.25500000920E-02 0.  1.
    10030    2    1    2    0    0  0.00000000000E+00  0.00000000000E+00 -0.14363046285E+04  0.22425455777E+04  0.17222194060E+04 0.  0.
        1    1    3    3  502    0  0.85442372093E+03  0.49818619382E+02 -0.84160129048E+03  0.12003393361E+04  0.50400001928E-02 0.  1.
       -1    1    3    3    0  502 -0.85442372093E+03 -0.49818619382E+02 -0.59470333802E+03  0.10422062416E+04  0.50400001928E-02 0. -1.
</event>
<event>
 5   0  0.9625225E-04  0.1693131E+04  0.7818609E-02  0.8765292E-01
       -2   -1    0    0    0  501  0.00000000000E+00  0.00000000000E+00  0.47088267274E+03  0.47088267275E+03  0.25500000920E-02 0.  1.
        2   -1    0    0  501    0  0.00000000000E+00  0.00000000000E+00 -0.15219777005E+04  0.15219777005E+04  0.25500000920E-02 0. -1.
    10030    2    1    2    0    0  0.00000000000E+00  0.00000000000E+00 -0.10510950277E+04  0.19928603732E+04  0.16931307421E+04 0.  0.
        1    1    3    3  502    0  0.37328107442E+03  0.65285901420E+03 -0.68004491608E+02  0.75510811401E+03  0.50400001928E-02 0.  1.
       -1    1    3    3    0  502 -0.37328107442E+03 -0.65285901420E+03 -0.98309053612E+03  0.12377522592E+04  0.50400001928E-02 0. -1.
</event>
<event>
 5   0  0.4947006E-04  0.1685513E+04  0.7818609E-02  0.8769670E-01
       -1   -1    0    0    0  501  0.00000000000E+00  0.00000000000E+00  0.49790137879E+03  0.49790137881E+03  0.50400001928E-02 0. -1.
        1   -1    0    0  501    0  0.00000000000E+00  0.00000000000E+00 -0.14264636264E+04  0.14264636264E+04  0.50400001928E-02 0.  1.
    10030    2    1    2    0    0  0.00000000000E+00  0.00000000000E+00 -0.92856224761E+03  0.19243650052E+04  0.16855126299E+04 0.  0.
        2    1    3    3  502    0  0.43451228823E+03  0.12352172704E+03  0.34800266276E+03  0.57023188175E+03  0.25500000920E-02 0. -1.
       -2    1    3    3    0  502 -0.43451228823E+03 -0.12352172704E+03 -0.12765649104E+04  0.13541331235E+04  0.25500000920E-02 0.  1.
</event>
<event>
 5   0  0.3523125E-04  0.1711697E+04  0.7818609E-02  0.8754721E-01
        4   -1    0    0  501    0  0.00000000000E+00  0.00000000000E+00  0.15123031798E+04  0.15123037131E+04  0.12699999809E+01 0.  1.
       -4   -1    0    0    0  501  0.00000000000E+00  0.00000000000E+00 -0.48434354333E+03  0.48434520837E+03  0.12699999809E+01 0. -1.
    10030    2    1    2    0    0  0.00000000000E+00  0.00000000000E+00  0.10279596365E+04  0.19966489214E+04  0.17116967901E+04 0.  0.
        4    1    3    3  502    0  0.23164801334E+03  0.51089570700E+03  0.12679582119E+04  0.13865045495E+04  0.12699999809E+01 0.  1.
       -4    1    3    3    0  502 -0.23164801334E+03 -0.51089570700E+03 -0.23999857548E+03  0.61014437197E+03  0.12699999809E+01 0. -1.
</event>
<event>
 5   0  0.9610114E-04  0.1750320E+04  0.7818609E-02  0.8733174E-01
        2   -1    0    0  501    0  0.00000000000E+00  0.00000000000E+00  0.26492560769E+04  0.26492560769E+04  0.25500000920E-02 0.  1.
       -2   -1    0    0    0  501  0.00000000000E+00  0.00000000000E+00 -0.28910177758E+03  0.28910177759E+03  0.25500000920E-02 0. -1.
    10030    2    1    2    0    0  0.00000000000E+00  0.00000000000E+00  0.23601542993E+04  0.29383578545E+04  0.17503195607E+04 0.  0.
        2    1    3    3  502    0 -0.39341031553E+02 -0.56783712979E+02 -0.28451763387E+03  0.29278386365E+03  0.25500000920E-02 0. -1.
       -2    1    3    3    0  502  0.39341031553E+02  0.56783712979E+02  0.26446719332E+04  0.26455739908E+04  0.25500000920E-02 0.  1.
</event>
<event>
 5   0  0.5059689E-04  0.1665457E+04  0.7818609E-02  0.8781314E-01
       -1   -1    0    0    0  501  0.00000000000E+00  0.00000000000E+00  0.62957517668E+03  0.62957517670E+03  0.50400001928E-02 0. -1.
        1   -1    0    0  501    0  0.00000000000E+00  0.00000000000E+00 -0.11014362780E+04  0.11014362780E+04  0.50400001928E-02 0.  1.
    10030    2    1    2    0    0  0.00000000000E+00  0.00000000000E+00 -0.47186110128E+03  0.17310114547E+04  0.16654572217E+04 0.  0.
        5    1    3    3  502    0  0.65634242335E+02 -0.71212101015E+03  0.20746467522E+03  0.74463942168E+03  0.46999998093E+01 0. -1.
       -5    1    3    3    0  502 -0.65634242335E+02  0.71212101015E+03 -0.67932577650E+03  0.98637203300E+03  0.46999998093E+01 0.  1.
</event>
<event>
 5   0  0.5035495E-04  0.1645857E+04  0.7818609E-02  0.8792861E-01
       -1   -1    0    0    0  501  0.00000000000E+00  0.00000000000E+00  0.86010906805E+03  0.86010906807E+03  0.50400001928E-02 0.  1.
        1   -1    0    0  501    0  0.00000000000E+00  0.00000000000E+00 -0.78735480388E+03  0.78735480389E+03  0.50400001928E-02 0. -1.
    10030    2    1    2    0    0  0.00000000000E+00  0.00000000000E+00  0.72754264174E+02  0.16474638720E+04  0.16458566239E+04 0.  0.
        4    1    3    3  502    0  0.66267786409E+03  0.48670026444E+03  0.18427920757E+01  0.82220685216E+03  0.12699999809E+01 0. -1.
       -4    1    3    3    0  502 -0.66267786409E+03 -0.48670026444E+03  0.70911472099E+02  0.82525701980E+03  0.12699999809E+01 0.  1.
</event>
<event>
 5   0  0.5009762E-04  0.1719217E+04  0.7818609E-02  0.8750480E-01
       -1   -1    0    0    0  501  0.00000000000E+00  0.00000000000E+00  0.43290634490E+03  0.43290634493E+03  0.50400001928E-02 0.  1.
        1   -1    0    0  501    0  0.00000000000E+00  0.00000000000E+00 -0.17068966720E+04  0.17068966720E+04  0.50400001928E-02 0. -1.
    10030    2    1    2    0    0  0.00000000000E+00  0.00000000000E+00 -0.12739903271E+04  0.21398030169E+04  0.17192165651E+04 0.  0.
        3    1    3    3  502    0  0.81827176310E+03  0.37727365332E+02 -0.96140046479E+03  0.12630450888E+04  0.10100000352E+00 0. -1.
       -3    1    3    3    0  502 -0.81827176310E+03 -0.37727365332E+02 -0.31258986231E+03  0.87675792816E+03  0.10100000352E+00 0.  1.
</event>
<event>
 5   0  0.5059689E-04  0.1722926E+04  0.7818609E-02  0.8748396E-01
        1   -1    0    0  501    0  0.00000000000E+00  0.00000000000E+00  0.16654109528E+04  0.16654109528E+04  0.50400001928E-02 0. -1.
       -1   -1    0    0    0  501  0.00000000000E+00  0.00000000000E+00 -0.44560668091E+03  0.44560668093E+03  0.50400001928E-02 0.  1.
    10030    2    1    2    0    0  0.00000000000E+00  0.00000000000E+00  0.12198042719E+04  0.21110176338E+04  0.17229257060E+04 0.  0.
        5    1    3    3  502    0 -0.46087436085E+03 -0.37357881861E+03  0.13751989388E+04  0.14977184387E+04  0.46999998093E+01 0. -1.
       -5    1    3    3    0  502  0.46087436085E+03  0.37357881861E+03 -0.15539466691E+03  0.61329919509E+03  0.46999998093E+01 0.  1.
</event>
<event>
 5   0  0.9610114E-04  0.1694311E+04  0.7818609E-02  0.8764616E-01
       -2   -1    0    0    0  501  0.00000000000E+00  0.00000000000E+00  0.66654329584E+03  0.66654329584E+03  0.25500000920E-02 0.  1.
        2   -1    0    0  501    0  0.00000000000E+00  0.00000000000E+00 -0.10767072790E+04  0.10767072790E+04  0.25500000920E-02 0. -1.
    10030    2    1    2    0    0  0.00000000000E+00  0.00000000000E+00 -0.41016398318E+03  0.17432505749E+04  0.16943105010E+04 0.  0.
        2    1    3    3  502    0  0.76834405897E+03  0.14446713690E+03 -0.54077085845E+03  0.95060847248E+03  0.25500000920E-02 0. -1.
       -2    1    3    3    0  502 -0.76834405897E+03 -0.14446713690E+03  0.13060687527E+03  0.79264210238E+03  0.25500000920E-02 0.  1.
</event>
<event>
 5   0  0.9610114E-04  0.1732634E+04  0.7818609E-02  0.8742968E-01
       -2   -1    0    0    0  501  0.00000000000E+00  0.00000000000E+00  0.46424847583E+03  0.46424847584E+03  0.25500000920E-02 0.  1.
        2   -1    0    0  501    0  0.00000000000E+00  0.00000000000E+00 -0.16166021671E+04  0.16166021671E+04  0.25500000920E-02 0. -1.
    10030    2    1    2    0    0  0.00000000000E+00  0.00000000000E+00 -0.11523536912E+04  0.20808506429E+04  0.17326339395E+04 0.  0.
        2    1    3    3  502    0  0.31747989665E+03  0.68322580254E+03 -0.62538195516E+02  0.75597751814E+03  0.25500000920E-02 0.  1.
       -2    1    3    3    0  502 -0.31747989665E+03 -0.68322580254E+03 -0.10898154957E+04  0.13248731248E+04  0.25500000920E-02 0. -1.
</event>
<event>
 5   0  0.5035495E-04  0.1040836E+04  0.7818609E-02  0.9264857E-01
        1   -1    0    0  501    0  0.00000000000E+00  0.00000000000E+00  0.39949474460E+03  0.39949474463E+03  0.50400001928E-02 0.  1.
       -1   -1    0    0    0  501  0.00000000000E+00  0.00000000000E+00 -0.67794366563E+03  0.67794366565E+03  0.50400001928E-02 0. -1.
    10030    2    1    2    0    0  0.00000000000E+00  0.00000000000E+00 -0.27844892103E+03  0.10774384103E+04  0.10408360708E+04 0.  0.
        4    1    3    3  502    0 -0.92968996434E+02  0.11789184981E+03 -0.65503609003E+03  0.67202352242E+03  0.12699999809E+01 0. -1.
       -4    1    3    3    0  502  0.92968996434E+02 -0.11789184981E+03  0.37658716899E+03  0.40541488786E+03  0.12699999809E+01 0.  1.
</event>
<event>
 5   0  0.5074133E-04  0.1700228E+04  0.7818609E-02  0.8761234E-01
        1   -1    0    0  501    0  0.00000000000E+00  0.00000000000E+00  0.11672548599E+04  0.11672548599E+04  0.50400001928E-02 0. -1.
       -1   -1    0    0    0  501  0.00000000000E+00  0.00000000000E+00 -0.61914002719E+03  0.61914002721E+03  0.50400001928E-02 0.  1.
    10030    2    1    2    0    0  0.00000000000E+00  0.00000000000E+00  0.54811483271E+03  0.17863948871E+04  0.17002284620E+04 0.  0.
        1    1    3    3  502    0 -0.34808261637E+03  0.76534020975E+03  0.14204316065E+03  0.85269185758E+03  0.50400001928E-02 0. -1.
       -1    1    3    3    0  502  0.34808261637E+03 -0.76534020975E+03  0.40607167206E+03  0.93370302953E+03  0.50400001928E-02 0.  1.
</event>
<event>
 5   0  0.5074133E-04  0.1545472E+04  0.7818609E-02  0.8854765E-01
       -1   -1    0    0    0  501  0.00000000000E+00  0.00000000000E+00  0.59227531143E+03  0.59227531145E+03  0.50400001928E-02 0.  1.
        1   -1    0    0  501    0  0.00000000000E+00  0.00000000000E+00 -0.10081811329E+04  0.10081811329E+04  0.50400001928E-02 0. -1.
    10030    2    1    2    0    0  0.00000000000E+00  0.00000000000E+00 -0.41590582150E+03  0.16004564444E+04  0.15454718302E+04 0.  0.
        1    1    3    3  502    0  0.43992674802E+03 -0.40093395026E+03  0.30236450614E+03  0.66761356389E+03  0.50400001928E-02 0.  1.
       -1    1    3    3    0  502 -0.43992674802E+03  0.40093395026E+03 -0.71827032765E+03  0.93284288050E+03  0.50400001928E-02 0. -1.
</event>
<event>
 5   0  0.5059689E-04  0.1662440E+04  0.7818609E-02  0.8783081E-01
        1   -1    0    0  501    0  0.00000000000E+00  0.00000000000E+00  0.65130452905E+03  0.65130452907E+03  0.50400001928E-02 0. -1.
       -1   -1    0    0    0  501  0.00000000000E+00  0.00000000000E+00 -0.10608352273E+04  0.10608352273E+04  0.50400001928E-02 0.  1.
    10030    2    1    2    0    0  0.00000000000E+00  0.00000000000E+00 -0.40953069821E+03  0.17121397563E+04  0.16624401200E+04 0.  0.
        5    1    3    3  502    0 -0.31233840248E+03  0.77005293788E+03 -0.22451930817E+03  0.86079487367E+03  0.46999998093E+01 0.  1.
       -5    1    3    3    0  502  0.31233840248E+03 -0.77005293788E+03 -0.18501139004E+03  0.85134488266E+03  0.46999998093E+01 0. -1.
</event>
<event>
 5   0  0.9284971E-04  0.1723874E+04  0.7818609E-02  0.8747864E-01
        2   -1    0    0  501    0  0.00000000000E+00  0.00000000000E+00  0.10032978393E+04  0.10032978393E+04  0.25500000920E-02 0.  1.
       -2   -1    0    0    0  501  0.00000000000E+00  0.00000000000E+00 -0.74049302416E+03  0.74049302416E+03  0.25500000920E-02 0. -1.
    10030    2    1    2    0    0  0.00000000000E+00  0.00000000000E+00  0.26280481514E+03  0.17437908635E+04  0.17238736046E+04 0.  0.
        4    1    3    3  502    0 -0.39166784194E+02 -0.85777694042E+03  0.20722254229E+03  0.88332220137E+03  0.12699999809E+01 0. -1.
       -4    1    3    3    0  502  0.39166784194E+02  0.85777694042E+03  0.55582272846E+02  0.86046866210E+03  0.12699999809E+01 0.  1.
</event>
<event>
 5   0  0.9312096E-04  0.1694342E+04  0.7818609E-02  0.8764598E-01
        2   -1    0    0  501    0  0.00000000000E+00  0.00000000000E+00  0.17559596666E+04  0.17559596666E+04  0.25500000920E-02 0. -1.
       -2   -1    0    0    0  501  0.00000000000E+00  0.00000000000E+00 -0.40872176746E+03  0.40872176747E+03  0.25500000920E-02 0.  1.
    10030    2    1    2    0    0  0.00000000000E+00  0.00000000000E+00  0.13472378991E+04  0.21646814341E+04  0.16943422777E+04 0.  0.
        3    1    3    3  502    0 -0.74077735790E+03 -0.53251172636E+02  0.15291180044E+03  0.75826697823E+03  0.10100000352E+00 0.  1.
       -3    1    3    3    0  502  0.74077735790E+03  0.53251172636E+02  0.11943260987E+04  0.14064144558E+04  0.10100000352E+00 0. -1.
</event>
<event>
 5   0  0.9625225E-04  0.1723346E+04  0.7818609E-02  0.8748160E-01
        2   -1    0    0  501    0  0.00000000000E+00  0.00000000000E+00  0.10390585805E+04  0.10390585805E+04  0.25500000920E-02 0.  1.
       -2   -1    0    0    0  501  0.00000000000E+00  0.00000000000E+00 -0.71457028567E+03  0.71457028567E+03  0.25500000920E-02 0. -1.
    10030    2    1    2    0    0  0.00000000000E+00  0.00000000000E+00  0.32448829482E+03  0.17536288662E+04  0.17233460322E+04 0.  0.
        1    1    3    3  502    0 -0.75577765743E+03 -0.19922389259E+03 -0.20688406059E+03  0.80851162107E+03  0.50400001928E-02 0. -1.
       -1    1    3    3    0  502  0.75577765743E+03  0.19922389259E+03  0.53137235541E+03  0.94511724509E+03  0.50400001928E-02 0.  1.
</event>
<event>
 5   0  0.9312096E-04  0.1710768E+04  0.7818609E-02  0.8755247E-01
       -2   -1    0    0    0  501  0.00000000000E+00  0.00000000000E+00  0.65013839449E+03  0.65013839450E+03  0.25500000920E-02 0. -1.
        2   -1    0    0  501    0  0.00000000000E+00  0.00000000000E+00 -0.11254250905E+04  0.11254250905E+04  0.25500000920E-02 0.  1.
    10030    2    1    2    0    0  0.00000000000E+00  0.00000000000E+00 -0.47528669600E+03  0.17755634850E+04  0.17107683203E+04 0.  0.
        3    1    3    3  502    0 -0.71199467700E+03 -0.38711175591E+03 -0.52166880527E+03  0.96381029473E+03  0.10100000352E+00 0.  1.
       -3    1    3    3    0  502  0.71199467700E+03  0.38711175591E+03  0.46382109272E+02  0.81175319026E+03  0.10100000352E+00 0. -1.
</event>
<event>
 5   0  0.1007187E-03  0.1698034E+04  0.7818609E-02  0.8762486E-01
        2   -1    0    0  501    0  0.00000000000E+00  0.00000000000E+00  0.26220463636E+04  0.26220463636E+04  0.25500000920E-02 0. -1.
       -2   -1    0    0    0  501  0.00000000000E+00  0.00000000000E+00 -0.27491115321E+03  0.27491115322E+03  0.25500000920E-02 0.  1.
    10030    2    1    2    0    0  0.00000000000E+00  0.00000000000E+00  0.23471352104E+04  0.28969575168E+04  0.16980339097E+04 0.  0.
        5    1    3    3  502    0  0.61039723650E+03 -0.43137637790E+03  0.48659838115E+03  0.89189149580E+03  0.46999998093E+01 0.  1.
       -5    1    3    3    0  502 -0.61039723650E+03  0.43137637790E+03  0.18605368293E+04  0.20050660210E+04  0.46999998093E+01 0. -1.
</event>
<event>
 5   0  0.3523125E-04  0.1591126E+04  0.7818609E-02  0.8826018E-01
        4   -1    0    0  501    0  0.00000000000E+00  0.00000000000E+00  0.13098993831E+04  0.13098999988E+04  0.12699999809E+01 0.  1.
       -4   -1    0    0    0  501  0.00000000000E+00  0.00000000000E+00 -0.48318088777E+03  0.48318255681E+03  0.12699999809E+01 0. -1.
    10030    2    1    2    0    0  0.00000000000E+00  0.00000000000E+00  0.82671849538E+03  0.17930825556E+04  0.15911258846E+04 0.  0.
        4    1    3    3  502    0 -0.57304640628E+03  0.39124392933E+03  0.85194203440E+03  0.10987542213E+04  0.12699999809E+01 0.  1.
       -4    1    3    3    0  502  0.57304640628E+03 -0.39124392933E+03 -0.25223539023E+02  0.69432833430E+03  0.12699999809E+01 0. -1.
</event>
<event>
 5   0  0.5009762E-04  0.1675524E+04  0.7818609E-02  0.8775448E-01
       -1   -1    0    0    0  501  0.00000000000E+00  0.00000000000E+00  0.58785751030E+03  0.58785751033E+03  0.50400001928E-02 0.  1.
        1   -1    0    0  501    0  0.00000000000E+00  0.00000000000E+00 -0.11939032220E+04  0.11939032220E+04  0.50400001928E-02 0. -1.
    10030    2    1    2    0    0  0.00000000000E+00  0.00000000000E+00 -0.60604571173E+03  0.17817607324E+04  0.16755237697E+04 0.  0.
        3    1    3    3  502    0  0.57624523195E+03 -0.60203101532E+03 -0.21188552443E+03  0.85988103620E+03  0.10100000352E+00 0.  1.
       -3    1    3    3    0  502 -0.57624523195E+03  0.60203101532E+03 -0.39416018730E+03  0.92187969617E+03  0.10100000352E+00 0. -1.
</event>
<event>
 5   0  0.9625225E-04  0.1708860E+04  0.7818609E-02  0.8756328E-01
        2   -1    0    0  501    0  0.00000000000E+00  0.00000000000E+00  0.70904569860E+03  0.70904569860E+03  0.25500000920E-02 0. -1.
       -2   -1    0    0    0  501  0.00000000000E+00  0.00000000000E+00 -0.10296236702E+04  0.10296236702E+04  0.25500000920E-02 0.  1.
    10030    2    1    2    0    0  0.00000000000E+00  0.00000000000E+00 -0.32057797157E+03  0.17386693688E+04  0.17088595431E+04 0.  0.
        1    1    3    3  502    0  0.23161417635E+03  0.17080780064E+03  0.65825097890E+03  0.71841129076E+03  0.50400001928E-02 0. -1.
       -1    1    3    3    0  502 -0.23161417635E+03 -0.17080780064E+03 -0.97882895047E+03  0.10202580780E+04  0.50400001928E-02 0.  1.
</event>
<event>
 5   0  0.5009762E-04  0.1750118E+04  0.7818609E-02  0.8733285E-01
       -1   -1    0    0    0  501  0.00000000000E+00  0.00000000000E+00  0.28571526853E+03  0.28571526857E+03  0.50400001928E-02 0. -1.
        1   -1    0    0  501    0  0.00000000000E+00  0.00000000000E+00 -0.26800405978E+04  0.26800405979E+04  0.50400001928E-02 0.  1.
    10030    2    1    2    0    0  0.00000000000E+00  0.00000000000E+00 -0.23943253293E+04  0.29657558664E+04  0.17501183036E+04 0.  0.
        3    1    3    3  502    0  0.55752070879E+03  0.33884719730E+03 -0.21853963458E+04  0.22807025151E+04  0.10100000352E+00 0.  1.
       -3    1    3    3    0  502 -0.55752070879E+03 -0.33884719730E+03 -0.20892898353E+03  0.68505335136E+03  0.10100000352E+00 0. -1.
</event>
<event>
 5   0  0.4947006E-04  0.1573926E+04  0.7818609E-02  0.8836728E-01
        1   -1    0    0  501    0  0.00000000000E+00  0.00000000000E+00  0.60342252766E+03  0.60342252768E+03  0.50400001928E-02 0. -1.
       -1   -1    0    0    0  501  0.00000000000E+00  0.00000000000E+00 -0.10263300785E+04  0.10263300785E+04  0.50400001928E-02 0.  1.
    10030    2    1    2    0    0  0.00000000000E+00  0.00000000000E+00 -0.42290755083E+03  0.16297526062E+04  0.15739259070E+04 0.  0.
        2    1    3    3  502    0  0.61037745766E+03 -0.23623361822E+03 -0.66392409657E+03  0.93228867268E+03  0.25500000920E-02 0.  1.
       -2    1    3    3    0  502 -0.61037745766E+03  0.23623361822E+03  0.24101654574E+03  0.69746393349E+03  0.25500000920E-02 0. -1.
</event>
<event>
 5   0  0.5035495E-04  0.1007595E+04  0.7818609E-02  0.9300254E-01
       -1   -1    0    0    0  501  0.00000000000E+00  0.00000000000E+00  0.35698117663E+03  0.35698117666E+03  0.50400001928E-02 0. -1.
        1   -1    0    0  501    0  0.00000000000E+00  0.00000000000E+00 -0.71099513202E+03  0.71099513204E+03  0.50400001928E-02 0.  1.
    10030    2    1    2    0    0  0.00000000000E+00  0.00000000000E+00 -0.35401395539E+03  0.10679763087E+04  0.10075949163E+04 0.  0.
        4    1    3    3  502    0 -0.28792949460E+03 -0.39046113877E+03 -0.33048188356E+02  0.48626853734E+03  0.12699999809E+01 0. -1.
       -4    1    3    3    0  502  0.28792949460E+03  0.39046113877E+03 -0.32096576704E+03  0.58170777136E+03  0.12699999809E+01 0.  1.
</event>
<event>
 5   0  0.9284971E-04  0.1692092E+04  0.7818609E-02  0.8765887E-01
        2   -1    0    0  501    0  0.00000000000E+00  0.00000000000E+00  0.10547149282E+04  0.10547149282E+04  0.25500000920E-02 0.  1.
       -2   -1    0    0    0  501  0.00000000000E+00  0.00000000000E+00 -0.67866090170E+03  0.67866090170E+03  0.25500000920E-02 0. -1.
    10030    2    1    2    0    0  0.00000000000E+00  0.00000000000E+00  0.37605402645E+03  0.17333758299E+04  0.16920919410E+04 0.  0.
        4    1    3    3  502    0 -0.73099033910E+03 -0.42520577301E+03  0.21405047697E+03  0.87233367747E+03  0.12699999809E+01 0.  1.
       -4    1    3    3    0  502  0.73099033910E+03  0.42520577301E+03  0.16200354948E+03  0.86104215239E+03  0.12699999809E+01 0. -1.
</event>
<event>
 5   0  0.5059689E-04  0.1689269E+04  0.7818609E-02  0.8767508E-01
       -1   -1    0    0    0  501  0.00000000000E+00  0.00000000000E+00  0.13619000620E+04  0.13619000620E+04  0.50400001928E-02 0.  1.
        1   -1    0    0  501    0  0.00000000000E+00  0.00000000000E+00 -0.52383262187E+03  0.52383262189E+03  0.50400001928E-02 0. -1.
    10030    2    1    2    0    0  0.00000000000E+00  0.00000000000E+00  0.83806744009E+03  0.18857326839E+04  0.16892692861E+04 0.  0.
        5    1    3    3  502    0 -0.27241983941E+03  0.69366730652E+03  0.86275267807E+03  0.11400663027E+04  0.46999998093E+01 0.  1.
       -5    1    3    3    0  502  0.27241983941E+03 -0.69366730652E+03 -0.24685237981E+02  0.74566638117E+03  0.46999998093E+01 0. -1.
</event>
<event>
 5   0  0.5059689E-04  0.1711606E+04  0.7818609E-02  0.8754773E-01
        1   -1    0    0  501    0  0.00000000000E+00  0.00000000000E+00  0.68423682729E+03  0.68423682731E+03  0.50400001928E-02 0.  1.
       -1   -1    0    0    0  501  0.00000000000E+00  0.00000000000E+00 -0.10703875349E+04  0.10703875349E+04  0.50400001928E-02 0. -1.
    10030    2    1    2    0    0  0.00000000000E+00  0.00000000000E+00 -0.38615070761E+03  0.17546243622E+04  0.17116057617E+04 0.  0.
        5    1    3    3  502    0 -0.80509027444E+03 -0.22637490464E+03 -0.69620017784E+01  0.83635309942E+03  0.46999998093E+01 0.  1.
       -5    1    3    3    0  502  0.80509027444E+03  0.22637490464E+03 -0.37918870583E+03  0.91827126280E+03  0.46999998093E+01 0. -1.
</event>
<event>
 5   0  0.5059689E-04  0.1686267E+04  0.7818609E-02  0.8769235E-01
       -1   -1    0    0    0  501  0.00000000000E+00  0.00000000000E+00  0.81967298498E+03  0.81967298499E+03  0.50400001928E-02 0.  1.
        1   -1    0    0  501    0  0.00000000000E+00  0.00000000000E+00 -0.86726598384E+03  0.86726598386E+03  0.50400001928E-02 0. -1.
    10030    2    1    2    0    0  0.00000000000E+00  0.00000000000E+00 -0.47592998868E+02  0.16869389689E+04  0.16862674732E+04 0.  0.
        5    1    3    3  502    0 -0.83819168600E+03  0.49834894407E+02  0.52415124735E+02  0.84131935344E+03  0.46999998093E+01 0. -1.
       -5    1    3    3    0  502  0.83819168600E+03 -0.49834894407E+02 -0.10000812360E+03  0.84561961541E+03  0.46999998093E+01 0.  1.
</event>
<event>
 5   0  0.1007187E-03  0.1041814E+04  0.7818609E-02  0.9263836E-01
       -2   -1    0    0    0  501  0.00000000000E+00  0.00000000000E+00  0.24531312281E+03  0.24531312283E+03  0.25500000920E-02 0. -1.
        2   -1    0    0  501    0  0.00000000000E+00  0.00000000000E+00 -0.11061142290E+04  0.11061142290E+04  0.25500000920E-02 0.  1.
    10030    2    1    2    0    0  0.00000000000E+00  0.00000000000E+00 -0.86080110621E+03  0.13514273519E+04  0.10418144474E+04 0.  0.
        5    1    3    3  502    0  0.47318786869E+03  0.36521017775E+02 -0.15193813902E+03  0.49834509318E+03  0.46999998093E+01 0. -1.
       -5    1    3    3    0  502 -0.47318786869E+03 -0.36521017775E+02 -0.70886296719E+03  0.85308225868E+03  0.46999998093E+01 0.  1.
</event>
<event>
 5   0  0.9625225E-04  0.1699934E+04  0.7818609E-02  0.8761402E-01
        2   -1    0    0  501    0  0.00000000000E+00  0.00000000000E+00  0.62972247571E+03  0.62972247571E+03  0.25500000920E-02 0.  1.
       -2   -1    0    0    0  501  0.00000000000E+00  0.00000000000E+00 -0.11472419327E+04  0.11472419327E+04  0.25500000920E-02 0. -1.
    10030    2    1    2    0    0  0.00000000000E+00  0.00000000000E+00 -0.51751945703E+03  0.17769644085E+04  0.16999341518E+04 0.  0.
        1    1    3    3  502    0 -0.43199699458E+03 -0.71738859560E+03 -0.10664511106E+03  0.84418065611E+03  0.50400001928E-02 0.  1.
       -1    1    3    3    0  502  0.43199699458E+03  0.71738859560E+03 -0.41087434598E+03  0.93278375234E+03  0.50400001928E-02 0. -1.
</event>
<event>
 5   0  0.4947006E-04  0.1739597E+04  0.7818609E-02  0.8739098E-01
        1   -1    0    0  501    0  0.00000000000E+00  0.00000000000E+00  0.82579799696E+03  0.82579799697E+03  0.50400001928E-02 0. -1.
       -1   -1    0    0    0  501  0.00000000000E+00  0.00000000000E+00 -0.91614317158E+03  0.91614317159E+03  0.50400001928E-02 0.  1.
    10030    2    1    2    0    0  0.00000000000E+00  0.00000000000E+00 -0.90345174620E+02  0.17419411686E+04  0.17395967303E+04 0.  0.
        2    1    3    3  502    0  0.66112004033E+03 -0.51376506013E+03  0.19076106034E+03  0.85873396747E+03  0.25500000920E-02 0. -1.
       -2    1    3    3    0  502 -0.66112004033E+03  0.51376506013E+03 -0.28110623496E+03  0.88320720110E+03  0.25500000920E-02 0.  1.
</event>
<event>
 5   0  0.3523125E-04  0.1678791E+04  0.7818609E-02  0.8773554E-01
       -4   -1    0    0    0  501  0.00000000000E+00  0.00000000000E+00  0.15287429460E+04  0.15287434736E+04  0.12699999809E+01 0.  1.
        4   -1    0    0  501    0  0.00000000000E+00  0.00000000000E+00 -0.46089038407E+03  0.46089213383E+03  0.12699999809E+01 0. -1.
    10030    2    1    2    0    0  0.00000000000E+00  0.00000000000E+00  0.10678525620E+04  0.19896356074E+04  0.16787914570E+04 0.  0.
        2    1    3    3  502    0 -0.56960393902E+03 -0.41227924566E+03  0.10772444994E+04  0.12864208235E+04  0.25500000920E-02 0.  1.
       -2    1    3    3    0  502  0.56960393902E+03  0.41227924566E+03 -0.93919374224E+01  0.70321478386E+03  0.25500000920E-02 0. -1.
</event>
<event>
 5   0  0.9625225E-04  0.1707463E+04  0.7818609E-02  0.8757120E-01
        2   -1    0    0  501    0  0.00000000000E+00  0.00000000000E+00  0.10065157170E+04  0.10065157170E+04  0.25500000920E-02 0.  1.
       -2   -1    0    0    0  501  0.00000000000E+00  0.00000000000E+00 -0.72413878450E+03  0.72413878450E+03  0.25500000920E-02 0. -1.
    10030    2    1    2    0    0  0.00000000000E+00  0.00000000000E+00  0.28237693252E+03  0.17306545015E+04  0.17074625242E+04 0.  0.
        1    1    3    3  502    0 -0.77591571108E+03 -0.35119935813E+03  0.20090292464E+03  0.87507037717E+03  0.50400001928E-02 0. -1.
       -1    1    3    3    0  502  0.77591571108E+03  0.35119935813E+03  0.81474007888E+02  0.85558412435E+03  0.50400001928E-02 0.  1.
</event>
<event>
 5   0  0.3523125E-04  0.1150324E+04  0.7818609E-02  0.9157485E-01
        3   -1    0    0  501    0  0.00000000000E+00  0.00000000000E+00  0.89731803171E+03  0.89731803739E+03  0.10100000352E+00 0. -1.
       -3   -1    0    0    0  501  0.00000000000E+00  0.00000000000E+00 -0.36866683867E+03  0.36866685250E+03  0.10100000352E+00 0.  1.
    10030    2    1    2    0    0  0.00000000000E+00  0.00000000000E+00  0.52865119304E+03  0.12659848899E+04  0.11503241532E+04 0.  0.
        5    1    3    3  502    0  0.68129398709E+02  0.56420338898E+03  0.36166170933E+03  0.67363815294E+03  0.46999998093E+01 0. -1.
       -5    1    3    3    0  502 -0.68129398709E+02 -0.56420338898E+03  0.16698948371E+03  0.59234673695E+03  0.46999998093E+01 0.  1.
</event>
<event>
 5   0  0.9625225E-04  0.1604340E+04  0.7818609E-02  0.8817886E-01
        2   -1    0    0  501    0  0.00000000000E+00  0.00000000000E+00  0.27823451919E+03  0.27823451920E+03  0.25500000920E-02 0. -1.
       -2   -1    0    0    0  501  0.00000000000E+00  0.00000000000E+00 -0.23127142785E+04  0.23127142785E+04  0.25500000920E-02 0.  1.
    10030    2    1    2    0    0  0.00000000000E+00  0.00000000000E+00 -0.20344797593E+04  0.25909487977E+04  0.16043402947E+04 0.  0.
        1    1    3    3  502    0  0.35966289909E+03  0.82008159941E+01 -0.21751263748E+04  0.22046767111E+04  0.50400001928E-02 0.  1.
       -1    1    3    3    0  502 -0.35966289909E+03 -0.82008159941E+01  0.14064661549E+03  0.38627208654E+03  0.50400001928E-02 0. -1.
</event>
<event>
 5   0  0.9312096E-04  0.9573228E+03  0.7818609E-02  0.9356632E-01
        2   -1    0    0  501    0  0.00000000000E+00  0.00000000000E+00  0.21013650378E+04  0.21013650378E+04  0.25500000920E-02 0.  1.
       -2   -1    0    0    0  501  0.00000000000E+00  0.00000000000E+00 -0.10903233015E+03  0.10903233018E+03  0.25500000920E-02 0. -1.
    10030    2    1    2    0    0  0.00000000000E+00  0.00000000000E+00  0.19923327076E+04  0.22103973679E+04  0.95732278065E+03 0.  0.
        3    1    3    3  502    0  0.25340787646E+03  0.85281622682E+01  0.19335730008E+04  0.19501263654E+04  0.10100000352E+00 0.  1.
       -3    1    3    3    0  502 -0.25340787646E+03 -0.85281622682E+01  0.58759706780E+02  0.26027100250E+03  0.10100000352E+00 0. -1.
</event>
<event>
 5   0  0.5035495E-04  0.1557808E+04  0.7818609E-02  0.8846896E-01
       -1   -1    0    0    0  501  0.00000000000E+00  0.00000000000E+00  0.52414693917E+03  0.52414693919E+03  0.50400001928E-02 0. -1.
        1   -1    0    0  501    0  0.00000000000E+00  0.00000000000E+00 -0.11574832636E+04  0.11574832636E+04  0.50400001928E-02 0.  1.
    10030    2    1    2    0    0  0.00000000000E+00  0.00000000000E+00 -0.63333632443E+03  0.16816302028E+04  0.15578078313E+04 0.  0.
        4    1    3    3  502    0  0.63841953680E+03 -0.16428778258E+03 -0.76451749037E+03  0.10094843171E+04  0.12699999809E+01 0.  1.
       -4    1    3    3    0  502 -0.63841953680E+03  0.16428778258E+03  0.13118116594E+03  0.67214588570E+03  0.12699999809E+01 0. -1.
</event>
<event>
 5   0  0.5035495E-04  0.9085684E+03  0.7818609E-02  0.9414933E-01
        1   -1    0    0  501    0  0.00000000000E+00  0.00000000000E+00  0.17795047038E+04  0.17795047038E+04  0.50400001928E-02 0. -1.
       -1   -1    0    0    0  501  0.00000000000E+00  0.00000000000E+00 -0.11597279664E+03  0.11597279675E+03  0.50400001928E-02 0.  1.
    10030    2    1    2    0    0  0.00000000000E+00  0.00000000000E+00  0.16635319072E+04  0.18954775006E+04  0.90856840633E+03 0.  0.
        4    1    3    3  502    0 -0.27755538620E+03 -0.14341220669E+03  0.15198040954E+04  0.15515831124E+04  0.12699999809E+01 0. -1.
       -4    1    3    3    0  502  0.27755538620E+03  0.14341220669E+03  0.14372781180E+03  0.34389438818E+03  0.12699999809E+01 0.  1.
</event>
<event>
 5   0  0.5074133E-04  0.1689231E+04  0.7818609E-02  0.8767530E-01
       -1   -1    0    0    0  501  0.00000000000E+00  0.00000000000E+00  0.11535192178E+04  0.11535192178E+04  0.50400001928E-02 0.  1.
        1   -1    0    0  501    0  0.00000000000E+00  0.00000000000E+00 -0.61843407108E+03  0.61843407110E+03  0.50400001928E-02 0. -1.
    10030    2    1    2    0    0  0.00000000000E+00  0.00000000000E+00  0.53508514676E+03  0.17719532889E+04  0.16892312879E+04 0.  0.
        1    1    3    3  502    0  0.52975617654E+03  0.23390164588E+03  0.91248780860E+03  0.10807338189E+04  0.50400001928E-02 0.  1.
       -1    1    3    3    0  502 -0.52975617654E+03 -0.23390164588E+03 -0.37740266184E+03  0.69121947001E+03  0.50400001928E-02 0. -1.
</event>
<event>
 5   0  0.1007187E-03  0.1700559E+04  0.7818609E-02  0.8761046E-01
       -2   -1    0    0    0  501  0.00000000000E+00  0.00000000000E+00  0.55939886586E+03  0.55939886586E+03  0.25500000920E-02 0.  1.
        2   -1    0    0  501    0  0.00000000000E+00  0.00000000000E+00 -0.12924141863E+04  0.12924141863E+04  0.25500000920E-02 0. -1.
    10030    2    1    2    0    0  0.00000000000E+00  0.00000000000E+00 -0.73301532045E+03  0.18518130522E+04  0.17005587671E+04 0.  0.
        5    1    3    3  502    0  0.53640808630E+03 -0.88582309099E+02  0.34537558638E+03  0.64411710597E+03  0.46999998093E+01 0.  1.
       -5    1    3    3    0  502 -0.53640808630E+03  0.88582309099E+02 -0.10783909068E+04  0.12076959462E+04  0.46999998093E+01 0. -1.
</event>
<event>
 5   0  0.5074133E-04  0.1733637E+04  0.7818609E-02  0.8742409E-01
       -1   -1    0    0    0  501  0.00000000000E+00  0.00000000000E+00  0.71285210279E+03  0.71285210281E+03  0.50400001928E-02 0.  1.
        1   -1    0    0  501    0  0.00000000000E+00  0.00000000000E+00 -0.10540398794E+04  0.10540398794E+04  0.50400001928E-02 0. -1.
    10030    2    1    2    0    0  0.00000000000E+00  0.00000000000E+00 -0.34118777659E+03  0.17668919822E+04  0.17336372683E+04 0.  0.
        1    1    3    3  502    0  0.62748204240E+03 -0.26764508353E+03 -0.71564854118E+03  0.98869633295E+03  0.50400001928E-02 0. -1.
       -1    1    3    3    0  502 -0.62748204240E+03  0.26764508353E+03  0.37446076459E+03  0.77819564925E+03  0.50400001928E-02 0.  1.
</event>
<event>
 5   0  0.1007187E-03  0.1731001E+04  0.7818609E-02  0.8743878E-01
       -2   -1    0    0    0  501  0.00000000000E+00  0.00000000000E+00  0.54287386614E+03  0.54287386614E+03  0.25500000920E-02 0. -1.
        2   -1    0    0  501    0  0.00000000000E+00  0.00000000000E+00 -0.13798629371E+04  0.13798629371E+04  0.25500000920E-02 0.  1.
    10030    2    1    2    0    0  0.00000000000E+00  0.00000000000E+00 -0.83698907100E+03  0.19227368033E+04  0.17310014760E+04 0.  0.
        5    1    3    3  502    0 -0.78524009593E+03  0.32859639197E+03 -0.59232789009E+03  0.10370400264E+04  0.46999998093E+01 0. -1.
       -5    1    3    3    0  502  0.78524009593E+03 -0.32859639197E+03 -0.24466118091E+03  0.88569677684E+03  0.46999998093E+01 0.  1.
</event>
<event>
 5   0  0.9625225E-04  0.1660786E+04  0.7818609E-02  0.8784051E-01
        2   -1    0    0  501    0  0.00000000000E+00  0.00000000000E+00  0.44005610005E+03  0.44005610005E+03  0.25500000920E-02 0.  1.
       -2   -1    0    0    0  501  0.00000000000E+00  0.00000000000E+00 -0.15669646203E+04  0.15669646203E+04  0.25500000920E-02 0. -1.
    10030    2    1    2    0    0  0.00000000000E+00  0.00000000000E+00 -0.11269085202E+04  0.20070207203E+04  0.16607857655E+04 0.  0.
        1    1    3    3  502    0  0.57115419043E+03 -0.59317232463E+03 -0.69294648119E+03  0.10762180735E+04  0.50400001928E-02 0.  1.
       -1    1    3    3    0  502 -0.57115419043E+03  0.59317232463E+03 -0.43396203903E+03  0.93080264680E+03  0.50400001928E-02 0. -1.
</event>
<event>
 5   0  0.9284971E-04  0.1692069E+04  0.7818609E-02  0.8765900E-01
        2   -1    0    0  501    0  0.00000000000E+00  0.00000000000E+00  0.30847165848E+03  0.30847165849E+03  0.25500000920E-02 0.  1.
       -2   -1    0    0    0  501  0.00000000000E+00  0.00000000000E+00 -0.23203907289E+04  0.23203907289E+04  0.25500000920E-02 0. -1.
    10030    2    1    2    0    0  0.00000000000E+00  0.00000000000E+00 -0.20119190704E+04  0.26288623874E+04  0.16920694743E+04 0.  0.
        4    1    3    3  502    0 -0.14519881304E+03  0.26396184199E+01  0.28896110756E+03  0.32340345928E+03  0.12699999809E+01 0.  1.
       -4    1    3    3    0  502  0.14519881304E+03 -0.26396184199E+01 -0.23008801780E+04  0.23054589281E+04  0.12699999809E+01 0. -1.
</event>
<event>
 5   0  0.1007187E-03  0.8905169E+03  0.7818609E-02  0.9437514E-01
       -2   -1    0    0    0  501  0.00000000000E+00  0.00000000000E+00  0.21961088149E+03  0.21961088151E+03  0.25500000920E-02 0.  1.
        2   -1    0    0  501    0  0.00000000000E+00  0.00000000000E+00 -0.90275616132E+03  0.90275616133E+03  0.25500000920E-02 0. -1.
    10030    2    1    2    0    0  0.00000000000E+00  0.00000000000E+00 -0.68314527983E+03  0.11223670428E+04  0.89051687547E+03 0.  0.
        5    1    3    3  502    0  0.39488867892E+02  0.71181176746E+02  0.21012137672E+03  0.22538680876E+03  0.46999998093E+01 0.  1.
       -5    1    3    3    0  502 -0.39488867892E+02 -0.71181176746E+02 -0.89326665655E+03  0.89698023407E+03  0.46999998093E+01 0. -1.
</event>
<event>
 5   0  0.5035495E-04  0.1682423E+04  0.7818609E-02  0.8771453E-01
        1   -1    0    0  501    0  0.00000000000E+00  0.00000000000E+00  0.68091360410E+03  0.68091360412E+03  0.50400001928E-02 0. -1.
       -1   -1    0    0    0  501  0.00000000000E+00  0.00000000000E+00 -0.10392465206E+04  0.10392465206E+04  0.50400001928E-02 0.  1.
    10030    2    1    2    0    0  0.00000000000E+00  0.00000000000E+00 -0.35833291651E+03  0.17201601247E+04  0.16824233640E+04 0.  0.
        4    1    3    3  502    0  0.34053085885E+02 -0.75314029543E+03 -0.56070627178E+03  0.93956003181E+03  0.12699999809E+01 0.  1.
       -4    1    3    3    0  502 -0.34053085885E+02  0.75314029543E+03  0.20237335527E+03  0.78060009293E+03  0.12699999809E+01 0. -1.
</event>
<event>
 5   0  0.9625225E-04  0.1723098E+04  0.7818609E-02  0.8748299E-01
        2   -1    0    0  501    0  0.00000000000E+00  0.00000000000E+00  0.15213942289E+04  0.15213942289E+04  0.25500000920E-02 0. -1.
       -2   -1    0    0    0  501  0.00000000000E+00  0.00000000000E+00 -0.48788602590E+03  0.48788602590E+03  0.25500000920E-02 0.  1.
    10030    2    1    2    0    0  0.00000000000E+00  0.00000000000E+00  0.10335082030E+04  0.20092802548E+04  0.17230983537E+04 0.  0.
        1    1    3    3  502    0 -0.28030166094E+03 -0.25043798579E+03 -0.38722838612E+03  0.53966103148E+03  0.50400001928E-02 0.  1.
       -1    1    3    3    0  502  0.28030166094E+03  0.25043798579E+03  0.14207365891E+04  0.14696192233E+04  0.50400001928E-02 0. -1.
</event>
<event>
 5   0  0.5035495E-04  0.1572827E+04  0.7818609E-02  0.8837417E-01
       -1   -1    0    0    0  501  0.00000000000E+00  0.00000000000E+00  0.76964942645E+03  0.76964942646E+03  0.50400001928E-02 0.  1.
        1   -1    0    0  501    0  0.00000000000E+00  0.00000000000E+00 -0.80354281785E+03  0.80354281787E+03  0.50400001928E-02 0. -1.
    10030    2    1    2    0    0  0.00000000000E+00  0.00000000000E+00 -0.33893391404E+02  0.15731922443E+04  0.15728270965E+04 0.  0.
        4    1    3    3  502    0  0.69073300537E+03 -0.25838309391E+03 -0.29008654416E+03  0.79248074041E+03  0.12699999809E+01 0. -1.
       -4    1    3    3    0  502 -0.69073300537E+03  0.25838309391E+03  0.25619315276E+03  0.78071150391E+03  0.12699999809E+01 0.  1.
</event>
<event>
 5   0  0.4947006E-04  0.1501584E+04  0.7818609E-02  0.8883400E-01
       -1   -1    0    0    0  501  0.00000000000E+00  0.00000000000E+00  0.72680370673E+03  0.72680370674E+03  0.50400001928E-02 0.  1.
        1   -1    0    0  501    0  0.00000000000E+00  0.00000000000E+00 -0.77557209452E+03  0.77557209454E+03  0.50400001928E-02 0. -1.
    10030    2    1    2    0    0  0.00000000000E+00  0.00000000000E+00 -0.48768387797E+02  0.15023758013E+04  0.15015840611E+04 0.  0.
        2    1    3    3  502    0 -0.64971685806E+03 -0.37012234291E+03  0.43224571942E+02  0.74899326298E+03  0.25500000920E-02 0.  1.
       -2    1    3    3    0  502  0.64971685806E+03  0.37012234291E+03 -0.91992959739E+02  0.75338253830E+03  0.25500000920E-02 0. -1.
</event>
<event>
 5   0  0.4947006E-04  0.1606109E+04  0.7818609E-02  0.8816804E-01
       -1   -1    0    0    0  501  0.00000000000E+00  0.00000000000E+00  0.70520666198E+03  0.70520666200E+03  0.50400001928E-02 0.  1.
        1   -1    0    0  501    0  0.00000000000E+00  0.00000000000E+00 -0.91447866848E+03  0.91447866850E+03  0.50400001928E-02 0. -1.
    10030    2    1    2    0    0  0.00000000000E+00  0.00000000000E+00 -0.20927200650E+03  0.16196853305E+04  0.16061088995E+04 0.  0.
        2    1    3    3  502    0  0.51382840509E+03 -0.61420258567E+03 -0.16541153516E+03  0.81769518899E+03  0.25500000920E-02 0.  1.
       -2    1    3    3    0  502 -0.51382840509E+03  0.61420258567E+03 -0.43860471340E+02  0.80199014151E+03  0.25500000920E-02 0. -1.
</event>
<event>
 5   0  0.5074133E-04  0.1508666E+04  0.7818609E-02  0.8878711E-01
        1   -1    0    0  501    0  0.00000000000E+00  0.00000000000E+00  0.59236550350E+03  0.59236550352E+03  0.50400001928E-02 0.  1.
       -1   -1    0    0    0  501  0.00000000000E+00  0.00000000000E+00 -0.96058596252E+03  0.96058596253E+03  0.50400001928E-02 0. -1.
    10030    2    1    2    0    0  0.00000000000E+00  0.00000000000E+00 -0.36822045902E+03  0.15529514661E+04  0.15086656188E+04 0.  0.
        1    1    3    3  502    0  0.38703258996E+03 -0.24449503427E+02 -0.85011598181E+03  0.93439241567E+03  0.50400001928E-02 0. -1.
       -1    1    3    3    0  502 -0.38703258996E+03  0.24449503427E+02  0.48189552279E+03  0.61855905039E+03  0.50400001928E-02 0.  1.
</event>
<event>
 5   0  0.5035495E-04  0.1726808E+04  0.7818609E-02  0.8746221E-01
       -1   -1    0    0    0  501  0.00000000000E+00  0.00000000000E+00  0.56478061657E+03  0.56478061659E+03  0.50400001928E-02 0.  1.
        1   -1    0    0  501    0  0.00000000000E+00  0.00000000000E+00 -0.13199217979E+04  0.13199217979E+04  0.50400001928E-02 0. -1.
    10030    2    1    2    0    0  0.00000000000E+00  0.00000000000E+00 -0.75514118132E+03  0.18847024145E+04  0.17268077448E+04 0.  0.
        4    1    3    3  502    0  0.11061780405E+03 -0.85465879434E+03 -0.31995468413E+03  0.91926631947E+03  0.12699999809E+01 0. -1.
       -4    1    3    3    0  502 -0.11061780405E+03  0.85465879434E+03 -0.43518649719E+03  0.96543609501E+03  0.12699999809E+01 0.  1.
</event>
<event>
 5   0  0.9284971E-04  0.1705761E+04  0.7818609E-02  0.8758085E-01
        2   -1    0    0  501    0  0.00000000000E+00  0.00000000000E+00  0.14041595435E+04  0.14041595435E+04  0.25500000920E-02 0. -1.
       -2   -1    0    0    0  501  0.00000000000E+00  0.00000000000E+00 -0.51803622004E+03  0.51803622004E+03  0.25500000920E-02 0.  1.
    10030    2    1    2    0    0  0.00000000000E+00  0.00000000000E+00  0.88612332348E+03  0.19221957636E+04  0.17057614162E+04 0.  0.
        4    1    3    3  502    0 -0.17385456256E+03 -0.74562091574E+03  0.86654821667E+03  0.11563232176E+04  0.12699999809E+01 0. -1.
       -4    1    3    3    0  502  0.17385456256E+03  0.74562091574E+03  0.19575106803E+02  0.76587254593E+03  0.12699999809E+01 0.  1.
</event>
<event>
 5   0  0.9284971E-04  0.1726768E+04  0.7818609E-02  0.8746243E-01
        2   -1    0    0  501    0  0.00000000000E+00  0.00000000000E+00  0.10118065314E+04  0.10118065314E+04  0.25500000920E-02 0.  1.
       -2   -1    0    0    0  501  0.00000000000E+00  0.00000000000E+00 -0.73673348211E+03  0.73673348211E+03  0.25500000920E-02 0. -1.
    10030    2    1    2    0    0  0.00000000000E+00  0.00000000000E+00  0.27507304930E+03  0.17485400135E+04  0.17267677888E+04 0.  0.
        4    1    3    3  502    0 -0.34421737458E+02 -0.70373145438E+03  0.64283465785E+03  0.95376140944E+03  0.12699999809E+01 0. -1.
       -4    1    3    3    0  502  0.34421737458E+02  0.70373145438E+03 -0.36776160855E+03  0.79477860409E+03  0.12699999809E+01 0.  1.
</event>
<event>
 5   0  0.5059689E-04  0.1706869E+04  0.7818609E-02  0.8757456E-01
       -1   -1    0    0    0  501  0.00000000000E+00  0.00000000000E+00  0.61479628087E+03  0.61479628089E+03  0.50400001928E-02 0.  1.
        1   -1    0    0  501    0  0.00000000000E+00  0.00000000000E+00 -0.11847019562E+04  0.11847019562E+04  0.50400001928E-02 0. -1.
    10030    2    1    2    0    0  0.00000000000E+00  0.00000000000E+00 -0.56990567530E+03  0.17994982371E+04  0.17068688955E+04 0.  0.
        5    1    3    3  502    0  0.58612253111E+03  0.60126906550E+03 -0.12414955429E+03  0.84882230911E+03  0.46999998093E+01 0.  1.
       -5    1    3    3    0  502 -0.58612253111E+03 -0.60126906550E+03 -0.44575612101E+03  0.95067592797E+03  0.46999998093E+01 0. -1.
</event>
<event>
 5   0  0.9610114E-04  0.1683455E+04  0.7818609E-02  0.8770857E-01
        2   -1    0    0  501    0  0.00000000000E+00  0.00000000000E+00  0.84115956802E+03  0.84115956802E+03  0.25500000920E-02 0.  1.
       -2   -1    0    0    0  501  0.00000000000E+00  0.00000000000E+00 -0.84229574226E+03  0.84229574226E+03  0.25500000920E-02 0. -1.
    10030    2    1    2    0    0  0.00000000000E+00  0.00000000000E+00 -0.11361742405E+01  0.16834553103E+04  0.16834549269E+04 0.  0.
        2    1    3    3  502    0 -0.62136786550E+02 -0.49760944067E+03  0.67547125729E+03  0.84127139207E+03  0.25500000920E-02 0.  1.
       -2    1    3    3    0  502  0.62136786550E+02  0.49760944067E+03 -0.67660743153E+03  0.84218391821E+03  0.25500000920E-02 0. -1.
</event>
<event>
 5   0  0.5059689E-04  0.1611419E+04  0.7818609E-02  0.8813563E-01
        1   -1    0    0  501    0  0.00000000000E+00  0.00000000000E+00  0.13658211263E+04  0.13658211264E+04  0.50400001928E-02 0. -1.
       -1   -1    0    0    0  501  0.00000000000E+00  0.00000000000E+00 -0.47529487950E+03  0.47529487953E+03  0.50400001928E-02 0.  1.
    10030    2    1    2    0    0  0.00000000000E+00  0.00000000000E+00  0.89052624684E+03  0.18411160059E+04  0.16114189867E+04 0.  0.
        5    1    3    3  502    0 -0.62675759677E+03 -0.50627161027E+03  0.44171034136E+03  0.91883956387E+03  0.46999998093E+01 0. -1.
       -5    1    3    3    0  502  0.62675759677E+03  0.50627161027E+03  0.44881590548E+03  0.92227644201E+03  0.46999998093E+01 0.  1.
</event>
<event>
 5   0  0.9625225E-04  0.1684946E+04  0.7818609E-02  0.8769997E-01
       -2   -1    0    0    0  501  0.00000000000E+00  0.00000000000E+00  0.66574764427E+03  0.66574764428E+03  0.25500000920E-02 0.  1.
        2   -1    0    0  501    0  0.00000000000E+00  0.00000000000E+00 -0.10661114153E+04  0.10661114153E+04  0.25500000920E-02 0. -1.
    10030    2    1    2    0    0  0.00000000000E+00  0.00000000000E+00 -0.40036377101E+03  0.17318590596E+04  0.16849464837E+04 0.  0.
        1    1    3    3  502    0  0.17601957583E+03 -0.34243355137E+03 -0.97039001037E+03  0.10439829503E+04  0.50400001928E-02 0. -1.
       -1    1    3    3    0  502 -0.17601957583E+03  0.34243355137E+03  0.57002623936E+03  0.68787610931E+03  0.50400001928E-02 0.  1.
</event>
<event>
 5   0  0.9284971E-04  0.1686033E+04  0.7818609E-02  0.8769371E-01
        2   -1    0    0  501    0  0.00000000000E+00  0.00000000000E+00  0.66132415246E+03  0.66132415247E+03  0.25500000920E-02 0.  1.
       -2   -1    0    0    0  501  0.00000000000E+00  0.00000000000E+00 -0.10746270130E+04  0.10746270130E+04  0.25500000920E-02 0. -1.
    10030    2    1    2    0    0  0.00000000000E+00  0.00000000000E+00 -0.41330286057E+03  0.17359511655E+04  0.16860329755E+04 0.  0.
        4    1    3    3  502    0  0.97405530089E+02  0.39101741409E+03 -0.96904229417E+03  0.10494889405E+04  0.12699999809E+01 0. -1.
       -4    1    3    3    0  502 -0.97405530089E+02 -0.39101741409E+03  0.55573943360E+03  0.68646222502E+03  0.12699999809E+01 0.  1.
</event>
<event>
 5   0  0.5059689E-04  0.1692235E+04  0.7818609E-02  0.8765805E-01
        1   -1    0    0  501    0  0.00000000000E+00  0.00000000000E+00  0.85501930420E+03  0.85501930421E+03  0.50400001928E-02 0.  1.
       -1   -1    0    0    0  501  0.00000000000E+00  0.00000000000E+00 -0.83730857483E+03  0.83730857485E+03  0.50400001928E-02 0. -1.
    10030    2    1    2    0    0  0.00000000000E+00  0.00000000000E+00  0.17710729363E+02  0.16923278791E+04  0.16922352024E+04 0.  0.
        5    1    3    3  502    0  0.33569840665E+03 -0.61104892743E+03 -0.47056497932E+03  0.84114665885E+03  0.46999998093E+01 0. -1.
       -5    1    3    3    0  502 -0.33569840665E+03  0.61104892743E+03  0.48827570868E+03  0.85118122020E+03  0.46999998093E+01 0.  1.
</event>
<event>
 5   0  0.9284971E-04  0.1662795E+04  0.7818609E-02  0.8782873E-01
        2   -1    0    0  501    0  0.00000000000E+00  0.00000000000E+00  0.11356503964E+04  0.11356503964E+04  0.25500000920E-02 0. -1.
       -2   -1    0    0    0  501  0.00000000000E+00  0.00000000000E+00 -0.60865688008E+03  0.60865688009E+03  0.25500000920E-02 0.  1.
    10030    2    1    2    0    0  0.00000000000E+00  0.00000000000E+00  0.52699351634E+03  0.17443072765E+04  0.16627945479E+04 0.  0.
        4    1    3    3  502    0  0.10155398060E+03 -0.10974429561E+03  0.11214288623E+04  0.11313537588E+04  0.12699999809E+01 0. -1.
       -4    1    3    3    0  502 -0.10155398060E+03  0.10974429561E+03 -0.59443534600E+03  0.61295351770E+03  0.12699999809E+01 0.  1.
</event>
<event>
 5   0  0.1007187E-03  0.1719933E+04  0.7818609E-02  0.8750077E-01
        2   -1    0    0  501    0  0.00000000000E+00  0.00000000000E+00  0.88231138201E+03  0.88231138201E+03  0.25500000920E-02 0. -1.
       -2   -1    0    0    0  501  0.00000000000E+00  0.00000000000E+00 -0.83818715208E+03  0.83818715209E+03  0.25500000920E-02 0.  1.
    10030    2    1    2    0    0  0.00000000000E+00  0.00000000000E+00  0.44124229923E+02  0.17204985341E+04  0.17199326319E+04 0.  0.
        5    1    3    3  502    0 -0.50004171786E+03  0.69808032142E+03  0.68576014000E+02  0.86144217128E+03  0.46999998093E+01 0.  1.
       -5    1    3    3    0  502  0.50004171786E+03 -0.69808032142E+03 -0.24451784077E+02  0.85905636282E+03  0.46999998093E+01 0. -1.
</event>
<event>
 5   0  0.9625225E-04  0.1741629E+04  0.7818609E-02  0.8737972E-01
        2   -1    0    0  501    0  0.00000000000E+00  0.00000000000E+00  0.15846873850E+04  0.15846873850E+04  0.25500000920E-02 0. -1.
       -2   -1    0    0    0  501  0.00000000000E+00  0.00000000000E+00 -0.47852837118E+03  0.47852837119E+03  0.25500000920E-02 0.  1.
    10030    2    1    2    0    0  0.00000000000E+00  0.00000000000E+00  0.11061590138E+04  0.20632157562E+04  0.17416289768E+04 0.  0.
        1    1    3    3  502    0  0.48086804768E+03 -0.59012569720E+03  0.52104780914E+02  0.76301856203E+03  0.50400001928E-02 0. -1.
       -1    1    3    3    0  502 -0.48086804768E+03  0.59012569720E+03  0.10540542329E+04  0.13001971942E+04  0.50400001928E-02 0.  1.
</event>
<event>
 5   0  0.5035495E-04  0.1625997E+04  0.7818609E-02  0.8804734E-01
       -1   -1    0    0    0  501  0.00000000000E+00  0.00000000000E+00  0.85424826517E+03  0.85424826519E+03  0.50400001928E-02 0.  1.
        1   -1    0    0  501    0  0.00000000000E+00  0.00000000000E+00 -0.77374105516E+03  0.77374105518E+03  0.50400001928E-02 0. -1.
    10030    2    1    2    0    0  0.00000000000E+00  0.00000000000E+00  0.80507210015E+02  0.16279893204E+04  0.16259974835E+04 0.  0.
        4    1    3    3  502    0  0.10725061668E+03 -0.75886993134E+03  0.31184051920E+03  0.82742515660E+03  0.12699999809E+01 0.  1.
       -4    1    3    3    0  502 -0.10725061668E+03  0.75886993134E+03 -0.23133330918E+03  0.80056416376E+03  0.12699999809E+01 0. -1.
</event>
<event>
 5   0  0.9625225E-04  0.1768791E+04  0.7818609E-02  0.8723074E-01
       -2   -1    0    0    0  501  0.00000000000E+00  0.00000000000E+00  0.84999801721E+03  0.84999801721E+03  0.25500000920E-02 0.  1.
        2   -1    0    0  501    0  0.00000000000E+00  0.00000000000E+00 -0.92018483012E+03  0.92018483013E+03  0.25500000920E-02 0. -1.
    10030    2    1    2    0    0  0.00000000000E+00  0.00000000000E+00 -0.70186812911E+02  0.17701828473E+04  0.17687908651E+04 0.  0.
        1    1    3    3  502    0 -0.65160671402E+03 -0.21775746549E+03 -0.59243890000E+03  0.90718987748E+03  0.50400001928E-02 0.  1.
       -1    1    3    3    0  502  0.65160671402E+03  0.21775746549E+03  0.52225208709E+03  0.86299296986E+03  0.50400001928E-02 0. -1.
</event>
<event>
 5   0  0.4947006E-04  0.1821944E+04  0.7818609E-02  0.8694716E-01
        1   -1    0    0  501    0  0.00000000000E+00  0.00000000000E+00  0.13623405921E+04  0.13623405921E+04  0.50400001928E-02 0. -1.
       -1   -1    0    0    0  501  0.00000000000E+00  0.00000000000E+00 -0.60915047888E+03  0.60915047890E+03  0.50400001928E-02 0.  1.
    10030    2    1    2    0    0  0.00000000000E+00  0.00000000000E+00  0.75319011324E+03  0.19714910710E+04  0.18219444823E+04 0.  0.
        2    1    3    3  502    0  0.11990361214E+02 -0.79671148423E+03 -0.10121125964E+03  0.80320400705E+03  0.25500000920E-02 0.  1.
       -2    1    3    3    0  502 -0.11990361214E+02  0.79671148423E+03  0.85440137288E+03  0.11682870640E+04  0.25500000920E-02 0. -1.
</event>
<event>
 5   0  0.9312096E-04  0.1696582E+04  0.7818609E-02  0.8763316E-01
        2   -1    0    0  501    0  0.00000000000E+00  0.00000000000E+00  0.78182062515E+03  0.78182062516E+03  0.25500000920E-02 0.  1.
       -2   -1    0    0    0  501  0.00000000000E+00  0.00000000000E+00 -0.92041262103E+03  0.92041262103E+03  0.25500000920E-02 0. -1.
    10030    2    1    2    0    0  0.00000000000E+00  0.00000000000E+00 -0.13859199588E+03  0.17022332462E+04  0.16965819412E+04 0.  0.
        3    1    3    3  502    0  0.81921043779E+03  0.15923387287E+03  0.83317186382E+02  0.83869120146E+03  0.10100000352E+00 0.  1.
       -3    1    3    3    0  502 -0.81921043779E+03 -0.15923387287E+03 -0.22190918226E+03  0.86354204473E+03  0.10100000352E+00 0. -1.
</event>
<event>
 5   0  0.5035495E-04  0.1699879E+04  0.7818609E-02  0.8761434E-01
        1   -1    0    0  501    0  0.00000000000E+00  0.00000000000E+00  0.12233840587E+04  0.12233840588E+04  0.50400001928E-02 0. -1.
       -1   -1    0    0    0  501  0.00000000000E+00  0.00000000000E+00 -0.59049069893E+03  0.59049069895E+03  0.50400001928E-02 0.  1.
    10030    2    1    2    0    0  0.00000000000E+00  0.00000000000E+00  0.63289335982E+03  0.18138747577E+04  0.16998787109E+04 0.  0.
        4    1    3    3  502    0 -0.39989827101E+03  0.29801821537E+03 -0.41793789765E+03  0.65069745891E+03  0.12699999809E+01 0.  1.
       -4    1    3    3    0  502  0.39989827101E+03 -0.29801821537E+03  0.10508312575E+04  0.11631772988E+04  0.12699999809E+01 0. -1.
</event>
<event>
 5   0  0.5035495E-04  0.1041611E+04  0.7818609E-02  0.9264048E-01
       -1   -1    0    0    0  501  0.00000000000E+00  0.00000000000E+00  0.50258599398E+03  0.50258599400E+03  0.50400001928E-02 0.  1.
        1   -1    0    0  501    0  0.00000000000E+00  0.00000000000E+00 -0.53968527716E+03  0.53968527718E+03  0.50400001928E-02 0. -1.
    10030    2    1    2    0    0  0.00000000000E+00  0.00000000000E+00 -0.37099283181E+02  0.10422712712E+04  0.10416107939E+04 0.  0.
        4    1    3    3  502    0  0.35409366747E+03  0.97593282415E+02 -0.38801252296E+03  0.53428653828E+03  0.12699999809E+01 0. -1.
       -4    1    3    3    0  502 -0.35409366747E+03 -0.97593282415E+02  0.35091323978E+03  0.50798473291E+03  0.12699999809E+01 0.  1.
</event>
<event>
 5   0  0.9625225E-04  0.1649855E+04  0.7818609E-02  0.8790492E-01
       -2   -1    0    0    0  501  0.00000000000E+00  0.00000000000E+00  0.31888051196E+03  0.31888051197E+03  0.25500000920E-02 0.  1.
        2   -1    0    0  501    0  0.00000000000E+00  0.00000000000E+00 -0.21340444617E+04  0.21340444617E+04  0.25500000920E-02 0. -1.
    10030    2    1    2    0    0  0.00000000000E+00  0.00000000000E+00 -0.18151639498E+04  0.24529249737E+04  0.16498547700E+04 0.  0.
        1    1    3    3  502    0  0.31810076686E+03  0.70703677435E+03 -0.48860244509E+03  0.91641772546E+03  0.50400001928E-02 0.  1.
       -1    1    3    3    0  502 -0.31810076686E+03 -0.70703677435E+03 -0.13265615047E+04  0.15365072482E+04  0.50400001928E-02 0. -1.
</event>
<event>
 5   0  0.9284971E-04  0.1162811E+04  0.7818609E-02  0.9146046E-01
       -2   -1    0    0    0  501  0.00000000000E+00  0.00000000000E+00  0.10665342132E+04  0.10665342132E+04  0.25500000920E-02 0.  1.
        2   -1    0    0  501    0  0.00000000000E+00  0.00000000000E+00 -0.31694441952E+03  0.31694441953E+03  0.25500000920E-02 0. -1.
    10030    2    1    2    0    0  0.00000000000E+00  0.00000000000E+00  0.74958979372E+03  0.13834786328E+04  0.11628105041E+04 0.  0.
        4    1    3    3  502    0 -0.99855814792E+02  0.36432820447E+03 -0.15103051434E+03  0.40683910024E+03  0.12699999809E+01 0. -1.
       -4    1    3    3    0  502  0.99855814792E+02 -0.36432820447E+03  0.90062030805E+03  0.97663953253E+03  0.12699999809E+01 0.  1.
</event>
<event>
 5   0  0.5059689E-04  0.1685044E+04  0.7818609E-02  0.8769940E-01
       -1   -1    0    0    0  501  0.00000000000E+00  0.00000000000E+00  0.43404829165E+03  0.43404829167E+03  0.50400001928E-02 0. -1.
        1   -1    0    0  501    0  0.00000000000E+00  0.00000000000E+00 -0.16354022390E+04  0.16354022390E+04  0.50400001928E-02 0.  1.
    10030    2    1    2    0    0  0.00000000000E+00  0.00000000000E+00 -0.12013539474E+04  0.20694505307E+04  0.16850442701E+04 0.  0.
        5    1    3    3  502    0 -0.25003515539E+03  0.75633725874E+03 -0.93759137890E+03  0.12303102502E+04  0.46999998093E+01 0.  1.
       -5    1    3    3    0  502  0.25003515539E+03 -0.75633725874E+03 -0.26376256847E+03  0.83914028053E+03  0.46999998093E+01 0. -1.
</event>
<event>
 5   0  0.9625225E-04  0.1730285E+04  0.7818609E-02  0.8744278E-01
       -2   -1    0    0    0  501  0.00000000000E+00  0.00000000000E+00  0.11673991282E+04  0.11673991282E+04  0.25500000920E-02 0. -1.
        2   -1    0    0  501    0  0.00000000000E+00  0.00000000000E+00 -0.64114427517E+03  0.64114427517E+03  0.25500000920E-02 0.  1.
    10030    2    1    2    0    0  0.00000000000E+00  0.00000000000E+00  0.52625485302E+03  0.18085434034E+04  0.17302846793E+04 0.  0.
        1    1    3    3  502    0 -0.47291638612E+03 -0.27308391601E+03 -0.43822541824E+03  0.70019015322E+03  0.50400001928E-02 0.  1.
       -1    1    3    3    0  502  0.47291638612E+03  0.27308391601E+03  0.96448027126E+03  0.11083532502E+04  0.50400001928E-02 0. -1.
</event>
<event>
 5   0  0.9312096E-04  0.1719141E+04  0.7818609E-02  0.8750522E-01
       -2   -1    0    0    0  501  0.00000000000E+00  0.00000000000E+00  0.15746716141E+04  0.15746716141E+04  0.25500000920E-02 0.  1.
        2   -1    0    0  501    0  0.00000000000E+00  0.00000000000E+00 -0.46921626741E+03  0.46921626742E+03  0.25500000920E-02 0. -1.
    10030    2    1    2    0    0  0.00000000000E+00  0.00000000000E+00  0.11054553467E+04  0.20438878816E+04  0.17191411079E+04 0.  0.
        3    1    3    3  502    0  0.20050119442E+03  0.75494974212E+03  0.97926253342E+03  0.12526391985E+04  0.10100000352E+00 0. -1.
       -3    1    3    3    0  502 -0.20050119442E+03 -0.75494974212E+03  0.12619281329E+03  0.79124868304E+03  0.10100000352E+00 0.  1.
</event>
<event>
 5   0  0.5074133E-04  0.1767017E+04  0.7818609E-02  0.8724039E-01
        1   -1    0    0  501    0  0.00000000000E+00  0.00000000000E+00  0.16332470893E+04  0.16332470893E+04  0.50400001928E-02 0. -1.
       -1   -1    0    0    0  501  0.00000000000E+00  0.00000000000E+00 -0.47793607534E+03  0.47793607536E+03  0.50400001928E-02 0.  1.
    10030    2    1    2    0    0  0.00000000000E+00  0.00000000000E+00  0.11553110139E+04  0.21111831646E+04  0.17670174916E+04 0.  0.
        1    1    3    3  502    0 -0.26928850810E+03 -0.73910271434E+03  0.10582429504E+04  0.13185853272E+04  0.50400001928E-02 0. -1.
       -1    1    3    3    0  502  0.26928850810E+03  0.73910271434E+03  0.97068063508E+02  0.79259783745E+03  0.50400001928E-02 0.  1.
</event>
<event>
 5   0  0.5035495E-04  0.1719615E+04  0.7818609E-02  0.8750256E-01
       -1   -1    0    0    0  501  0.00000000000E+00  0.00000000000E+00  0.71132899833E+03  0.71132899835E+03  0.50400001928E-02 0. -1.
        1   -1    0    0  501    0  0.00000000000E+00  0.00000000000E+00 -0.10392786402E+04  0.10392786402E+04  0.50400001928E-02 0.  1.
    10030    2    1    2    0    0  0.00000000000E+00  0.00000000000E+00 -0.32794964187E+03  0.17506076386E+04  0.17196151129E+04 0.  0.
        4    1    3    3  502    0 -0.26350152592E+03  0.32653751040E+02  0.66854645343E+03  0.71934365565E+03  0.12699999809E+01 0. -1.
       -4    1    3    3    0  502  0.26350152592E+03 -0.32653751040E+02 -0.99649609530E+03  0.10312639829E+04  0.12699999809E+01 0.  1.
</event>
<event>
 5   0  0.5009762E-04  0.1486518E+04  0.7818609E-02  0.8893468E-01
       -1   -1    0    0    0  501  0.00000000000E+00  0.00000000000E+00  0.59596617297E+03  0.59596617299E+03  0.50400001928E-02 0.  1.
        1   -1    0    0  501    0  0.00000000000E+00  0.00000000000E+00 -0.92695542923E+03  0.92695542925E+03  0.50400001928E-02 0. -1.
    10030    2    1    2    0    0  0.00000000000E+00  0.00000000000E+00 -0.33098925627E+03  0.15229216022E+04  0.14865181865E+04 0.  0.
        3    1    3    3  502    0 -0.97980816299E+02  0.11586470515E+03 -0.91091809706E+03  0.92346990206E+03  0.10100000352E+00 0. -1.
       -3    1    3    3    0  502  0.97980816299E+02 -0.11586470515E+03  0.57992884079E+03  0.59945170018E+03  0.10100000352E+00 0.  1.
</event>
<event>
 5   0  0.5059689E-04  0.1824742E+04  0.7818609E-02  0.8693252E-01
        1   -1    0    0  501    0  0.00000000000E+00  0.00000000000E+00  0.17967672044E+04  0.17967672044E+04  0.50400001928E-02 0.  1.
       -1   -1    0    0    0  501  0.00000000000E+00  0.00000000000E+00 -0.46328805470E+03  0.46328805472E+03  0.50400001928E-02 0. -1.
    10030    2    1    2    0    0  0.00000000000E+00  0.00000000000E+00  0.13334791497E+04  0.22600552591E+04  0.18247419356E+04 0.  0.
        5    1    3    3  502    0  0.28488346807E+03  0.68149660839E+03  0.13300381320E+04  0.15213874392E+04  0.46999998093E+01 0.  1.
       -5    1    3    3    0  502 -0.28488346807E+03 -0.68149660839E+03  0.34410177339E+01  0.73866781995E+03  0.46999998093E+01 0. -1.
</event>
<event>
 5   0  0.5059689E-04  0.1719782E+04  0.7818609E-02  0.8750161E-01
        1   -1    0    0  501    0  0.00000000000E+00  0.00000000000E+00  0.44911535178E+03  0.44911535181E+03  0.50400001928E-02 0. -1.
       -1   -1    0    0    0  501  0.00000000000E+00  0.00000000000E+00 -0.16463764275E+04  0.16463764275E+04  0.50400001928E-02 0.  1.
    10030    2    1    2    0    0  0.00000000000E+00  0.00000000000E+00 -0.11972610757E+04  0.20954917793E+04  0.17197824611E+04 0.  0.
        5    1    3    3  502    0  0.26461895752E+03 -0.18940308697E+03 -0.15684340190E+04  0.16018439637E+04  0.46999998093E+01 0.  1.
       -5    1    3    3    0  502 -0.26461895752E+03  0.18940308697E+03  0.37117294329E+03  0.49364781562E+03  0.46999998093E+01 0. -1.
</event>
<event>
 5   0  0.9284971E-04  0.1337351E+04  0.7818609E-02  0.9000459E-01
       -2   -1    0    0    0  501  0.00000000000E+00  0.00000000000E+00  0.10922687165E+04  0.10922687165E+04  0.25500000920E-02 0.  1.
        2   -1    0    0  501    0  0.00000000000E+00  0.00000000000E+00 -0.40935620505E+03  0.40935620506E+03  0.25500000920E-02 0. -1.
    10030    2    1    2    0    0  0.00000000000E+00  0.00000000000E+00  0.68291251146E+03  0.15016249216E+04  0.13373510784E+04 0.  0.
        4    1    3    3  502    0  0.10175739089E+02  0.10681806806E+03  0.10825374834E+04  0.10878431235E+04  0.12699999809E+01 0.  1.
       -4    1    3    3    0  502 -0.10175739089E+02 -0.10681806806E+03 -0.39962497197E+03  0.41378179811E+03  0.12699999809E+01 0. -1.
</event>
<event>
 5   0  0.9625225E-04  0.1735988E+04  0.7818609E-02  0.8741101E-01
        2   -1    0    0  501    0  0.00000000000E+00  0.00000000000E+00  0.11612174430E+04  0.11612174430E+04  0.25500000920E-02 0.  1.
       -2   -1    0    0    0  501  0.00000000000E+00  0.00000000000E+00 -0.64881316050E+03  0.64881316051E+03  0.25500000920E-02 0. -1.
    10030    2    1    2    0    0  0.00000000000E+00  0.00000000000E+00  0.51240428254E+03  0.18100306035E+04  0.17359875106E+04 0.  0.
        1    1    3    3  502    0 -0.53585343356E+03  0.25851565487E+03  0.91517454139E+03  0.10915647884E+04  0.50400001928E-02 0.  1.
       -1    1    3    3    0  502  0.53585343356E+03 -0.25851565487E+03 -0.40277025885E+03  0.71846581513E+03  0.50400001928E-02 0. -1.
</event>
<event>
 5   0  0.4947006E-04  0.1688723E+04  0.7818609E-02  0.8767822E-01
        1   -1    0    0  501    0  0.00000000000E+00  0.00000000000E+00  0.10007366336E+04  0.10007366336E+04  0.50400001928E-02 0.  1.
       -1   -1    0    0    0  501  0.00000000000E+00  0.00000000000E+00 -0.71242166489E+03  0.71242166490E+03  0.50400001928E-02 0. -1.
    10030    2    1    2    0    0  0.00000000000E+00  0.00000000000E+00  0.28831496870E+03  0.17131582985E+04  0.16887231373E+04 0.  0.
        2    1    3    3  502    0  0.70039067458E+03 -0.35257237204E+03  0.46188587384E+03  0.91005106177E+03  0.25500000920E-02 0.  1.
       -2    1    3    3    0  502 -0.70039067458E+03  0.35257237204E+03 -0.17357090514E+03  0.80310723673E+03  0.25500000920E-02 0. -1.
</event>
<event>
 5   0  0.1007187E-03  0.8528030E+03  0.7818609E-02  0.9486583E-01
       -2   -1    0    0    0  501  0.00000000000E+00  0.00000000000E+00  0.10573250574E+03  0.10573250577E+03  0.25500000920E-02 0.  1.
        2   -1    0    0  501    0  0.00000000000E+00  0.00000000000E+00 -0.17196057217E+04  0.17196057217E+04  0.25500000920E-02 0. -1.
    10030    2    1    2    0    0  0.00000000000E+00  0.00000000000E+00 -0.16138732159E+04  0.18253382275E+04  0.85280295935E+03 0.  0.
        5    1    3    3  502    0  0.50642444814E+02 -0.53441867167E+02 -0.17058414243E+04  0.17074360149E+04  0.46999998093E+01 0. -1.
       -5    1    3    3    0  502 -0.50642444814E+02  0.53441867167E+02  0.91968208305E+02  0.11790221253E+03  0.46999998093E+01 0.  1.
</event>
<event>
 5   0  0.4947006E-04  0.1709305E+04  0.7818609E-02  0.8756075E-01
        1   -1    0    0  501    0  0.00000000000E+00  0.00000000000E+00  0.95221817727E+03  0.95221817728E+03  0.50400001928E-02 0. -1.
       -1   -1    0    0    0  501  0.00000000000E+00  0.00000000000E+00 -0.76708368377E+03  0.76708368379E+03  0.50400001928E-02 0.  1.
    10030    2    1    2    0    0  0.00000000000E+00  0.00000000000E+00  0.18513449349E+03  0.17193018611E+04  0.17093051538E+04 0.  0.
        2    1    3    3  502    0 -0.64301479423E+03 -0.56102089115E+03  0.13994432208E+03  0.86475249591E+03  0.25500000920E-02 0. -1.
       -2    1    3    3    0  502  0.64301479423E+03  0.56102089115E+03  0.45190171414E+02  0.85454936516E+03  0.25500000920E-02 0.  1.
</event>
<event>
 5   0  0.9610114E-04  0.1657556E+04  0.7818609E-02  0.8785949E-01
       -2   -1    0    0    0  501  0.00000000000E+00  0.00000000000E+00  0.13260898731E+04  0.13260898731E+04  0.25500000920E-02 0. -1.
        2   -1    0    0  501    0  0.00000000000E+00  0.00000000000E+00 -0.51796865800E+03  0.51796865801E+03  0.25500000920E-02 0.  1.
    10030    2    1    2    0    0  0.00000000000E+00  0.00000000000E+00  0.80812121511E+03  0.18440585311E+04  0.16575560226E+04 0.  0.
        2    1    3    3  502    0  0.37914427190E+03  0.73313353473E+03  0.48759447749E+03  0.95863628825E+03  0.25500000920E-02 0. -1.
       -2    1    3    3    0  502 -0.37914427190E+03 -0.73313353473E+03  0.32052673762E+03  0.88542224288E+03  0.25500000920E-02 0.  1.
</event>
<event>
 5   0  0.9312096E-04  0.1682837E+04  0.7818609E-02  0.8771214E-01
        2   -1    0    0  501    0  0.00000000000E+00  0.00000000000E+00  0.61034738368E+03  0.61034738368E+03  0.25500000920E-02 0.  1.
       -2   -1    0    0    0  501  0.00000000000E+00  0.00000000000E+00 -0.11599709557E+04  0.11599709557E+04  0.25500000920E-02 0. -1.
    10030    2    1    2    0    0  0.00000000000E+00  0.00000000000E+00 -0.54962357203E+03  0.17703183394E+04  0.16828371733E+04 0.  0.
        3    1    3    3  502    0 -0.61622497434E+03 -0.18994170424E+03 -0.84344231405E+03  0.10616995890E+04  0.10100000352E+00 0. -1.
       -3    1    3    3    0  502  0.61622497434E+03  0.18994170424E+03  0.29381874202E+03  0.70861875036E+03  0.10100000352E+00 0.  1.
</event>
<event>
 5   0  0.9625225E-04  0.1669143E+04  0.7818609E-02  0.8779161E-01
       -2   -1    0    0    0  501  0.00000000000E+00  0.00000000000E+00  0.39001440318E+03  0.39001440319E+03  0.25500000920E-02 0.  1.
        2   -1    0    0  501    0  0.00000000000E+00  0.00000000000E+00 -0.17858564505E+04  0.17858564505E+04  0.25500000920E-02 0. -1.
    10030    2    1    2    0    0  0.00000000000E+00  0.00000000000E+00 -0.13958420473E+04  0.21758708537E+04  0.16691431787E+04 0.  0.
        1    1    3    3  502    0  0.60642996851E+03 -0.52430114964E+03 -0.10004560498E+04  0.12820145513E+04  0.50400001928E-02 0.  1.
       -1    1    3    3    0  502 -0.60642996851E+03  0.52430114964E+03 -0.39538599753E+03  0.89385630236E+03  0.50400001928E-02 0. -1.
</event>
<event>
 5   0  0.9284971E-04  0.1698552E+04  0.7818609E-02  0.8762191E-01
       -2   -1    0    0    0  501  0.00000000000E+00  0.00000000000E+00  0.42071130246E+03  0.42071130247E+03  0.25500000920E-02 0.  1.
        2   -1    0    0  501    0  0.00000000000E+00  0.00000000000E+00 -0.17144051076E+04  0.17144051076E+04  0.25500000920E-02 0. -1.
    10030    2    1    2    0    0  0.00000000000E+00  0.00000000000E+00 -0.12936938052E+04  0.21351164101E+04  0.16985518606E+04 0.  0.
        4    1    3    3  502    0 -0.12261401896E+03  0.52792090746E+03  0.17506964851E+03  0.56954866070E+03  0.12699999809E+01 0.  1.
       -4    1    3    3    0  502  0.12261401896E+03 -0.52792090746E+03 -0.14687634537E+04  0.15655677494E+04  0.12699999809E+01 0. -1.
</event>
<event>
 5   0  0.5059689E-04  0.1634729E+04  0.7818609E-02  0.8799492E-01
       -1   -1    0    0    0  501  0.00000000000E+00  0.00000000000E+00  0.73880612863E+03  0.73880612865E+03  0.50400001928E-02 0.  1.
        1   -1    0    0  501    0  0.00000000000E+00  0.00000000000E+00 -0.90427623538E+03  0.90427623540E+03  0.50400001928E-02 0. -1.
    10030    2    1    2    0    0  0.00000000000E+00  0.00000000000E+00 -0.16547010675E+03  0.16430823640E+04  0.16347291209E+04 0.  0.
        5    1    3    3  502    0  0.72889738101E+03  0.10034812545E+03 -0.44050559497E+03  0.85757122592E+03  0.46999998093E+01 0. -1.
       -5    1    3    3    0  502 -0.72889738101E+03 -0.10034812545E+03  0.27503548822E+03  0.78551113812E+03  0.46999998093E+01 0.  1.
</event>
<event>
 5   0  0.5035495E-04  0.1817193E+04  0.7818609E-02  0.8697210E-01
        1   -1    0    0  501    0  0.00000000000E+00  0.00000000000E+00  0.94734513282E+03  0.94734513284E+03  0.50400001928E-02 0.  1.
       -1   -1    0    0    0  501  0.00000000000E+00  0.00000000000E+00 -0.87143278789E+03  0.87143278790E+03  0.50400001928E-02 0. -1.
    10030    2    1    2    0    0  0.00000000000E+00  0.00000000000E+00  0.75912344935E+02  0.18187779207E+04  0.18171930114E+04 0.  0.
        4    1    3    3  502    0 -0.18737077252E+03 -0.84853766799E+03  0.30355909236E+03  0.92047472309E+03  0.12699999809E+01 0.  1.
       -4    1    3    3    0  502  0.18737077252E+03  0.84853766799E+03 -0.22764674742E+03  0.89830319765E+03  0.12699999809E+01 0. -1.
</event>
<event>
 5   0  0.5059689E-04  0.1682433E+04  0.7818609E-02  0.8771447E-01
       -1   -1    0    0    0  501  0.00000000000E+00  0.00000000000E+00  0.10130513206E+04  0.10130513207E+04  0.50400001928E-02 0. -1.
        1   -1    0    0  501    0  0.00000000000E+00  0.00000000000E+00 -0.69852847607E+03  0.69852847609E+03  0.50400001928E-02 0.  1.
    10030    2    1    2    0    0  0.00000000000E+00  0.00000000000E+00  0.31452284457E+03  0.17115797967E+04  0.16824329945E+04 0.  0.
        5    1    3    3  502    0 -0.83328157625E+03  0.65557625930E+02  0.25359680057E+03  0.87349265303E+03  0.46999998093E+01 0. -1.
       -5    1    3    3    0  502  0.83328157625E+03 -0.65557625930E+02  0.60926044004E+02  0.83808714372E+03  0.46999998093E+01 0.  1.
</event>
<event>
 5   0  0.9312096E-04  0.1767835E+04  0.7818609E-02  0.8723594E-01
        2   -1    0    0  501    0  0.00000000000E+00  0.00000000000E+00  0.53429161217E+03  0.53429161218E+03  0.25500000920E-02 0. -1.
       -2   -1    0    0    0  501  0.00000000000E+00  0.00000000000E+00 -0.14623282613E+04  0.14623282613E+04  0.25500000920E-02 0.  1.
    10030    2    1    2    0    0  0.00000000000E+00  0.00000000000E+00 -0.92803664912E+03  0.19966198735E+04  0.17678345220E+04 0.  0.
        3    1    3    3  502    0 -0.69065364875E+03  0.25952142973E+03  0.85759885826E+02  0.74277089553E+03  0.10100000352E+00 0. -1.
       -3    1    3    3    0  502  0.69065364875E+03 -0.25952142973E+03 -0.10137965349E+04  0.12538489779E+04  0.10100000352E+00 0.  1.
</event>
<event>
 5   0  0.9610114E-04  0.1763090E+04  0.7818609E-02  0.8726178E-01
       -2   -1    0    0    0  501  0.00000000000E+00  0.00000000000E+00  0.10267135906E+04  0.10267135906E+04  0.25500000920E-02 0.  1.
        2   -1    0    0  501    0  0.00000000000E+00  0.00000000000E+00 -0.75690189594E+03  0.75690189594E+03  0.25500000920E-02 0. -1.
    10030    2    1    2    0    0  0.00000000000E+00  0.00000000000E+00  0.26981169469E+03  0.17836154866E+04  0.17630898597E+04 0.  0.
        2    1    3    3  502    0 -0.81516837759E+03  0.31500786567E+03  0.17834693764E+02  0.87409811552E+03  0.25500000920E-02 0.  1.
       -2    1    3    3    0  502  0.81516837759E+03 -0.31500786567E+03  0.25197700093E+03  0.90951737106E+03  0.25500000920E-02 0. -1.
</event>
<event>
 5   0  0.1007187E-03  0.1686009E+04  0.7818609E-02  0.8769384E-01
       -2   -1    0    0    0  501  0.00000000000E+00  0.00000000000E+00  0.73037854356E+03  0.73037854356E+03  0.25500000920E-02 0. -1.
        2   -1    0    0  501    0  0.00000000000E+00  0.00000000000E+00 -0.97299774797E+03  0.97299774798E+03  0.25500000920E-02 0.  1.
    10030    2    1    2    0    0  0.00000000000E+00  0.00000000000E+00 -0.24261920442E+03  0.17033762915E+04  0.16860091080E+04 0.  0.
        5    1    3    3  502    0 -0.66825687915E+03 -0.23071083563E+02  0.39733502040E+03  0.77781536361E+03  0.46999998093E+01 0. -1.
       -5    1    3    3    0  502  0.66825687915E+03  0.23071083563E+02 -0.63995422482E+03  0.92556092792E+03  0.46999998093E+01 0.  1.
</event>
<event>
 5   0  0.5035495E-04  0.1723100E+04  0.7818609E-02  0.8748298E-01
       -1   -1    0    0    0  501  0.00000000000E+00  0.00000000000E+00  0.31738287258E+03  0.31738287262E+03  0.50400001928E-02 0.  1.
        1   -1    0    0  501    0  0.00000000000E+00  0.00000000000E+00 -0.23387154238E+04  0.23387154238E+04  0.50400001928E-02 0. -1.
    10030    2    1    2    0    0  0.00000000000E+00  0.00000000000E+00 -0.20213325512E+04  0.26560982964E+04  0.17230997875E+04 0.  0.
        4    1    3    3  502    0  0.24990051631E+03  0.55395377270E+03 -0.19520353486E+04  0.20444458089E+04  0.12699999809E+01 0. -1.
       -4    1    3    3    0  502 -0.24990051631E+03 -0.55395377270E+03 -0.69297202621E+02  0.61165248756E+03  0.12699999809E+01 0.  1.
</event>
<event>
 5   0  0.5074133E-04  0.1675849E+04  0.7818609E-02  0.8775260E-01
       -1   -1    0    0    0  501  0.00000000000E+00  0.00000000000E+00  0.10994252063E+04  0.10994252063E+04  0.50400001928E-02 0. -1.
        1   -1    0    0  501    0  0.00000000000E+00  0.00000000000E+00 -0.63862248254E+03  0.63862248256E+03  0.50400001928E-02 0.  1.
    10030    2    1    2    0    0  0.00000000000E+00  0.00000000000E+00  0.46080272376E+03  0.17380476889E+04  0.16758492231E+04 0.  0.
        1    1    3    3  502    0 -0.44092491302E+03 -0.65954356071E+03  0.51004785982E+03  0.94316557758E+03  0.50400001928E-02 0. -1.
       -1    1    3    3    0  502  0.44092491302E+03  0.65954356071E+03 -0.49245136064E+02  0.79488211129E+03  0.50400001928E-02 0.  1.
</event>
<event>
 5   0  0.9610114E-04  0.1674529E+04  0.7818609E-02  0.8776026E-01
       -2   -1    0    0    0  501  0.00000000000E+00  0.00000000000E+00  0.36273863921E+03  0.36273863922E+03  0.25500000920E-02 0. -1.
        2   -1    0    0  501    0  0.00000000000E+00  0.00000000000E+00 -0.19325526237E+04  0.19325526237E+04  0.25500000920E-02 0.  1.
    10030    2    1    2    0    0  0.00000000000E+00  0.00000000000E+00 -0.15698139845E+04  0.22952912630E+04  0.16745286011E+04 0.  0.
        2    1    3    3  502    0 -0.78763936983E+03  0.25452311399E+03 -0.95749506437E+03  0.12656834481E+04  0.25500000920E-02 0.  1.
       -2    1    3    3    0  502  0.78763936983E+03 -0.25452311399E+03 -0.61231892017E+03  0.10296078149E+04  0.25500000920E-02 0. -1.
</event>
<event>
 5   0  0.3523125E-04  0.1649232E+04  0.7818609E-02  0.8790861E-01
       -3   -1    0    0    0  501  0.00000000000E+00  0.00000000000E+00  0.62379651155E+03  0.62379651973E+03  0.10100000352E+00 0.  1.
        3   -1    0    0  501    0  0.00000000000E+00  0.00000000000E+00 -0.10900852732E+04  0.10900852778E+04  0.10100000352E+00 0. -1.
    10030    2    1    2    0    0  0.00000000000E+00  0.00000000000E+00 -0.46628876160E+03  0.17138817976E+04  0.16492318233E+04 0.  0.
        5    1    3    3  502    0 -0.28660342851E+02  0.46687663745E+03 -0.93886306448E+03  0.10489428744E+04  0.46999998093E+01 0. -1.
       -5    1    3    3    0  502  0.28660342851E+02 -0.46687663745E+03  0.47257430287E+03  0.66493892320E+03  0.46999998093E+01 0.  1.
</event>
<event>
 5   0  0.5035495E-04  0.1615365E+04  0.7818609E-02  0.8811164E-01
        1   -1    0    0  501    0  0.00000000000E+00  0.00000000000E+00  0.46677052318E+03  0.46677052321E+03  0.50400001928E-02 0. -1.
       -1   -1    0    0    0  501  0.00000000000E+00  0.00000000000E+00 -0.13975839650E+04  0.13975839650E+04  0.50400001928E-02 0.  1.
    10030    2    1    2    0    0  0.00000000000E+00  0.00000000000E+00 -0.93081344183E+03  0.18643544882E+04  0.16153649725E+04 0.  0.
        4    1    3    3  502    0  0.39648551878E+03  0.68783927762E+03 -0.63669322934E+03  0.10176951998E+04  0.12699999809E+01 0. -1.
       -4    1    3    3    0  502 -0.39648551878E+03 -0.68783927762E+03 -0.29412021249E+03  0.84665928846E+03  0.12699999809E+01 0.  1.
</event>
<event>
 5   0  0.9284971E-04  0.1682843E+04  0.7818609E-02  0.8771210E-01
        2   -1    0    0  501    0  0.00000000000E+00  0.00000000000E+00  0.41364309848E+03  0.41364309849E+03  0.25500000920E-02 0.  1.
       -2   -1    0    0    0  501  0.00000000000E+00  0.00000000000E+00 -0.17115971687E+04  0.17115971687E+04  0.25500000920E-02 0. -1.
    10030    2    1    2    0    0  0.00000000000E+00  0.00000000000E+00 -0.12979540702E+04  0.21252402671E+04  0.16828432562E+04 0.  0.
        4    1    3    3  502    0  0.82591907049E+03 -0.42416102586E+02 -0.45313875375E+03  0.94301525958E+03  0.12699999809E+01 0.  1.
       -4    1    3    3    0  502 -0.82591907049E+03  0.42416102586E+02 -0.84481531642E+03  0.11822250076E+04  0.12699999809E+01 0. -1.
</event>
<event>
 5   0  0.5059689E-04  0.1700825E+04  0.7818609E-02  0.8760894E-01
       -1   -1    0    0    0  501  0.00000000000E+00  0.00000000000E+00  0.66470113929E+03  0.66470113931E+03  0.50400001928E-02 0.  1.
        1   -1    0    0  501    0  0.00000000000E+00  0.00000000000E+00 -0.10880102415E+04  0.10880102416E+04  0.50400001928E-02 0. -1.
    10030    2    1    2    0    0  0.00000000000E+00  0.00000000000E+00 -0.42330910225E+03  0.17527113809E+04  0.17008252669E+04 0.  0.
        5    1    3    3  502    0 -0.53768017260E+03 -0.61412700088E+03 -0.45752832426E+03  0.93573831744E+03  0.46999998093E+01 0.  1.
       -5    1    3    3    0  502  0.53768017260E+03  0.61412700088E+03  0.34219222009E+02  0.81697306343E+03  0.46999998093E+01 0. -1.
</event>
<event>
 5   0  0.9312096E-04  0.1680691E+04  0.7818609E-02  0.8772454E-01
       -2   -1    0    0    0  501  0.00000000000E+00  0.00000000000E+00  0.13464134442E+04  0.13464134442E+04  0.25500000920E-02 0.  1.
        2   -1    0    0  501    0  0.00000000000E+00  0.00000000000E+00 -0.52449021319E+03  0.52449021319E+03  0.25500000920E-02 0. -1.
    10030    2    1    2    0    0  0.00000000000E+00  0.00000000000E+00  0.82192323098E+03  0.18709036574E+04  0.16806911369E+04 0.  0.
        3    1    3    3  502    0 -0.35531816718E+03  0.25312051503E+03 -0.38855832868E+03  0.58420765148E+03  0.10100000352E+00 0. -1.
       -3    1    3    3    0  502  0.35531816718E+03 -0.25312051503E+03  0.12104815597E+04  0.12866960059E+04  0.10100000352E+00 0.  1.
</event>
<event>
 5   0  0.9625225E-04  0.1635718E+04  0.7818609E-02  0.8798901E-01
        2   -1    0    0  501    0  0.00000000000E+00  0.00000000000E+00  0.22954853842E+04  0.22954853842E+04  0.25500000920E-02 0. -1.
       -2   -1    0    0    0  501  0.00000000000E+00  0.00000000000E+00 -0.29139515120E+03  0.29139515121E+03  0.25500000920E-02 0.  1.
    10030    2    1    2    0    0  0.00000000000E+00  0.00000000000E+00  0.20040902330E+04  0.25868805354E+04  0.16357179593E+04 0.  0.
        1    1    3    3  502    0  0.49455878366E+03  0.43546651223E+03  0.17681712695E+04  0.18869682330E+04  0.50400001928E-02 0. -1.
       -1    1    3    3    0  502 -0.49455878366E+03 -0.43546651223E+03  0.23591896345E+03  0.69991230244E+03  0.50400001928E-02 0.  1.
</event>
<event>
 5   0  0.5009762E-04  0.1688817E+04  0.7818609E-02  0.8767768E-01
       -1   -1    0    0    0  501  0.00000000000E+00  0.00000000000E+00  0.60727433637E+03  0.60727433639E+03  0.50400001928E-02 0. -1.
        1   -1    0    0  501    0  0.00000000000E+00  0.00000000000E+00 -0.11741408368E+04  0.11741408368E+04  0.50400001928E-02 0.  1.
    10030    2    1    2    0    0  0.00000000000E+00  0.00000000000E+00 -0.56686650045E+03  0.17814151732E+04  0.16888168610E+04 0.  0.
        3    1    3    3  502    0  0.24635158925E+01 -0.35504677314E+03 -0.10915745978E+04  0.11478673237E+04  0.10100000352E+00 0.  1.
       -3    1    3    3    0  502 -0.24635158925E+01  0.35504677314E+03  0.52470809735E+03  0.63354784954E+03  0.10100000352E+00 0. -1.
</event>
<event>
 5   0  0.4947006E-04  0.1677445E+04  0.7818609E-02  0.8774334E-01
       -1   -1    0    0    0  501  0.00000000000E+00  0.00000000000E+00  0.47815151589E+03  0.47815151592E+03  0.50400001928E-02 0. -1.
        1   -1    0    0  501    0  0.00000000000E+00  0.00000000000E+00 -0.14711975034E+04  0.14711975034E+04  0.50400001928E-02 0.  1.
    10030    2    1    2    0    0  0.00000000000E+00  0.00000000000E+00 -0.99304598755E+03  0.19493490194E+04  0.16774448623E+04 0.  0.
        2    1    3    3  502    0 -0.72545770906E+03 -0.42057546922E+03 -0.47698378538E+03  0.96472075984E+03  0.25500000920E-02 0.  1.
       -2    1    3    3    0  502  0.72545770906E+03  0.42057546922E+03 -0.51606220216E+03  0.98462825952E+03  0.25500000920E-02 0. -1.
</event>
<event>
 5   0  0.5035495E-04  0.1658297E+04  0.7818609E-02  0.8785513E-01
        1   -1    0    0  501    0  0.00000000000E+00  0.00000000000E+00  0.76598826198E+03  0.76598826200E+03  0.50400001928E-02 0. -1.
       -1   -1    0    0    0  501  0.00000000000E+00  0.00000000000E+00 -0.89751649108E+03  0.89751649109E+03  0.50400001928E-02 0.  1.
    10030    2    1    2    0    0  0.00000000000E+00  0.00000000000E+00 -0.13152822910E+03  0.16635047531E+04  0.16582968336E+04 0.  0.
        4    1    3    3  502    0  0.28094187310E+03  0.72293550170E+03  0.22827998471E+03  0.80850320964E+03  0.12699999809E+01 0. -1.
       -4    1    3    3    0  502 -0.28094187310E+03 -0.72293550170E+03 -0.35980821380E+03  0.85500154345E+03  0.12699999809E+01 0.  1.
</event>
<event>
 5   0  0.5035495E-04  0.1477961E+04  0.7818609E-02  0.8899243E-01
        1   -1    0    0  501    0  0.00000000000E+00  0.00000000000E+00  0.10466015562E+04  0.10466015563E+04  0.50400001928E-02 0.  1.
       -1   -1    0    0    0  501  0.00000000000E+00  0.00000000000E+00 -0.52177624385E+03  0.52177624388E+03  0.50400001928E-02 0. -1.
    10030    2    1    2    0    0  0.00000000000E+00  0.00000000000E+00  0.52482531239E+03  0.15683778001E+04  0.14779605257E+04 0.  0.
        4    1    3    3  502    0 -0.65686947089E+02  0.68997576853E+03 -0.96067468582E+01  0.69316321214E+03  0.12699999809E+01 0. -1.
       -4    1    3    3    0  502  0.65686947089E+02 -0.68997576853E+03  0.53443205925E+03  0.87521458799E+03  0.12699999809E+01 0.  1.
</event>
<event>
 5   0  0.5009762E-04  0.1665170E+04  0.7818609E-02  0.8781482E-01
        1   -1    0    0  501    0  0.00000000000E+00  0.00000000000E+00  0.92233141329E+03  0.92233141330E+03  0.50400001928E-02 0. -1.
       -1   -1    0    0    0  501  0.00000000000E+00  0.00000000000E+00 -0.75157145411E+03  0.75157145413E+03  0.50400001928E-02 0.  1.
    10030    2    1    2    0    0  0.00000000000E+00  0.00000000000E+00  0.17075995918E+03  0.16739028674E+04  0.16651702153E+04 0.  0.
        3    1    3    3  502    0  0.55388491441E+03 -0.47847968727E+03  0.48428169318E+03  0.87764461947E+03  0.10100000352E+00 0. -1.
       -3    1    3    3    0  502 -0.55388491441E+03  0.47847968727E+03 -0.31352173400E+03  0.79625824795E+03  0.10100000352E+00 0.  1.
</event>
<event>
 5   0  0.1007187E-03  0.1634858E+04  0.7818609E-02  0.8799415E-01
        2   -1    0    0  501    0  0.00000000000E+00  0.00000000000E+00  0.82947336475E+03  0.82947336476E+03  0.25500000920E-02 0.  1.
       -2   -1    0    0    0  501  0.00000000000E+00  0.00000000000E+00 -0.80555953911E+03  0.80555953912E+03  0.25500000920E-02 0. -1.
    10030    2    1    2    0    0  0.00000000000E+00  0.00000000000E+00  0.23913825641E+02  0.16350329039E+04  0.16348580139E+04 0.  0.
        5    1    3    3  502    0  0.47187211719E+03 -0.64535058326E+03  0.18234949458E+03  0.82000859658E+03  0.46999998093E+01 0. -1.
       -5    1    3    3    0  502 -0.47187211719E+03  0.64535058326E+03 -0.15843566894E+03  0.81502430730E+03  0.46999998093E+01 0.  1.
</event>
<event>
 5   0  0.9610114E-04  0.1699813E+04  0.7818609E-02  0.8761471E-01
        2   -1    0    0  501    0  0.00000000000E+00  0.00000000000E+00  0.62054985273E+03  0.62054985274E+03  0.25500000920E-02 0. -1.
       -2   -1    0    0    0  501  0.00000000000E+00  0.00000000000E+00 -0.11640335180E+04  0.11640335180E+04  0.25500000920E-02 0.  1.
    10030    2    1    2    0    0  0.00000000000E+00  0.00000000000E+00 -0.54348366526E+03  0.17845833707E+04  0.16998127287E+04 0.  0.
        2    1    3    3  502    0  0.43961076373E+03  0.20719315155E+03  0.46027789776E+03  0.66935967074E+03  0.25500000920E-02 0. -1.
       -2    1    3    3    0  502 -0.43961076373E+03 -0.20719315155E+03 -0.10037615630E+04  0.11152237000E+04  0.25500000920E-02 0.  1.
</event>
<event>
 5   0  0.4947006E-04  0.1793328E+04  0.7818609E-02  0.8709855E-01
       -1   -1    0    0    0  501  0.00000000000E+00  0.00000000000E+00  0.42337207413E+03  0.42337207416E+03  0.50400001928E-02 0.  1.
        1   -1    0    0  501    0  0.00000000000E+00  0.00000000000E+00 -0.18990546721E+04  0.18990546721E+04  0.50400001928E-02 0. -1.
    10030    2    1    2    0    0  0.00000000000E+00  0.00000000000E+00 -0.14756825979E+04  0.23224267462E+04  0.17933284311E+04 0.  0.
        2    1    3    3  502    0 -0.33688960975E+02  0.77123793726E+03 -0.14712294111E+03  0.78586771264E+03  0.25500000920E-02 0.  1.
       -2    1    3    3    0  502  0.33688960975E+02 -0.77123793726E+03 -0.13285596568E+04  0.15365590336E+04  0.25500000920E-02 0. -1.
</event>
<event>
 5   0  0.5074133E-04  0.1669540E+04  0.7818609E-02  0.8778930E-01
       -1   -1    0    0    0  501  0.00000000000E+00  0.00000000000E+00  0.52217985924E+03  0.52217985927E+03  0.50400001928E-02 0.  1.
        1   -1    0    0  501    0  0.00000000000E+00  0.00000000000E+00 -0.13344843634E+04  0.13344843634E+04  0.50400001928E-02 0. -1.
    10030    2    1    2    0    0  0.00000000000E+00  0.00000000000E+00 -0.81230450414E+03  0.18566642227E+04  0.16695398852E+04 0.  0.
        1    1    3    3  502    0  0.15152699550E+03  0.80299172773E+03 -0.59580928536E+03  0.10113084840E+04  0.50400001928E-02 0. -1.
       -1    1    3    3    0  502 -0.15152699550E+03 -0.80299172773E+03 -0.21649521878E+03  0.84535573870E+03  0.50400001928E-02 0.  1.
</event>
<event>
 5   0  0.5009762E-04  0.1729232E+04  0.7818609E-02  0.8744865E-01
        1   -1    0    0  501    0  0.00000000000E+00  0.00000000000E+00  0.21228586059E+04  0.21228586059E+04  0.50400001928E-02 0.  1.
       -1   -1    0    0    0  501  0.00000000000E+00  0.00000000000E+00 -0.35214833545E+03  0.35214833549E+03  0.50400001928E-02 0. -1.
    10030    2    1    2    0    0  0.00000000000E+00  0.00000000000E+00  0.17707102705E+04  0.24750069414E+04  0.17292323436E+04 0.  0.
        3    1    3    3  502    0  0.22186483499E+03 -0.78318942132E+03  0.46818957927E+03  0.93904801102E+03  0.10100000352E+00 0. -1.
       -3    1    3    3    0  502 -0.22186483499E+03  0.78318942132E+03  0.13025206912E+04  0.15359589304E+04  0.10100000352E+00 0.  1.
</event>
<event>
 5   0  0.5074133E-04  0.1627561E+04  0.7818609E-02  0.8803793E-01
        1   -1    0    0  501    0  0.00000000000E+00  0.00000000000E+00  0.23941898714E+04  0.23941898714E+04  0.50400001928E-02 0.  1.
       -1   -1    0    0    0  501  0.00000000000E+00  0.00000000000E+00 -0.27660236866E+03  0.27660236871E+03  0.50400001928E-02 0. -1.
    10030    2    1    2    0    0  0.00000000000E+00  0.00000000000E+00  0.21175875027E+04  0.26707922401E+04  0.16275608615E+04 0.  0.
        1    1    3    3  502    0 -0.47364339362E+03 -0.53931588768E+03  0.16880376140E+04  0.18343038672E+04  0.50400001928E-02 0.  1.
       -1    1    3    3    0  502  0.47364339362E+03  0.53931588768E+03  0.42954988873E+03  0.83648837287E+03  0.50400001928E-02 0. -1.
</event>
<event>
 5   0  0.5035495E-04  0.1696276E+04  0.7818609E-02  0.8763491E-01
       -1   -1    0    0    0  501  0.00000000000E+00  0.00000000000E+00  0.17981200036E+04  0.17981200036E+04  0.50400001928E-02 0. -1.
        1   -1    0    0  501    0  0.00000000000E+00  0.00000000000E+00 -0.40005023220E+03  0.40005023223E+03  0.50400001928E-02 0.  1.
    10030    2    1    2    0    0  0.00000000000E+00  0.00000000000E+00  0.13980697714E+04  0.21981702358E+04  0.16962763041E+04 0.  0.
        4    1    3    3  502    0 -0.63897409094E+03  0.30042385603E+03  0.13079527085E+04  0.14863661335E+04  0.12699999809E+01 0. -1.
       -4    1    3    3    0  502  0.63897409094E+03 -0.30042385603E+03  0.90117062852E+02  0.71180410232E+03  0.12699999809E+01 0.  1.
</event>
<event>
 5   0  0.5035495E-04  0.1667194E+04  0.7818609E-02  0.8780299E-01
        1   -1    0    0  501    0  0.00000000000E+00  0.00000000000E+00  0.68537691989E+03  0.68537691991E+03  0.50400001928E-02 0.  1.
       -1   -1    0    0    0  501  0.00000000000E+00  0.00000000000E+00 -0.10138717523E+04  0.10138717523E+04  0.50400001928E-02 0. -1.
    10030    2    1    2    0    0  0.00000000000E+00  0.00000000000E+00 -0.32849483240E+03  0.16992486722E+04  0.16671944083E+04 0.  0.
        4    1    3    3  502    0  0.18150422746E+03  0.80393140740E+03 -0.29168412467E+03  0.87426010654E+03  0.12699999809E+01 0.  1.
       -4    1    3    3    0  502 -0.18150422746E+03 -0.80393140740E+03 -0.36810707729E+02  0.82498856568E+03  0.12699999809E+01 0. -1.
</event>
<event>
 5   0  0.5009762E-04  0.1584949E+04  0.7818609E-02  0.8829848E-01
       -1   -1    0    0    0  501  0.00000000000E+00  0.00000000000E+00  0.69689566885E+03  0.69689566887E+03  0.50400001928E-02 0. -1.
        1   -1    0    0  501    0  0.00000000000E+00  0.00000000000E+00 -0.90116174360E+03  0.90116174361E+03  0.50400001928E-02 0.  1.
    10030    2    1    2    0    0  0.00000000000E+00  0.00000000000E+00 -0.20426607475E+03  0.15980574125E+04  0.15849488523E+04 0.  0.
        3    1    3    3  502    0 -0.66593155356E+00  0.35379767083E+03  0.61284565942E+03  0.70763906606E+03  0.10100000352E+00 0. -1.
       -3    1    3    3    0  502  0.66593155356E+00 -0.35379767083E+03 -0.81711173416E+03  0.89041834643E+03  0.10100000352E+00 0.  1.
</event>
<event>
 5   0  0.9610114E-04  0.1689585E+04  0.7818609E-02  0.8767327E-01
        2   -1    0    0  501    0  0.00000000000E+00  0.00000000000E+00  0.89362165160E+03  0.89362165160E+03  0.25500000920E-02 0.  1.
       -2   -1    0    0    0  501  0.00000000000E+00  0.00000000000E+00 -0.79863146673E+03  0.79863146674E+03  0.25500000920E-02 0. -1.
    10030    2    1    2    0    0  0.00000000000E+00  0.00000000000E+00  0.94990184862E+02  0.16922531183E+04  0.16895850027E+04 0.  0.
        2    1    3    3  502    0  0.17719730504E+03 -0.62198271196E+03 -0.49688228916E+03  0.81556936441E+03  0.25500000920E-02 0. -1.
       -2    1    3    3    0  502 -0.17719730504E+03  0.62198271196E+03  0.59187247402E+03  0.87668375392E+03  0.25500000920E-02 0.  1.
</event>
<event>
 5   0  0.5059689E-04  0.1689817E+04  0.7818609E-02  0.8767193E-01
        1   -1    0    0  501    0  0.00000000000E+00  0.00000000000E+00  0.12252254953E+04  0.12252254953E+04  0.50400001928E-02 0. -1.
       -1   -1    0    0    0  501  0.00000000000E+00  0.00000000000E+00 -0.58264434557E+03  0.58264434560E+03  0.50400001928E-02 0.  1.
    10030    2    1    2    0    0  0.00000000000E+00  0.00000000000E+00  0.64258114971E+03  0.18078698409E+04  0.16898173948E+04 0.  0.
        5    1    3    3  502    0  0.19139863491E+03  0.52581712604E+02 -0.55733203201E+03  0.59164124083E+03  0.46999998093E+01 0.  1.
       -5    1    3    3    0  502 -0.19139863491E+03 -0.52581712604E+02  0.11999131817E+04  0.12162286001E+04  0.46999998093E+01 0. -1.
</event>
<event>
 5   0  0.9625225E-04  0.1717907E+04  0.7818609E-02  0.8751217E-01
        2   -1    0    0  501    0  0.00000000000E+00  0.00000000000E+00  0.60291689274E+03  0.60291689274E+03  0.25500000920E-02 0. -1.
       -2   -1    0    0    0  501  0.00000000000E+00  0.00000000000E+00 -0.12237191851E+04  0.12237191851E+04  0.25500000920E-02 0.  1.
    10030    2    1    2    0    0  0.00000000000E+00  0.00000000000E+00 -0.62080229235E+03  0.18266360778E+04  0.17179068294E+04 0.  0.
        1    1    3    3  502    0 -0.49776060047E+03  0.26175960658E+03  0.37993419453E+03  0.67870000678E+03  0.50400001928E-02 0. -1.
       -1    1    3    3    0  502  0.49776060047E+03 -0.26175960658E+03 -0.10007364869E+04  0.11479360710E+04  0.50400001928E-02 0.  1.
</event>
<event>
 5   0  0.5009762E-04  0.1730784E+04  0.7818609E-02  0.8743999E-01
        1   -1    0    0  501    0  0.00000000000E+00  0.00000000000E+00  0.10752220273E+04  0.10752220273E+04  0.50400001928E-02 0. -1.
       -1   -1    0    0    0  501  0.00000000000E+00  0.00000000000E+00 -0.69651062166E+03  0.69651062168E+03  0.50400001928E-02 0.  1.
    10030    2    1    2    0    0  0.00000000000E+00  0.00000000000E+00  0.37871140565E+03  0.17717326490E+04  0.17307842878E+04 0.  0.
        3    1    3    3  502    0 -0.79315697630E+03  0.19920566443E+02 -0.16437543586E+03  0.81025558446E+03  0.10100000352E+00 0.  1.
       -3    1    3    3    0  502  0.79315697630E+03 -0.19920566443E+02  0.54308684151E+03  0.96147706455E+03  0.10100000352E+00 0. -1.
</event>
<event>
 5   0  0.9625225E-04  0.1676115E+04  0.7818609E-02  0.8775105E-01
       -2   -1    0    0    0  501  0.00000000000E+00  0.00000000000E+00  0.33922223471E+03  0.33922223472E+03  0.25500000920E-02 0. -1.
        2   -1    0    0  501    0  0.00000000000E+00  0.00000000000E+00 -0.20704428962E+04  0.20704428962E+04  0.25500000920E-02 0.  1.
    10030    2    1    2    0    0  0.00000000000E+00  0.00000000000E+00 -0.17312206615E+04  0.24096651309E+04  0.16761148721E+04 0.  0.
        1    1    3    3  502    0 -0.36502219263E+03 -0.32841706213E+03 -0.18419861307E+04  0.19063084413E+04  0.50400001928E-02 0.  1.
       -1    1    3    3    0  502  0.36502219263E+03  0.32841706213E+03  0.11076546916E+03  0.50335668963E+03  0.50400001928E-02 0. -1.
</event>
<event>
 5   0  0.5074133E-04  0.1742853E+04  0.7818609E-02  0.8737294E-01
        1   -1    0    0  501    0  0.00000000000E+00  0.00000000000E+00  0.11503351834E+04  0.11503351834E+04  0.50400001928E-02 0.  1.
       -1   -1    0    0    0  501  0.00000000000E+00  0.00000000000E+00 -0.66014152419E+03  0.66014152421E+03  0.50400001928E-02 0. -1.
    10030    2    1    2    0    0  0.00000000000E+00  0.00000000000E+00  0.49019365918E+03  0.18104767076E+04  0.17428528582E+04 0.  0.
        1    1    3    3  502    0 -0.13735233894E+03  0.11640727001E+03 -0.64060955957E+03  0.66542988012E+03  0.50400001928E-02 0. -1.
       -1    1    3    3    0  502  0.13735233894E+03 -0.11640727001E+03  0.11308032188E+04  0.11450468275E+04  0.50400001928E-02 0.  1.
</event>
<event>
 5   0  0.1007187E-03  0.1684140E+04  0.7818609E-02  0.8770462E-01
       -2   -1    0    0    0  501  0.00000000000E+00  0.00000000000E+00  0.39813242633E+03  0.39813242634E+03  0.25500000920E-02 0. -1.
        2   -1    0    0  501    0  0.00000000000E+00  0.00000000000E+00 -0.17810207764E+04  0.17810207764E+04  0.25500000920E-02 0.  1.
    10030    2    1    2    0    0  0.00000000000E+00  0.00000000000E+00 -0.13828883501E+04  0.21791532027E+04  0.16841402828E+04 0.  0.
        5    1    3    3  502    0 -0.30983854854E+03 -0.51559410313E+03 -0.14538981534E+04  0.15734291009E+04  0.46999998093E+01 0.  1.
       -5    1    3    3    0  502  0.30983854854E+03  0.51559410313E+03  0.71009803293E+02  0.60572410180E+03  0.46999998093E+01 0. -1.
</event>
<event>
 5   0  0.4947006E-04  0.1754357E+04  0.7818609E-02  0.8730956E-01
       -1   -1    0    0    0  501  0.00000000000E+00  0.00000000000E+00  0.48556830713E+03  0.48556830715E+03  0.50400001928E-02 0.  1.
        1   -1    0    0  501    0  0.00000000000E+00  0.00000000000E+00 -0.15846221816E+04  0.15846221816E+04  0.50400001928E-02 0. -1.
    10030    2    1    2    0    0  0.00000000000E+00  0.00000000000E+00 -0.10990538745E+04  0.20701904888E+04  0.17543572159E+04 0.  0.
        2    1    3    3  502    0  0.68946853370E+03 -0.49827177602E+03 -0.29698803720E+03  0.90102359347E+03  0.25500000920E-02 0.  1.
       -2    1    3    3    0  502 -0.68946853370E+03  0.49827177602E+03 -0.80206583731E+03  0.11691668953E+04  0.25500000920E-02 0. -1.
</event>
<event>
 5   0  0.9312096E-04  0.1689773E+04  0.7818609E-02  0.8767218E-01
       -2   -1    0    0    0  501  0.00000000000E+00  0.00000000000E+00  0.42780649156E+03  0.42780649157E+03  0.25500000920E-02 0. -1.
        2   -1    0    0  501    0  0.00000000000E+00  0.00000000000E+00 -0.16685899493E+04  0.16685899493E+04  0.25500000920E-02 0.  1.
    10030    2    1    2    0    0  0.00000000000E+00  0.00000000000E+00 -0.12407834577E+04  0.20963964408E+04  0.16897734902E+04 0.  0.
        3    1    3    3  502    0  0.17314011969E+03 -0.13321522835E+03  0.39216143278E+03  0.44890355052E+03  0.10100000352E+00 0. -1.
       -3    1    3    3    0  502 -0.17314011969E+03  0.13321522835E+03 -0.16329448905E+04  0.16474928903E+04  0.10100000352E+00 0.  1.
</event>
<event>
 5   0  0.9610114E-04  0.1247527E+04  0.7818609E-02  0.9072244E-01
       -2   -1    0    0    0  501  0.00000000000E+00  0.00000000000E+00  0.60919641988E+03  0.60919641988E+03  0.25500000920E-02 0.  1.
        2   -1    0    0  501    0  0.00000000000E+00  0.00000000000E+00 -0.63867857029E+03  0.63867857029E+03  0.25500000920E-02 0. -1.
    10030    2    1    2    0    0  0.00000000000E+00  0.00000000000E+00 -0.29482150410E+02  0.12478749902E+04  0.12475266706E+04 0.  0.
        2    1    3    3  502    0  0.25661164520E+03 -0.50792439615E+03 -0.27024138477E+03  0.62997391589E+03  0.25500000920E-02 0. -1.
       -2    1    3    3    0  502 -0.25661164520E+03  0.50792439615E+03  0.24075923436E+03  0.61790107428E+03  0.25500000920E-02 0.  1.
</event>
<event>
 5   0  0.4947006E-04  0.1609499E+04  0.7818609E-02  0.8814733E-01
        1   -1    0    0  501    0  0.00000000000E+00  0.00000000000E+00  0.12121739852E+04  0.12121739852E+04  0.50400001928E-02 0. -1.
       -1   -1    0    0    0  501  0.00000000000E+00  0.00000000000E+00 -0.53426492589E+03  0.53426492592E+03  0.50400001928E-02 0.  1.
    10030    2    1    2    0    0  0.00000000000E+00  0.00000000000E+00  0.67790905929E+03  0.17464389111E+04  0.16094993562E+04 0.  0.
        2    1    3    3  502    0 -0.29273412968E+02  0.68330600807E+03  0.79913425960E+03  0.10518458054E+04  0.25500000920E-02 0. -1.
       -2    1    3    3    0  502  0.29273412968E+02 -0.68330600807E+03 -0.12122520031E+03  0.69459310576E+03  0.25500000920E-02 0.  1.
</event>
<event>
 5   0  0.1007187E-03  0.1697024E+04  0.7818609E-02  0.8763064E-01
        2   -1    0    0  501    0  0.00000000000E+00  0.00000000000E+00  0.12700543922E+04  0.12700543922E+04  0.25500000920E-02 0. -1.
       -2   -1    0    0    0  501  0.00000000000E+00  0.00000000000E+00 -0.56688321154E+03  0.56688321154E+03  0.25500000920E-02 0.  1.
    10030    2    1    2    0    0  0.00000000000E+00  0.00000000000E+00  0.70317118064E+03  0.18369376037E+04  0.16970238804E+04 0.  0.
        5    1    3    3  502    0  0.96612511379E+02  0.41148935015E+03 -0.44479861905E+03  0.61361662636E+03  0.46999998093E+01 0.  1.
       -5    1    3    3    0  502 -0.96612511379E+02 -0.41148935015E+03  0.11479697997E+04  0.12233209774E+04  0.46999998093E+01 0. -1.
</event>
<event>
 5   0  0.1007187E-03  0.1691502E+04  0.7818609E-02  0.8766226E-01
        2   -1    0    0  501    0  0.00000000000E+00  0.00000000000E+00  0.10155862268E+04  0.10155862268E+04  0.25500000920E-02 0. -1.
       -2   -1    0    0    0  501  0.00000000000E+00  0.00000000000E+00 -0.70431722582E+03  0.70431722582E+03  0.25500000920E-02 0.  1.
    10030    2    1    2    0    0  0.00000000000E+00  0.00000000000E+00  0.31126900099E+03  0.17199034526E+04  0.16915021417E+04 0.  0.
        5    1    3    3  502    0  0.13078651966E+03  0.56178200227E+03  0.78454117909E+03  0.97377157664E+03  0.46999998093E+01 0. -1.
       -5    1    3    3    0  502 -0.13078651966E+03 -0.56178200227E+03 -0.47327217810E+03  0.74613187598E+03  0.46999998093E+01 0.  1.
</event>
<event>
 5   0  0.9312096E-04  0.1757026E+04  0.7818609E-02  0.8729492E-01
        2   -1    0    0  501    0  0.00000000000E+00  0.00000000000E+00  0.10020674649E+04  0.10020674649E+04  0.25500000920E-02 0.  1.
       -2   -1    0    0    0  501  0.00000000000E+00  0.00000000000E+00 -0.77019264958E+03  0.77019264959E+03  0.25500000920E-02 0. -1.
    10030    2    1    2    0    0  0.00000000000E+00  0.00000000000E+00  0.23187481533E+03  0.17722601145E+04  0.17570258915E+04 0.  0.
        3    1    3    3  502    0 -0.42351308085E+03 -0.53708223363E+03 -0.44017247595E+03  0.81337105562E+03  0.10100000352E+00 0. -1.
       -3    1    3    3    0  502  0.42351308085E+03  0.53708223363E+03  0.67204729129E+03  0.95888905889E+03  0.10100000352E+00 0.  1.
</event>
<event>
 5   0  0.9625225E-04  0.1669708E+04  0.7818609E-02  0.8778832E-01
        2   -1    0    0  501    0  0.00000000000E+00  0.00000000000E+00  0.77218233759E+03  0.77218233759E+03  0.25500000920E-02 0.  1.
       -2   -1    0    0    0  501  0.00000000000E+00  0.00000000000E+00 -0.90261214073E+03  0.90261214073E+03  0.25500000920E-02 0. -1.
    10030    2    1    2    0    0  0.00000000000E+00  0.00000000000E+00 -0.13042980314E+03  0.16747944783E+04  0.16697079418E+04 0.  0.
        1    1    3    3  502    0  0.66215552365E+03 -0.20947597043E+03 -0.52993076639E+03  0.87358842533E+03  0.50400001928E-02 0. -1.
       -1    1    3    3    0  502 -0.66215552365E+03  0.20947597043E+03  0.39950096324E+03  0.80120605299E+03  0.50400001928E-02 0.  1.
</event>
<event>
 5   0  0.5059689E-04  0.1709052E+04  0.7818609E-02  0.8756219E-01
       -1   -1    0    0    0  501  0.00000000000E+00  0.00000000000E+00  0.52591441797E+03  0.52591441800E+03  0.50400001928E-02 0.  1.
        1   -1    0    0  501    0  0.00000000000E+00  0.00000000000E+00 -0.13884664804E+04  0.13884664804E+04  0.50400001928E-02 0. -1.
    10030    2    1    2    0    0  0.00000000000E+00  0.00000000000E+00 -0.86255206242E+03  0.19143808984E+04  0.17090518318E+04 0.  0.
        5    1    3    3  502    0 -0.64440671908E+03  0.70467970836E+02 -0.10549112532E+04  0.12381783379E+04  0.46999998093E+01 0. -1.
       -5    1    3    3    0  502  0.64440671908E+03 -0.70467970836E+02  0.19235919075E+03  0.67620256046E+03  0.46999998093E+01 0.  1.
</event>
<event>
 5   0  0.5074133E-04  0.1346501E+04  0.7818609E-02  0.8993481E-01
        1   -1    0    0  501    0  0.00000000000E+00  0.00000000000E+00  0.20006227676E+04  0.20006227676E+04  0.50400001928E-02 0. -1.
       -1   -1    0    0    0  501  0.00000000000E+00  0.00000000000E+00 -0.22656264097E+03  0.22656264103E+03  0.50400001928E-02 0.  1.
    10030    2    1    2    0    0  0.00000000000E+00  0.00000000000E+00  0.17740601266E+04  0.22271854087E+04  0.13465012111E+04 0.  0.
        1    1    3    3  502    0 -0.16137067243E+03  0.15820595356E+03  0.19360141702E+04  0.19491589173E+04  0.50400001928E-02 0. -1.
       -1    1    3    3    0  502  0.16137067243E+03 -0.15820595356E+03 -0.16195404353E+03  0.27802649137E+03  0.50400001928E-02 0.  1.
</event>
<event>
 5   0  0.9610114E-04  0.1574149E+04  0.7818609E-02  0.8836589E-01
        2   -1    0    0  501    0  0.00000000000E+00  0.00000000000E+00  0.18613590735E+04  0.18613590735E+04  0.25500000920E-02 0.  1.
       -2   -1    0    0    0  501  0.00000000000E+00  0.00000000000E+00 -0.33281382298E+03  0.33281382299E+03  0.25500000920E-02 0. -1.
    10030    2    1    2    0    0  0.00000000000E+00  0.00000000000E+00  0.15285452505E+04  0.21941728965E+04  0.15741486959E+04 0.  0.
        2    1    3    3  502    0  0.72588896984E+03  0.89136357791E+02  0.11697595469E+04  0.13795642371E+04  0.25500000920E-02 0. -1.
       -2    1    3    3    0  502 -0.72588896984E+03 -0.89136357791E+02  0.35878570365E+03  0.81460865939E+03  0.25500000920E-02 0.  1.
</event>
<event>
 5   0  0.4947006E-04  0.1709187E+04  0.7818609E-02  0.8756142E-01
        1   -1    0    0  501    0  0.00000000000E+00  0.00000000000E+00  0.10251251843E+04  0.10251251843E+04  0.50400001928E-02 0.  1.
       -1   -1    0    0    0  501  0.00000000000E+00  0.00000000000E+00 -0.71243025522E+03  0.71243025524E+03  0.50400001928E-02 0. -1.
    10030    2    1    2    0    0  0.00000000000E+00  0.00000000000E+00  0.31269492907E+03  0.17375554395E+04  0.17091871714E+04 0.  0.
        2    1    3    3  502    0  0.57960194457E+03 -0.16699243875E+03  0.77179236889E+03  0.97953476173E+03  0.25500000920E-02 0.  1.
       -2    1    3    3    0  502 -0.57960194457E+03  0.16699243875E+03 -0.45909743982E+03  0.75802067782E+03  0.25500000920E-02 0. -1.
</event>
<event>
 5   0  0.9625225E-04  0.1650787E+04  0.7818609E-02  0.8789941E-01
       -2   -1    0    0    0  501  0.00000000000E+00  0.00000000000E+00  0.81870531605E+03  0.81870531605E+03  0.25500000920E-02 0.  1.
        2   -1    0    0  501    0  0.00000000000E+00  0.00000000000E+00 -0.83213634310E+03  0.83213634311E+03  0.25500000920E-02 0. -1.
    10030    2    1    2    0    0  0.00000000000E+00  0.00000000000E+00 -0.13431027054E+02  0.16508416592E+04  0.16507870217E+04 0.  0.
        1    1    3    3  502    0 -0.47597677436E+03 -0.33638312635E+03  0.57774112382E+03  0.82066576851E+03  0.50400001928E-02 0.  1.
       -1    1    3    3    0  502  0.47597677436E+03  0.33638312635E+03 -0.59117215088E+03  0.83017589065E+03  0.50400001928E-02 0. -1.
</event>
<event>
 5   0  0.1007187E-03  0.1674613E+04  0.7818609E-02  0.8775978E-01
       -2   -1    0    0    0  501  0.00000000000E+00  0.00000000000E+00  0.83064021005E+03  0.83064021005E+03  0.25500000920E-02 0. -1.
        2   -1    0    0  501    0  0.00000000000E+00  0.00000000000E+00 -0.84402583616E+03  0.84402583616E+03  0.25500000920E-02 0.  1.
    10030    2    1    2    0    0  0.00000000000E+00  0.00000000000E+00 -0.13385626113E+02  0.16746660462E+04  0.16746125496E+04 0.  0.
        5    1    3    3  502    0  0.30514266471E+03  0.29954148966E+03  0.71320694971E+03  0.83157885553E+03  0.46999998093E+01 0. -1.
       -5    1    3    3    0  502 -0.30514266471E+03 -0.29954148966E+03 -0.72659257582E+03  0.84308719068E+03  0.46999998093E+01 0.  1.
</event>
<event>
 5   0  0.5059689E-04  0.1895357E+04  0.7818609E-02  0.8657171E-01
        1   -1    0    0  501    0  0.00000000000E+00  0.00000000000E+00  0.11308526632E+04  0.11308526632E+04  0.50400001928E-02 0.  1.
       -1   -1    0    0    0  501  0.00000000000E+00  0.00000000000E+00 -0.79417427355E+03  0.79417427356E+03  0.50400001928E-02 0. -1.
    10030    2    1    2    0    0  0.00000000000E+00  0.00000000000E+00  0.33667838961E+03  0.19250269367E+04  0.18953565282E+04 0.  0.
        5    1    3    3  502    0  0.12715298588E+03  0.98344434354E+02  0.11168931211E+04  0.11284112032E+04  0.46999998093E+01 0.  1.
       -5    1    3    3    0  502 -0.12715298588E+03 -0.98344434354E+02 -0.78021473151E+03  0.79661573349E+03  0.46999998093E+01 0. -1.
</event>
<event>
 5   0  0.5059689E-04  0.1712460E+04  0.7818609E-02  0.8754290E-01
       -1   -1    0    0    0  501  0.00000000000E+00  0.00000000000E+00  0.89490464828E+03  0.89490464829E+03  0.50400001928E-02 0.  1.
        1   -1    0    0  501    0  0.00000000000E+00  0.00000000000E+00 -0.81922647474E+03  0.81922647475E+03  0.50400001928E-02 0. -1.
    10030    2    1    2    0    0  0.00000000000E+00  0.00000000000E+00  0.75678173540E+02  0.17141311230E+04  0.17124597283E+04 0.  0.
        5    1    3    3  502    0  0.78440482390E+02 -0.79221286769E+03 -0.27767222777E+03  0.84313586869E+03  0.46999998093E+01 0. -1.
       -5    1    3    3    0  502 -0.78440482390E+02  0.79221286769E+03  0.35335040131E+03  0.87099525435E+03  0.46999998093E+01 0.  1.
</event>
<event>
 5   0  0.9625225E-04  0.1705791E+04  0.7818609E-02  0.8758069E-01
       -2   -1    0    0    0  501  0.00000000000E+00  0.00000000000E+00  0.16800742707E+04  0.16800742707E+04  0.25500000920E-02 0.  1.
        2   -1    0    0  501    0  0.00000000000E+00  0.00000000000E+00 -0.43297515803E+03  0.43297515804E+03  0.25500000920E-02 0. -1.
    10030    2    1    2    0    0  0.00000000000E+00  0.00000000000E+00  0.12470991127E+04  0.21130494288E+04  0.17057906353E+04 0.  0.
        1    1    3    3  502    0 -0.46143634347E+03 -0.68506141243E+03  0.88690512524E+03  0.12119543469E+04  0.50400001928E-02 0. -1.
       -1    1    3    3    0  502  0.46143634347E+03  0.68506141243E+03  0.36019398746E+03  0.90109508183E+03  0.50400001928E-02 0.  1.
</event>
<event>
 5   0  0.9284971E-04  0.1691242E+04  0.7818609E-02  0.8766375E-01
        2   -1    0    0  501    0  0.00000000000E+00  0.00000000000E+00  0.16281981010E+04  0.16281981010E+04  0.25500000920E-02 0. -1.
       -2   -1    0    0    0  501  0.00000000000E+00  0.00000000000E+00 -0.43918170472E+03  0.43918170473E+03  0.25500000920E-02 0.  1.
    10030    2    1    2    0    0  0.00000000000E+00  0.00000000000E+00  0.11890163963E+04  0.20673798057E+04  0.16912419314E+04 0.  0.
        4    1    3    3  502    0 -0.60278643606E+03 -0.42946984621E+03  0.94550654193E+02  0.74614829317E+03  0.12699999809E+01 0.  1.
       -4    1    3    3    0  502  0.60278643606E+03  0.42946984621E+03  0.10944657421E+04  0.13212315126E+04  0.12699999809E+01 0. -1.
</event>
<event>
 5   0  0.3523125E-04  0.1695126E+04  0.7818609E-02  0.8764149E-01
        4   -1    0    0  501    0  0.00000000000E+00  0.00000000000E+00  0.10715958505E+04  0.10715966031E+04  0.12699999809E+01 0.  1.
       -4   -1    0    0    0  501  0.00000000000E+00  0.00000000000E+00 -0.67036626935E+03  0.67036747235E+03  0.12699999809E+01 0. -1.
    10030    2    1    2    0    0  0.00000000000E+00  0.00000000000E+00  0.40122958116E+03  0.17419640754E+04  0.16951264446E+04 0.  0.
        5    1    3    3  502    0  0.28185413364E+03  0.72226087893E+03  0.55247711713E+03  0.95202709249E+03  0.46999998093E+01 0.  1.
       -5    1    3    3    0  502 -0.28185413364E+03 -0.72226087893E+03 -0.15124753597E+03  0.78993698294E+03  0.46999998093E+01 0. -1.
</event>
<event>
 5   0  0.5035495E-04  0.1722973E+04  0.7818609E-02  0.8748369E-01
        1   -1    0    0  501    0  0.00000000000E+00  0.00000000000E+00  0.11628855822E+04  0.11628855822E+04  0.50400001928E-02 0. -1.
       -1   -1    0    0    0  501  0.00000000000E+00  0.00000000000E+00 -0.63820467941E+03  0.63820467943E+03  0.50400001928E-02 0.  1.
    10030    2    1    2    0    0  0.00000000000E+00  0.00000000000E+00  0.52468090282E+03  0.18010902617E+04  0.17229730355E+04 0.  0.
        4    1    3    3  502    0 -0.29196113237E+03 -0.80987380618E+03  0.29573444089E+03  0.91027323215E+03  0.12699999809E+01 0.  1.
       -4    1    3    3    0  502  0.29196113237E+03  0.80987380618E+03  0.22894646193E+03  0.89081702952E+03  0.12699999809E+01 0. -1.
</event>
<event>
 5   0  0.9312096E-04  0.1800081E+04  0.7818609E-02  0.8706256E-01
       -2   -1    0    0    0  501  0.00000000000E+00  0.00000000000E+00  0.66447512335E+03  0.66447512335E+03  0.25500000920E-02 0.  1.
        2   -1    0    0  501    0  0.00000000000E+00  0.00000000000E+00 -0.12191172205E+04  0.12191172205E+04  0.25500000920E-02 0. -1.
    10030    2    1    2    0    0  0.00000000000E+00  0.00000000000E+00 -0.55464209714E+03  0.18835923438E+04  0.18000811820E+04 0.  0.
        3    1    3    3  502    0  0.27839536141E+03  0.85256483440E+03 -0.35633779402E+03  0.96506342162E+03  0.10100000352E+00 0.  1.
       -3    1    3    3    0  502 -0.27839536141E+03 -0.85256483440E+03 -0.19830430312E+03  0.91852892222E+03  0.10100000352E+00 0. -1.
</event>
<event>
 5   0  0.5074133E-04  0.1727941E+04  0.7818609E-02  0.8745587E-01
        1   -1    0    0  501    0  0.00000000000E+00  0.00000000000E+00  0.61931137522E+03  0.61931137524E+03  0.50400001928E-02 0.  1.
       -1   -1    0    0    0  501  0.00000000000E+00  0.00000000000E+00 -0.12052824707E+04  0.12052824707E+04  0.50400001928E-02 0. -1.
    10030    2    1    2    0    0  0.00000000000E+00  0.00000000000E+00 -0.58597109546E+03  0.18245938459E+04  0.17279411384E+04 0.  0.
        1    1    3    3  502    0 -0.83387761287E+03  0.41792659491E+02 -0.58419000030E+02  0.83696551854E+03  0.50400001928E-02 0. -1.
       -1    1    3    3    0  502  0.83387761287E+03 -0.41792659491E+02 -0.52755209543E+03  0.98762832739E+03  0.50400001928E-02 0.  1.
</event>
<event>
 5   0  0.9312096E-04  0.1706244E+04  0.7818609E-02  0.8757811E-01
        2   -1    0    0  501    0  0.00000000000E+00  0.00000000000E+00  0.11717680709E+04  0.11717680709E+04  0.25500000920E-02 0. -1.
       -2   -1    0    0    0  501  0.00000000000E+00  0.00000000000E+00 -0.62112750142E+03  0.62112750142E+03  0.25500000920E-02 0.  1.
    10030    2    1    2    0    0  0.00000000000E+00  0.00000000000E+00  0.55064056950E+03  0.17928955723E+04  0.17062442664E+04 0.  0.
        3    1    3    3  502    0  0.27624327841E+03 -0.77477296776E+03  0.51316436309E+03  0.96949531932E+03  0.10100000352E+00 0. -1.
       -3    1    3    3    0  502 -0.27624327841E+03  0.77477296776E+03  0.37476206409E+02  0.82340025303E+03  0.10100000352E+00 0.  1.
</event>
<event>
 5   0  0.4947006E-04  0.1688035E+04  0.7818609E-02  0.8768218E-01
       -1   -1    0    0    0  501  0.00000000000E+00  0.00000000000E+00  0.88200939499E+03  0.88200939501E+03  0.50400001928E-02 0. -1.
        1   -1    0    0  501    0  0.00000000000E+00  0.00000000000E+00 -0.80766173431E+03  0.80766173432E+03  0.50400001928E-02 0.  1.
    10030    2    1    2    0    0  0.00000000000E+00  0.00000000000E+00  0.74347660683E+02  0.16896711293E+04  0.16880346414E+04 0.  0.
        2    1    3    3  502    0  0.59951935237E+03 -0.48856257059E+03 -0.30116036106E+03  0.82994843354E+03  0.25500000920E-02 0. -1.
       -2    1    3    3    0  502 -0.59951935237E+03  0.48856257059E+03  0.37550802174E+03  0.85972269579E+03  0.25500000920E-02 0.  1.
</event>
<event>
 5   0  0.9625225E-04  0.1706271E+04  0.7818609E-02  0.8757796E-01
       -2   -1    0    0    0  501  0.00000000000E+00  0.00000000000E+00  0.50813848727E+03  0.50813848728E+03  0.25500000920E-02 0. -1.
        2   -1    0    0  501    0  0.00000000000E+00  0.00000000000E+00 -0.14323653121E+04  0.14323653121E+04  0.25500000920E-02 0.  1.
    10030    2    1    2    0    0  0.00000000000E+00  0.00000000000E+00 -0.92422682485E+03  0.19405037994E+04  0.17062707205E+04 0.  0.
        1    1    3    3  502    0  0.54855609128E+03  0.61781394684E+03 -0.70398778809E+03  0.10854522855E+04  0.50400001928E-02 0.  1.
       -1    1    3    3    0  502 -0.54855609128E+03 -0.61781394684E+03 -0.22023903676E+03  0.85505151396E+03  0.50400001928E-02 0. -1.
</event>
<event>
 5   0  0.9610114E-04  0.1677378E+04  0.7818609E-02  0.8774373E-01
       -2   -1    0    0    0  501  0.00000000000E+00  0.00000000000E+00  0.15296413674E+04  0.15296413674E+04  0.25500000920E-02 0. -1.
        2   -1    0    0  501    0  0.00000000000E+00  0.00000000000E+00 -0.45984593376E+03  0.45984593376E+03  0.25500000920E-02 0.  1.
    10030    2    1    2    0    0  0.00000000000E+00  0.00000000000E+00  0.10697954336E+04  0.19894873011E+04  0.16773781481E+04 0.  0.
        2    1    3    3  502    0 -0.33505933577E+03  0.56216710899E+03  0.11569940666E+04  0.13292599020E+04  0.25500000920E-02 0. -1.
       -2    1    3    3    0  502  0.33505933577E+03 -0.56216710899E+03 -0.87198633016E+02  0.66022739910E+03  0.25500000920E-02 0.  1.
</event>
<event>
 5   0  0.3523125E-04  0.1697425E+04  0.7818609E-02  0.8762834E-01
        3   -1    0    0  501    0  0.00000000000E+00  0.00000000000E+00  0.41409861908E+03  0.41409863140E+03  0.10100000352E+00 0. -1.
       -3   -1    0    0    0  501  0.00000000000E+00  0.00000000000E+00 -0.17394714314E+04  0.17394714344E+04  0.10100000352E+00 0.  1.
    10030    2    1    2    0    0  0.00000000000E+00  0.00000000000E+00 -0.13253728124E+04  0.21535700658E+04  0.16974247955E+04 0.  0.
        1    1    3    3  502    0  0.62431589754E+03  0.51725190171E+03 -0.98111652751E+03  0.12727566579E+04  0.50400001928E-02 0. -1.
       -1    1    3    3    0  502 -0.62431589754E+03 -0.51725190171E+03 -0.34425628485E+03  0.88081340784E+03  0.50400001928E-02 0.  1.
</event>
<event>
 5   0  0.5035495E-04  0.1727611E+04  0.7818609E-02  0.8745772E-01
       -1   -1    0    0    0  501  0.00000000000E+00  0.00000000000E+00  0.14333054489E+04  0.14333054489E+04  0.50400001928E-02 0. -1.
        1   -1    0    0  501    0  0.00000000000E+00  0.00000000000E+00 -0.52058684321E+03  0.52058684323E+03  0.50400001928E-02 0.  1.
    10030    2    1    2    0    0  0.00000000000E+00  0.00000000000E+00  0.91271860569E+03  0.19538922921E+04  0.17276110199E+04 0.  0.
        4    1    3    3  502    0 -0.27167678863E+03  0.35979885202E+03  0.12896806684E+04  0.13662142331E+04  0.12699999809E+01 0. -1.
       -4    1    3    3    0  502  0.27167678863E+03 -0.35979885202E+03 -0.37696206274E+03  0.58767805901E+03  0.12699999809E+01 0.  1.
</event>
<event>
 5   0  0.9284971E-04  0.1780518E+04  0.7818609E-02  0.8716729E-01
        2   -1    0    0  501    0  0.00000000000E+00  0.00000000000E+00  0.11622192579E+04  0.11622192579E+04  0.25500000920E-02 0.  1.
       -2   -1    0    0    0  501  0.00000000000E+00  0.00000000000E+00 -0.68193742503E+03  0.68193742503E+03  0.25500000920E-02 0. -1.
    10030    2    1    2    0    0  0.00000000000E+00  0.00000000000E+00  0.48028183286E+03  0.18441566829E+04  0.17805176866E+04 0.  0.
        4    1    3    3  502    0  0.52021206658E+03  0.25225593703E+03 -0.46103837260E+03  0.73946713645E+03  0.12699999809E+01 0. -1.
       -4    1    3    3    0  502 -0.52021206658E+03 -0.25225593703E+03  0.94132020546E+03  0.11046895465E+04  0.12699999809E+01 0.  1.
</event>
<event>
 5   0  0.1007187E-03  0.1536172E+04  0.7818609E-02  0.8860749E-01
        2   -1    0    0  501    0  0.00000000000E+00  0.00000000000E+00  0.21998072750E+04  0.21998072750E+04  0.25500000920E-02 0. -1.
       -2   -1    0    0    0  501  0.00000000000E+00  0.00000000000E+00 -0.26818527297E+03  0.26818527298E+03  0.25500000920E-02 0.  1.
    10030    2    1    2    0    0  0.00000000000E+00  0.00000000000E+00  0.19316220020E+04  0.24679925480E+04  0.15361717541E+04 0.  0.
        5    1    3    3  502    0 -0.70238176675E+03 -0.19596157229E+03  0.13533705783E+04  0.15373272574E+04  0.46999998093E+01 0. -1.
       -5    1    3    3    0  502  0.70238176675E+03  0.19596157229E+03  0.57825142372E+03  0.93066529059E+03  0.46999998093E+01 0.  1.
</event>
<event>
 5   0  0.5074133E-04  0.1669005E+04  0.7818609E-02  0.8779242E-01
        1   -1    0    0  501    0  0.00000000000E+00  0.00000000000E+00  0.19497233263E+04  0.19497233263E+04  0.50400001928E-02 0. -1.
       -1   -1    0    0    0  501  0.00000000000E+00  0.00000000000E+00 -0.35717600160E+03  0.35717600164E+03  0.50400001928E-02 0.  1.
    10030    2    1    2    0    0  0.00000000000E+00  0.00000000000E+00  0.15925473247E+04  0.23068993280E+04  0.16690049514E+04 0.  0.
        1    1    3    3  502    0  0.82334256768E+03 -0.13502326054E+03  0.77355685814E+03  0.11377673213E+04  0.50400001928E-02 0.  1.
       -1    1    3    3    0  502 -0.82334256768E+03  0.13502326054E+03  0.81899046660E+03  0.11691320067E+04  0.50400001928E-02 0. -1.
</event>
<event>
 5   0  0.9284971E-04  0.1691453E+04  0.7818609E-02  0.8766254E-01
       -2   -1    0    0    0  501  0.00000000000E+00  0.00000000000E+00  0.99475582491E+03  0.99475582491E+03  0.25500000920E-02 0.  1.
        2   -1    0    0  501    0  0.00000000000E+00  0.00000000000E+00 -0.71902375452E+03  0.71902375452E+03  0.25500000920E-02 0. -1.
    10030    2    1    2    0    0  0.00000000000E+00  0.00000000000E+00  0.27573207039E+03  0.17137795794E+04  0.16914527106E+04 0.  0.
        4    1    3    3  502    0  0.39740722541E+03  0.26253137304E+03 -0.57021221582E+03  0.74296622306E+03  0.12699999809E+01 0. -1.
       -4    1    3    3    0  502 -0.39740722541E+03 -0.26253137304E+03  0.84594428621E+03  0.97081335637E+03  0.12699999809E+01 0.  1.
</event>
<event>
 5   0  0.5009762E-04  0.1724604E+04  0.7818609E-02  0.8747455E-01
        1   -1    0    0  501    0  0.00000000000E+00  0.00000000000E+00  0.97838144702E+03  0.97838144703E+03  0.50400001928E-02 0.  1.
       -1   -1    0    0    0  501  0.00000000000E+00  0.00000000000E+00 -0.75999457496E+03  0.75999457498E+03  0.50400001928E-02 0. -1.
    10030    2    1    2    0    0  0.00000000000E+00  0.00000000000E+00  0.21838687206E+03  0.17383760220E+04  0.17246038293E+04 0.  0.
        3    1    3    3  502    0 -0.34233279442E+03 -0.35557882874E+03 -0.60351486212E+03  0.77965264354E+03  0.10100000352E+00 0. -1.
       -3    1    3    3    0  502  0.34233279442E+03  0.35557882874E+03  0.82190173418E+03  0.95872337847E+03  0.10100000352E+00 0.  1.
</event>
<event>
 5   0  0.4947006E-04  0.1721602E+04  0.7818609E-02  0.8749139E-01
       -1   -1    0    0    0  501  0.00000000000E+00  0.00000000000E+00  0.76290675987E+03  0.76290675989E+03  0.50400001928E-02 0. -1.
        1   -1    0    0  501    0  0.00000000000E+00  0.00000000000E+00 -0.97125727249E+03  0.97125727250E+03  0.50400001928E-02 0.  1.
    10030    2    1    2    0    0  0.00000000000E+00  0.00000000000E+00 -0.20835051262E+03  0.17341640324E+04  0.17216024382E+04 0.  0.
        2    1    3    3  502    0 -0.78378692356E+03  0.32703888014E+03 -0.24556454834E+03  0.88406918172E+03  0.25500000920E-02 0. -1.
       -2    1    3    3    0  502  0.78378692356E+03 -0.32703888014E+03  0.37214035722E+02  0.85009485066E+03  0.25500000920E-02 0.  1.
</event>
<event>
 5   0  0.4947006E-04  0.1665724E+04  0.7818609E-02  0.8781158E-01
       -1   -1    0    0    0  501  0.00000000000E+00  0.00000000000E+00  0.47400912276E+03  0.47400912278E+03  0.50400001928E-02 0. -1.
        1   -1    0    0  501    0  0.00000000000E+00  0.00000000000E+00 -0.14633871360E+04  0.14633871360E+04  0.50400001928E-02 0.  1.
    10030    2    1    2    0    0  0.00000000000E+00  0.00000000000E+00 -0.98937801323E+03  0.19373962588E+04  0.16657236897E+04 0.  0.
        2    1    3    3  502    0  0.66998387817E+03  0.46780376300E+03 -0.30736161974E+03  0.87303489219E+03  0.25500000920E-02 0.  1.
       -2    1    3    3    0  502 -0.66998387817E+03 -0.46780376300E+03 -0.68201639349E+03  0.10643613666E+04  0.25500000920E-02 0. -1.
</event>
<event>
 5   0  0.5074133E-04  0.1697033E+04  0.7818609E-02  0.8763058E-01
        1   -1    0    0  501    0  0.00000000000E+00  0.00000000000E+00  0.13532690138E+04  0.13532690138E+04  0.50400001928E-02 0. -1.
       -1   -1    0    0    0  501  0.00000000000E+00  0.00000000000E+00 -0.53203064855E+03  0.53203064857E+03  0.50400001928E-02 0.  1.
    10030    2    1    2    0    0  0.00000000000E+00  0.00000000000E+00  0.82123836528E+03  0.18852996624E+04  0.16970334011E+04 0.  0.
        1    1    3    3  502    0  0.74576073414E+03 -0.23005724176E+03  0.40666362303E+02  0.78149802311E+03  0.50400001928E-02 0.  1.
       -1    1    3    3    0  502 -0.74576073414E+03  0.23005724176E+03  0.78057200297E+03  0.11038016393E+04  0.50400001928E-02 0. -1.
</event>
<event>
 5   0  0.5059689E-04  0.1590680E+04  0.7818609E-02  0.8826294E-01
       -1   -1    0    0    0  501  0.00000000000E+00  0.00000000000E+00  0.55005871738E+03  0.55005871741E+03  0.50400001928E-02 0. -1.
        1   -1    0    0  501    0  0.00000000000E+00  0.00000000000E+00 -0.11499960510E+04  0.11499960510E+04  0.50400001928E-02 0.  1.
    10030    2    1    2    0    0  0.00000000000E+00  0.00000000000E+00 -0.59993733364E+03  0.17000547684E+04  0.15906795439E+04 0.  0.
        5    1    3    3  502    0  0.20452040409E+03 -0.42597985346E+03  0.38375034279E+03  0.60874776947E+03  0.46999998093E+01 0. -1.
       -5    1    3    3    0  502 -0.20452040409E+03  0.42597985346E+03 -0.98368767643E+03  0.10913069990E+04  0.46999998093E+01 0.  1.
</event>
<event>
 5   0  0.4947006E-04  0.1275029E+04  0.7818609E-02  0.9049605E-01
        1   -1    0    0  501    0  0.00000000000E+00  0.00000000000E+00  0.56884740887E+03  0.56884740889E+03  0.50400001928E-02 0.  1.
       -1   -1    0    0    0  501  0.00000000000E+00  0.00000000000E+00 -0.71447080321E+03  0.71447080323E+03  0.50400001928E-02 0. -1.
    10030    2    1    2    0    0  0.00000000000E+00  0.00000000000E+00 -0.14562339434E+03  0.12833182121E+04  0.12750291999E+04 0.  0.
        2    1    3    3  502    0  0.44473231613E+03 -0.37522478569E+03  0.18935118636E+03  0.61191040569E+03  0.25500000920E-02 0.  1.
       -2    1    3    3    0  502 -0.44473231613E+03  0.37522478569E+03 -0.33497458071E+03  0.67140780643E+03  0.25500000920E-02 0. -1.
</event>
<event>
 5   0  0.9284971E-04  0.1659535E+04  0.7818609E-02  0.8784785E-01
       -2   -1    0    0    0  501  0.00000000000E+00  0.00000000000E+00  0.12161829156E+04  0.12161829156E+04  0.25500000920E-02 0. -1.
        2   -1    0    0  501    0  0.00000000000E+00  0.00000000000E+00 -0.56612733895E+03  0.56612733896E+03  0.25500000920E-02 0.  1.
    10030    2    1    2    0    0  0.00000000000E+00  0.00000000000E+00  0.65005557663E+03  0.17823102546E+04  0.16595353539E+04 0.  0.
        4    1    3    3  502    0 -0.64617644895E+03  0.26830208663E+03 -0.15404834456E+03  0.71642342105E+03  0.12699999809E+01 0.  1.
       -4    1    3    3    0  502  0.64617644895E+03 -0.26830208663E+03  0.80410392119E+03  0.10658868335E+04  0.12699999809E+01 0. -1.
</event>
<event>
 5   0  0.9284971E-04  0.1848267E+04  0.7818609E-02  0.8681044E-01
       -2   -1    0    0    0  501  0.00000000000E+00  0.00000000000E+00  0.44806087422E+03  0.44806087423E+03  0.25500000920E-02 0. -1.
        2   -1    0    0  501    0  0.00000000000E+00  0.00000000000E+00 -0.19060426378E+04  0.19060426378E+04  0.25500000920E-02 0.  1.
    10030    2    1    2    0    0  0.00000000000E+00  0.00000000000E+00 -0.14579817636E+04  0.23541035121E+04  0.18482674380E+04 0.  0.
        4    1    3    3  502    0  0.26084809798E+03 -0.50828775233E+02  0.39834019590E+03  0.47885469527E+03  0.12699999809E+01 0. -1.
       -4    1    3    3    0  502 -0.26084809798E+03  0.50828775233E+02 -0.18563219595E+04  0.18752488168E+04  0.12699999809E+01 0.  1.
</event>
<event>
 5   0  0.9625225E-04  0.1648159E+04  0.7818609E-02  0.8791497E-01
        2   -1    0    0  501    0  0.00000000000E+00  0.00000000000E+00  0.20101850454E+04  0.20101850454E+04  0.25500000920E-02 0.  1.
       -2   -1    0    0    0  501  0.00000000000E+00  0.00000000000E+00 -0.33783293732E+03  0.33783293733E+03  0.25500000920E-02 0. -1.
    10030    2    1    2    0    0  0.00000000000E+00  0.00000000000E+00  0.16723521081E+04  0.23480179827E+04  0.16481586313E+04 0.  0.
        1    1    3    3  502    0  0.24813120965E+03 -0.52378906030E+03  0.16707504676E+04  0.17684261935E+04  0.50400001928E-02 0.  1.
       -1    1    3    3    0  502 -0.24813120965E+03  0.52378906030E+03  0.16016405157E+01  0.57959178926E+03  0.50400001928E-02 0. -1.
</event>
<event>
 5   0  0.5035495E-04  0.1804719E+04  0.7818609E-02  0.8703794E-01
        1   -1    0    0  501    0  0.00000000000E+00  0.00000000000E+00  0.98918680567E+03  0.98918680568E+03  0.50400001928E-02 0. -1.
       -1   -1    0    0    0  501  0.00000000000E+00  0.00000000000E+00 -0.82315398228E+03  0.82315398229E+03  0.50400001928E-02 0.  1.
    10030    2    1    2    0    0  0.00000000000E+00  0.00000000000E+00  0.16603282339E+03  0.18123407880E+04  0.18047194334E+04 0.  0.
        4    1    3    3  502    0  0.78893284691E+03 -0.27109034168E+03  0.42848435942E+03  0.93781952925E+03  0.12699999809E+01 0. -1.
       -4    1    3    3    0  502 -0.78893284691E+03  0.27109034168E+03 -0.26245153603E+03  0.87452125872E+03  0.12699999809E+01 0.  1.
</event>
<event>
 5   0  0.5035495E-04  0.1653891E+04  0.7818609E-02  0.8788108E-01
       -1   -1    0    0    0  501  0.00000000000E+00  0.00000000000E+00  0.63828697307E+03  0.63828697309E+03  0.50400001928E-02 0.  1.
        1   -1    0    0  501    0  0.00000000000E+00  0.00000000000E+00 -0.10713657315E+04  0.10713657315E+04  0.50400001928E-02 0. -1.
    10030    2    1    2    0    0  0.00000000000E+00  0.00000000000E+00 -0.43307875839E+03  0.17096527046E+04  0.16538909152E+04 0.  0.
        4    1    3    3  502    0 -0.75134995027E+03  0.80728192374E+02  0.13063115455E+03  0.76688323769E+03  0.12699999809E+01 0. -1.
       -4    1    3    3    0  502  0.75134995027E+03 -0.80728192374E+02 -0.56370991294E+03  0.94276946687E+03  0.12699999809E+01 0.  1.
</event>
<event>
 5   0  0.1007187E-03  0.1679029E+04  0.7818609E-02  0.8773416E-01
       -2   -1    0    0    0  501  0.00000000000E+00  0.00000000000E+00  0.60792827135E+03  0.60792827135E+03  0.25500000920E-02 0.  1.
        2   -1    0    0  501    0  0.00000000000E+00  0.00000000000E+00 -0.11593214716E+04  0.11593214716E+04  0.25500000920E-02 0. -1.
    10030    2    1    2    0    0  0.00000000000E+00  0.00000000000E+00 -0.55139320022E+03  0.17672497429E+04  0.16790286456E+04 0.  0.
        5    1    3    3  502    0 -0.74386372022E+03  0.35924178437E+03 -0.43313645775E+03  0.93274711199E+03  0.46999998093E+01 0. -1.
       -5    1    3    3    0  502  0.74386372022E+03 -0.35924178437E+03 -0.11825674247E+03  0.83450263093E+03  0.46999998093E+01 0.  1.
</event>
<event>
 5   0  0.5059689E-04  0.9815341E+03  0.7818609E-02  0.9329033E-01
        1   -1    0    0  501    0  0.00000000000E+00  0.00000000000E+00  0.22020252862E+03  0.22020252868E+03  0.50400001928E-02 0.  1.
       -1   -1    0    0    0  501  0.00000000000E+00  0.00000000000E+00 -0.10937761803E+04  0.10937761803E+04  0.50400001928E-02 0. -1.
    10030    2    1    2    0    0  0.00000000000E+00  0.00000000000E+00 -0.87357365172E+03  0.13139787090E+04  0.98153406605E+03 0.  0.
        5    1    3    3  502    0 -0.18809090253E+03  0.13488352920E+03 -0.10160869848E+04  0.10421260023E+04  0.46999998093E+01 0. -1.
       -5    1    3    3    0  502  0.18809090253E+03 -0.13488352920E+03  0.14251333304E+03  0.27185270673E+03  0.46999998093E+01 0.  1.
</event>
<event>
 5   0  0.3523125E-04  0.1698321E+04  0.7818609E-02  0.8762323E-01
        3   -1    0    0  501    0  0.00000000000E+00  0.00000000000E+00  0.12104912547E+04  0.12104912589E+04  0.10100000352E+00 0.  1.
       -3   -1    0    0    0  501  0.00000000000E+00  0.00000000000E+00 -0.59568665725E+03  0.59568666581E+03  0.10100000352E+00 0. -1.
    10030    2    1    2    0    0  0.00000000000E+00  0.00000000000E+00  0.61480459746E+03  0.18061779247E+04  0.16983209363E+04 0.  0.
        2    1    3    3  502    0 -0.28218784891E+03  0.77657606496E+03  0.51573353994E+03  0.97400279823E+03  0.25500000920E-02 0.  1.
       -2    1    3    3    0  502  0.28218784891E+03 -0.77657606496E+03  0.99071057526E+02  0.83217512651E+03  0.25500000920E-02 0. -1.
</event>
<event>
 5   0  0.9610114E-04  0.1700408E+04  0.7818609E-02  0.8761132E-01
        2   -1    0    0  501    0  0.00000000000E+00  0.00000000000E+00  0.15427267600E+04  0.15427267600E+04  0.25500000920E-02 0. -1.
       -2   -1    0    0    0  501  0.00000000000E+00  0.00000000000E+00 -0.46855123934E+03  0.46855123935E+03  0.25500000920E-02 0.  1.
    10030    2    1    2    0    0  0.00000000000E+00  0.00000000000E+00  0.10741755206E+04  0.20112779993E+04  0.17004076398E+04 0.  0.
        2    1    3    3  502    0  0.72754316638E+03  0.43432838534E+03  0.45440585859E+03  0.96148057161E+03  0.25500000920E-02 0. -1.
       -2    1    3    3    0  502 -0.72754316638E+03 -0.43432838534E+03  0.61976966205E+03  0.10497974277E+04  0.25500000920E-02 0.  1.
</event>
<event>
 5   0  0.5009762E-04  0.1705145E+04  0.7818609E-02  0.8758436E-01
       -1   -1    0    0    0  501  0.00000000000E+00  0.00000000000E+00  0.88488469805E+03  0.88488469807E+03  0.50400001928E-02 0. -1.
        1   -1    0    0  501    0  0.00000000000E+00  0.00000000000E+00 -0.82143988886E+03  0.82143988888E+03  0.50400001928E-02 0.  1.
    10030    2    1    2    0    0  0.00000000000E+00  0.00000000000E+00  0.63444809192E+02  0.17063245869E+04  0.17051446719E+04 0.  0.
        3    1    3    3  502    0 -0.35403847613E+03  0.76471035508E+03  0.16125079279E+03  0.85797843686E+03  0.10100000352E+00 0. -1.
       -3    1    3    3    0  502  0.35403847613E+03 -0.76471035508E+03 -0.97805983597E+02  0.84834615009E+03  0.10100000352E+00 0.  1.
</event>
<event>
 5   0  0.9312096E-04  0.1629101E+04  0.7818609E-02  0.8802867E-01
       -2   -1    0    0    0  501  0.00000000000E+00  0.00000000000E+00  0.38427533325E+03  0.38427533326E+03  0.25500000920E-02 0.  1.
        2   -1    0    0  501    0  0.00000000000E+00  0.00000000000E+00 -0.17266073484E+04  0.17266073484E+04  0.25500000920E-02 0. -1.
    10030    2    1    2    0    0  0.00000000000E+00  0.00000000000E+00 -0.13423320152E+04  0.21108826817E+04  0.16291011193E+04 0.  0.
        3    1    3    3  502    0  0.96718812974E+02  0.70644719605E+02  0.37280326308E+03  0.39157054071E+03  0.10100000352E+00 0.  1.
       -3    1    3    3    0  502 -0.96718812974E+02 -0.70644719605E+02 -0.17151352782E+04  0.17193121410E+04  0.10100000352E+00 0. -1.
</event>
<event>
 5   0  0.9284971E-04  0.1684416E+04  0.7818609E-02  0.8770303E-01
        2   -1    0    0  501    0  0.00000000000E+00  0.00000000000E+00  0.89833760768E+03  0.89833760768E+03  0.25500000920E-02 0.  1.
       -2   -1    0    0    0  501  0.00000000000E+00  0.00000000000E+00 -0.78958564352E+03  0.78958564352E+03  0.25500000920E-02 0. -1.
    10030    2    1    2    0    0  0.00000000000E+00  0.00000000000E+00  0.10875196416E+03  0.16879232512E+04  0.16844161933E+04 0.  0.
        4    1    3    3  502    0 -0.63252653837E+03  0.52574250629E+03 -0.12715820304E+03  0.83226547817E+03  0.12699999809E+01 0. -1.
       -4    1    3    3    0  502  0.63252653837E+03 -0.52574250629E+03  0.23591016720E+03  0.85565777303E+03  0.12699999809E+01 0.  1.
</event>
<event>
 5   0  0.9284971E-04  0.1713974E+04  0.7818609E-02  0.8753435E-01
        2   -1    0    0  501    0  0.00000000000E+00  0.00000000000E+00  0.11020618011E+04  0.11020618011E+04  0.25500000920E-02 0.  1.
       -2   -1    0    0    0  501  0.00000000000E+00  0.00000000000E+00 -0.66641131115E+03  0.66641131116E+03  0.25500000920E-02 0. -1.
    10030    2    1    2    0    0  0.00000000000E+00  0.00000000000E+00  0.43565048994E+03  0.17684731123E+04  0.17139736869E+04 0.  0.
        4    1    3    3  502    0  0.61329027829E+03  0.46416062819E+02  0.83358031033E+03  0.10359233384E+04  0.12699999809E+01 0.  1.
       -4    1    3    3    0  502 -0.61329027829E+03 -0.46416062819E+02 -0.39792982039E+03  0.73254977387E+03  0.12699999809E+01 0. -1.
</event>
<event>
 5   0  0.4947006E-04  0.1232090E+04  0.7818609E-02  0.9085223E-01
       -1   -1    0    0    0  501  0.00000000000E+00  0.00000000000E+00  0.61629501377E+03  0.61629501379E+03  0.50400001928E-02 0.  1.
        1   -1    0    0  501    0  0.00000000000E+00  0.00000000000E+00 -0.61579498488E+03  0.61579498490E+03  0.50400001928E-02 0. -1.
    10030    2    1    2    0    0  0.00000000000E+00  0.00000000000E+00  0.50002888733E+00  0.12320899987E+04  0.12320898972E+04 0.  0.
        2    1    3    3  502    0 -0.29105983922E+03  0.44202441171E+03  0.31554350394E+03  0.61617295741E+03  0.25500000920E-02 0.  1.
       -2    1    3    3    0  502  0.29105983922E+03 -0.44202441171E+03 -0.31504347505E+03  0.61591704128E+03  0.25500000920E-02 0. -1.
</event>
<event>
 5   0  0.9625225E-04  0.1694259E+04  0.7818609E-02  0.8764645E-01
       -2   -1    0    0    0  501  0.00000000000E+00  0.00000000000E+00  0.11049429092E+04  0.11049429092E+04  0.25500000920E-02 0.  1.
        2   -1    0    0  501    0  0.00000000000E+00  0.00000000000E+00 -0.64947116010E+03  0.64947116011E+03  0.25500000920E-02 0. -1.
    10030    2    1    2    0    0  0.00000000000E+00  0.00000000000E+00  0.45547174909E+03  0.17544140693E+04  0.16942591928E+04 0.  0.
        1    1    3    3  502    0  0.20891378431E+03  0.10630339046E+03  0.10706924879E+04  0.10960509950E+04  0.50400001928E-02 0.  1.
       -1    1    3    3    0  502 -0.20891378431E+03 -0.10630339046E+03 -0.61522073879E+03  0.65836307427E+03  0.50400001928E-02 0. -1.
</event>
<event>
 5   0  0.5074133E-04  0.1640254E+04  0.7818609E-02  0.8796193E-01
       -1   -1    0    0    0  501  0.00000000000E+00  0.00000000000E+00  0.45935700870E+03  0.45935700873E+03  0.50400001928E-02 0. -1.
        1   -1    0    0  501    0  0.00000000000E+00  0.00000000000E+00 -0.14642379328E+04  0.14642379328E+04  0.50400001928E-02 0.  1.
    10030    2    1    2    0    0  0.00000000000E+00  0.00000000000E+00 -0.10048809241E+04  0.19235949416E+04  0.16402535863E+04 0.  0.
        1    1    3    3  502    0 -0.30317289935E+03 -0.41677423075E+03 -0.12506036033E+04  0.13526359225E+04  0.50400001928E-02 0.  1.
       -1    1    3    3    0  502  0.30317289935E+03  0.41677423075E+03  0.24572267918E+03  0.57095901902E+03  0.50400001928E-02 0. -1.
</event>
<event>
 5   0  0.5059689E-04  0.1706075E+04  0.7818609E-02  0.8757907E-01
       -1   -1    0    0    0  501  0.00000000000E+00  0.00000000000E+00  0.70925202089E+03  0.70925202091E+03  0.50400001928E-02 0. -1.
        1   -1    0    0  501    0  0.00000000000E+00  0.00000000000E+00 -0.10259727709E+04  0.10259727709E+04  0.50400001928E-02 0.  1.
    10030    2    1    2    0    0  0.00000000000E+00  0.00000000000E+00 -0.31672075004E+03  0.17352247918E+04  0.17060753338E+04 0.  0.
        5    1    3    3  502    0  0.31573779996E+03 -0.18312550925E+02  0.64740354593E+03  0.72054087263E+03  0.46999998093E+01 0. -1.
       -5    1    3    3    0  502 -0.31573779996E+03  0.18312550925E+02 -0.96412429597E+03  0.10146839192E+04  0.46999998093E+01 0.  1.
</event>
<event>
 5   0  0.9625225E-04  0.1658882E+04  0.7818609E-02  0.8785170E-01
        2   -1    0    0  501    0  0.00000000000E+00  0.00000000000E+00  0.21259706445E+04  0.21259706445E+04  0.25500000920E-02 0. -1.
       -2   -1    0    0    0  501  0.00000000000E+00  0.00000000000E+00 -0.32360371031E+03  0.32360371032E+03  0.25500000920E-02 0.  1.
    10030    2    1    2    0    0  0.00000000000E+00  0.00000000000E+00  0.18023669342E+04  0.24495743548E+04  0.16588815372E+04 0.  0.
        1    1    3    3  502    0  0.68561104418E+03 -0.40613223997E+03  0.12410232387E+04  0.14748371366E+04  0.50400001928E-02 0. -1.
       -1    1    3    3    0  502 -0.68561104418E+03  0.40613223997E+03  0.56134369545E+03  0.97473721827E+03  0.50400001928E-02 0.  1.
</event>
<event>
 5   0  0.5059689E-04  0.1644259E+04  0.7818609E-02  0.8793810E-01
        1   -1    0    0  501    0  0.00000000000E+00  0.00000000000E+00  0.23310881048E+04  0.23310881048E+04  0.50400001928E-02 0.  1.
       -1   -1    0    0    0  501  0.00000000000E+00  0.00000000000E+00 -0.28994902178E+03  0.28994902183E+03  0.50400001928E-02 0. -1.
    10030    2    1    2    0    0  0.00000000000E+00  0.00000000000E+00  0.20411390830E+04  0.26210371266E+04  0.16442587579E+04 0.  0.
        5    1    3    3  502    0  0.73496472614E+03 -0.26054940042E+03  0.60545547372E+03  0.98724746614E+03  0.46999998093E+01 0. -1.
       -5    1    3    3    0  502 -0.73496472614E+03  0.26054940042E+03  0.14356836093E+04  0.16337896605E+04  0.46999998093E+01 0.  1.
</event>
<event>
 5   0  0.5009762E-04  0.1696370E+04  0.7818609E-02  0.8763437E-01
        1   -1    0    0  501    0  0.00000000000E+00  0.00000000000E+00  0.13218039181E+04  0.13218039182E+04  0.50400001928E-02 0. -1.
       -1   -1    0    0    0  501  0.00000000000E+00  0.00000000000E+00 -0.54426968097E+03  0.54426968099E+03  0.50400001928E-02 0.  1.
    10030    2    1    2    0    0  0.00000000000E+00  0.00000000000E+00  0.77753423718E+03  0.18660735991E+04  0.16963700031E+04 0.  0.
        3    1    3    3  502    0 -0.75035369658E+03  0.89537780547E+02  0.81248947888E+03  0.11095885939E+04  0.10100000352E+00 0. -1.
       -3    1    3    3    0  502  0.75035369658E+03 -0.89537780547E+02 -0.34955241693E+02  0.75648500530E+03  0.10100000352E+00 0.  1.
</event>
<event>
 5   0  0.5035495E-04  0.1658908E+04  0.7818609E-02  0.8785154E-01
       -1   -1    0    0    0  501  0.00000000000E+00  0.00000000000E+00  0.47438587946E+03  0.47438587949E+03  0.50400001928E-02 0. -1.
        1   -1    0    0  501    0  0.00000000000E+00  0.00000000000E+00 -0.14502836714E+04  0.14502836714E+04  0.50400001928E-02 0.  1.
    10030    2    1    2    0    0  0.00000000000E+00  0.00000000000E+00 -0.97589779190E+03  0.19246695509E+04  0.16589081891E+04 0.  0.
        4    1    3    3  502    0  0.46054566228E+03 -0.19058160276E+03  0.28126525979E+03  0.57230709730E+03  0.12699999809E+01 0. -1.
       -4    1    3    3    0  502 -0.46054566228E+03  0.19058160276E+03 -0.12571630517E+04  0.13523624536E+04  0.12699999809E+01 0.  1.
</event>
<event>
 5   0  0.1007187E-03  0.1686423E+04  0.7818609E-02  0.8769146E-01
        2   -1    0    0  501    0  0.00000000000E+00  0.00000000000E+00  0.17350480976E+04  0.17350480976E+04  0.25500000920E-02 0. -1.
       -2   -1    0    0    0  501  0.00000000000E+00  0.00000000000E+00 -0.40979038288E+03  0.40979038289E+03  0.25500000920E-02 0.  1.
    10030    2    1    2    0    0  0.00000000000E+00  0.00000000000E+00  0.13252577147E+04  0.21448384805E+04  0.16864234631E+04 0.  0.
        5    1    3    3  502    0 -0.63741706323E+03 -0.55092718640E+03  0.70599529693E+03  0.10992145953E+04  0.46999998093E+01 0. -1.
       -5    1    3    3    0  502  0.63741706323E+03  0.55092718640E+03  0.61926241778E+03  0.10456238852E+04  0.46999998093E+01 0.  1.
</event>
<event>
 5   0  0.9625225E-04  0.1761841E+04  0.7818609E-02  0.8726860E-01
       -2   -1    0    0    0  501  0.00000000000E+00  0.00000000000E+00  0.42013718912E+03  0.42013718913E+03  0.25500000920E-02 0. -1.
        2   -1    0    0  501    0  0.00000000000E+00  0.00000000000E+00 -0.18470645377E+04  0.18470645377E+04  0.25500000920E-02 0.  1.
    10030    2    1    2    0    0  0.00000000000E+00  0.00000000000E+00 -0.14269273486E+04  0.22672017269E+04  0.17618405183E+04 0.  0.
        1    1    3    3  502    0 -0.15454452934E+03 -0.86360784259E+03 -0.81574889534E+03  0.11979769520E+04  0.50400001928E-02 0.  1.
       -1    1    3    3    0  502  0.15454452934E+03  0.86360784259E+03 -0.61117845328E+03  0.10692247748E+04  0.50400001928E-02 0. -1.
</event>
<event>
 5   0  0.4947006E-04  0.1664048E+04  0.7818609E-02  0.8782139E-01
        1   -1    0    0  501    0  0.00000000000E+00  0.00000000000E+00  0.23520295534E+04  0.23520295534E+04  0.50400001928E-02 0.  1.
       -1   -1    0    0    0  501  0.00000000000E+00  0.00000000000E+00 -0.29432626438E+03  0.29432626442E+03  0.50400001928E-02 0. -1.
    10030    2    1    2    0    0  0.00000000000E+00  0.00000000000E+00  0.20577032890E+04  0.26463558179E+04  0.16640481630E+04 0.  0.
        2    1    3    3  502    0  0.10175488299E+03 -0.60948818588E+03  0.14278354223E+03  0.63420583794E+03  0.25500000920E-02 0. -1.
       -2    1    3    3    0  502 -0.10175488299E+03  0.60948818588E+03  0.19149197468E+04  0.20121499799E+04  0.25500000920E-02 0.  1.
</event>
<event>
 5   0  0.5059689E-04  0.1648035E+04  0.7818609E-02  0.8791570E-01
       -1   -1    0    0    0  501  0.00000000000E+00  0.00000000000E+00  0.87248792012E+03  0.87248792014E+03  0.50400001928E-02 0.  1.
        1   -1    0    0  501    0  0.00000000000E+00  0.00000000000E+00 -0.77823935380E+03  0.77823935382E+03  0.50400001928E-02 0. -1.
    10030    2    1    2    0    0  0.00000000000E+00  0.00000000000E+00  0.94248566318E+02  0.16507272740E+04  0.16480345084E+04 0.  0.
        5    1    3    3  502    0  0.10039664964E+03  0.42272362757E+03 -0.65416797168E+03  0.78532323137E+03  0.46999998093E+01 0. -1.
       -5    1    3    3    0  502 -0.10039664964E+03 -0.42272362757E+03  0.74841653800E+03  0.86540404258E+03  0.46999998093E+01 0.  1.
</event>
<event>
 5   0  0.9312096E-04  0.1701496E+04  0.7818609E-02  0.8760511E-01
        2   -1    0    0  501    0  0.00000000000E+00  0.00000000000E+00  0.20709205874E+04  0.20709205874E+04  0.25500000920E-02 0.  1.
       -2   -1    0    0    0  501  0.00000000000E+00  0.00000000000E+00 -0.34949307542E+03  0.34949307543E+03  0.25500000920E-02 0. -1.
    10030    2    1    2    0    0  0.00000000000E+00  0.00000000000E+00  0.17214275119E+04  0.24204136628E+04  0.17014962886E+04 0.  0.
        3    1    3    3  502    0  0.69128743391E+03  0.35161551748E+03  0.36331824384E+03  0.85645311893E+03  0.10100000352E+00 0. -1.
       -3    1    3    3    0  502 -0.69128743391E+03 -0.35161551748E+03  0.13581092681E+04  0.15639605438E+04  0.10100000352E+00 0.  1.
</event>
<event>
 5   0  0.9625225E-04  0.1091247E+04  0.7818609E-02  0.9213765E-01
        2   -1    0    0  501    0  0.00000000000E+00  0.00000000000E+00  0.41686558852E+03  0.41686558852E+03  0.25500000920E-02 0.  1.
       -2   -1    0    0    0  501  0.00000000000E+00  0.00000000000E+00 -0.71415133716E+03  0.71415133717E+03  0.25500000920E-02 0. -1.
    10030    2    1    2    0    0  0.00000000000E+00  0.00000000000E+00 -0.29728574865E+03  0.11310169257E+04  0.10912472084E+04 0.  0.
        1    1    3    3  502    0 -0.72844479603E+02  0.47019908420E+03  0.12813164876E+03  0.49275878118E+03  0.50400001928E-02 0.  1.
       -1    1    3    3    0  502  0.72844479603E+02 -0.47019908420E+03 -0.42541739741E+03  0.63825814451E+03  0.50400001928E-02 0. -1.
</event>
<event>
 5   0  0.3523125E-04  0.1715120E+04  0.7818609E-02  0.8752787E-01
       -3   -1    0    0    0  501  0.00000000000E+00  0.00000000000E+00  0.14477375088E+04  0.14477375124E+04  0.10100000352E+00 0.  1.
        3   -1    0    0  501    0  0.00000000000E+00  0.00000000000E+00 -0.50797141935E+03  0.50797142939E+03  0.10100000352E+00 0. -1.
    10030    2    1    2    0    0  0.00000000000E+00  0.00000000000E+00  0.93976608949E+03  0.19557089418E+04  0.17151201596E+04 0.  0.
        4    1    3    3  502    0 -0.60185469633E+03 -0.47119653728E+02 -0.22461693859E+03  0.64413020366E+03  0.12699999809E+01 0. -1.
       -4    1    3    3    0  502  0.60185469633E+03  0.47119653728E+02  0.11643830281E+04  0.13115787381E+04  0.12699999809E+01 0.  1.
</event>
<event>
 5   0  0.4947006E-04  0.1779449E+04  0.7818609E-02  0.8717305E-01
       -1   -1    0    0    0  501  0.00000000000E+00  0.00000000000E+00  0.54644713494E+03  0.54644713496E+03  0.50400001928E-02 0.  1.
        1   -1    0    0  501    0  0.00000000000E+00  0.00000000000E+00 -0.14486480036E+04  0.14486480036E+04  0.50400001928E-02 0. -1.
    10030    2    1    2    0    0  0.00000000000E+00  0.00000000000E+00 -0.90220086870E+03  0.19950951386E+04  0.17794488486E+04 0.  0.
        2    1    3    3  502    0  0.57759173192E+03  0.40394693460E+03  0.15767858739E+03  0.72225194474E+03  0.25500000920E-02 0.  1.
       -2    1    3    3    0  502 -0.57759173192E+03 -0.40394693460E+03 -0.10598794561E+04  0.12728431939E+04  0.25500000920E-02 0. -1.
</event>
<event>
 5   0  0.5059689E-04  0.1699235E+04  0.7818609E-02  0.8761801E-01
       -1   -1    0    0    0  501  0.00000000000E+00  0.00000000000E+00  0.67119037590E+03  0.67119037592E+03  0.50400001928E-02 0. -1.
        1   -1    0    0  501    0  0.00000000000E+00  0.00000000000E+00 -0.10754769898E+04  0.10754769898E+04  0.50400001928E-02 0.  1.
    10030    2    1    2    0    0  0.00000000000E+00  0.00000000000E+00 -0.40428661386E+03  0.17466673657E+04  0.16992348926E+04 0.  0.
        5    1    3    3  502    0 -0.78048601446E+03 -0.16879515203E+01 -0.54717110637E+03  0.95319440703E+03  0.46999998093E+01 0.  1.
       -5    1    3    3    0  502  0.78048601446E+03  0.16879515203E+01  0.14288449251E+03  0.79347295867E+03  0.46999998093E+01 0. -1.
</event>
<event>
 5   0  0.4947006E-04  0.1684372E+04  0.7818609E-02  0.8770328E-01
        1   -1    0    0  501    0  0.00000000000E+00  0.00000000000E+00  0.64222614642E+03  0.64222614644E+03  0.50400001928E-02 0.  1.
       -1   -1    0    0    0  501  0.00000000000E+00  0.00000000000E+00 -0.11044046384E+04  0.11044046384E+04  0.50400001928E-02 0. -1.
    10030    2    1    2    0    0  0.00000000000E+00  0.00000000000E+00 -0.46217849193E+03  0.17466307848E+04  0.16843723282E+04 0.  0.
        2    1    3    3  502    0 -0.15191586985E+03  0.82635997235E+03 -0.29091307657E+03  0.88914546253E+03  0.25500000920E-02 0. -1.
       -2    1    3    3    0  502  0.15191586985E+03 -0.82635997235E+03 -0.17126541536E+03  0.85748532228E+03  0.25500000920E-02 0.  1.
</event>
<event>
 5   0  0.5059689E-04  0.9274985E+03  0.7818609E-02  0.9391845E-01
       -1   -1    0    0    0  501  0.00000000000E+00  0.00000000000E+00  0.24603192479E+03  0.24603192484E+03  0.50400001928E-02 0. -1.
        1   -1    0    0  501    0  0.00000000000E+00  0.00000000000E+00 -0.87412791144E+03  0.87412791145E+03  0.50400001928E-02 0.  1.
    10030    2    1    2    0    0  0.00000000000E+00  0.00000000000E+00 -0.62809598664E+03  0.11201598363E+04  0.92749851235E+03 0.  0.
        5    1    3    3  502    0 -0.31440589544E+02 -0.15377650895E+03  0.21294711615E+03  0.26458323766E+03  0.46999998093E+01 0. -1.
       -5    1    3    3    0  502  0.31440589544E+02  0.15377650895E+03 -0.84104310279E+03  0.85557659863E+03  0.46999998093E+01 0.  1.
</event>
<event>
 5   0  0.4947006E-04  0.1428545E+04  0.7818609E-02  0.8933411E-01
        1   -1    0    0  501    0  0.00000000000E+00  0.00000000000E+00  0.49414011646E+03  0.49414011649E+03  0.50400001928E-02 0.  1.
       -1   -1    0    0    0  501  0.00000000000E+00  0.00000000000E+00 -0.10324709487E+04  0.10324709487E+04  0.50400001928E-02 0. -1.
    10030    2    1    2    0    0  0.00000000000E+00  0.00000000000E+00 -0.53833083224E+03  0.15266110652E+04  0.14285451549E+04 0.  0.
        2    1    3    3  502    0  0.41411740541E+03  0.55906803692E+03 -0.44192647113E+03  0.82422648663E+03  0.25500000920E-02 0.  1.
       -2    1    3    3    0  502 -0.41411740541E+03 -0.55906803692E+03 -0.96404361111E+02  0.70238457857E+03  0.25500000920E-02 0. -1.
</event>
<event>
 5   0  0.9312096E-04  0.1691044E+04  0.7818609E-02  0.8766489E-01
        2   -1    0    0  501    0  0.00000000000E+00  0.00000000000E+00  0.17727222560E+04  0.17727222560E+04  0.25500000920E-02 0.  1.
       -2   -1    0    0    0  501  0.00000000000E+00  0.00000000000E+00 -0.40328214397E+03  0.40328214398E+03  0.25500000920E-02 0. -1.
    10030    2    1    2    0    0  0.00000000000E+00  0.00000000000E+00  0.13694401121E+04  0.21760044000E+04  0.16910437393E+04 0.  0.
        3    1    3    3  502    0  0.27605507647E+03 -0.11625696491E+03  0.17021610920E+04  0.17283155037E+04  0.10100000352E+00 0.  1.
       -3    1    3    3    0  502 -0.27605507647E+03  0.11625696491E+03 -0.33272097995E+03  0.44768889626E+03  0.10100000352E+00 0. -1.
</event>
<event>
 5   0  0.9610114E-04  0.1691129E+04  0.7818609E-02  0.8766440E-01
        2   -1    0    0  501    0  0.00000000000E+00  0.00000000000E+00  0.90448728510E+03  0.90448728510E+03  0.25500000920E-02 0.  1.
       -2   -1    0    0    0  501  0.00000000000E+00  0.00000000000E+00 -0.79047990530E+03  0.79047990530E+03  0.25500000920E-02 0. -1.
    10030    2    1    2    0    0  0.00000000000E+00  0.00000000000E+00  0.11400737980E+03  0.16949671904E+04  0.16911286450E+04 0.  0.
        2    1    3    3  502    0  0.55435572119E+03 -0.95552439616E+02 -0.57572828965E+03  0.80492459140E+03  0.25500000920E-02 0. -1.
       -2    1    3    3    0  502 -0.55435572119E+03  0.95552439616E+02  0.68973566945E+03  0.89004259900E+03  0.25500000920E-02 0.  1.
</event>
<event>
 5   0  0.9625225E-04  0.1686944E+04  0.7818609E-02  0.8768846E-01
        2   -1    0    0  501    0  0.00000000000E+00  0.00000000000E+00  0.12391902182E+04  0.12391902182E+04  0.25500000920E-02 0. -1.
       -2   -1    0    0    0  501  0.00000000000E+00  0.00000000000E+00 -0.57412092993E+03  0.57412092993E+03  0.25500000920E-02 0.  1.
    10030    2    1    2    0    0  0.00000000000E+00  0.00000000000E+00  0.66506928831E+03  0.18133111482E+04  0.16869440304E+04 0.  0.
        1    1    3    3  502    0  0.49348183735E+03 -0.31070808073E+03 -0.32252616669E+03  0.66639850199E+03  0.50400001928E-02 0.  1.
       -1    1    3    3    0  502 -0.49348183735E+03  0.31070808073E+03  0.98759545500E+03  0.11469126462E+04  0.50400001928E-02 0. -1.
</event>
<event>
 5   0  0.4947006E-04  0.1671268E+04  0.7818609E-02  0.8777923E-01
        1   -1    0    0  501    0  0.00000000000E+00  0.00000000000E+00  0.10111220383E+04  0.10111220383E+04  0.50400001928E-02 0.  1.
       -1   -1    0    0    0  501  0.00000000000E+00  0.00000000000E+00 -0.69060311217E+03  0.69060311219E+03  0.50400001928E-02 0. -1.
    10030    2    1    2    0    0  0.00000000000E+00  0.00000000000E+00  0.32051892613E+03  0.17017251505E+04  0.16712678139E+04 0.  0.
        2    1    3    3  502    0 -0.59369295970E+03 -0.30682983368E+03  0.67106723422E+03  0.94707291698E+03  0.25500000920E-02 0.  1.
       -2    1    3    3    0  502  0.59369295970E+03  0.30682983368E+03 -0.35054830809E+03  0.75465223351E+03  0.25500000920E-02 0. -1.
</event>
<event>
 5   0  0.9284971E-04  0.1725637E+04  0.7818609E-02  0.8746876E-01
        2   -1    0    0  501    0  0.00000000000E+00  0.00000000000E+00  0.79010725884E+03  0.79010725885E+03  0.25500000920E-02 0. -1.
       -2   -1    0    0    0  501  0.00000000000E+00  0.00000000000E+00 -0.94222067095E+03  0.94222067096E+03  0.25500000920E-02 0.  1.
    10030    2    1    2    0    0  0.00000000000E+00  0.00000000000E+00 -0.15211341211E+03  0.17323279298E+04  0.17256365684E+04 0.  0.
        4    1    3    3  502    0  0.38431483660E+03 -0.43946121864E+03  0.56172541659E+03  0.81016116475E+03  0.12699999809E+01 0. -1.
       -4    1    3    3    0  502 -0.38431483660E+03  0.43946121864E+03 -0.71383882870E+03  0.92216676506E+03  0.12699999809E+01 0.  1.
</event>
<event>
 5   0  0.5074133E-04  0.1616523E+04  0.7818609E-02  0.8810461E-01
       -1   -1    0    0    0  501  0.00000000000E+00  0.00000000000E+00  0.42620346352E+03  0.42620346355E+03  0.50400001928E-02 0. -1.
        1   -1    0    0  501    0  0.00000000000E+00  0.00000000000E+00 -0.15328037877E+04  0.15328037877E+04  0.50400001928E-02 0.  1.
    10030    2    1    2    0    0  0.00000000000E+00  0.00000000000E+00 -0.11066003242E+04  0.19590072513E+04  0.16165225433E+04 0.  0.
        1    1    3    3  502    0 -0.91337665771E+02 -0.80279079727E+03 -0.52700939570E+03  0.96465254706E+03  0.50400001928E-02 0.  1.
       -1    1    3    3    0  502  0.91337665771E+02  0.80279079727E+03 -0.57959092851E+03  0.99435470422E+03  0.50400001928E-02 0. -1.
</event>
<event>
 5   0  0.5035495E-04  0.1757110E+04  0.7818609E-02  0.8729446E-01
        1   -1    0    0  501    0  0.00000000000E+00  0.00000000000E+00  0.13308678549E+04  0.13308678549E+04  0.50400001928E-02 0. -1.
       -1   -1    0    0    0  501  0.00000000000E+00  0.00000000000E+00 -0.57996659912E+03  0.57996659914E+03  0.50400001928E-02 0.  1.
    10030    2    1    2    0    0  0.00000000000E+00  0.00000000000E+00  0.75090125577E+03  0.19108344540E+04  0.17571100178E+04 0.  0.
        4    1    3    3  502    0  0.86722986346E+03  0.13200012161E+03  0.32278185756E+03  0.93471996269E+03  0.12699999809E+01 0.  1.
       -4    1    3    3    0  502 -0.86722986346E+03 -0.13200012161E+03  0.42811939820E+03  0.97611449134E+03  0.12699999809E+01 0. -1.
</event>
<event>
 5   0  0.9312096E-04  0.1680038E+04  0.7818609E-02  0.8772832E-01
        2   -1    0    0  501    0  0.00000000000E+00  0.00000000000E+00  0.64499956390E+03  0.64499956390E+03  0.25500000920E-02 0.  1.
       -2   -1    0    0    0  501  0.00000000000E+00  0.00000000000E+00 -0.10940040421E+04  0.10940040421E+04  0.25500000920E-02 0. -1.
    10030    2    1    2    0    0  0.00000000000E+00  0.00000000000E+00 -0.44900447821E+03  0.17390036060E+04  0.16800382496E+04 0.  0.
        3    1    3    3  502    0 -0.80666619911E+03 -0.11382540010E+03 -0.12457389581E+02  0.81475258530E+03  0.10100000352E+00 0.  1.
       -3    1    3    3    0  502  0.80666619911E+03  0.11382540010E+03 -0.43654708863E+03  0.92425102071E+03  0.10100000352E+00 0. -1.
</event>
<event>
 5   0  0.5059689E-04  0.1693945E+04  0.7818609E-02  0.8764825E-01
        1   -1    0    0  501    0  0.00000000000E+00  0.00000000000E+00  0.27255118259E+03  0.27255118264E+03  0.50400001928E-02 0. -1.
       -1   -1    0    0    0  501  0.00000000000E+00  0.00000000000E+00 -0.26320285235E+04  0.26320285235E+04  0.50400001928E-02 0.  1.
    10030    2    1    2    0    0  0.00000000000E+00  0.00000000000E+00 -0.23594773409E+04  0.29045797062E+04  0.16939450839E+04 0.  0.
        5    1    3    3  502    0 -0.26317233192E+03 -0.45642445192E+03 -0.42659851197E+02  0.52860657346E+03  0.46999998093E+01 0. -1.
       -5    1    3    3    0  502  0.26317233192E+03  0.45642445192E+03 -0.23168174898E+04  0.23759731327E+04  0.46999998093E+01 0.  1.
</event>
<event>
 5   0  0.9312096E-04  0.1717257E+04  0.7818609E-02  0.8751583E-01
        2   -1    0    0  501    0  0.00000000000E+00  0.00000000000E+00  0.10812231943E+04  0.10812231943E+04  0.25500000920E-02 0. -1.
       -2   -1    0    0    0  501  0.00000000000E+00  0.00000000000E+00 -0.68186006156E+03  0.68186006156E+03  0.25500000920E-02 0.  1.
    10030    2    1    2    0    0  0.00000000000E+00  0.00000000000E+00  0.39936313278E+03  0.17630832559E+04  0.17172570150E+04 0.  0.
        3    1    3    3  502    0 -0.79523878899E+03  0.14286256484E+03 -0.98638148218E+02  0.81396802052E+03  0.10100000352E+00 0.  1.
       -3    1    3    3    0  502  0.79523878899E+03 -0.14286256484E+03  0.49800128100E+03  0.94911523538E+03  0.10100000352E+00 0. -1.
</event>
<event>
 5   0  0.5035495E-04  0.1682762E+04  0.7818609E-02  0.8771257E-01
       -1   -1    0    0    0  501  0.00000000000E+00  0.00000000000E+00  0.78436432224E+03  0.78436432225E+03  0.50400001928E-02 0. -1.
        1   -1    0    0  501    0  0.00000000000E+00  0.00000000000E+00 -0.90254234332E+03  0.90254234333E+03  0.50400001928E-02 0.  1.
    10030    2    1    2    0    0  0.00000000000E+00  0.00000000000E+00 -0.11817802108E+03  0.16869066656E+04  0.16827620312E+04 0.  0.
        4    1    3    3  502    0 -0.74197015339E+03 -0.16685385398E+03 -0.41992066522E+03  0.86873177396E+03  0.12699999809E+01 0.  1.
       -4    1    3    3    0  502  0.74197015339E+03  0.16685385398E+03  0.30174264414E+03  0.81817489163E+03  0.12699999809E+01 0. -1.
</event>
<event>
 5   0  0.5059689E-04  0.1717146E+04  0.7818609E-02  0.8751645E-01
       -1   -1    0    0    0  501  0.00000000000E+00  0.00000000000E+00  0.14833380459E+04  0.14833380459E+04  0.50400001928E-02 0.  1.
        1   -1    0    0  501    0  0.00000000000E+00  0.00000000000E+00 -0.49695191379E+03  0.49695191381E+03  0.50400001928E-02 0. -1.
    10030    2    1    2    0    0  0.00000000000E+00  0.00000000000E+00  0.98638613214E+03  0.19802899597E+04  0.17171460983E+04 0.  0.
        5    1    3    3  502    0  0.22469231709E+03 -0.80363646961E+03  0.26022795591E+03  0.87410462285E+03  0.46999998093E+01 0.  1.
       -5    1    3    3    0  502 -0.22469231709E+03  0.80363646961E+03  0.72615817623E+03  0.11061853369E+04  0.46999998093E+01 0. -1.
</event>
<event>
 5   0  0.1007187E-03  0.1696024E+04  0.7818609E-02  0.8763635E-01
        2   -1    0    0  501    0  0.00000000000E+00  0.00000000000E+00  0.11344044343E+04  0.11344044343E+04  0.25500000920E-02 0.  1.
       -2   -1    0    0    0  501  0.00000000000E+00  0.00000000000E+00 -0.63392256761E+03  0.63392256761E+03  0.25500000920E-02 0. -1.
    10030    2    1    2    0    0  0.00000000000E+00  0.00000000000E+00  0.50048186668E+03  0.17683270019E+04  0.16960242589E+04 0.  0.
        5    1    3    3  502    0  0.62454956107E+03 -0.40981023751E+03 -0.16823718859E+03  0.76572346616E+03  0.46999998093E+01 0. -1.
       -5    1    3    3    0  502 -0.62454956107E+03  0.40981023751E+03  0.66871905527E+03  0.10026035357E+04  0.46999998093E+01 0.  1.
</event>
<event>
 5   0  0.5074133E-04  0.1669974E+04  0.7818609E-02  0.8778677E-01
        1   -1    0    0  501    0  0.00000000000E+00  0.00000000000E+00  0.11746429405E+04  0.11746429405E+04  0.50400001928E-02 0. -1.
       -1   -1    0    0    0  501  0.00000000000E+00  0.00000000000E+00 -0.59354476252E+03  0.59354476254E+03  0.50400001928E-02 0.  1.
    10030    2    1    2    0    0  0.00000000000E+00  0.00000000000E+00  0.58109817801E+03  0.17681877031E+04  0.16699738503E+04 0.  0.
        1    1    3    3  502    0  0.46135840284E+03 -0.54694455557E+03  0.74621127376E+03  0.10338429222E+04  0.50400001928E-02 0. -1.
       -1    1    3    3    0  502 -0.46135840284E+03  0.54694455557E+03 -0.16511309574E+03  0.73434478085E+03  0.50400001928E-02 0.  1.
</event>
<event>
 5   0  0.1007187E-03  0.1179880E+04  0.7818609E-02  0.9130653E-01
       -2   -1    0    0    0  501  0.00000000000E+00  0.00000000000E+00  0.26551740642E+03  0.26551740643E+03  0.25500000920E-02 0.  1.
        2   -1    0    0  501    0  0.00000000000E+00  0.00000000000E+00 -0.13107574223E+04  0.13107574223E+04  0.25500000920E-02 0. -1.
    10030    2    1    2    0    0  0.00000000000E+00  0.00000000000E+00 -0.10452400159E+04  0.15762748287E+04  0.11798795044E+04 0.  0.
        5    1    3    3  502    0 -0.13230115732E+03  0.19182758488E+02  0.24498929663E+03  0.27912975462E+03  0.46999998093E+01 0.  1.
       -5    1    3    3    0  502  0.13230115732E+03 -0.19182758488E+02 -0.12902293125E+04  0.12971450741E+04  0.46999998093E+01 0. -1.
</event>
<event>
 5   0  0.4947006E-04  0.1652692E+04  0.7818609E-02  0.8788816E-01
       -1   -1    0    0    0  501  0.00000000000E+00  0.00000000000E+00  0.37224341537E+03  0.37224341540E+03  0.50400001928E-02 0. -1.
        1   -1    0    0  501    0  0.00000000000E+00  0.00000000000E+00 -0.18344115703E+04  0.18344115703E+04  0.50400001928E-02 0.  1.
    10030    2    1    2    0    0  0.00000000000E+00  0.00000000000E+00 -0.14621681549E+04  0.22066549857E+04  0.16526918989E+04 0.  0.
        2    1    3    3  502    0  0.11916604969E+02 -0.30266468186E+03 -0.17576170692E+04  0.17835261919E+04  0.25500000920E-02 0.  1.
       -2    1    3    3    0  502 -0.11916604969E+02  0.30266468186E+03  0.29544891435E+03  0.42312879377E+03  0.25500000920E-02 0. -1.
</event>
<event>
 5   0  0.5009762E-04  0.1688970E+04  0.7818609E-02  0.8767680E-01
        1   -1    0    0  501    0  0.00000000000E+00  0.00000000000E+00  0.74909456978E+03  0.74909456979E+03  0.50400001928E-02 0.  1.
       -1   -1    0    0    0  501  0.00000000000E+00  0.00000000000E+00 -0.95202291858E+03  0.95202291859E+03  0.50400001928E-02 0. -1.
    10030    2    1    2    0    0  0.00000000000E+00  0.00000000000E+00 -0.20292834880E+03  0.17011174884E+04  0.16889703356E+04 0.  0.
        3    1    3    3  502    0 -0.52820692458E+03  0.35639000170E+03 -0.65965106047E+03  0.91714552840E+03  0.10100000352E+00 0. -1.
       -3    1    3    3    0  502  0.52820692458E+03 -0.35639000170E+03  0.45672271167E+03  0.78397195998E+03  0.10100000352E+00 0.  1.
</event>
<event>
 5   0  0.5059689E-04  0.1720662E+04  0.7818609E-02  0.8749667E-01
       -1   -1    0    0    0  501  0.00000000000E+00  0.00000000000E+00  0.57878345098E+03  0.57878345100E+03  0.50400001928E-02 0. -1.
        1   -1    0    0  501    0  0.00000000000E+00  0.00000000000E+00 -0.12788364966E+04  0.12788364966E+04  0.50400001928E-02 0.  1.
    10030    2    1    2    0    0  0.00000000000E+00  0.00000000000E+00 -0.70005304564E+03  0.18576199476E+04  0.17206619665E+04 0.  0.
        5    1    3    3  502    0 -0.60605399391E+03 -0.15424314307E+03 -0.98786129096E+03  0.11691810856E+04  0.46999998093E+01 0.  1.
       -5    1    3    3    0  502  0.60605399391E+03  0.15424314307E+03  0.28780824531E+03  0.68843886205E+03  0.46999998093E+01 0. -1.
</event>
<event>
 5   0  0.9610114E-04  0.1744004E+04  0.7818609E-02  0.8736658E-01
       -2   -1    0    0    0  501  0.00000000000E+00  0.00000000000E+00  0.35234334889E+03  0.35234334890E+03  0.25500000920E-02 0.  1.
        2   -1    0    0  501    0  0.00000000000E+00  0.00000000000E+00 -0.21580866144E+04  0.21580866144E+04  0.25500000920E-02 0. -1.
    10030    2    1    2    0    0  0.00000000000E+00  0.00000000000E+00 -0.18057432655E+04  0.25104299633E+04  0.17440039735E+04 0.  0.
        2    1    3    3  502    0 -0.20116497158E+03 -0.93145700510E+02 -0.21168472020E+04  0.21284232530E+04  0.25500000920E-02 0. -1.
       -2    1    3    3    0  502  0.20116497158E+03  0.93145700510E+02  0.31110393656E+03  0.38200671023E+03  0.25500000920E-02 0.  1.
</event>
<event>
 5   0  0.9625225E-04  0.1709300E+04  0.7818609E-02  0.8756078E-01
        2   -1    0    0  501    0  0.00000000000E+00  0.00000000000E+00  0.11245554566E+04  0.11245554566E+04  0.25500000920E-02 0.  1.
       -2   -1    0    0    0  501  0.00000000000E+00  0.00000000000E+00 -0.64952439428E+03  0.64952439429E+03  0.25500000920E-02 0. -1.
    10030    2    1    2    0    0  0.00000000000E+00  0.00000000000E+00  0.47503106236E+03  0.17740798509E+04  0.17092995078E+04 0.  0.
        1    1    3    3  502    0  0.54460988224E+03 -0.17782849607E+03  0.89574574433E+03  0.10632889242E+04  0.50400001928E-02 0.  1.
       -1    1    3    3    0  502 -0.54460988224E+03  0.17782849607E+03 -0.42071468197E+03  0.71079092672E+03  0.50400001928E-02 0. -1.
</event>
<event>
 5   0  0.5074133E-04  0.1949516E+04  0.7818609E-02  0.8630594E-01
       -1   -1    0    0    0  501  0.00000000000E+00  0.00000000000E+00  0.66320537367E+03  0.66320537369E+03  0.50400001928E-02 0.  1.
        1   -1    0    0  501    0  0.00000000000E+00  0.00000000000E+00 -0.14326675162E+04  0.14326675162E+04  0.50400001928E-02 0. -1.
    10030    2    1    2    0    0  0.00000000000E+00  0.00000000000E+00 -0.76946214256E+03  0.20958728899E+04  0.19495156275E+04 0.  0.
        1    1    3    3  502    0  0.83491176693E+03  0.87936990088E+02  0.14777475878E+03  0.85243647982E+03  0.50400001928E-02 0.  1.
       -1    1    3    3    0  502 -0.83491176693E+03 -0.87936990088E+02 -0.91723690134E+03  0.12434364101E+04  0.50400001928E-02 0. -1.
</event>
<event>
 5   0  0.5009762E-04  0.1694116E+04  0.7818609E-02  0.8764728E-01
        1   -1    0    0  501    0  0.00000000000E+00  0.00000000000E+00  0.10336999417E+04  0.10336999417E+04  0.50400001928E-02 0. -1.
       -1   -1    0    0    0  501  0.00000000000E+00  0.00000000000E+00 -0.69411519522E+03  0.69411519524E+03  0.50400001928E-02 0.  1.
    10030    2    1    2    0    0  0.00000000000E+00  0.00000000000E+00  0.33958474644E+03  0.17278151369E+04  0.16941155059E+04 0.  0.
        3    1    3    3  502    0  0.12419068335E+03 -0.79604593458E+03 -0.96933064407E+02  0.81148535721E+03  0.10100000352E+00 0.  1.
       -3    1    3    3    0  502 -0.12419068335E+03  0.79604593458E+03  0.43651781084E+03  0.91632977970E+03  0.10100000352E+00 0. -1.
</event>
<event>
 5   0  0.5009762E-04  0.1726102E+04  0.7818609E-02  0.8746616E-01
        1   -1    0    0  501    0  0.00000000000E+00  0.00000000000E+00  0.22066147987E+04  0.22066147987E+04  0.50400001928E-02 0.  1.
       -1   -1    0    0    0  501  0.00000000000E+00  0.00000000000E+00 -0.33755635270E+03  0.33755635273E+03  0.50400001928E-02 0. -1.
    10030    2    1    2    0    0  0.00000000000E+00  0.00000000000E+00  0.18690584460E+04  0.25441711514E+04  0.17261017853E+04 0.  0.
        3    1    3    3  502    0 -0.60898506226E+03 -0.53511082002E+03  0.13709013131E+04  0.15926634347E+04  0.10100000352E+00 0.  1.
       -3    1    3    3    0  502  0.60898506226E+03  0.53511082002E+03  0.49815713290E+03  0.95150771674E+03  0.10100000352E+00 0. -1.
</event>
<event>
 5   0  0.4947006E-04  0.1688464E+04  0.7818609E-02  0.8767971E-01
        1   -1    0    0  501    0  0.00000000000E+00  0.00000000000E+00  0.11625485630E+04  0.11625485630E+04  0.50400001928E-02 0.  1.
       -1   -1    0    0    0  501  0.00000000000E+00  0.00000000000E+00 -0.61307331290E+03  0.61307331292E+03  0.50400001928E-02 0. -1.
    10030    2    1    2    0    0  0.00000000000E+00  0.00000000000E+00  0.54947525008E+03  0.17756218759E+04  0.16884637976E+04 0.  0.
        2    1    3    3  502    0 -0.69197579931E+03  0.36842007192E+03  0.60422142541E+03  0.98977138126E+03  0.25500000920E-02 0.  1.
       -2    1    3    3    0  502  0.69197579931E+03 -0.36842007192E+03 -0.54746175330E+02  0.78585049465E+03  0.25500000920E-02 0. -1.
</event>
<event>
 5   0  0.9625225E-04  0.1678421E+04  0.7818609E-02  0.8773768E-01
       -2   -1    0    0    0  501  0.00000000000E+00  0.00000000000E+00  0.31821162191E+03  0.31821162192E+03  0.25500000920E-02 0.  1.
        2   -1    0    0  501    0  0.00000000000E+00  0.00000000000E+00 -0.22132259290E+04  0.22132259290E+04  0.25500000920E-02 0. -1.
    10030    2    1    2    0    0  0.00000000000E+00  0.00000000000E+00 -0.18950143071E+04  0.25314375509E+04  0.16784209395E+04 0.  0.
        1    1    3    3  502    0 -0.30022813521E+03  0.29367051158E+03 -0.20433292825E+04  0.20860426312E+04  0.50400001928E-02 0. -1.
       -1    1    3    3    0  502  0.30022813521E+03 -0.29367051158E+03  0.14831497540E+03  0.44539491970E+03  0.50400001928E-02 0.  1.
</event>
<event>
 5   0  0.9312096E-04  0.1238227E+04  0.7818609E-02  0.9080040E-01
       -2   -1    0    0    0  501  0.00000000000E+00  0.00000000000E+00  0.27686491601E+03  0.27686491602E+03  0.25500000920E-02 0. -1.
        2   -1    0    0  501    0  0.00000000000E+00  0.00000000000E+00 -0.13844342405E+04  0.13844342405E+04  0.25500000920E-02 0.  1.
    10030    2    1    2    0    0  0.00000000000E+00  0.00000000000E+00 -0.11075693244E+04  0.16612991565E+04  0.12382265862E+04 0.  0.
        3    1    3    3  502    0  0.60974511463E+03  0.82079305679E+02 -0.64649771428E+03  0.89246031957E+03  0.10100000352E+00 0. -1.
       -3    1    3    3    0  502 -0.60974511463E+03 -0.82079305679E+02 -0.46107161017E+03  0.76883883691E+03  0.10100000352E+00 0.  1.
</event>
<event>
 5   0  0.5009762E-04  0.1687249E+04  0.7818609E-02  0.8768670E-01
       -1   -1    0    0    0  501  0.00000000000E+00  0.00000000000E+00  0.48043328297E+03  0.48043328300E+03  0.50400001928E-02 0.  1.
        1   -1    0    0  501    0  0.00000000000E+00  0.00000000000E+00 -0.14813762365E+04  0.14813762365E+04  0.50400001928E-02 0. -1.
    10030    2    1    2    0    0  0.00000000000E+00  0.00000000000E+00 -0.10009429535E+04  0.19618095195E+04  0.16872491798E+04 0.  0.
        3    1    3    3  502    0  0.59673850821E+03  0.58854839400E+03 -0.38884742579E+03  0.92395259077E+03  0.10100000352E+00 0.  1.
       -3    1    3    3    0  502 -0.59673850821E+03 -0.58854839400E+03 -0.61209552775E+03  0.10378569287E+04  0.10100000352E+00 0. -1.
</event>
<event>
 5   0  0.9284971E-04  0.1687836E+04  0.7818609E-02  0.8768332E-01
        2   -1    0    0  501    0  0.00000000000E+00  0.00000000000E+00  0.20120173465E+04  0.20120173465E+04  0.25500000920E-02 0.  1.
       -2   -1    0    0    0  501  0.00000000000E+00  0.00000000000E+00 -0.35397206828E+03  0.35397206829E+03  0.25500000920E-02 0. -1.
    10030    2    1    2    0    0  0.00000000000E+00  0.00000000000E+00  0.16580452782E+04  0.23659894148E+04  0.16878364157E+04 0.  0.
        4    1    3    3  502    0 -0.21454235139E+03 -0.70885816564E+03  0.13961634214E+04  0.15804373545E+04  0.12699999809E+01 0.  1.
       -4    1    3    3    0  502  0.21454235139E+03  0.70885816564E+03  0.26188185685E+03  0.78555206026E+03  0.12699999809E+01 0. -1.
</event>
<event>
 5   0  0.5009762E-04  0.1652707E+04  0.7818609E-02  0.8788807E-01
        1   -1    0    0  501    0  0.00000000000E+00  0.00000000000E+00  0.12819966679E+04  0.12819966680E+04  0.50400001928E-02 0. -1.
       -1   -1    0    0    0  501  0.00000000000E+00  0.00000000000E+00 -0.53265334108E+03  0.53265334110E+03  0.50400001928E-02 0.  1.
    10030    2    1    2    0    0  0.00000000000E+00  0.00000000000E+00  0.74934332687E+03  0.18146500091E+04  0.16527066388E+04 0.  0.
        3    1    3    3  502    0  0.41708594062E+03  0.67322490462E+03  0.63372987007E+03  0.10143007505E+04  0.10100000352E+00 0. -1.
       -3    1    3    3    0  502 -0.41708594062E+03 -0.67322490462E+03  0.11561345680E+03  0.80034925855E+03  0.10100000352E+00 0.  1.
</event>
<event>
 5   0  0.5009762E-04  0.1372950E+04  0.7818609E-02  0.8973635E-01
        1   -1    0    0  501    0  0.00000000000E+00  0.00000000000E+00  0.10800122393E+04  0.10800122393E+04  0.50400001928E-02 0.  1.
       -1   -1    0    0    0  501  0.00000000000E+00  0.00000000000E+00 -0.43633596300E+03  0.43633596303E+03  0.50400001928E-02 0. -1.
    10030    2    1    2    0    0  0.00000000000E+00  0.00000000000E+00  0.64367627627E+03  0.15163482023E+04  0.13729503713E+04 0.  0.
        3    1    3    3  502    0 -0.27883822988E+03 -0.34240122829E+03 -0.25866179066E+03  0.51175706319E+03  0.10100000352E+00 0. -1.
       -3    1    3    3    0  502  0.27883822988E+03  0.34240122829E+03  0.90233806692E+03  0.10045911391E+04  0.10100000352E+00 0.  1.
</event>
<event>
 5   0  0.9312096E-04  0.1715391E+04  0.7818609E-02  0.8752635E-01
       -2   -1    0    0    0  501  0.00000000000E+00  0.00000000000E+00  0.83918216325E+03  0.83918216325E+03  0.25500000920E-02 0.  1.
        2   -1    0    0  501    0  0.00000000000E+00  0.00000000000E+00 -0.87661744517E+03  0.87661744517E+03  0.25500000920E-02 0. -1.
    10030    2    1    2    0    0  0.00000000000E+00  0.00000000000E+00 -0.37435281920E+02  0.17157996084E+04  0.17153911787E+04 0.  0.
        3    1    3    3  502    0 -0.35390351195E+01  0.76500313656E+03  0.36918829857E+03  0.84943648010E+03  0.10100000352E+00 0.  1.
       -3    1    3    3    0  502  0.35390351195E+01 -0.76500313656E+03 -0.40662358049E+03  0.86636312833E+03  0.10100000352E+00 0. -1.
</event>
<event>
 5   0  0.5035495E-04  0.1675734E+04  0.7818609E-02  0.8775326E-01
        1   -1    0    0  501    0  0.00000000000E+00  0.00000000000E+00  0.11476318911E+04  0.11476318911E+04  0.50400001928E-02 0. -1.
       -1   -1    0    0    0  501  0.00000000000E+00  0.00000000000E+00 -0.61171284989E+03  0.61171284991E+03  0.50400001928E-02 0.  1.
    10030    2    1    2    0    0  0.00000000000E+00  0.00000000000E+00  0.53591904124E+03  0.17593447411E+04  0.16757340777E+04 0.  0.
        4    1    3    3  502    0  0.33698824374E+03  0.74620158568E+03  0.81203072430E+02  0.82278395388E+03  0.12699999809E+01 0. -1.
       -4    1    3    3    0  502 -0.33698824374E+03 -0.74620158568E+03  0.45471596881E+03  0.93656078718E+03  0.12699999809E+01 0.  1.
</event>
<event>
 5   0  0.5009762E-04  0.1663778E+04  0.7818609E-02  0.8782297E-01
        1   -1    0    0  501    0  0.00000000000E+00  0.00000000000E+00  0.13786420930E+04  0.13786420930E+04  0.50400001928E-02 0. -1.
       -1   -1    0    0    0  501  0.00000000000E+00  0.00000000000E+00 -0.50197199340E+03  0.50197199343E+03  0.50400001928E-02 0.  1.
    10030    2    1    2    0    0  0.00000000000E+00  0.00000000000E+00  0.87667009960E+03  0.18806140864E+04  0.16637784945E+04 0.  0.
        3    1    3    3  502    0  0.24423688432E+03 -0.54067639801E+03 -0.22080863141E+03  0.63303956032E+03  0.10100000352E+00 0.  1.
       -3    1    3    3    0  502 -0.24423688432E+03  0.54067639801E+03  0.10974787310E+04  0.12475745261E+04  0.10100000352E+00 0. -1.
</event>
<event>
 5   0  0.9610114E-04  0.1698233E+04  0.7818609E-02  0.8762373E-01
       -2   -1    0    0    0  501  0.00000000000E+00  0.00000000000E+00  0.26915042252E+03  0.26915042254E+03  0.25500000920E-02 0.  1.
        2   -1    0    0  501    0  0.00000000000E+00  0.00000000000E+00 -0.26787949274E+04  0.26787949274E+04  0.25500000920E-02 0. -1.
    10030    2    1    2    0    0  0.00000000000E+00  0.00000000000E+00 -0.24096445049E+04  0.29479453500E+04  0.16982329482E+04 0.  0.
        2    1    3    3  502    0 -0.76392944437E+03 -0.37010617669E+03 -0.11687421009E+04  0.14444808328E+04  0.25500000920E-02 0.  1.
       -2    1    3    3    0  502  0.76392944437E+03  0.37010617669E+03 -0.12409024040E+04  0.15034645171E+04  0.25500000920E-02 0. -1.
</event>
<event>
 5   0  0.5035495E-04  0.1725623E+04  0.7818609E-02  0.8746884E-01
        1   -1    0    0  501    0  0.00000000000E+00  0.00000000000E+00  0.74165820141E+03  0.74165820143E+03  0.50400001928E-02 0.  1.
       -1   -1    0    0    0  501  0.00000000000E+00  0.00000000000E+00 -0.10037556499E+04  0.10037556499E+04  0.50400001928E-02 0. -1.
    10030    2    1    2    0    0  0.00000000000E+00  0.00000000000E+00 -0.26209744853E+03  0.17454138514E+04  0.17256229136E+04 0.  0.
        4    1    3    3  502    0  0.48774570993E+03  0.58405574863E+03 -0.54243812073E+03  0.93448259630E+03  0.12699999809E+01 0.  1.
       -4    1    3    3    0  502 -0.48774570993E+03 -0.58405574863E+03  0.28034067220E+03  0.81093125508E+03  0.12699999809E+01 0. -1.
</event>
<event>
 5   0  0.9625225E-04  0.1564924E+04  0.7818609E-02  0.8842391E-01
       -2   -1    0    0    0  501  0.00000000000E+00  0.00000000000E+00  0.27999211121E+03  0.27999211122E+03  0.25500000920E-02 0.  1.
        2   -1    0    0  501    0  0.00000000000E+00  0.00000000000E+00 -0.21866583415E+04  0.21866583415E+04  0.25500000920E-02 0. -1.
    10030    2    1    2    0    0  0.00000000000E+00  0.00000000000E+00 -0.19066662303E+04  0.24666504527E+04  0.15649243887E+04 0.  0.
        1    1    3    3  502    0 -0.60874570615E+03  0.44655048203E+03 -0.62927548843E+03  0.98283585004E+03  0.50400001928E-02 0.  1.
       -1    1    3    3    0  502  0.60874570615E+03 -0.44655048203E+03 -0.12773907419E+04  0.14838146027E+04  0.50400001928E-02 0. -1.
</event>
<event>
 5   0  0.4947006E-04  0.1712864E+04  0.7818609E-02  0.8754062E-01
        1   -1    0    0  501    0  0.00000000000E+00  0.00000000000E+00  0.68826928523E+03  0.68826928525E+03  0.50400001928E-02 0.  1.
       -1   -1    0    0    0  501  0.00000000000E+00  0.00000000000E+00 -0.10656808410E+04  0.10656808411E+04  0.50400001928E-02 0. -1.
    10030    2    1    2    0    0  0.00000000000E+00  0.00000000000E+00 -0.37741155582E+03  0.17539501263E+04  0.17128635565E+04 0.  0.
        2    1    3    3  502    0 -0.39261156553E+03 -0.14933166353E+03 -0.95295391491E+03  0.10414244817E+04  0.25500000920E-02 0. -1.
       -2    1    3    3    0  502  0.39261156553E+03  0.14933166353E+03  0.57554235909E+03  0.71252564462E+03  0.25500000920E-02 0.  1.
</event>
<event>
 5   0  0.5035495E-04  0.1594323E+04  0.7818609E-02  0.8824043E-01
       -1   -1    0    0    0  501  0.00000000000E+00  0.00000000000E+00  0.86102114288E+03  0.86102114289E+03  0.50400001928E-02 0. -1.
        1   -1    0    0  501    0  0.00000000000E+00  0.00000000000E+00 -0.73803807275E+03  0.73803807277E+03  0.50400001928E-02 0.  1.
    10030    2    1    2    0    0  0.00000000000E+00  0.00000000000E+00  0.12298307012E+03  0.15990592157E+04  0.15943229095E+04 0.  0.
        4    1    3    3  502    0 -0.52250467711E+03 -0.11240517452E+03  0.65470333005E+03  0.84515331399E+03  0.12699999809E+01 0. -1.
       -4    1    3    3    0  502  0.52250467711E+03  0.11240517452E+03 -0.53172025993E+03  0.75390590167E+03  0.12699999809E+01 0.  1.
</event>
<event>
 5   0  0.9312096E-04  0.1671322E+04  0.7818609E-02  0.8777891E-01
       -2   -1    0    0    0  501  0.00000000000E+00  0.00000000000E+00  0.93520860407E+03  0.93520860407E+03  0.25500000920E-02 0.  1.
        2   -1    0    0  501    0  0.00000000000E+00  0.00000000000E+00 -0.74670994184E+03  0.74670994184E+03  0.25500000920E-02 0. -1.
    10030    2    1    2    0    0  0.00000000000E+00  0.00000000000E+00  0.18849866223E+03  0.16819185459E+04  0.16713223057E+04 0.  0.
        3    1    3    3  502    0  0.80130477243E+03  0.18716120365E+03  0.24081230703E+03  0.85738511294E+03  0.10100000352E+00 0. -1.
       -3    1    3    3    0  502 -0.80130477243E+03 -0.18716120365E+03 -0.52313644798E+02  0.82453343298E+03  0.10100000352E+00 0.  1.
</event>
<event>
 5   0  0.5009762E-04  0.1716414E+04  0.7818609E-02  0.8752058E-01
        1   -1    0    0  501    0  0.00000000000E+00  0.00000000000E+00  0.65570176148E+03  0.65570176150E+03  0.50400001928E-02 0.  1.
       -1   -1    0    0    0  501  0.00000000000E+00  0.00000000000E+00 -0.11232530844E+04  0.11232530844E+04  0.50400001928E-02 0. -1.
    10030    2    1    2    0    0  0.00000000000E+00  0.00000000000E+00 -0.46755132291E+03  0.17789548459E+04  0.17164137334E+04 0.  0.
        3    1    3    3  502    0  0.78907263231E+03  0.99413317081E+02  0.10046588057E+03  0.80163085646E+03  0.10100000352E+00 0.  1.
       -3    1    3    3    0  502 -0.78907263231E+03 -0.99413317081E+02 -0.56801720348E+03  0.97732398943E+03  0.10100000352E+00 0. -1.
</event>
<event>
 5   0  0.9610114E-04  0.1741134E+04  0.7818609E-02  0.8738246E-01
       -2   -1    0    0    0  501  0.00000000000E+00  0.00000000000E+00  0.28581141786E+03  0.28581141787E+03  0.25500000920E-02 0. -1.
        2   -1    0    0  501    0  0.00000000000E+00  0.00000000000E+00 -0.26517029929E+04  0.26517029929E+04  0.25500000920E-02 0.  1.
    10030    2    1    2    0    0  0.00000000000E+00  0.00000000000E+00 -0.23658915750E+04  0.29375144108E+04  0.17411341042E+04 0.  0.
        2    1    3    3  502    0 -0.13424583649E+03 -0.81264071398E+03 -0.70730725133E+03  0.10856750998E+04  0.25500000920E-02 0. -1.
       -2    1    3    3    0  502  0.13424583649E+03  0.81264071398E+03 -0.16585843237E+04  0.18518393109E+04  0.25500000920E-02 0.  1.
</event>
<event>
 5   0  0.9312096E-04  0.1673945E+04  0.7818609E-02  0.8776365E-01
        2   -1    0    0  501    0  0.00000000000E+00  0.00000000000E+00  0.13609922167E+04  0.13609922167E+04  0.25500000920E-02 0.  1.
       -2   -1    0    0    0  501  0.00000000000E+00  0.00000000000E+00 -0.51471500426E+03  0.51471500426E+03  0.25500000920E-02 0. -1.
    10030    2    1    2    0    0  0.00000000000E+00  0.00000000000E+00  0.84627721247E+03  0.18757072210E+04  0.16739451779E+04 0.  0.
        3    1    3    3  502    0 -0.56242660216E+03  0.51498558135E+03  0.36613485450E+02  0.76346210733E+03  0.10100000352E+00 0. -1.
       -3    1    3    3    0  502  0.56242660216E+03 -0.51498558135E+03  0.80966372702E+03  0.11122451137E+04  0.10100000352E+00 0.  1.
</event>
<event>
 5   0  0.9610114E-04  0.1825445E+04  0.7818609E-02  0.8692884E-01
        2   -1    0    0  501    0  0.00000000000E+00  0.00000000000E+00  0.16963564837E+04  0.16963564837E+04  0.25500000920E-02 0.  1.
       -2   -1    0    0    0  501  0.00000000000E+00  0.00000000000E+00 -0.49108895126E+03  0.49108895127E+03  0.25500000920E-02 0. -1.
    10030    2    1    2    0    0  0.00000000000E+00  0.00000000000E+00  0.12052675324E+04  0.21874454349E+04  0.18254445229E+04 0.  0.
        2    1    3    3  502    0 -0.78933045731E+03 -0.16826218449E+03  0.11134381895E+04  0.13751724748E+04  0.25500000920E-02 0.  1.
       -2    1    3    3    0  502  0.78933045731E+03  0.16826218449E+03  0.91829342898E+02  0.81227296015E+03  0.25500000920E-02 0. -1.
</event>
<event>
 5   0  0.9610114E-04  0.1661638E+04  0.7818609E-02  0.8783551E-01
        2   -1    0    0  501    0  0.00000000000E+00  0.00000000000E+00  0.95896372897E+03  0.95896372897E+03  0.25500000920E-02 0.  1.
       -2   -1    0    0    0  501  0.00000000000E+00  0.00000000000E+00 -0.71979797373E+03  0.71979797374E+03  0.25500000920E-02 0. -1.
    10030    2    1    2    0    0  0.00000000000E+00  0.00000000000E+00  0.23916575524E+03  0.16787617027E+04  0.16616379257E+04 0.  0.
        2    1    3    3  502    0  0.59833309992E+03 -0.41994264280E+03 -0.27933530437E+03  0.78254874224E+03  0.25500000920E-02 0. -1.
       -2    1    3    3    0  502 -0.59833309992E+03  0.41994264280E+03  0.51850105961E+03  0.89621296047E+03  0.25500000920E-02 0.  1.
</event>
<event>
 5   0  0.5059689E-04  0.1680833E+04  0.7818609E-02  0.8772372E-01
        1   -1    0    0  501    0  0.00000000000E+00  0.00000000000E+00  0.11730826895E+04  0.11730826895E+04  0.50400001928E-02 0. -1.
       -1   -1    0    0    0  501  0.00000000000E+00  0.00000000000E+00 -0.60208892268E+03  0.60208892270E+03  0.50400001928E-02 0.  1.
    10030    2    1    2    0    0  0.00000000000E+00  0.00000000000E+00  0.57099376686E+03  0.17751716122E+04  0.16808332372E+04 0.  0.
        5    1    3    3  502    0 -0.35666317176E+03 -0.51437197377E+03  0.87776687531E+03  0.10780927246E+04  0.46999998093E+01 0. -1.
       -5    1    3    3    0  502  0.35666317176E+03  0.51437197377E+03 -0.30677310846E+03  0.69707888762E+03  0.46999998093E+01 0.  1.
</event>
<event>
 5   0  0.5035495E-04  0.1735149E+04  0.7818609E-02  0.8741567E-01
        1   -1    0    0  501    0  0.00000000000E+00  0.00000000000E+00  0.11419506983E+04  0.11419506983E+04  0.50400001928E-02 0.  1.
       -1   -1    0    0    0  501  0.00000000000E+00  0.00000000000E+00 -0.65912283928E+03  0.65912283930E+03  0.50400001928E-02 0. -1.
    10030    2    1    2    0    0  0.00000000000E+00  0.00000000000E+00  0.48282785898E+03  0.18010735376E+04  0.17351493153E+04 0.  0.
        4    1    3    3  502    0 -0.13557024109E+03 -0.52743041174E+03  0.94244153976E+03  0.10884667189E+04  0.12699999809E+01 0.  1.
       -4    1    3    3    0  502  0.13557024109E+03  0.52743041174E+03 -0.45961368078E+03  0.71260681863E+03  0.12699999809E+01 0. -1.
</event>
<event>
 5   0  0.9610114E-04  0.1642795E+04  0.7818609E-02  0.8794680E-01
        2   -1    0    0  501    0  0.00000000000E+00  0.00000000000E+00  0.15400645660E+04  0.15400645660E+04  0.25500000920E-02 0. -1.
       -2   -1    0    0    0  501  0.00000000000E+00  0.00000000000E+00 -0.43809441731E+03  0.43809441731E+03  0.25500000920E-02 0.  1.
    10030    2    1    2    0    0  0.00000000000E+00  0.00000000000E+00  0.11019701487E+04  0.19781589834E+04  0.16427947999E+04 0.  0.
        2    1    3    3  502    0 -0.81378154380E+03 -0.88304154470E+02  0.46882351270E+03  0.94330986998E+03  0.25500000920E-02 0.  1.
       -2    1    3    3    0  502  0.81378154380E+03  0.88304154470E+02  0.63314663604E+03  0.10348491134E+04  0.25500000920E-02 0. -1.
</event>
<event>
 5   0  0.9610114E-04  0.1706815E+04  0.7818609E-02  0.8757487E-01
        2   -1    0    0  501    0  0.00000000000E+00  0.00000000000E+00  0.12463485710E+04  0.12463485710E+04  0.25500000920E-02 0.  1.
       -2   -1    0    0    0  501  0.00000000000E+00  0.00000000000E+00 -0.58435019121E+03  0.58435019122E+03  0.25500000920E-02 0. -1.
    10030    2    1    2    0    0  0.00000000000E+00  0.00000000000E+00  0.66199837976E+03  0.18306987622E+04  0.17068146071E+04 0.  0.
        2    1    3    3  502    0 -0.52937721616E+03 -0.49561858452E+03  0.81357293682E+03  0.10898527157E+04  0.25500000920E-02 0.  1.
       -2    1    3    3    0  502  0.52937721616E+03  0.49561858452E+03 -0.15157455706E+03  0.74084604653E+03  0.25500000920E-02 0. -1.
</event>
<event>
 5   0  0.3523125E-04  0.1726393E+04  0.7818609E-02  0.8746453E-01
       -3   -1    0    0    0  501  0.00000000000E+00  0.00000000000E+00  0.73946156168E+03  0.73946156858E+03  0.10100000352E+00 0.  1.
        3   -1    0    0  501    0  0.00000000000E+00  0.00000000000E+00 -0.10076366028E+04  0.10076366079E+04  0.10100000352E+00 0. -1.
    10030    2    1    2    0    0  0.00000000000E+00  0.00000000000E+00 -0.26817504113E+03  0.17470981765E+04  0.17263934040E+04 0.  0.
        5    1    3    3  502    0  0.31757218505E+03  0.69905041607E+03 -0.53323236954E+03  0.93481678786E+03  0.46999998093E+01 0. -1.
       -5    1    3    3    0  502 -0.31757218505E+03 -0.69905041607E+03  0.26505732841E+03  0.81228138860E+03  0.46999998093E+01 0.  1.
</event>
<event>
 5   0  0.9312096E-04  0.1623004E+04  0.7818609E-02  0.8806539E-01
       -2   -1    0    0    0  501  0.00000000000E+00  0.00000000000E+00  0.19884245564E+03  0.19884245565E+03  0.25500000920E-02 0. -1.
        2   -1    0    0  501    0  0.00000000000E+00  0.00000000000E+00 -0.33118465324E+04  0.33118465324E+04  0.25500000920E-02 0.  1.
    10030    2    1    2    0    0  0.00000000000E+00  0.00000000000E+00 -0.31130040767E+04  0.35106889880E+04  0.16230042479E+04 0.  0.
        3    1    3    3  502    0 -0.15196321674E+03 -0.64086380227E+01 -0.32807388781E+04  0.32842627005E+04  0.10100000352E+00 0.  1.
       -3    1    3    3    0  502  0.15196321674E+03  0.64086380227E+01  0.16773480133E+03  0.22642628748E+03  0.10100000352E+00 0. -1.
</event>
<event>
 5   0  0.3523125E-04  0.1706115E+04  0.7818609E-02  0.8757884E-01
       -4   -1    0    0    0  501  0.00000000000E+00  0.00000000000E+00  0.81190339532E+03  0.81190438860E+03  0.12699999809E+01 0.  1.
        4   -1    0    0  501    0  0.00000000000E+00  0.00000000000E+00 -0.89629572802E+03  0.89629662777E+03  0.12699999809E+01 0. -1.
    10030    2    1    2    0    0  0.00000000000E+00  0.00000000000E+00 -0.84392332698E+02  0.17082010164E+04  0.17061150742E+04 0.  0.
        5    1    3    3  502    0 -0.34776662784E+03  0.26901070521E+03 -0.77410064786E+03  0.89025967559E+03  0.46999998093E+01 0. -1.
       -5    1    3    3    0  502  0.34776662784E+03 -0.26901070521E+03  0.68970831517E+03  0.81794134079E+03  0.46999998093E+01 0.  1.
</event>
<event>
 5   0  0.5074133E-04  0.1820401E+04  0.7818609E-02  0.8695525E-01
       -1   -1    0    0    0  501  0.00000000000E+00  0.00000000000E+00  0.66338300061E+03  0.66338300063E+03  0.50400001928E-02 0. -1.
        1   -1    0    0  501    0  0.00000000000E+00  0.00000000000E+00 -0.12488481820E+04  0.12488481820E+04  0.50400001928E-02 0.  1.
    10030    2    1    2    0    0  0.00000000000E+00  0.00000000000E+00 -0.58546518136E+03  0.19122311826E+04  0.18204006749E+04 0.  0.
        1    1    3    3  502    0 -0.54473087065E+03 -0.52516921165E+03  0.23868289186E+03  0.79341284663E+03  0.50400001928E-02 0. -1.
       -1    1    3    3    0  502  0.54473087065E+03  0.52516921165E+03 -0.82414807322E+03  0.11188183360E+04  0.50400001928E-02 0.  1.
</event>
<event>
 5   0  0.9610114E-04  0.1669785E+04  0.7818609E-02  0.8778787E-01
        2   -1    0    0  501    0  0.00000000000E+00  0.00000000000E+00  0.87800000245E+03  0.87800000246E+03  0.25500000920E-02 0.  1.
       -2   -1    0    0    0  501  0.00000000000E+00  0.00000000000E+00 -0.79390153608E+03  0.79390153609E+03  0.25500000920E-02 0. -1.
    10030    2    1    2    0    0  0.00000000000E+00  0.00000000000E+00  0.84098466369E+02  0.16719015385E+04  0.16697850768E+04 0.  0.
        2    1    3    3  502    0 -0.53818085436E+03 -0.43378751177E+03 -0.42676995309E+03  0.81236865414E+03  0.25500000920E-02 0. -1.
       -2    1    3    3    0  502  0.53818085436E+03  0.43378751177E+03  0.51086841946E+03  0.85953288440E+03  0.25500000920E-02 0.  1.
</event>
<event>
 5   0  0.1007187E-03  0.1705384E+04  0.7818609E-02  0.8758300E-01
       -2   -1    0    0    0  501  0.00000000000E+00  0.00000000000E+00  0.13507465452E+04  0.13507465452E+04  0.25500000920E-02 0. -1.
        2   -1    0    0  501    0  0.00000000000E+00  0.00000000000E+00 -0.53828249877E+03  0.53828249877E+03  0.25500000920E-02 0.  1.
    10030    2    1    2    0    0  0.00000000000E+00  0.00000000000E+00  0.81246404648E+03  0.18890290440E+04  0.17053835059E+04 0.  0.
        5    1    3    3  502    0 -0.71604491153E+03 -0.32774667494E+02  0.91777018894E+03  0.11645250980E+04  0.46999998093E+01 0. -1.
       -5    1    3    3    0  502  0.71604491153E+03  0.32774667494E+02 -0.10530614246E+03  0.72450394602E+03  0.46999998093E+01 0.  1.
</event>
<event>
 5   0  0.3523125E-04  0.1154762E+04  0.7818609E-02  0.9153401E-01
       -4   -1    0    0    0  501  0.00000000000E+00  0.00000000000E+00  0.51190802128E+03  0.51190959666E+03  0.12699999809E+01 0. -1.
        4   -1    0    0  501    0  0.00000000000E+00  0.00000000000E+00 -0.65122497619E+03  0.65122621455E+03  0.12699999809E+01 0.  1.
    10030    2    1    2    0    0  0.00000000000E+00  0.00000000000E+00 -0.13931695492E+03  0.11631358112E+04  0.11547621839E+04 0.  0.
        5    1    3    3  502    0  0.14443724344E+03  0.64859071458E+02 -0.62891254790E+03  0.64855369812E+03  0.46999998093E+01 0.  1.
       -5    1    3    3    0  502 -0.14443724344E+03 -0.64859071458E+02  0.48959559298E+03  0.51458211309E+03  0.46999998093E+01 0. -1.
</event>
<event>
 5   0  0.5059689E-04  0.1629634E+04  0.7818609E-02  0.8802547E-01
       -1   -1    0    0    0  501  0.00000000000E+00  0.00000000000E+00  0.71880767262E+03  0.71880767264E+03  0.50400001928E-02 0.  1.
        1   -1    0    0  501    0  0.00000000000E+00  0.00000000000E+00 -0.92365032752E+03  0.92365032753E+03  0.50400001928E-02 0. -1.
    10030    2    1    2    0    0  0.00000000000E+00  0.00000000000E+00 -0.20484265490E+03  0.16424580002E+04  0.16296342439E+04 0.  0.
        5    1    3    3  502    0 -0.14304569693E+03 -0.12238574623E+03  0.69657449697E+03  0.72158053059E+03  0.46999998093E+01 0.  1.
       -5    1    3    3    0  502  0.14304569693E+03  0.12238574623E+03 -0.90141715187E+03  0.92087746958E+03  0.46999998093E+01 0. -1.
</event>
<event>
 5   0  0.9284971E-04  0.1791874E+04  0.7818609E-02  0.8710633E-01
       -2   -1    0    0    0  501  0.00000000000E+00  0.00000000000E+00  0.55733261605E+03  0.55733261605E+03  0.25500000920E-02 0.  1.
        2   -1    0    0  501    0  0.00000000000E+00  0.00000000000E+00 -0.14402589361E+04  0.14402589361E+04  0.25500000920E-02 0. -1.
    10030    2    1    2    0    0  0.00000000000E+00  0.00000000000E+00 -0.88292632006E+03  0.19975915522E+04  0.17918741927E+04 0.  0.
        4    1    3    3  502    0  0.49425818709E+03  0.92965237183E+02  0.38512446238E+03  0.63344783152E+03  0.12699999809E+01 0.  1.
       -4    1    3    3    0  502 -0.49425818709E+03 -0.92965237183E+02 -0.12680507824E+04  0.13641437206E+04  0.12699999809E+01 0. -1.
</event>
<event>
 5   0  0.5009762E-04  0.1680457E+04  0.7818609E-02  0.8772589E-01
       -1   -1    0    0    0  501  0.00000000000E+00  0.00000000000E+00  0.59603144500E+03  0.59603144502E+03  0.50400001928E-02 0. -1.
        1   -1    0    0  501    0  0.00000000000E+00  0.00000000000E+00 -0.11844746098E+04  0.11844746098E+04  0.50400001928E-02 0.  1.
    10030    2    1    2    0    0  0.00000000000E+00  0.00000000000E+00 -0.58844316480E+03  0.17805060548E+04  0.16804572155E+04 0.  0.
        3    1    3    3  502    0 -0.51089036056E+03  0.25307181950E+03 -0.94816243256E+03  0.11063753048E+04  0.10100000352E+00 0.  1.
       -3    1    3    3    0  502  0.51089036056E+03 -0.25307181950E+03  0.35971926776E+03  0.67413075003E+03  0.10100000352E+00 0. -1.
</event>
<event>
 5   0  0.4947006E-04  0.1705706E+04  0.7818609E-02  0.8758117E-01
       -1   -1    0    0    0  501  0.00000000000E+00  0.00000000000E+00  0.42046602113E+03  0.42046602116E+03  0.50400001928E-02 0. -1.
        1   -1    0    0  501    0  0.00000000000E+00  0.00000000000E+00 -0.17298856622E+04  0.17298856623E+04  0.50400001928E-02 0.  1.
    10030    2    1    2    0    0  0.00000000000E+00  0.00000000000E+00 -0.13094196411E+04  0.21503516834E+04  0.17057058849E+04 0.  0.
        2    1    3    3  502    0  0.78721249288E+03 -0.24211925012E+03 -0.37555242310E+03  0.90518774999E+03  0.25500000920E-02 0.  1.
       -2    1    3    3    0  502 -0.78721249288E+03  0.24211925012E+03 -0.93386721801E+03  0.12451639334E+04  0.25500000920E-02 0. -1.
</event>
<event>
 5   0  0.9610114E-04  0.1598428E+04  0.7818609E-02  0.8821514E-01
       -2   -1    0    0    0  501  0.00000000000E+00  0.00000000000E+00  0.69859097745E+03  0.69859097746E+03  0.25500000920E-02 0.  1.
        2   -1    0    0  501    0  0.00000000000E+00  0.00000000000E+00 -0.91433056571E+03  0.91433056572E+03  0.25500000920E-02 0. -1.
    10030    2    1    2    0    0  0.00000000000E+00  0.00000000000E+00 -0.21573958826E+03  0.16129215432E+04  0.15984280824E+04 0.  0.
        2    1    3    3  502    0 -0.31270990740E+03 -0.65251594799E+03  0.23458710263E+03  0.76065475566E+03  0.25500000920E-02 0. -1.
       -2    1    3    3    0  502  0.31270990740E+03  0.65251594799E+03 -0.45032669089E+03  0.85226678752E+03  0.25500000920E-02 0.  1.
</event>
<event>
 5   0  0.9312096E-04  0.1686453E+04  0.7818609E-02  0.8769128E-01
       -2   -1    0    0    0  501  0.00000000000E+00  0.00000000000E+00  0.37108428964E+03  0.37108428965E+03  0.25500000920E-02 0.  1.
        2   -1    0    0  501    0  0.00000000000E+00  0.00000000000E+00 -0.19160909663E+04  0.19160909663E+04  0.25500000920E-02 0. -1.
    10030    2    1    2    0    0  0.00000000000E+00  0.00000000000E+00 -0.15450066767E+04  0.22871752560E+04  0.16864533852E+04 0.  0.
        3    1    3    3  502    0 -0.28385721813E+03  0.50627795999E+03 -0.16020514233E+04  0.17039545376E+04  0.10100000352E+00 0. -1.
       -3    1    3    3    0  502  0.28385721813E+03 -0.50627795999E+03  0.57044746602E+02  0.58322071840E+03  0.10100000352E+00 0.  1.
</event>
<event>
 5   0  0.5035495E-04  0.1685050E+04  0.7818609E-02  0.8769937E-01
        1   -1    0    0  501    0  0.00000000000E+00  0.00000000000E+00  0.27635911984E+04  0.27635911984E+04  0.50400001928E-02 0. -1.
       -1   -1    0    0    0  501  0.00000000000E+00  0.00000000000E+00 -0.25685724877E+03  0.25685724882E+03  0.50400001928E-02 0.  1.
    10030    2    1    2    0    0  0.00000000000E+00  0.00000000000E+00  0.25067339496E+04  0.30204484472E+04  0.16850500669E+04 0.  0.
        4    1    3    3  502    0 -0.28401031306E+03  0.75043350912E+03  0.17139883597E+04  0.18925036379E+04  0.12699999809E+01 0. -1.
       -4    1    3    3    0  502  0.28401031306E+03 -0.75043350912E+03  0.79274558997E+03  0.11279448093E+04  0.12699999809E+01 0.  1.
</event>
<event>
 5   0  0.9312096E-04  0.1700501E+04  0.7818609E-02  0.8761078E-01
       -2   -1    0    0    0  501  0.00000000000E+00  0.00000000000E+00  0.32616518978E+03  0.32616518979E+03  0.25500000920E-02 0.  1.
        2   -1    0    0  501    0  0.00000000000E+00  0.00000000000E+00 -0.22164418578E+04  0.22164418578E+04  0.25500000920E-02 0. -1.
    10030    2    1    2    0    0  0.00000000000E+00  0.00000000000E+00 -0.18902766680E+04  0.25426070475E+04  0.17005013134E+04 0.  0.
        3    1    3    3  502    0 -0.31550046723E+03  0.71987004639E+02  0.23048447325E+03  0.39729809497E+03  0.10100000352E+00 0.  1.
       -3    1    3    3    0  502  0.31550046723E+03 -0.71987004639E+02 -0.21207611412E+04  0.21453089526E+04  0.10100000352E+00 0. -1.
</event>
<event>
 5   0  0.5009762E-04  0.1693669E+04  0.7818609E-02  0.8764983E-01
       -1   -1    0    0    0  501  0.00000000000E+00  0.00000000000E+00  0.58643345027E+03  0.58643345029E+03  0.50400001928E-02 0.  1.
        1   -1    0    0  501    0  0.00000000000E+00  0.00000000000E+00 -0.12228649890E+04  0.12228649890E+04  0.50400001928E-02 0. -1.
    10030    2    1    2    0    0  0.00000000000E+00  0.00000000000E+00 -0.63643153869E+03  0.18092984393E+04  0.16936693121E+04 0.  0.
        3    1    3    3  502    0  0.60941711642E+03 -0.76379718775E+02 -0.94103340858E+03  0.11237290463E+04  0.10100000352E+00 0. -1.
       -3    1    3    3    0  502 -0.60941711642E+03  0.76379718775E+02  0.30460186989E+03  0.68556939296E+03  0.10100000352E+00 0.  1.
</event>
<event>
 5   0  0.9610114E-04  0.1691323E+04  0.7818609E-02  0.8766329E-01
        2   -1    0    0  501    0  0.00000000000E+00  0.00000000000E+00  0.19080285521E+04  0.19080285521E+04  0.25500000920E-02 0.  1.
       -2   -1    0    0    0  501  0.00000000000E+00  0.00000000000E+00 -0.37480737712E+03  0.37480737713E+03  0.25500000920E-02 0. -1.
    10030    2    1    2    0    0  0.00000000000E+00  0.00000000000E+00  0.15332211750E+04  0.22828359292E+04  0.16913227688E+04 0.  0.
        2    1    3    3  502    0  0.46831021487E+03  0.20202537322E+03 -0.14384927966E+03  0.52992577220E+03  0.25500000920E-02 0. -1.
       -2    1    3    3    0  502 -0.46831021487E+03 -0.20202537322E+03  0.16770704546E+04  0.17529101570E+04  0.25500000920E-02 0.  1.
</event>
<event>
 5   0  0.9312096E-04  0.1027660E+04  0.7818609E-02  0.9278717E-01
        2   -1    0    0  501    0  0.00000000000E+00  0.00000000000E+00  0.93459650769E+03  0.93459650769E+03  0.25500000920E-02 0. -1.
       -2   -1    0    0    0  501  0.00000000000E+00  0.00000000000E+00 -0.28249777377E+03  0.28249777378E+03  0.25500000920E-02 0.  1.
    10030    2    1    2    0    0  0.00000000000E+00  0.00000000000E+00  0.65209873392E+03  0.12170942815E+04  0.10276603190E+04 0.  0.
        3    1    3    3  502    0 -0.25706085137E+03 -0.92976772633E+02  0.84133244668E+03  0.88462718565E+03  0.10100000352E+00 0. -1.
       -3    1    3    3    0  502  0.25706085137E+03  0.92976772633E+02 -0.18923371276E+03  0.33246709582E+03  0.10100000352E+00 0.  1.
</event>
<event>
 5   0  0.9625225E-04  0.1633089E+04  0.7818609E-02  0.8800474E-01
        2   -1    0    0  501    0  0.00000000000E+00  0.00000000000E+00  0.86429957518E+03  0.86429957519E+03  0.25500000920E-02 0. -1.
       -2   -1    0    0    0  501  0.00000000000E+00  0.00000000000E+00 -0.77142839844E+03  0.77142839845E+03  0.25500000920E-02 0.  1.
    10030    2    1    2    0    0  0.00000000000E+00  0.00000000000E+00  0.92871176740E+02  0.16357279736E+04  0.16330893877E+04 0.  0.
        1    1    3    3  502    0  0.36536525825E+03  0.38939638279E+03  0.66519087079E+03  0.85299484728E+03  0.50400001928E-02 0. -1.
       -1    1    3    3    0  502 -0.36536525825E+03 -0.38939638279E+03 -0.57231969405E+03  0.78273312636E+03  0.50400001928E-02 0.  1.
</event>
<event>
 5   0  0.5074133E-04  0.1746370E+04  0.7818609E-02  0.8735351E-01
        1   -1    0    0  501    0  0.00000000000E+00  0.00000000000E+00  0.12214900450E+04  0.12214900450E+04  0.50400001928E-02 0.  1.
       -1   -1    0    0    0  501  0.00000000000E+00  0.00000000000E+00 -0.62419859726E+03  0.62419859728E+03  0.50400001928E-02 0. -1.
    10030    2    1    2    0    0  0.00000000000E+00  0.00000000000E+00  0.59729144776E+03  0.18456886423E+04  0.17463703762E+04 0.  0.
        1    1    3    3  502    0  0.37610913142E+03  0.23824335572E+03  0.10925202439E+04  0.11797535585E+04  0.50400001928E-02 0.  1.
       -1    1    3    3    0  502 -0.37610913142E+03 -0.23824335572E+03 -0.49522879619E+03  0.66593508383E+03  0.50400001928E-02 0. -1.
</event>
<event>
 5   0  0.9312096E-04  0.1479313E+04  0.7818609E-02  0.8898328E-01
       -2   -1    0    0    0  501  0.00000000000E+00  0.00000000000E+00  0.44304983568E+03  0.44304983569E+03  0.25500000920E-02 0. -1.
        2   -1    0    0  501    0  0.00000000000E+00  0.00000000000E+00 -0.12348305257E+04  0.12348305257E+04  0.25500000920E-02 0.  1.
    10030    2    1    2    0    0  0.00000000000E+00  0.00000000000E+00 -0.79178069001E+03  0.16778803614E+04  0.14793126262E+04 0.  0.
        3    1    3    3  502    0  0.57354929219E+03  0.23659647199E+03 -0.85262702573E+03  0.10544712117E+04  0.10100000352E+00 0.  1.
       -3    1    3    3    0  502 -0.57354929219E+03 -0.23659647199E+03  0.60846335711E+02  0.62340914968E+03  0.10100000352E+00 0. -1.
</event>
<event>
 5   0  0.5035495E-04  0.1667352E+04  0.7818609E-02  0.8780207E-01
       -1   -1    0    0    0  501  0.00000000000E+00  0.00000000000E+00  0.59213715551E+03  0.59213715553E+03  0.50400001928E-02 0. -1.
        1   -1    0    0  501    0  0.00000000000E+00  0.00000000000E+00 -0.11737417043E+04  0.11737417043E+04  0.50400001928E-02 0.  1.
    10030    2    1    2    0    0  0.00000000000E+00  0.00000000000E+00 -0.58160454878E+03  0.17658788598E+04  0.16673524812E+04 0.  0.
        4    1    3    3  502    0 -0.81364501343E+03 -0.37409749706E+02 -0.47906085942E+03  0.94494371112E+03  0.12699999809E+01 0.  1.
       -4    1    3    3    0  502  0.81364501343E+03  0.37409749706E+02 -0.10254368936E+03  0.82093514871E+03  0.12699999809E+01 0. -1.
</event>
<event>
 5   0  0.1007187E-03  0.1675991E+04  0.7818609E-02  0.8775177E-01
       -2   -1    0    0    0  501  0.00000000000E+00  0.00000000000E+00  0.11821942673E+04  0.11821942673E+04  0.25500000920E-02 0. -1.
        2   -1    0    0  501    0  0.00000000000E+00  0.00000000000E+00 -0.59401127008E+03  0.59401127009E+03  0.25500000920E-02 0.  1.
    10030    2    1    2    0    0  0.00000000000E+00  0.00000000000E+00  0.58818299717E+03  0.17762055373E+04  0.16759913105E+04 0.  0.
        5    1    3    3  502    0  0.71532390096E+03  0.23982176760E+03 -0.92423764081E+02  0.76010986421E+03  0.46999998093E+01 0. -1.
       -5    1    3    3    0  502 -0.71532390096E+03 -0.23982176760E+03  0.68060676125E+03  0.10160956731E+04  0.46999998093E+01 0.  1.
</event>
<event>
 5   0  0.5035495E-04  0.1306764E+04  0.7818609E-02  0.9024218E-01
       -1   -1    0    0    0  501  0.00000000000E+00  0.00000000000E+00  0.60915654928E+03  0.60915654930E+03  0.50400001928E-02 0. -1.
        1   -1    0    0  501    0  0.00000000000E+00  0.00000000000E+00 -0.70081875693E+03  0.70081875695E+03  0.50400001928E-02 0.  1.
    10030    2    1    2    0    0  0.00000000000E+00  0.00000000000E+00 -0.91662207656E+02  0.13099753062E+04  0.13067644557E+04 0.  0.
        4    1    3    3  502    0 -0.31633524732E+03 -0.60853522291E+02  0.52401579356E+03  0.61511405826E+03  0.12699999809E+01 0. -1.
       -4    1    3    3    0  502  0.31633524732E+03  0.60853522291E+02 -0.61567800122E+03  0.69486124799E+03  0.12699999809E+01 0.  1.
</event>
<event>
 5   0  0.5009762E-04  0.1591094E+04  0.7818609E-02  0.8826038E-01
        1   -1    0    0  501    0  0.00000000000E+00  0.00000000000E+00  0.76961289643E+03  0.76961289644E+03  0.50400001928E-02 0.  1.
       -1   -1    0    0    0  501  0.00000000000E+00  0.00000000000E+00 -0.82235510885E+03  0.82235510886E+03  0.50400001928E-02 0. -1.
    10030    2    1    2    0    0  0.00000000000E+00  0.00000000000E+00 -0.52742212421E+02  0.15919680053E+04  0.15910940855E+04 0.  0.
        3    1    3    3  502    0 -0.48643324076E+03  0.52917302468E+03 -0.36751834817E+03  0.80728627773E+03  0.10100000352E+00 0. -1.
       -3    1    3    3    0  502  0.48643324076E+03 -0.52917302468E+03  0.31477613575E+03  0.78468172758E+03  0.10100000352E+00 0.  1.
</event>
<event>
 5   0  0.9625225E-04  0.1704473E+04  0.7818609E-02  0.8758817E-01
        2   -1    0    0  501    0  0.00000000000E+00  0.00000000000E+00  0.18072470929E+04  0.18072470929E+04  0.25500000920E-02 0.  1.
       -2   -1    0    0    0  501  0.00000000000E+00  0.00000000000E+00 -0.40188602116E+03  0.40188602117E+03  0.25500000920E-02 0. -1.
    10030    2    1    2    0    0  0.00000000000E+00  0.00000000000E+00  0.14053610718E+04  0.22091331141E+04  0.17044733420E+04 0.  0.
        1    1    3    3  502    0  0.66252590681E+03 -0.15243470844E+03  0.13687827667E+04  0.15283138356E+04  0.50400001928E-02 0.  1.
       -1    1    3    3    0  502 -0.66252590681E+03  0.15243470844E+03  0.36578305020E+02  0.68081927849E+03  0.50400001928E-02 0. -1.
</event>
<event>
 5   0  0.9284971E-04  0.1698264E+04  0.7818609E-02  0.8762355E-01
        2   -1    0    0  501    0  0.00000000000E+00  0.00000000000E+00  0.14259030963E+04  0.14259030963E+04  0.25500000920E-02 0.  1.
       -2   -1    0    0    0  501  0.00000000000E+00  0.00000000000E+00 -0.50566228945E+03  0.50566228946E+03  0.25500000920E-02 0. -1.
    10030    2    1    2    0    0  0.00000000000E+00  0.00000000000E+00  0.92024080685E+03  0.19315653858E+04  0.16982643189E+04 0.  0.
        4    1    3    3  502    0 -0.58270748046E+02  0.77243799933E+03  0.85570479102E+03  0.11542479132E+04  0.12699999809E+01 0.  1.
       -4    1    3    3    0  502  0.58270748046E+02 -0.77243799933E+03  0.64536015828E+02  0.77731747254E+03  0.12699999809E+01 0. -1.
</event>
<event>
 5   0  0.9312096E-04  0.1893578E+04  0.7818609E-02  0.8658060E-01
       -2   -1    0    0    0  501  0.00000000000E+00  0.00000000000E+00  0.54778284009E+03  0.54778284010E+03  0.25500000920E-02 0.  1.
        2   -1    0    0  501    0  0.00000000000E+00  0.00000000000E+00 -0.16364318682E+04  0.16364318682E+04  0.25500000920E-02 0. -1.
    10030    2    1    2    0    0  0.00000000000E+00  0.00000000000E+00 -0.10886490281E+04  0.21842147083E+04  0.18935778795E+04 0.  0.
        3    1    3    3  502    0  0.66688876816E+03  0.61425133100E+03 -0.85887720759E+03  0.12488856612E+04  0.10100000352E+00 0.  1.
       -3    1    3    3    0  502 -0.66688876816E+03 -0.61425133100E+03 -0.22977182054E+03  0.93532904715E+03  0.10100000352E+00 0. -1.
</event>
<event>
 5   0  0.4947006E-04  0.1755413E+04  0.7818609E-02  0.8730376E-01
        1   -1    0    0  501    0  0.00000000000E+00  0.00000000000E+00  0.17668575683E+04  0.17668575684E+04  0.50400001928E-02 0.  1.
       -1   -1    0    0    0  501  0.00000000000E+00  0.00000000000E+00 -0.43601074564E+03  0.43601074566E+03  0.50400001928E-02 0. -1.
    10030    2    1    2    0    0  0.00000000000E+00  0.00000000000E+00  0.13308468227E+04  0.22028683140E+04  0.17554132116E+04 0.  0.
        2    1    3    3  502    0  0.23110365377E+03 -0.84667518174E+03  0.65280410124E+03  0.10938102929E+04  0.25500000920E-02 0.  1.
       -2    1    3    3    0  502 -0.23110365377E+03  0.84667518174E+03  0.67804272147E+03  0.11090580212E+04  0.25500000920E-02 0. -1.
</event>
<event>
 5   0  0.4947006E-04  0.1709305E+04  0.7818609E-02  0.8756075E-01
       -1   -1    0    0    0  501  0.00000000000E+00  0.00000000000E+00  0.53599726840E+03  0.53599726842E+03  0.50400001928E-02 0.  1.
        1   -1    0    0  501    0  0.00000000000E+00  0.00000000000E+00 -0.13627509922E+04  0.13627509922E+04  0.50400001928E-02 0. -1.
    10030    2    1    2    0    0  0.00000000000E+00  0.00000000000E+00 -0.82675372376E+03  0.18987482606E+04  0.17093048989E+04 0.  0.
        2    1    3    3  502    0  0.14699573330E+03 -0.24115521135E+03  0.48266297489E+03  0.55922010774E+03  0.25500000920E-02 0.  1.
       -2    1    3    3    0  502 -0.14699573330E+03  0.24115521135E+03 -0.13094166986E+04  0.13395281528E+04  0.25500000920E-02 0. -1.
</event>
<event>
 5   0  0.1007187E-03  0.1713754E+04  0.7818609E-02  0.8753559E-01
       -2   -1    0    0    0  501  0.00000000000E+00  0.00000000000E+00  0.69372471975E+03  0.69372471975E+03  0.25500000920E-02 0.  1.
        2   -1    0    0  501    0  0.00000000000E+00  0.00000000000E+00 -0.10584001422E+04  0.10584001422E+04  0.25500000920E-02 0. -1.
    10030    2    1    2    0    0  0.00000000000E+00  0.00000000000E+00 -0.36467542241E+03  0.17521248619E+04  0.17137541737E+04 0.  0.
        5    1    3    3  502    0  0.75204497609E+03  0.16521977211E+03 -0.56671690783E+03  0.95606451811E+03  0.46999998093E+01 0. -1.
       -5    1    3    3    0  502 -0.75204497609E+03 -0.16521977211E+03  0.20204148542E+03  0.79606034381E+03  0.46999998093E+01 0.  1.
</event>
<event>
 5   0  0.5074133E-04  0.1696628E+04  0.7818609E-02  0.8763290E-01
        1   -1    0    0  501    0  0.00000000000E+00  0.00000000000E+00  0.83475118887E+03  0.83475118889E+03  0.50400001928E-02 0. -1.
       -1   -1    0    0    0  501  0.00000000000E+00  0.00000000000E+00 -0.86209668132E+03  0.86209668133E+03  0.50400001928E-02 0.  1.
    10030    2    1    2    0    0  0.00000000000E+00  0.00000000000E+00 -0.27345492444E+02  0.16968478702E+04  0.16966275132E+04 0.  0.
        1    1    3    3  502    0 -0.19840615995E+03 -0.38976048249E+03 -0.74064953140E+03  0.86013950404E+03  0.50400001928E-02 0.  1.
       -1    1    3    3    0  502  0.19840615995E+03  0.38976048249E+03  0.71330403896E+03  0.83670836618E+03  0.50400001928E-02 0. -1.
</event>
<event>
 5   0  0.9312096E-04  0.1721875E+04  0.7818609E-02  0.8748985E-01
       -2   -1    0    0    0  501  0.00000000000E+00  0.00000000000E+00  0.45110061161E+03  0.45110061161E+03  0.25500000920E-02 0. -1.
        2   -1    0    0  501    0  0.00000000000E+00  0.00000000000E+00 -0.16431227839E+04  0.16431227839E+04  0.25500000920E-02 0.  1.
    10030    2    1    2    0    0  0.00000000000E+00  0.00000000000E+00 -0.11920221723E+04  0.20942233955E+04  0.17218753645E+04 0.  0.
        3    1    3    3  502    0 -0.33036411981E+03 -0.68661724658E+03 -0.10855599864E+03  0.76965453938E+03  0.10100000352E+00 0. -1.
       -3    1    3    3    0  502  0.33036411981E+03  0.68661724658E+03 -0.10834661736E+04  0.13245688561E+04  0.10100000352E+00 0.  1.
</event>
<event>
 5   0  0.4947006E-04  0.1209138E+04  0.7818609E-02  0.9104896E-01
       -1   -1    0    0    0  501  0.00000000000E+00  0.00000000000E+00  0.39171572004E+03  0.39171572007E+03  0.50400001928E-02 0. -1.
        1   -1    0    0  501    0  0.00000000000E+00  0.00000000000E+00 -0.93308341897E+03  0.93308341898E+03  0.50400001928E-02 0.  1.
    10030    2    1    2    0    0  0.00000000000E+00  0.00000000000E+00 -0.54136769893E+03  0.13247991390E+04  0.12091376156E+04 0.  0.
        2    1    3    3  502    0 -0.10486584022E+03 -0.25095723964E+03 -0.86226420448E+03  0.90414376008E+03  0.25500000920E-02 0.  1.
       -2    1    3    3    0  502  0.10486584022E+03  0.25095723964E+03  0.32089650555E+03  0.42065537896E+03  0.25500000920E-02 0. -1.
</event>
<event>
 5   0  0.5035495E-04  0.1690079E+04  0.7818609E-02  0.8767043E-01
        1   -1    0    0  501    0  0.00000000000E+00  0.00000000000E+00  0.67396585976E+03  0.67396585978E+03  0.50400001928E-02 0.  1.
       -1   -1    0    0    0  501  0.00000000000E+00  0.00000000000E+00 -0.10595366823E+04  0.10595366823E+04  0.50400001928E-02 0. -1.
    10030    2    1    2    0    0  0.00000000000E+00  0.00000000000E+00 -0.38557082256E+03  0.17335025421E+04  0.16900787568E+04 0.  0.
        4    1    3    3  502    0  0.66332945458E+03  0.41840153061E+03  0.12998079830E+03  0.79496064491E+03  0.12699999809E+01 0. -1.
       -4    1    3    3    0  502 -0.66332945458E+03 -0.41840153061E+03 -0.51555162086E+03  0.93854189720E+03  0.12699999809E+01 0.  1.
</event>
<event>
 5   0  0.3523125E-04  0.1715906E+04  0.7818609E-02  0.8752344E-01
       -3   -1    0    0    0  501  0.00000000000E+00  0.00000000000E+00  0.11638892625E+04  0.11638892668E+04  0.10100000352E+00 0. -1.
        3   -1    0    0  501    0  0.00000000000E+00  0.00000000000E+00 -0.63243418819E+03  0.63243419625E+03  0.10100000352E+00 0.  1.
    10030    2    1    2    0    0  0.00000000000E+00  0.00000000000E+00  0.53145507427E+03  0.17963234631E+04  0.17159060254E+04 0.  0.
        4    1    3    3  502    0 -0.58937059774E+03  0.27998388055E+03  0.84891084130E+03  0.10707006604E+04  0.12699999809E+01 0. -1.
       -4    1    3    3    0  502  0.58937059774E+03 -0.27998388055E+03 -0.31745576702E+03  0.72562280268E+03  0.12699999809E+01 0.  1.
</event>
<event>
 5   0  0.9284971E-04  0.1623521E+04  0.7818609E-02  0.8806227E-01
       -2   -1    0    0    0  501  0.00000000000E+00  0.00000000000E+00  0.32357142662E+03  0.32357142663E+03  0.25500000920E-02 0. -1.
        2   -1    0    0  501    0  0.00000000000E+00  0.00000000000E+00 -0.20365064804E+04  0.20365064804E+04  0.25500000920E-02 0.  1.
    10030    2    1    2    0    0  0.00000000000E+00  0.00000000000E+00 -0.17129350538E+04  0.23600779071E+04  0.16235212437E+04 0.  0.
        4    1    3    3  502    0 -0.31405368943E+02 -0.91007251954E+02  0.31524159083E+03  0.32961718795E+03  0.12699999809E+01 0. -1.
       -4    1    3    3    0  502  0.31405368943E+02  0.91007251954E+02 -0.20281766446E+04  0.20304607191E+04  0.12699999809E+01 0.  1.
</event>
<event>
 5   0  0.5059689E-04  0.1644349E+04  0.7818609E-02  0.8793756E-01
        1   -1    0    0  501    0  0.00000000000E+00  0.00000000000E+00  0.13816358648E+04  0.13816358648E+04  0.50400001928E-02 0.  1.
       -1   -1    0    0    0  501  0.00000000000E+00  0.00000000000E+00 -0.48925414036E+03  0.48925414039E+03  0.50400001928E-02 0. -1.
    10030    2    1    2    0    0  0.00000000000E+00  0.00000000000E+00  0.89238172443E+03  0.18708900052E+04  0.16443491933E+04 0.  0.
        5    1    3    3  502    0  0.59227121733E+03 -0.88552529112E+02 -0.19473006975E+03  0.62973695727E+03  0.46999998093E+01 0. -1.
       -5    1    3    3    0  502 -0.59227121733E+03  0.88552529112E+02  0.10871117942E+04  0.12411530479E+04  0.46999998093E+01 0.  1.
</event>
<event>
 5   0  0.9610114E-04  0.1674060E+04  0.7818609E-02  0.8776299E-01
        2   -1    0    0  501    0  0.00000000000E+00  0.00000000000E+00  0.59837271782E+03  0.59837271782E+03  0.25500000920E-02 0. -1.
       -2   -1    0    0    0  501  0.00000000000E+00  0.00000000000E+00 -0.11708739451E+04  0.11708739451E+04  0.25500000920E-02 0.  1.
    10030    2    1    2    0    0  0.00000000000E+00  0.00000000000E+00 -0.57250122732E+03  0.17692466630E+04  0.16740597657E+04 0.  0.
        2    1    3    3  502    0  0.22348779169E+03 -0.78067439708E+03 -0.50082107346E+03  0.95405505865E+03  0.25500000920E-02 0.  1.
       -2    1    3    3    0  502 -0.22348779169E+03  0.78067439708E+03 -0.71680153863E+02  0.81519160432E+03  0.25500000920E-02 0. -1.
</event>
<event>
 5   0  0.4947006E-04  0.1655096E+04  0.7818609E-02  0.8787397E-01
       -1   -1    0    0    0  501  0.00000000000E+00  0.00000000000E+00  0.41185142814E+03  0.41185142817E+03  0.50400001928E-02 0.  1.
        1   -1    0    0  501    0  0.00000000000E+00  0.00000000000E+00 -0.16628231746E+04  0.16628231746E+04  0.50400001928E-02 0. -1.
    10030    2    1    2    0    0  0.00000000000E+00  0.00000000000E+00 -0.12509717464E+04  0.20746746028E+04  0.16550964917E+04 0.  0.
        2    1    3    3  502    0 -0.79637775272E+03 -0.10817363347E+03 -0.37820155930E+03  0.88823165867E+03  0.25500000920E-02 0.  1.
       -2    1    3    3    0  502  0.79637775272E+03  0.10817363347E+03 -0.87277018715E+03  0.11864429441E+04  0.25500000920E-02 0. -1.
</event>
<event>
 5   0  0.5074133E-04  0.1707049E+04  0.7818609E-02  0.8757354E-01
        1   -1    0    0  501    0  0.00000000000E+00  0.00000000000E+00  0.11439400573E+04  0.11439400573E+04  0.50400001928E-02 0.  1.
       -1   -1    0    0    0  501  0.00000000000E+00  0.00000000000E+00 -0.63683734861E+03  0.63683734863E+03  0.50400001928E-02 0. -1.
    10030    2    1    2    0    0  0.00000000000E+00  0.00000000000E+00  0.50710270872E+03  0.17807774060E+04  0.17070486263E+04 0.  0.
        1    1    3    3  502    0  0.62731906793E+03 -0.13102431537E+02  0.85716399793E+03  0.10622763323E+04  0.50400001928E-02 0.  1.
       -1    1    3    3    0  502 -0.62731906793E+03  0.13102431537E+02 -0.35006128921E+03  0.71850107372E+03  0.50400001928E-02 0. -1.
</event>
<event>
 5   0  0.9610114E-04  0.1698359E+04  0.7818609E-02  0.8762301E-01
       -2   -1    0    0    0  501  0.00000000000E+00  0.00000000000E+00  0.11879120015E+04  0.11879120015E+04  0.25500000920E-02 0.  1.
        2   -1    0    0  501    0  0.00000000000E+00  0.00000000000E+00 -0.60703656566E+03  0.60703656566E+03  0.25500000920E-02 0. -1.
    10030    2    1    2    0    0  0.00000000000E+00  0.00000000000E+00  0.58087543586E+03  0.17949485672E+04  0.16983592337E+04 0.  0.
        2    1    3    3  502    0  0.79289250258E+03 -0.12945617536E+02  0.61145541146E+03  0.10013609888E+04  0.25500000920E-02 0.  1.
       -2    1    3    3    0  502 -0.79289250258E+03  0.12945617536E+02 -0.30579975600E+02  0.79358757839E+03  0.25500000920E-02 0. -1.
</event>
<event>
 5   0  0.9284971E-04  0.1723568E+04  0.7818609E-02  0.8748036E-01
       -2   -1    0    0    0  501  0.00000000000E+00  0.00000000000E+00  0.93966900764E+03  0.93966900765E+03  0.25500000920E-02 0.  1.
        2   -1    0    0  501    0  0.00000000000E+00  0.00000000000E+00 -0.79035430401E+03  0.79035430401E+03  0.25500000920E-02 0. -1.
    10030    2    1    2    0    0  0.00000000000E+00  0.00000000000E+00  0.14931470364E+03  0.17300233117E+04  0.17235677469E+04 0.  0.
        4    1    3    3  502    0 -0.70689280655E+02  0.68822755249E+03 -0.44109173514E+03  0.82049842786E+03  0.12699999809E+01 0. -1.
       -4    1    3    3    0  502  0.70689280655E+02 -0.68822755249E+03  0.59040643878E+03  0.90952488380E+03  0.12699999809E+01 0.  1.
</event>
<event>
 5   0  0.4947006E-04  0.1695223E+04  0.7818609E-02  0.8764093E-01
        1   -1    0    0  501    0  0.00000000000E+00  0.00000000000E+00  0.96259929493E+03  0.96259929495E+03  0.50400001928E-02 0. -1.
       -1   -1    0    0    0  501  0.00000000000E+00  0.00000000000E+00 -0.74635979252E+03  0.74635979254E+03  0.50400001928E-02 0.  1.
    10030    2    1    2    0    0  0.00000000000E+00  0.00000000000E+00  0.21623950242E+03  0.17089590875E+04  0.16952231830E+04 0.  0.
        2    1    3    3  502    0  0.11356312555E+03 -0.23751373886E+03  0.92033782113E+03  0.95725182927E+03  0.25500000920E-02 0. -1.
       -2    1    3    3    0  502 -0.11356312555E+03  0.23751373886E+03 -0.70409831871E+03  0.75170725822E+03  0.25500000920E-02 0.  1.
</event>
<event>
 5   0  0.5074133E-04  0.1679495E+04  0.7818609E-02  0.8773146E-01
       -1   -1    0    0    0  501  0.00000000000E+00  0.00000000000E+00  0.10893963562E+04  0.10893963563E+04  0.50400001928E-02 0. -1.
        1   -1    0    0  501    0  0.00000000000E+00  0.00000000000E+00 -0.64730916774E+03  0.64730916776E+03  0.50400001928E-02 0.  1.
    10030    2    1    2    0    0  0.00000000000E+00  0.00000000000E+00  0.44208718850E+03  0.17367055240E+04  0.16794954584E+04 0.  0.
        1    1    3    3  502    0 -0.19151290303E+02 -0.44734031325E+03 -0.51357570790E+03  0.68135169740E+03  0.50400001928E-02 0.  1.
       -1    1    3    3    0  502  0.19151290303E+02  0.44734031325E+03  0.95566289640E+03  0.10553538266E+04  0.50400001928E-02 0. -1.
</event>
<event>
 5   0  0.5035495E-04  0.1711911E+04  0.7818609E-02  0.8754600E-01
       -1   -1    0    0    0  501  0.00000000000E+00  0.00000000000E+00  0.31616657658E+03  0.31616657662E+03  0.50400001928E-02 0. -1.
        1   -1    0    0  501    0  0.00000000000E+00  0.00000000000E+00 -0.23173228221E+04  0.23173228221E+04  0.50400001928E-02 0.  1.
    10030    2    1    2    0    0  0.00000000000E+00  0.00000000000E+00 -0.20011562455E+04  0.26334893987E+04  0.17119112402E+04 0.  0.
        4    1    3    3  502    0  0.30705848263E+03  0.54334793774E+03 -0.19017136847E+04  0.20015065437E+04  0.12699999809E+01 0.  1.
       -4    1    3    3    0  502 -0.30705848263E+03 -0.54334793774E+03 -0.99442560834E+02  0.63198285499E+03  0.12699999809E+01 0. -1.
</event>
<event>
 5   0  0.9284971E-04  0.1692918E+04  0.7818609E-02  0.8765414E-01
       -2   -1    0    0    0  501  0.00000000000E+00  0.00000000000E+00  0.76189263300E+03  0.76189263301E+03  0.25500000920E-02 0.  1.
        2   -1    0    0  501    0  0.00000000000E+00  0.00000000000E+00 -0.94041180822E+03  0.94041180823E+03  0.25500000920E-02 0. -1.
    10030    2    1    2    0    0  0.00000000000E+00  0.00000000000E+00 -0.17851917522E+03  0.17023044412E+04  0.16929179882E+04 0.  0.
        4    1    3    3  502    0  0.14509982017E+03  0.74758158781E+03  0.28232827529E+03  0.81218412701E+03  0.12699999809E+01 0.  1.
       -4    1    3    3    0  502 -0.14509982017E+03 -0.74758158781E+03 -0.46084745051E+03  0.89012031422E+03  0.12699999809E+01 0. -1.
</event>
<event>
 5   0  0.5009762E-04  0.1667107E+04  0.7818609E-02  0.8780350E-01
       -1   -1    0    0    0  501  0.00000000000E+00  0.00000000000E+00  0.67142564183E+03  0.67142564185E+03  0.50400001928E-02 0.  1.
        1   -1    0    0  501    0  0.00000000000E+00  0.00000000000E+00 -0.10348299577E+04  0.10348299577E+04  0.50400001928E-02 0. -1.
    10030    2    1    2    0    0  0.00000000000E+00  0.00000000000E+00 -0.36340431583E+03  0.17062555995E+04  0.16671069174E+04 0.  0.
        3    1    3    3  502    0  0.43599843185E+02 -0.71709834856E+03  0.25093025946E+03  0.76098422661E+03  0.10100000352E+00 0.  1.
       -3    1    3    3    0  502 -0.43599843185E+02  0.71709834856E+03 -0.61433457529E+03  0.94527137291E+03  0.10100000352E+00 0. -1.
</event>
<event>
 5   0  0.5074133E-04  0.1723488E+04  0.7818609E-02  0.8748081E-01
        1   -1    0    0  501    0  0.00000000000E+00  0.00000000000E+00  0.21886685439E+04  0.21886685439E+04  0.50400001928E-02 0. -1.
       -1   -1    0    0    0  501  0.00000000000E+00  0.00000000000E+00 -0.33929424906E+03  0.33929424909E+03  0.50400001928E-02 0.  1.
    10030    2    1    2    0    0  0.00000000000E+00  0.00000000000E+00  0.18493742949E+04  0.25279627930E+04  0.17234879171E+04 0.  0.
        1    1    3    3  502    0  0.76292681321E+03 -0.20507369650E+03  0.41978934549E+03  0.89461479863E+03  0.50400001928E-02 0.  1.
       -1    1    3    3    0  502 -0.76292681321E+03  0.20507369650E+03  0.14295849494E+04  0.16333479944E+04  0.50400001928E-02 0. -1.
</event>
<event>
 5   0  0.5074133E-04  0.1652064E+04  0.7818609E-02  0.8789186E-01
        1   -1    0    0  501    0  0.00000000000E+00  0.00000000000E+00  0.14278668999E+04  0.14278668999E+04  0.50400001928E-02 0. -1.
       -1   -1    0    0    0  501  0.00000000000E+00  0.00000000000E+00 -0.47786599679E+03  0.47786599682E+03  0.50400001928E-02 0.  1.
    10030    2    1    2    0    0  0.00000000000E+00  0.00000000000E+00  0.95000090307E+03  0.19057328967E+04  0.16520642111E+04 0.  0.
        1    1    3    3  502    0  0.51379923059E+02  0.80956796778E+03  0.65477929004E+03  0.10424855441E+04  0.50400001928E-02 0. -1.
       -1    1    3    3    0  502 -0.51379923059E+02 -0.80956796778E+03  0.29522161302E+03  0.86324735260E+03  0.50400001928E-02 0.  1.
</event>
<event>
 5   0  0.9284971E-04  0.1724670E+04  0.7818609E-02  0.8747418E-01
        2   -1    0    0  501    0  0.00000000000E+00  0.00000000000E+00  0.77260016033E+03  0.77260016033E+03  0.25500000920E-02 0. -1.
       -2   -1    0    0    0  501  0.00000000000E+00  0.00000000000E+00 -0.96249167500E+03  0.96249167500E+03  0.25500000920E-02 0.  1.
    10030    2    1    2    0    0  0.00000000000E+00  0.00000000000E+00 -0.18989151467E+03  0.17350918353E+04  0.17246695016E+04 0.  0.
        4    1    3    3  502    0 -0.55891679045E+03  0.52623610502E+03 -0.49013914343E+03  0.91079657976E+03  0.12699999809E+01 0.  1.
       -4    1    3    3    0  502  0.55891679045E+03 -0.52623610502E+03  0.30024762876E+03  0.82429525557E+03  0.12699999809E+01 0. -1.
</event>
<event>
 5   0  0.9312096E-04  0.1697348E+04  0.7818609E-02  0.8762878E-01
       -2   -1    0    0    0  501  0.00000000000E+00  0.00000000000E+00  0.56718159413E+03  0.56718159414E+03  0.25500000920E-02 0.  1.
        2   -1    0    0  501    0  0.00000000000E+00  0.00000000000E+00 -0.12698710334E+04  0.12698710334E+04  0.25500000920E-02 0. -1.
    10030    2    1    2    0    0  0.00000000000E+00  0.00000000000E+00 -0.70268943930E+03  0.18370526276E+04  0.16973479043E+04 0.  0.
        3    1    3    3  502    0 -0.19938674347E+02 -0.13746843170E+03  0.55479460120E+03  0.57191973228E+03  0.10100000352E+00 0.  1.
       -3    1    3    3    0  502  0.19938674347E+02  0.13746843170E+03 -0.12574840405E+04  0.12651328953E+04  0.10100000352E+00 0. -1.
</event>
<event>
 5   0  0.1007187E-03  0.1858131E+04  0.7818609E-02  0.8675982E-01
        2   -1    0    0  501    0  0.00000000000E+00  0.00000000000E+00  0.18377032349E+04  0.18377032349E+04  0.25500000920E-02 0. -1.
       -2   -1    0    0    0  501  0.00000000000E+00  0.00000000000E+00 -0.46969669845E+03  0.46969669845E+03  0.25500000920E-02 0.  1.
    10030    2    1    2    0    0  0.00000000000E+00  0.00000000000E+00  0.13680065364E+04  0.23073999333E+04  0.18581314724E+04 0.  0.
        5    1    3    3  502    0  0.30605251517E+03  0.32530519431E+03 -0.32761299531E+03  0.55393499274E+03  0.46999998093E+01 0.  1.
       -5    1    3    3    0  502 -0.30605251517E+03 -0.32530519431E+03  0.16956195318E+04  0.17534649406E+04  0.46999998093E+01 0. -1.
</event>
<event>
 5   0  0.9312096E-04  0.1700119E+04  0.7818609E-02  0.8761297E-01
        2   -1    0    0  501    0  0.00000000000E+00  0.00000000000E+00  0.95708005166E+03  0.95708005167E+03  0.25500000920E-02 0. -1.
       -2   -1    0    0    0  501  0.00000000000E+00  0.00000000000E+00 -0.75500580667E+03  0.75500580668E+03  0.25500000920E-02 0.  1.
    10030    2    1    2    0    0  0.00000000000E+00  0.00000000000E+00  0.20207424499E+03  0.17120858583E+04  0.17001188152E+04 0.  0.
        3    1    3    3  502    0 -0.55556263976E+03  0.63527045947E+03  0.20364931560E+03  0.86815405161E+03  0.10100000352E+00 0. -1.
       -3    1    3    3    0  502  0.55556263976E+03 -0.63527045947E+03 -0.15750706084E+01  0.84393180674E+03  0.10100000352E+00 0.  1.
</event>
<event>
 5   0  0.5059689E-04  0.1693064E+04  0.7818609E-02  0.8765330E-01
        1   -1    0    0  501    0  0.00000000000E+00  0.00000000000E+00  0.59701604134E+03  0.59701604137E+03  0.50400001928E-02 0.  1.
       -1   -1    0    0    0  501  0.00000000000E+00  0.00000000000E+00 -0.12003300059E+04  0.12003300059E+04  0.50400001928E-02 0. -1.
    10030    2    1    2    0    0  0.00000000000E+00  0.00000000000E+00 -0.60331396455E+03  0.17973460473E+04  0.16930638127E+04 0.  0.
        5    1    3    3  502    0 -0.35880034001E+03 -0.24019356010E+03  0.47131420489E+03  0.63921029406E+03  0.46999998093E+01 0.  1.
       -5    1    3    3    0  502  0.35880034001E+03  0.24019356010E+03 -0.10746281694E+04  0.11581357532E+04  0.46999998093E+01 0. -1.
</event>
<event>
 5   0  0.1007187E-03  0.1795540E+04  0.7818609E-02  0.8708675E-01
       -2   -1    0    0    0  501  0.00000000000E+00  0.00000000000E+00  0.67555258295E+03  0.67555258295E+03  0.25500000920E-02 0.  1.
        2   -1    0    0  501    0  0.00000000000E+00  0.00000000000E+00 -0.11930839554E+04  0.11930839554E+04  0.25500000920E-02 0. -1.
    10030    2    1    2    0    0  0.00000000000E+00  0.00000000000E+00 -0.51753137244E+03  0.18686365383E+04  0.17955399720E+04 0.  0.
        5    1    3    3  502    0 -0.74795640970E+03  0.13850091968E+03 -0.75498642348E+03  0.10717499173E+04  0.46999998093E+01 0. -1.
       -5    1    3    3    0  502  0.74795640970E+03 -0.13850091968E+03  0.23745505104E+03  0.79688662106E+03  0.46999998093E+01 0.  1.
</event>
<event>
 5   0  0.9610114E-04  0.1727291E+04  0.7818609E-02  0.8745951E-01
        2   -1    0    0  501    0  0.00000000000E+00  0.00000000000E+00  0.23090760575E+04  0.23090760575E+04  0.25500000920E-02 0. -1.
       -2   -1    0    0    0  501  0.00000000000E+00  0.00000000000E+00 -0.32302252513E+03  0.32302252514E+03  0.25500000920E-02 0.  1.
    10030    2    1    2    0    0  0.00000000000E+00  0.00000000000E+00  0.19860535324E+04  0.26320985826E+04  0.17272910337E+04 0.  0.
        2    1    3    3  502    0  0.43507380794E+01 -0.39698711017E+02 -0.32161472359E+03  0.32408478368E+03  0.25500000920E-02 0.  1.
       -2    1    3    3    0  502 -0.43507380794E+01  0.39698711017E+02  0.23076682560E+04  0.23080137989E+04  0.25500000920E-02 0. -1.
</event>
<event>
 5   0  0.1007187E-03  0.1687201E+04  0.7818609E-02  0.8768698E-01
       -2   -1    0    0    0  501  0.00000000000E+00  0.00000000000E+00  0.96411961871E+03  0.96411961871E+03  0.25500000920E-02 0.  1.
        2   -1    0    0  501    0  0.00000000000E+00  0.00000000000E+00 -0.73814691092E+03  0.73814691092E+03  0.25500000920E-02 0. -1.
    10030    2    1    2    0    0  0.00000000000E+00  0.00000000000E+00  0.22597270779E+03  0.17022665296E+04  0.16872011360E+04 0.  0.
        5    1    3    3  502    0  0.30413451025E+03  0.66301744816E+03  0.54050324108E+03  0.90788533445E+03  0.46999998093E+01 0.  1.
       -5    1    3    3    0  502 -0.30413451025E+03 -0.66301744816E+03 -0.31453053328E+03  0.79438119518E+03  0.46999998093E+01 0. -1.
</event>
<event>
 5   0  0.5074133E-04  0.1692126E+04  0.7818609E-02  0.8765868E-01
       -1   -1    0    0    0  501  0.00000000000E+00  0.00000000000E+00  0.63782961196E+03  0.63782961198E+03  0.50400001928E-02 0.  1.
        1   -1    0    0  501    0  0.00000000000E+00  0.00000000000E+00 -0.11222785901E+04  0.11222785902E+04  0.50400001928E-02 0. -1.
    10030    2    1    2    0    0  0.00000000000E+00  0.00000000000E+00 -0.48444897819E+03  0.17601082021E+04  0.16921259027E+04 0.  0.
        1    1    3    3  502    0  0.41133890788E+03 -0.25851757457E+03  0.47827381156E+03  0.68174546009E+03  0.50400001928E-02 0.  1.
       -1    1    3    3    0  502 -0.41133890788E+03  0.25851757457E+03 -0.96272278975E+03  0.10783627420E+04  0.50400001928E-02 0. -1.
</event>
<event>
 5   0  0.9610114E-04  0.1664097E+04  0.7818609E-02  0.8782110E-01
       -2   -1    0    0    0  501  0.00000000000E+00  0.00000000000E+00  0.11960040169E+04  0.11960040169E+04  0.25500000920E-02 0.  1.
        2   -1    0    0  501    0  0.00000000000E+00  0.00000000000E+00 -0.57884807214E+03  0.57884807214E+03  0.25500000920E-02 0. -1.
    10030    2    1    2    0    0  0.00000000000E+00  0.00000000000E+00  0.61715594474E+03  0.17748520890E+04  0.16640968955E+04 0.  0.
        2    1    3    3  502    0  0.27230861309E+02 -0.67556470966E+03  0.82580298906E+03  0.10672768027E+04  0.25500000920E-02 0.  1.
       -2    1    3    3    0  502 -0.27230861309E+02  0.67556470966E+03 -0.20864704432E+03  0.70757528636E+03  0.25500000920E-02 0. -1.
</event>
<event>
 5   0  0.5059689E-04  0.1781719E+04  0.7818609E-02  0.8716082E-01
       -1   -1    0    0    0  501  0.00000000000E+00  0.00000000000E+00  0.70557446726E+03  0.70557446728E+03  0.50400001928E-02 0. -1.
        1   -1    0    0  501    0  0.00000000000E+00  0.00000000000E+00 -0.11248005561E+04  0.11248005561E+04  0.50400001928E-02 0.  1.
    10030    2    1    2    0    0  0.00000000000E+00  0.00000000000E+00 -0.41922608879E+03  0.18303750233E+04  0.17817188927E+04 0.  0.
        5    1    3    3  502    0  0.33644221518E+03  0.81958856781E+03 -0.30537714859E+03  0.93712116480E+03  0.46999998093E+01 0. -1.
       -5    1    3    3    0  502 -0.33644221518E+03 -0.81958856781E+03 -0.11384894020E+03  0.89325385855E+03  0.46999998093E+01 0.  1.
</event>
<event>
 5   0  0.5009762E-04  0.1828671E+04  0.7818609E-02  0.8691200E-01
       -1   -1    0    0    0  501  0.00000000000E+00  0.00000000000E+00  0.96020367377E+03  0.96020367379E+03  0.50400001928E-02 0. -1.
        1   -1    0    0  501    0  0.00000000000E+00  0.00000000000E+00 -0.87065797430E+03  0.87065797431E+03  0.50400001928E-02 0.  1.
    10030    2    1    2    0    0  0.00000000000E+00  0.00000000000E+00  0.89545699474E+02  0.18308616481E+04  0.18286705395E+04 0.  0.
        3    1    3    3  502    0  0.58150748916E+03 -0.17520449477E+03  0.72908387142E+03  0.94889982437E+03  0.10100000352E+00 0. -1.
       -3    1    3    3    0  502 -0.58150748916E+03  0.17520449477E+03 -0.63953817195E+03  0.88196182372E+03  0.10100000352E+00 0.  1.
</event>
<event>
 5   0  0.9284971E-04  0.1553596E+04  0.7818609E-02  0.8849574E-01
       -2   -1    0    0    0  501  0.00000000000E+00  0.00000000000E+00  0.46914674758E+03  0.46914674759E+03  0.25500000920E-02 0. -1.
        2   -1    0    0  501    0  0.00000000000E+00  0.00000000000E+00 -0.12861961962E+04  0.12861961962E+04  0.25500000920E-02 0.  1.
    10030    2    1    2    0    0  0.00000000000E+00  0.00000000000E+00 -0.81704944863E+03  0.17553429438E+04  0.15535955229E+04 0.  0.
        4    1    3    3  502    0 -0.15460497983E+03  0.24888196883E+03 -0.12213698683E+04  0.12560218558E+04  0.12699999809E+01 0.  1.
       -4    1    3    3    0  502  0.15460497983E+03 -0.24888196883E+03  0.40432041969E+03  0.49932108796E+03  0.12699999809E+01 0. -1.
</event>
<event>
 5   0  0.5059689E-04  0.1649074E+04  0.7818609E-02  0.8790954E-01
       -1   -1    0    0    0  501  0.00000000000E+00  0.00000000000E+00  0.13404530174E+04  0.13404530174E+04  0.50400001928E-02 0.  1.
        1   -1    0    0  501    0  0.00000000000E+00  0.00000000000E+00 -0.50718782044E+03  0.50718782047E+03  0.50400001928E-02 0. -1.
    10030    2    1    2    0    0  0.00000000000E+00  0.00000000000E+00  0.83326519694E+03  0.18476408379E+04  0.16490742183E+04 0.  0.
        5    1    3    3  502    0  0.39382133407E+02 -0.17473652411E+03 -0.48511069673E+03  0.51714435448E+03  0.46999998093E+01 0. -1.
       -5    1    3    3    0  502 -0.39382133407E+02  0.17473652411E+03  0.13183758937E+04  0.13304964834E+04  0.46999998093E+01 0.  1.
</event>
<event>
 5   0  0.5035495E-04  0.1661027E+04  0.7818609E-02  0.8783910E-01
       -1   -1    0    0    0  501  0.00000000000E+00  0.00000000000E+00  0.10625496432E+04  0.10625496432E+04  0.50400001928E-02 0.  1.
        1   -1    0    0  501    0  0.00000000000E+00  0.00000000000E+00 -0.64914861201E+03  0.64914861203E+03  0.50400001928E-02 0. -1.
    10030    2    1    2    0    0  0.00000000000E+00  0.00000000000E+00  0.41340103122E+03  0.17116982553E+04  0.16610269427E+04 0.  0.
        4    1    3    3  502    0  0.75906215114E+03  0.30853642194E+03  0.66988295800E+02  0.82210651233E+03  0.12699999809E+01 0.  1.
       -4    1    3    3    0  502 -0.75906215114E+03 -0.30853642194E+03  0.34641273542E+03  0.88959174294E+03  0.12699999809E+01 0. -1.
</event>
<event>
 5   0  0.5009762E-04  0.1481742E+04  0.7818609E-02  0.8896686E-01
        1   -1    0    0  501    0  0.00000000000E+00  0.00000000000E+00  0.16352201511E+04  0.16352201511E+04  0.50400001928E-02 0. -1.
       -1   -1    0    0    0  501  0.00000000000E+00  0.00000000000E+00 -0.33566734773E+03  0.33566734776E+03  0.50400001928E-02 0.  1.
    10030    2    1    2    0    0  0.00000000000E+00  0.00000000000E+00  0.12995528034E+04  0.19708874989E+04  0.14817422328E+04 0.  0.
        3    1    3    3  502    0 -0.29242074197E+03 -0.40380161085E+03  0.13787041158E+04  0.14660800389E+04  0.10100000352E+00 0. -1.
       -3    1    3    3    0  502  0.29242074197E+03  0.40380161085E+03 -0.79151312384E+02  0.50480746004E+03  0.10100000352E+00 0.  1.
</event>
<event>
 5   0  0.1007187E-03  0.1668016E+04  0.7818609E-02  0.8779819E-01
        2   -1    0    0  501    0  0.00000000000E+00  0.00000000000E+00  0.47590934885E+03  0.47590934885E+03  0.25500000920E-02 0.  1.
       -2   -1    0    0    0  501  0.00000000000E+00  0.00000000000E+00 -0.14615592712E+04  0.14615592712E+04  0.25500000920E-02 0. -1.
    10030    2    1    2    0    0  0.00000000000E+00  0.00000000000E+00 -0.98564992234E+03  0.19374686200E+04  0.16680164520E+04 0.  0.
        5    1    3    3  502    0  0.52757737192E+03 -0.48308952240E+03 -0.99084586741E+03  0.12220928741E+04  0.46999998093E+01 0. -1.
       -5    1    3    3    0  502 -0.52757737192E+03  0.48308952240E+03  0.51959450677E+01  0.71537574592E+03  0.46999998093E+01 0.  1.
</event>
<event>
 5   0  0.5035495E-04  0.1739451E+04  0.7818609E-02  0.8739178E-01
        1   -1    0    0  501    0  0.00000000000E+00  0.00000000000E+00  0.11396360526E+04  0.11396360526E+04  0.50400001928E-02 0. -1.
       -1   -1    0    0    0  501  0.00000000000E+00  0.00000000000E+00 -0.66374042952E+03  0.66374042954E+03  0.50400001928E-02 0.  1.
    10030    2    1    2    0    0  0.00000000000E+00  0.00000000000E+00  0.47589562305E+03  0.18033764821E+04  0.17394510893E+04 0.  0.
        4    1    3    3  502    0 -0.47124457374E+03 -0.73079456963E+03  0.22033040997E+03  0.89703915953E+03  0.12699999809E+01 0. -1.
       -4    1    3    3    0  502  0.47124457374E+03  0.73079456963E+03  0.25556521308E+03  0.90633732259E+03  0.12699999809E+01 0.  1.
</event>
<event>
 5   0  0.3523125E-04  0.1662652E+04  0.7818609E-02  0.8782956E-01
       -3   -1    0    0    0  501  0.00000000000E+00  0.00000000000E+00  0.28786152430E+03  0.28786154201E+03  0.10100000352E+00 0.  1.
        3   -1    0    0  501    0  0.00000000000E+00  0.00000000000E+00 -0.24008184622E+04  0.24008184643E+04  0.10100000352E+00 0. -1.
    10030    2    1    2    0    0  0.00000000000E+00  0.00000000000E+00 -0.21129569379E+04  0.26886800063E+04  0.16626524457E+04 0.  0.
        2    1    3    3  502    0 -0.85586185176E+02  0.27283869509E+03 -0.23187899679E+04  0.23363546100E+04  0.25500000920E-02 0. -1.
       -2    1    3    3    0  502  0.85586185176E+02 -0.27283869509E+03  0.20583302999E+03  0.35232539630E+03  0.25500000920E-02 0.  1.
</event>
<event>
 5   0  0.1007187E-03  0.1656318E+04  0.7818609E-02  0.8786678E-01
       -2   -1    0    0    0  501  0.00000000000E+00  0.00000000000E+00  0.50916440184E+03  0.50916440184E+03  0.25500000920E-02 0.  1.
        2   -1    0    0  501    0  0.00000000000E+00  0.00000000000E+00 -0.13470051682E+04  0.13470051682E+04  0.25500000920E-02 0. -1.
    10030    2    1    2    0    0  0.00000000000E+00  0.00000000000E+00 -0.83784076637E+03  0.18561695700E+04  0.16563176999E+04 0.  0.
        5    1    3    3  502    0 -0.27296703885E+03  0.15072718197E+03 -0.12786906101E+04  0.13161692345E+04  0.46999998093E+01 0. -1.
       -5    1    3    3    0  502  0.27296703885E+03 -0.15072718197E+03  0.44084984369E+03  0.54000033552E+03  0.46999998093E+01 0.  1.
</event>
<event>
 5   0  0.5059689E-04  0.1728549E+04  0.7818609E-02  0.8745247E-01
        1   -1    0    0  501    0  0.00000000000E+00  0.00000000000E+00  0.80927426873E+03  0.80927426874E+03  0.50400001928E-02 0.  1.
       -1   -1    0    0    0  501  0.00000000000E+00  0.00000000000E+00 -0.92301252075E+03  0.92301252076E+03  0.50400001928E-02 0. -1.
    10030    2    1    2    0    0  0.00000000000E+00  0.00000000000E+00 -0.11373825202E+03  0.17322867895E+04  0.17285488512E+04 0.  0.
        5    1    3    3  502    0  0.65794531982E+03  0.54750276362E+03  0.62958970732E+02  0.85827573776E+03  0.46999998093E+01 0.  1.
       -5    1    3    3    0  502 -0.65794531982E+03 -0.54750276362E+03 -0.17669722275E+03  0.87401105174E+03  0.46999998093E+01 0. -1.
</event>
<event>
 5   0  0.9284971E-04  0.1684096E+04  0.7818609E-02  0.8770488E-01
        2   -1    0    0  501    0  0.00000000000E+00  0.00000000000E+00  0.21746398577E+04  0.21746398578E+04  0.25500000920E-02 0. -1.
       -2   -1    0    0    0  501  0.00000000000E+00  0.00000000000E+00 -0.32605148838E+03  0.32605148839E+03  0.25500000920E-02 0.  1.
    10030    2    1    2    0    0  0.00000000000E+00  0.00000000000E+00  0.18485883694E+04  0.25006913461E+04  0.16840956770E+04 0.  0.
        4    1    3    3  502    0  0.23868997170E+03 -0.46620536925E+03 -0.54743569588E+02  0.52661069133E+03  0.12699999809E+01 0.  1.
       -4    1    3    3    0  502 -0.23868997170E+03  0.46620536925E+03  0.19033319390E+04  0.19740806548E+04  0.12699999809E+01 0. -1.
</event>
<event>
 5   0  0.5035495E-04  0.1741350E+04  0.7818609E-02  0.8738126E-01
        1   -1    0    0  501    0  0.00000000000E+00  0.00000000000E+00  0.96325618593E+03  0.96325618594E+03  0.50400001928E-02 0. -1.
       -1   -1    0    0    0  501  0.00000000000E+00  0.00000000000E+00 -0.78699159474E+03  0.78699159476E+03  0.50400001928E-02 0.  1.
    10030    2    1    2    0    0  0.00000000000E+00  0.00000000000E+00  0.17626459119E+03  0.17502477807E+04  0.17413495019E+04 0.  0.
        4    1    3    3  502    0  0.18254154255E+03 -0.74743950538E+03 -0.32148631884E+03  0.83387186969E+03  0.12699999809E+01 0. -1.
       -4    1    3    3    0  502 -0.18254154255E+03  0.74743950538E+03  0.49775091002E+03  0.91637591101E+03  0.12699999809E+01 0.  1.
</event>
<event>
 5   0  0.4947006E-04  0.1708407E+04  0.7818609E-02  0.8756584E-01
       -1   -1    0    0    0  501  0.00000000000E+00  0.00000000000E+00  0.64336257595E+03  0.64336257597E+03  0.50400001928E-02 0. -1.
        1   -1    0    0  501    0  0.00000000000E+00  0.00000000000E+00 -0.11341401325E+04  0.11341401325E+04  0.50400001928E-02 0.  1.
    10030    2    1    2    0    0  0.00000000000E+00  0.00000000000E+00 -0.49077755653E+03  0.17775027084E+04  0.17084066461E+04 0.  0.
        2    1    3    3  502    0 -0.64494405707E+03 -0.48294883356E+03 -0.54053583752E+03  0.97024296145E+03  0.25500000920E-02 0.  1.
       -2    1    3    3    0  502  0.64494405707E+03  0.48294883356E+03  0.49758280992E+02  0.80725974700E+03  0.25500000920E-02 0. -1.
</event>
<event>
 5   0  0.5009762E-04  0.1707899E+04  0.7818609E-02  0.8756872E-01
       -1   -1    0    0    0  501  0.00000000000E+00  0.00000000000E+00  0.73351798256E+03  0.73351798258E+03  0.50400001928E-02 0.  1.
        1   -1    0    0  501    0  0.00000000000E+00  0.00000000000E+00 -0.99415438998E+03  0.99415439000E+03  0.50400001928E-02 0. -1.
    10030    2    1    2    0    0  0.00000000000E+00  0.00000000000E+00 -0.26063640742E+03  0.17276723726E+04  0.17078994379E+04 0.  0.
        3    1    3    3  502    0 -0.23043814806E+03 -0.79145080301E+03  0.95274880605E+02  0.82980324580E+03  0.10100000352E+00 0.  1.
       -3    1    3    3    0  502  0.23043814806E+03  0.79145080301E+03 -0.35591128803E+03  0.89786912677E+03  0.10100000352E+00 0. -1.
</event>
<event>
 5   0  0.9312096E-04  0.1699850E+04  0.7818609E-02  0.8761450E-01
       -2   -1    0    0    0  501  0.00000000000E+00  0.00000000000E+00  0.55811368426E+03  0.55811368427E+03  0.25500000920E-02 0. -1.
        2   -1    0    0  501    0  0.00000000000E+00  0.00000000000E+00 -0.12943105197E+04  0.12943105197E+04  0.25500000920E-02 0.  1.
    10030    2    1    2    0    0  0.00000000000E+00  0.00000000000E+00 -0.73619683548E+03  0.18524242040E+04  0.16998498907E+04 0.  0.
        3    1    3    3  502    0  0.35996691761E+03 -0.68870357078E+03 -0.74320874290E+03  0.10752897451E+04  0.10100000352E+00 0. -1.
       -3    1    3    3    0  502 -0.35996691761E+03  0.68870357078E+03  0.70119074287E+01  0.77713445891E+03  0.10100000352E+00 0.  1.
</event>
<event>
 5   0  0.4947006E-04  0.1232220E+04  0.7818609E-02  0.9085113E-01
       -1   -1    0    0    0  501  0.00000000000E+00  0.00000000000E+00  0.14440455797E+04  0.14440455797E+04  0.50400001928E-02 0. -1.
        1   -1    0    0  501    0  0.00000000000E+00  0.00000000000E+00 -0.26286654397E+03  0.26286654402E+03  0.50400001928E-02 0.  1.
    10030    2    1    2    0    0  0.00000000000E+00  0.00000000000E+00  0.11811790357E+04  0.17069121237E+04  0.12322195761E+04 0.  0.
        2    1    3    3  502    0  0.54784248859E+03  0.87826248447E+02  0.96163162964E+03  0.11102163003E+04  0.25500000920E-02 0. -1.
       -2    1    3    3    0  502 -0.54784248859E+03 -0.87826248447E+02  0.21954740609E+03  0.59669582348E+03  0.25500000920E-02 0.  1.
</event>
<event>
 5   0  0.4947006E-04  0.1094864E+04  0.7818609E-02  0.9210212E-01
       -1   -1    0    0    0  501  0.00000000000E+00  0.00000000000E+00  0.31679226041E+03  0.31679226045E+03  0.50400001928E-02 0.  1.
        1   -1    0    0  501    0  0.00000000000E+00  0.00000000000E+00 -0.94598861967E+03  0.94598861968E+03  0.50400001928E-02 0. -1.
    10030    2    1    2    0    0  0.00000000000E+00  0.00000000000E+00 -0.62919635926E+03  0.12627808801E+04  0.10948641435E+04 0.  0.
        2    1    3    3  502    0  0.14937049871E+03  0.15195372003E+03 -0.89619791824E+03  0.92117978027E+03  0.25500000920E-02 0. -1.
       -2    1    3    3    0  502 -0.14937049871E+03 -0.15195372003E+03  0.26700155899E+03  0.34160109986E+03  0.25500000920E-02 0.  1.
</event>
<event>
 5   0  0.1007187E-03  0.1742066E+04  0.7818609E-02  0.8737730E-01
       -2   -1    0    0    0  501  0.00000000000E+00  0.00000000000E+00  0.60002550939E+03  0.60002550940E+03  0.25500000920E-02 0.  1.
        2   -1    0    0  501    0  0.00000000000E+00  0.00000000000E+00 -0.12644439028E+04  0.12644439028E+04  0.25500000920E-02 0. -1.
    10030    2    1    2    0    0  0.00000000000E+00  0.00000000000E+00 -0.66441839338E+03  0.18644694122E+04  0.17420661260E+04 0.  0.
        5    1    3    3  502    0  0.32894404868E+03  0.79467816574E+03 -0.18484310416E+03  0.87971963569E+03  0.46999998093E+01 0.  1.
       -5    1    3    3    0  502 -0.32894404868E+03 -0.79467816574E+03 -0.47957528921E+03  0.98474977648E+03  0.46999998093E+01 0. -1.
</event>
<event>
 5   0  0.9284971E-04  0.1681822E+04  0.7818609E-02  0.8771800E-01
        2   -1    0    0  501    0  0.00000000000E+00  0.00000000000E+00  0.12190059246E+04  0.12190059246E+04  0.25500000920E-02 0. -1.
       -2   -1    0    0    0  501  0.00000000000E+00  0.00000000000E+00 -0.58008836579E+03  0.58008836580E+03  0.25500000920E-02 0.  1.
    10030    2    1    2    0    0  0.00000000000E+00  0.00000000000E+00  0.63891755883E+03  0.17990942904E+04  0.16818218154E+04 0.  0.
        4    1    3    3  502    0  0.42945583110E+03  0.11715776491E+03 -0.44370998348E+03  0.62852081516E+03  0.12699999809E+01 0.  1.
       -4    1    3    3    0  502 -0.42945583110E+03 -0.11715776491E+03  0.10826275423E+04  0.11705734753E+04  0.12699999809E+01 0. -1.
</event>
<event>
 5   0  0.4947006E-04  0.1703660E+04  0.7818609E-02  0.8759279E-01
        1   -1    0    0  501    0  0.00000000000E+00  0.00000000000E+00  0.10828696350E+04  0.10828696350E+04  0.50400001928E-02 0. -1.
       -1   -1    0    0    0  501  0.00000000000E+00  0.00000000000E+00 -0.67008496730E+03  0.67008496732E+03  0.50400001928E-02 0.  1.
    10030    2    1    2    0    0  0.00000000000E+00  0.00000000000E+00  0.41278466765E+03  0.17529546023E+04  0.17036603699E+04 0.  0.
        2    1    3    3  502    0 -0.38532155243E+02  0.62907046918E+02  0.10795767115E+04  0.10820942194E+04  0.25500000920E-02 0. -1.
       -2    1    3    3    0  502  0.38532155243E+02 -0.62907046918E+02 -0.66679204389E+03  0.67086038290E+03  0.25500000920E-02 0.  1.
</event>
<event>
 5   0  0.5009762E-04  0.1374179E+04  0.7818609E-02  0.8972724E-01
       -1   -1    0    0    0  501  0.00000000000E+00  0.00000000000E+00  0.57717242954E+03  0.57717242957E+03  0.50400001928E-02 0.  1.
        1   -1    0    0  501    0  0.00000000000E+00  0.00000000000E+00 -0.81793958281E+03  0.81793958282E+03  0.50400001928E-02 0. -1.
    10030    2    1    2    0    0  0.00000000000E+00  0.00000000000E+00 -0.24076715326E+03  0.13951120124E+04  0.13741792842E+04 0.  0.
        3    1    3    3  502    0 -0.42563740330E+03 -0.36420642991E+03  0.28351920167E+03  0.62785083466E+03  0.10100000352E+00 0.  1.
       -3    1    3    3    0  502  0.42563740330E+03  0.36420642991E+03 -0.52428635493E+03  0.76726117772E+03  0.10100000352E+00 0. -1.
</event>
<event>
 5   0  0.5009762E-04  0.1684876E+04  0.7818609E-02  0.8770038E-01
        1   -1    0    0  501    0  0.00000000000E+00  0.00000000000E+00  0.80276281197E+03  0.80276281199E+03  0.50400001928E-02 0. -1.
       -1   -1    0    0    0  501  0.00000000000E+00  0.00000000000E+00 -0.88407357827E+03  0.88407357829E+03  0.50400001928E-02 0.  1.
    10030    2    1    2    0    0  0.00000000000E+00  0.00000000000E+00 -0.81310766300E+02  0.16868363903E+04  0.16848755345E+04 0.  0.
        3    1    3    3  502    0 -0.56164315205E+03 -0.29738557207E+03 -0.59430907741E+03  0.87010602711E+03  0.10100000352E+00 0.  1.
       -3    1    3    3    0  502  0.56164315205E+03  0.29738557207E+03  0.51299831111E+03  0.81673036317E+03  0.10100000352E+00 0. -1.
</event>
<event>
 5   0  0.9610114E-04  0.1646706E+04  0.7818609E-02  0.8792357E-01
        2   -1    0    0  501    0  0.00000000000E+00  0.00000000000E+00  0.85097864857E+03  0.85097864858E+03  0.25500000920E-02 0. -1.
       -2   -1    0    0    0  501  0.00000000000E+00  0.00000000000E+00 -0.79662448640E+03  0.79662448640E+03  0.25500000920E-02 0.  1.
    10030    2    1    2    0    0  0.00000000000E+00  0.00000000000E+00  0.54354162171E+02  0.16476031350E+04  0.16467063234E+04 0.  0.
        2    1    3    3  502    0 -0.64693979408E+03  0.36773507377E+01  0.53673413558E+03  0.84061177268E+03  0.25500000920E-02 0. -1.
       -2    1    3    3    0  502  0.64693979408E+03 -0.36773507377E+01 -0.48237997341E+03  0.80699136230E+03  0.25500000920E-02 0.  1.
</event>
<event>
 5   0  0.5074133E-04  0.1787950E+04  0.7818609E-02  0.8712734E-01
       -1   -1    0    0    0  501  0.00000000000E+00  0.00000000000E+00  0.87618160069E+03  0.87618160070E+03  0.50400001928E-02 0.  1.
        1   -1    0    0  501    0  0.00000000000E+00  0.00000000000E+00 -0.91212946239E+03  0.91212946241E+03  0.50400001928E-02 0. -1.
    10030    2    1    2    0    0  0.00000000000E+00  0.00000000000E+00 -0.35947861704E+02  0.17883110631E+04  0.17879497224E+04 0.  0.
        1    1    3    3  502    0 -0.30206389177E+02 -0.67346582575E+03  0.56927538364E+03  0.88235089780E+03  0.50400001928E-02 0.  1.
       -1    1    3    3    0  502  0.30206389177E+02  0.67346582575E+03 -0.60522324535E+03  0.90596016531E+03  0.50400001928E-02 0. -1.
</event>
<event>
 5   0  0.1007187E-03  0.1771554E+04  0.7818609E-02  0.8721575E-01
       -2   -1    0    0    0  501  0.00000000000E+00  0.00000000000E+00  0.60813747933E+03  0.60813747933E+03  0.25500000920E-02 0.  1.
        2   -1    0    0  501    0  0.00000000000E+00  0.00000000000E+00 -0.12901698943E+04  0.12901698943E+04  0.25500000920E-02 0. -1.
    10030    2    1    2    0    0  0.00000000000E+00  0.00000000000E+00 -0.68203241495E+03  0.18983073736E+04  0.17715537445E+04 0.  0.
        5    1    3    3  502    0  0.49075082322E+03 -0.62270217533E+03  0.82190476481E+02  0.79710208510E+03  0.46999998093E+01 0.  1.
       -5    1    3    3    0  502 -0.49075082322E+03  0.62270217533E+03 -0.76422289143E+03  0.11012052885E+04  0.46999998093E+01 0. -1.
</event>
<event>
 5   0  0.5009762E-04  0.1697518E+04  0.7818609E-02  0.8762781E-01
        1   -1    0    0  501    0  0.00000000000E+00  0.00000000000E+00  0.45589752283E+03  0.45589752285E+03  0.50400001928E-02 0.  1.
       -1   -1    0    0    0  501  0.00000000000E+00  0.00000000000E+00 -0.15801623860E+04  0.15801623860E+04  0.50400001928E-02 0. -1.
    10030    2    1    2    0    0  0.00000000000E+00  0.00000000000E+00 -0.11242648632E+04  0.20360599089E+04  0.16975183268E+04 0.  0.
        3    1    3    3  502    0 -0.37245489044E+03 -0.58396714111E+03  0.26264872264E+02  0.69313066663E+03  0.10100000352E+00 0.  1.
       -3    1    3    3    0  502  0.37245489044E+03  0.58396714111E+03 -0.11505297354E+04  0.13429292422E+04  0.10100000352E+00 0. -1.
</event>
<event>
 5   0  0.9610114E-04  0.1641811E+04  0.7818609E-02  0.8795266E-01
        2   -1    0    0  501    0  0.00000000000E+00  0.00000000000E+00  0.19298833626E+04  0.19298833626E+04  0.25500000920E-02 0. -1.
       -2   -1    0    0    0  501  0.00000000000E+00  0.00000000000E+00 -0.34918493030E+03  0.34918493031E+03  0.25500000920E-02 0.  1.
    10030    2    1    2    0    0  0.00000000000E+00  0.00000000000E+00  0.15806984323E+04  0.22790682929E+04  0.16418114234E+04 0.  0.
        2    1    3    3  502    0 -0.32562923298E+03  0.74382240808E+03  0.95796428377E+03  0.12557872993E+04  0.25500000920E-02 0. -1.
       -2    1    3    3    0  502  0.32562923298E+03 -0.74382240808E+03  0.62273414854E+03  0.10232809936E+04  0.25500000920E-02 0.  1.
</event>
<event>
 5   0  0.3523125E-04  0.1708502E+04  0.7818609E-02  0.8756530E-01
       -3   -1    0    0    0  501  0.00000000000E+00  0.00000000000E+00  0.73538025167E+03  0.73538025860E+03  0.10100000352E+00 0. -1.
        3   -1    0    0  501    0  0.00000000000E+00  0.00000000000E+00 -0.99233641786E+03  0.99233642300E+03  0.10100000352E+00 0.  1.
    10030    2    1    2    0    0  0.00000000000E+00  0.00000000000E+00 -0.25695616620E+03  0.17277166816E+04  0.17085018175E+04 0.  0.
        3    1    3    3  502    0 -0.43870021655E+03 -0.16644467844E+03 -0.85035723893E+03  0.97122044613E+03  0.10100000352E+00 0.  1.
       -3    1    3    3    0  502  0.43870021655E+03  0.16644467844E+03  0.59340107273E+03  0.75649623548E+03  0.10100000352E+00 0. -1.
</event>
<event>
 5   0  0.1007187E-03  0.1308811E+04  0.7818609E-02  0.9022607E-01
       -2   -1    0    0    0  501  0.00000000000E+00  0.00000000000E+00  0.45837184938E+03  0.45837184939E+03  0.25500000920E-02 0. -1.
        2   -1    0    0  501    0  0.00000000000E+00  0.00000000000E+00 -0.93427693265E+03  0.93427693266E+03  0.25500000920E-02 0.  1.
    10030    2    1    2    0    0  0.00000000000E+00  0.00000000000E+00 -0.47590508328E+03  0.13926487820E+04  0.13088105217E+04 0.  0.
        5    1    3    3  502    0  0.26466183986E+03  0.83556372412E+01  0.39880208611E+03  0.47872841991E+03  0.46999998093E+01 0. -1.
       -5    1    3    3    0  502 -0.26466183986E+03 -0.83556372412E+01 -0.87470716938E+03  0.91392036213E+03  0.46999998093E+01 0.  1.
</event>
<event>
 5   0  0.5074133E-04  0.1609671E+04  0.7818609E-02  0.8814628E-01
        1   -1    0    0  501    0  0.00000000000E+00  0.00000000000E+00  0.61076939946E+03  0.61076939949E+03  0.50400001928E-02 0.  1.
       -1   -1    0    0    0  501  0.00000000000E+00  0.00000000000E+00 -0.10605647362E+04  0.10605647362E+04  0.50400001928E-02 0. -1.
    10030    2    1    2    0    0  0.00000000000E+00  0.00000000000E+00 -0.44979533674E+03  0.16713341357E+04  0.16096713789E+04 0.  0.
        1    1    3    3  502    0 -0.55623696852E+02  0.55126446794E+03 -0.83101858755E+03  0.99878846717E+03  0.50400001928E-02 0. -1.
       -1    1    3    3    0  502  0.55623696852E+02 -0.55126446794E+03  0.38122325082E+03  0.67254566853E+03  0.50400001928E-02 0.  1.
</event>
<event>
 5   0  0.5035495E-04  0.1707721E+04  0.7818609E-02  0.8756973E-01
        1   -1    0    0  501    0  0.00000000000E+00  0.00000000000E+00  0.12947113990E+04  0.12947113990E+04  0.50400001928E-02 0. -1.
       -1   -1    0    0    0  501  0.00000000000E+00  0.00000000000E+00 -0.56311990742E+03  0.56311990744E+03  0.50400001928E-02 0.  1.
    10030    2    1    2    0    0  0.00000000000E+00  0.00000000000E+00  0.73159149154E+03  0.18578313064E+04  0.17077210113E+04 0.  0.
        4    1    3    3  502    0 -0.79781911978E+03  0.19350853297E+03  0.11039318580E+03  0.82834121507E+03  0.12699999809E+01 0. -1.
       -4    1    3    3    0  502  0.79781911978E+03 -0.19350853297E+03  0.62119830574E+03  0.10294900913E+04  0.12699999809E+01 0.  1.
</event>
<event>
 5   0  0.9312096E-04  0.1454812E+04  0.7818609E-02  0.8915071E-01
        2   -1    0    0  501    0  0.00000000000E+00  0.00000000000E+00  0.91306505260E+03  0.91306505261E+03  0.25500000920E-02 0. -1.
       -2   -1    0    0    0  501  0.00000000000E+00  0.00000000000E+00 -0.57949823201E+03  0.57949823202E+03  0.25500000920E-02 0.  1.
    10030    2    1    2    0    0  0.00000000000E+00  0.00000000000E+00  0.33356682059E+03  0.14925632846E+04  0.14548121304E+04 0.  0.
        3    1    3    3  502    0  0.64130567883E+03 -0.19958760124E+03  0.45333633578E+03  0.81032217531E+03  0.10100000352E+00 0. -1.
       -3    1    3    3    0  502 -0.64130567883E+03  0.19958760124E+03 -0.11976951519E+03  0.68224110931E+03  0.10100000352E+00 0.  1.
</event>
<event>
 5   0  0.5059689E-04  0.1776119E+04  0.7818609E-02  0.8719103E-01
       -1   -1    0    0    0  501  0.00000000000E+00  0.00000000000E+00  0.63201114844E+03  0.63201114846E+03  0.50400001928E-02 0.  1.
        1   -1    0    0  501    0  0.00000000000E+00  0.00000000000E+00 -0.12478413752E+04  0.12478413752E+04  0.50400001928E-02 0. -1.
    10030    2    1    2    0    0  0.00000000000E+00  0.00000000000E+00 -0.61583022672E+03  0.18798525236E+04  0.17761189832E+04 0.  0.
        5    1    3    3  502    0  0.48361558167E+02 -0.83313265269E+03 -0.62925678205E+03  0.10451961754E+04  0.46999998093E+01 0. -1.
       -5    1    3    3    0  502 -0.48361558167E+02  0.83313265269E+03  0.13426555326E+02  0.83465634825E+03  0.46999998093E+01 0.  1.
</event>
<event>
 5   0  0.9625225E-04  0.1668901E+04  0.7818609E-02  0.8779303E-01
        2   -1    0    0  501    0  0.00000000000E+00  0.00000000000E+00  0.21387853110E+04  0.21387853110E+04  0.25500000920E-02 0.  1.
       -2   -1    0    0    0  501  0.00000000000E+00  0.00000000000E+00 -0.32556208526E+03  0.32556208527E+03  0.25500000920E-02 0. -1.
    10030    2    1    2    0    0  0.00000000000E+00  0.00000000000E+00  0.18132232257E+04  0.24643473962E+04  0.16689007230E+04 0.  0.
        1    1    3    3  502    0  0.15327302976E+03  0.28950754941E+03 -0.22664727675E+03  0.39834185181E+03  0.50400001928E-02 0. -1.
       -1    1    3    3    0  502 -0.15327302976E+03 -0.28950754941E+03  0.20398705024E+04  0.20660055444E+04  0.50400001928E-02 0.  1.
</event>
<event>
 5   0  0.5074133E-04  0.1404409E+04  0.7818609E-02  0.8950633E-01
       -1   -1    0    0    0  501  0.00000000000E+00  0.00000000000E+00  0.64848755742E+03  0.64848755744E+03  0.50400001928E-02 0. -1.
        1   -1    0    0  501    0  0.00000000000E+00  0.00000000000E+00 -0.76037098827E+03  0.76037098829E+03  0.50400001928E-02 0.  1.
    10030    2    1    2    0    0  0.00000000000E+00  0.00000000000E+00 -0.11188343085E+03  0.14088585457E+04  0.14044089503E+04 0.  0.
        1    1    3    3  502    0 -0.59888478890E+03  0.19935941965E+03  0.25274077845E+03  0.67991548717E+03  0.50400001928E-02 0. -1.
       -1    1    3    3    0  502  0.59888478890E+03 -0.19935941965E+03 -0.36462420930E+03  0.72894305856E+03  0.50400001928E-02 0.  1.
</event>
<event>
 5   0  0.9610114E-04  0.1034294E+04  0.7818609E-02  0.9271712E-01
       -2   -1    0    0    0  501  0.00000000000E+00  0.00000000000E+00  0.26419332205E+03  0.26419332206E+03  0.25500000920E-02 0.  1.
        2   -1    0    0  501    0  0.00000000000E+00  0.00000000000E+00 -0.10122919384E+04  0.10122919384E+04  0.25500000920E-02 0. -1.
    10030    2    1    2    0    0  0.00000000000E+00  0.00000000000E+00 -0.74809861640E+03  0.12764852605E+04  0.10342935175E+04 0.  0.
        2    1    3    3  502    0  0.35583371922E+03  0.19403121638E+03 -0.77047271143E+03  0.87057104691E+03  0.25500000920E-02 0. -1.
       -2    1    3    3    0  502 -0.35583371922E+03 -0.19403121638E+03  0.22374095031E+02  0.40591421359E+03  0.25500000920E-02 0.  1.
</event>
<event>
 5   0  0.5009762E-04  0.1722161E+04  0.7818609E-02  0.8748825E-01
       -1   -1    0    0    0  501  0.00000000000E+00  0.00000000000E+00  0.46713437717E+03  0.46713437719E+03  0.50400001928E-02 0. -1.
        1   -1    0    0  501    0  0.00000000000E+00  0.00000000000E+00 -0.15872505451E+04  0.15872505451E+04  0.50400001928E-02 0.  1.
    10030    2    1    2    0    0  0.00000000000E+00  0.00000000000E+00 -0.11201161679E+04  0.20543849223E+04  0.17221606137E+04 0.  0.
        3    1    3    3  502    0  0.20512883477E+03 -0.67225036471E+03  0.33360925431E+02  0.70364149484E+03  0.10100000352E+00 0. -1.
       -3    1    3    3    0  502 -0.20512883477E+03  0.67225036471E+03 -0.11534770934E+04  0.13507434275E+04  0.10100000352E+00 0.  1.
</event>
<event>
 5   0  0.9284971E-04  0.1582532E+04  0.7818609E-02  0.8831352E-01
        2   -1    0    0  501    0  0.00000000000E+00  0.00000000000E+00  0.16216730537E+04  0.16216730537E+04  0.25500000920E-02 0. -1.
       -2   -1    0    0    0  501  0.00000000000E+00  0.00000000000E+00 -0.38608377855E+03  0.38608377856E+03  0.25500000920E-02 0.  1.
    10030    2    1    2    0    0  0.00000000000E+00  0.00000000000E+00  0.12355892752E+04  0.20077568323E+04  0.15825317187E+04 0.  0.
        4    1    3    3  502    0 -0.17903142400E+03  0.15070632313E+01  0.15956363370E+04  0.16056498544E+04  0.12699999809E+01 0. -1.
       -4    1    3    3    0  502  0.17903142400E+03 -0.15070632313E+01 -0.36004706185E+03  0.40210697788E+03  0.12699999809E+01 0.  1.
</event>
<event>
 5   0  0.9625225E-04  0.1696781E+04  0.7818609E-02  0.8763203E-01
       -2   -1    0    0    0  501  0.00000000000E+00  0.00000000000E+00  0.10984930920E+04  0.10984930920E+04  0.25500000920E-02 0.  1.
        2   -1    0    0  501    0  0.00000000000E+00  0.00000000000E+00 -0.65523050839E+03  0.65523050839E+03  0.25500000920E-02 0. -1.
    10030    2    1    2    0    0  0.00000000000E+00  0.00000000000E+00  0.44326258362E+03  0.17537236004E+04  0.16967807014E+04 0.  0.
        1    1    3    3  502    0 -0.92895754554E+02 -0.83160246338E+03  0.36623326215E+03  0.91341068564E+03  0.50400001928E-02 0. -1.
       -1    1    3    3    0  502  0.92895754554E+02  0.83160246338E+03  0.77029321468E+02  0.84031291476E+03  0.50400001928E-02 0.  1.
</event>
<event>
 5   0  0.5009762E-04  0.1654436E+04  0.7818609E-02  0.8787787E-01
       -1   -1    0    0    0  501  0.00000000000E+00  0.00000000000E+00  0.77117975462E+03  0.77117975464E+03  0.50400001928E-02 0.  1.
        1   -1    0    0  501    0  0.00000000000E+00  0.00000000000E+00 -0.88732777509E+03  0.88732777511E+03  0.50400001928E-02 0. -1.
    10030    2    1    2    0    0  0.00000000000E+00  0.00000000000E+00 -0.11614802047E+03  0.16585075297E+04  0.16544355121E+04 0.  0.
        3    1    3    3  502    0  0.19946565405E+00 -0.80236856297E+03  0.14365212400E+03  0.81512655064E+03  0.10100000352E+00 0.  1.
       -3    1    3    3    0  502 -0.19946565405E+00  0.80236856297E+03 -0.25980014448E+03  0.84338097910E+03  0.10100000352E+00 0. -1.
</event>
<event>
 5   0  0.5059689E-04  0.1712986E+04  0.7818609E-02  0.8753992E-01
       -1   -1    0    0    0  501  0.00000000000E+00  0.00000000000E+00  0.36226432920E+03  0.36226432924E+03  0.50400001928E-02 0. -1.
        1   -1    0    0  501    0  0.00000000000E+00  0.00000000000E+00 -0.20249866710E+04  0.20249866710E+04  0.50400001928E-02 0.  1.
    10030    2    1    2    0    0  0.00000000000E+00  0.00000000000E+00 -0.16627223418E+04  0.23872510002E+04  0.17129862090E+04 0.  0.
        5    1    3    3  502    0  0.79350700936E+03 -0.16928052129E+01 -0.12805783931E+04  0.15065056755E+04  0.46999998093E+01 0.  1.
       -5    1    3    3    0  502 -0.79350700936E+03  0.16928052129E+01 -0.38214394869E+03  0.88074532471E+03  0.46999998093E+01 0. -1.
</event>
<event>
 5   0  0.5009762E-04  0.1689101E+04  0.7818609E-02  0.8767605E-01
        1   -1    0    0  501    0  0.00000000000E+00  0.00000000000E+00  0.19407121590E+04  0.19407121590E+04  0.50400001928E-02 0. -1.
       -1   -1    0    0    0  501  0.00000000000E+00  0.00000000000E+00 -0.36752765731E+03  0.36752765734E+03  0.50400001928E-02 0.  1.
    10030    2    1    2    0    0  0.00000000000E+00  0.00000000000E+00  0.15731845016E+04  0.23082398163E+04  0.16891008180E+04 0.  0.
        3    1    3    3  502    0 -0.23261214263E+03 -0.51226730546E+03 -0.74159476119E+02  0.56747320575E+03  0.10100000352E+00 0.  1.
       -3    1    3    3    0  502  0.23261214263E+03  0.51226730546E+03  0.16473439778E+04  0.17407666106E+04  0.10100000352E+00 0. -1.
</event>
<event>
 5   0  0.3523125E-04  0.1794415E+04  0.7818609E-02  0.8709275E-01
       -3   -1    0    0    0  501  0.00000000000E+00  0.00000000000E+00  0.17726658698E+04  0.17726658727E+04  0.10100000352E+00 0. -1.
        3   -1    0    0  501    0  0.00000000000E+00  0.00000000000E+00 -0.45410796350E+03  0.45410797473E+03  0.10100000352E+00 0.  1.
    10030    2    1    2    0    0  0.00000000000E+00  0.00000000000E+00  0.13185579063E+04  0.22267738474E+04  0.17944154523E+04 0.  0.
        2    1    3    3  502    0 -0.47872171066E+03  0.24619690913E+03  0.15499936953E+04  0.16408131672E+04  0.25500000920E-02 0. -1.
       -2    1    3    3    0  502  0.47872171066E+03 -0.24619690913E+03 -0.23143578897E+03  0.58596068020E+03  0.25500000920E-02 0.  1.
</event>
<event>
 5   0  0.9610114E-04  0.1407488E+04  0.7818609E-02  0.8948416E-01
       -2   -1    0    0    0  501  0.00000000000E+00  0.00000000000E+00  0.70801126437E+03  0.70801126437E+03  0.25500000920E-02 0. -1.
        2   -1    0    0  501    0  0.00000000000E+00  0.00000000000E+00 -0.69950286406E+03  0.69950286406E+03  0.25500000920E-02 0.  1.
    10030    2    1    2    0    0  0.00000000000E+00  0.00000000000E+00  0.85084003097E+01  0.14075141284E+04  0.14074884116E+04 0.  0.
        2    1    3    3  502    0  0.41282813331E+03 -0.39008178377E+03 -0.41128322446E+03  0.70124514716E+03  0.25500000920E-02 0.  1.
       -2    1    3    3    0  502 -0.41282813331E+03  0.39008178377E+03  0.41979162477E+03  0.70626898128E+03  0.25500000920E-02 0. -1.
</event>
<event>
 5   0  0.5009762E-04  0.1751365E+04  0.7818609E-02  0.8732600E-01
       -1   -1    0    0    0  501  0.00000000000E+00  0.00000000000E+00  0.55779718280E+03  0.55779718282E+03  0.50400001928E-02 0.  1.
        1   -1    0    0  501    0  0.00000000000E+00  0.00000000000E+00 -0.13747281646E+04  0.13747281647E+04  0.50400001928E-02 0. -1.
    10030    2    1    2    0    0  0.00000000000E+00  0.00000000000E+00 -0.81693098184E+03  0.19325253475E+04  0.17513646078E+04 0.  0.
        3    1    3    3  502    0  0.47671382630E+03 -0.33759133497E+03  0.31139302439E+03  0.66195891675E+03  0.10100000352E+00 0.  1.
       -3    1    3    3    0  502 -0.47671382630E+03  0.33759133497E+03 -0.11283240062E+04  0.12705664307E+04  0.10100000352E+00 0. -1.
</event>
<event>
 5   0  0.9625225E-04  0.1687036E+04  0.7818609E-02  0.8768793E-01
        2   -1    0    0  501    0  0.00000000000E+00  0.00000000000E+00  0.16273296041E+04  0.16273296041E+04  0.25500000920E-02 0. -1.
       -2   -1    0    0    0  501  0.00000000000E+00  0.00000000000E+00 -0.43723349761E+03  0.43723349762E+03  0.25500000920E-02 0.  1.
    10030    2    1    2    0    0  0.00000000000E+00  0.00000000000E+00  0.11900961065E+04  0.20645631017E+04  0.16870364721E+04 0.  0.
        1    1    3    3  502    0 -0.24616926445E+03 -0.74475618375E+03  0.97473964711E+03  0.12511508541E+04  0.50400001928E-02 0. -1.
       -1    1    3    3    0  502  0.24616926445E+03  0.74475618375E+03  0.21535645939E+03  0.81341224765E+03  0.50400001928E-02 0.  1.
</event>
<event>
 5   0  0.9284971E-04  0.1450343E+04  0.7818609E-02  0.8918162E-01
        2   -1    0    0  501    0  0.00000000000E+00  0.00000000000E+00  0.40207537345E+03  0.40207537345E+03  0.25500000920E-02 0. -1.
       -2   -1    0    0    0  501  0.00000000000E+00  0.00000000000E+00 -0.13078991087E+04  0.13078991087E+04  0.25500000920E-02 0.  1.
    10030    2    1    2    0    0  0.00000000000E+00  0.00000000000E+00 -0.90582373521E+03  0.17099744821E+04  0.14503434387E+04 0.  0.
        4    1    3    3  502    0 -0.10119101460E+03  0.24673287762E+02 -0.12990329492E+04  0.13032024434E+04  0.12699999809E+01 0.  1.
       -4    1    3    3    0  502  0.10119101460E+03 -0.24673287762E+02  0.39320921400E+03  0.40677203867E+03  0.12699999809E+01 0. -1.
</event>
<event>
 5   0  0.5059689E-04  0.1688573E+04  0.7818609E-02  0.8767909E-01
       -1   -1    0    0    0  501  0.00000000000E+00  0.00000000000E+00  0.74757189664E+03  0.74757189666E+03  0.50400001928E-02 0. -1.
        1   -1    0    0  501    0  0.00000000000E+00  0.00000000000E+00 -0.95351314839E+03  0.95351314840E+03  0.50400001928E-02 0.  1.
    10030    2    1    2    0    0  0.00000000000E+00  0.00000000000E+00 -0.20594125175E+03  0.17010850451E+04  0.16885729275E+04 0.  0.
        5    1    3    3  502    0  0.26885745883E+03 -0.44026301090E+03 -0.77626545673E+03  0.93205472009E+03  0.46999998093E+01 0.  1.
       -5    1    3    3    0  502 -0.26885745883E+03  0.44026301090E+03  0.57032420498E+03  0.76903032497E+03  0.46999998093E+01 0. -1.
</event>
<event>
 5   0  0.9312096E-04  0.1701037E+04  0.7818609E-02  0.8760773E-01
        2   -1    0    0  501    0  0.00000000000E+00  0.00000000000E+00  0.10372723165E+04  0.10372723165E+04  0.25500000920E-02 0. -1.
       -2   -1    0    0    0  501  0.00000000000E+00  0.00000000000E+00 -0.69738874348E+03  0.69738874348E+03  0.25500000920E-02 0.  1.
    10030    2    1    2    0    0  0.00000000000E+00  0.00000000000E+00  0.33988357302E+03  0.17346610600E+04  0.17010373746E+04 0.  0.
        3    1    3    3  502    0 -0.34785235476E+03 -0.13647481055E+03 -0.60919951476E+03  0.71466824024E+03  0.10100000352E+00 0.  1.
       -3    1    3    3    0  502  0.34785235476E+03  0.13647481055E+03  0.94908308777E+03  0.10199928197E+04  0.10100000352E+00 0. -1.
</event>
<event>
 5   0  0.9312096E-04  0.1665774E+04  0.7818609E-02  0.8781129E-01
       -2   -1    0    0    0  501  0.00000000000E+00  0.00000000000E+00  0.45871655663E+03  0.45871655664E+03  0.25500000920E-02 0. -1.
        2   -1    0    0  501    0  0.00000000000E+00  0.00000000000E+00 -0.15122637324E+04  0.15122637324E+04  0.25500000920E-02 0.  1.
    10030    2    1    2    0    0  0.00000000000E+00  0.00000000000E+00 -0.10535471758E+04  0.19709802891E+04  0.16657735885E+04 0.  0.
        3    1    3    3  502    0  0.84750630192E+01  0.75385921515E+03 -0.94564905140E+03  0.12093914509E+04  0.10100000352E+00 0.  1.
       -3    1    3    3    0  502 -0.84750630192E+01 -0.75385921515E+03 -0.10789812441E+03  0.76158883816E+03  0.10100000352E+00 0. -1.
</event>
<event>
 5   0  0.4947006E-04  0.1636073E+04  0.7818609E-02  0.8798688E-01
        1   -1    0    0  501    0  0.00000000000E+00  0.00000000000E+00  0.22485942153E+04  0.22485942153E+04  0.50400001928E-02 0. -1.
       -1   -1    0    0    0  501  0.00000000000E+00  0.00000000000E+00 -0.29760090806E+03  0.29760090810E+03  0.50400001928E-02 0.  1.
    10030    2    1    2    0    0  0.00000000000E+00  0.00000000000E+00  0.19509933073E+04  0.25461951234E+04  0.16360729573E+04 0.  0.
        2    1    3    3  502    0 -0.36358538220E+03  0.71640030894E+03  0.73560686876E+03  0.10892847186E+04  0.25500000920E-02 0. -1.
       -2    1    3    3    0  502  0.36358538220E+03 -0.71640030894E+03  0.12153864385E+04  0.14569104048E+04  0.25500000920E-02 0.  1.
</event>
<event>
 5   0  0.5059689E-04  0.1591832E+04  0.7818609E-02  0.8825582E-01
        1   -1    0    0  501    0  0.00000000000E+00  0.00000000000E+00  0.54049589414E+03  0.54049589416E+03  0.50400001928E-02 0.  1.
       -1   -1    0    0    0  501  0.00000000000E+00  0.00000000000E+00 -0.11720389595E+04  0.11720389595E+04  0.50400001928E-02 0. -1.
    10030    2    1    2    0    0  0.00000000000E+00  0.00000000000E+00 -0.63154306539E+03  0.17125348537E+04  0.15918319577E+04 0.  0.
        5    1    3    3  502    0 -0.38615920714E+03  0.17371978554E+03 -0.10407880676E+04  0.11236366800E+04  0.46999998093E+01 0. -1.
       -5    1    3    3    0  502  0.38615920714E+03 -0.17371978554E+03  0.40924500217E+03  0.58889817366E+03  0.46999998093E+01 0.  1.
</event>
<event>
 5   0  0.5074133E-04  0.1778528E+04  0.7818609E-02  0.8717802E-01
       -1   -1    0    0    0  501  0.00000000000E+00  0.00000000000E+00  0.69123807707E+03  0.69123807709E+03  0.50400001928E-02 0.  1.
        1   -1    0    0  501    0  0.00000000000E+00  0.00000000000E+00 -0.11440201201E+04  0.11440201202E+04  0.50400001928E-02 0. -1.
    10030    2    1    2    0    0  0.00000000000E+00  0.00000000000E+00 -0.45278204308E+03  0.18352581972E+04  0.17785277822E+04 0.  0.
        1    1    3    3  502    0  0.45598722221E+03 -0.73589923819E+03 -0.16638405571E+02  0.86588040291E+03  0.50400001928E-02 0. -1.
       -1    1    3    3    0  502 -0.45598722221E+03  0.73589923819E+03 -0.43614363751E+03  0.96937779433E+03  0.50400001928E-02 0.  1.
</event>
<event>
 5   0  0.1007187E-03  0.1705798E+04  0.7818609E-02  0.8758064E-01
        2   -1    0    0  501    0  0.00000000000E+00  0.00000000000E+00  0.74228969537E+03  0.74228969538E+03  0.25500000920E-02 0.  1.
       -2   -1    0    0    0  501  0.00000000000E+00  0.00000000000E+00 -0.97999078986E+03  0.97999078986E+03  0.25500000920E-02 0. -1.
    10030    2    1    2    0    0  0.00000000000E+00  0.00000000000E+00 -0.23770109448E+03  0.17222804852E+04  0.17057984229E+04 0.  0.
        5    1    3    3  502    0  0.61852220311E+02  0.11306941646E+03  0.73238800102E+03  0.74365628090E+03  0.46999998093E+01 0.  1.
       -5    1    3    3    0  502 -0.61852220311E+02 -0.11306941646E+03 -0.97008909550E+03  0.97862420433E+03  0.46999998093E+01 0. -1.
</event>
<event>
 5   0  0.9312096E-04  0.1653794E+04  0.7818609E-02  0.8788165E-01
        2   -1    0    0  501    0  0.00000000000E+00  0.00000000000E+00  0.67063841260E+03  0.67063841261E+03  0.25500000920E-02 0. -1.
       -2   -1    0    0    0  501  0.00000000000E+00  0.00000000000E+00 -0.10195642999E+04  0.10195642999E+04  0.25500000920E-02 0.  1.
    10030    2    1    2    0    0  0.00000000000E+00  0.00000000000E+00 -0.34892588731E+03  0.16902027125E+04  0.16537944052E+04 0.  0.
        3    1    3    3  502    0  0.13588322560E+03  0.80803588486E+03 -0.60781372936E+02  0.82163290325E+03  0.10100000352E+00 0. -1.
       -3    1    3    3    0  502 -0.13588322560E+03 -0.80803588486E+03 -0.28814451437E+03  0.86856980927E+03  0.10100000352E+00 0.  1.
</event>
<event>
 5   0  0.9284971E-04  0.1661865E+04  0.7818609E-02  0.8783418E-01
       -2   -1    0    0    0  501  0.00000000000E+00  0.00000000000E+00  0.48290339246E+03  0.48290339246E+03  0.25500000920E-02 0. -1.
        2   -1    0    0  501    0  0.00000000000E+00  0.00000000000E+00 -0.14297874345E+04  0.14297874345E+04  0.25500000920E-02 0.  1.
    10030    2    1    2    0    0  0.00000000000E+00  0.00000000000E+00 -0.94688404208E+03  0.19126908270E+04  0.16618654610E+04 0.  0.
        4    1    3    3  502    0  0.13733340757E+03 -0.14407193023E+03 -0.14019439914E+04  0.14160034441E+04  0.12699999809E+01 0.  1.
       -4    1    3    3    0  502 -0.13733340757E+03  0.14407193023E+03  0.45505994932E+03  0.49668738286E+03  0.12699999809E+01 0. -1.
</event>
<event>
 5   0  0.9312096E-04  0.1715498E+04  0.7818609E-02  0.8752574E-01
       -2   -1    0    0    0  501  0.00000000000E+00  0.00000000000E+00  0.26475889721E+03  0.26475889722E+03  0.25500000920E-02 0.  1.
        2   -1    0    0  501    0  0.00000000000E+00  0.00000000000E+00 -0.27788799474E+04  0.27788799474E+04  0.25500000920E-02 0. -1.
    10030    2    1    2    0    0  0.00000000000E+00  0.00000000000E+00 -0.25141210502E+04  0.30436388447E+04  0.17154978174E+04 0.  0.
        3    1    3    3  502    0 -0.17831920872E+03  0.57255939673E+03 -0.16897992214E+03  0.62303790195E+03  0.10100000352E+00 0.  1.
       -3    1    3    3    0  502  0.17831920872E+03 -0.57255939673E+03 -0.23451411281E+04  0.24206009427E+04  0.10100000352E+00 0. -1.
</event>
<event>
 5   0  0.5059689E-04  0.1661079E+04  0.7818609E-02  0.8783879E-01
       -1   -1    0    0    0  501  0.00000000000E+00  0.00000000000E+00  0.15254695578E+04  0.15254695578E+04  0.50400001928E-02 0.  1.
        1   -1    0    0  501    0  0.00000000000E+00  0.00000000000E+00 -0.45218566909E+03  0.45218566912E+03  0.50400001928E-02 0. -1.
    10030    2    1    2    0    0  0.00000000000E+00  0.00000000000E+00  0.10732838887E+04  0.19776552269E+04  0.16610785324E+04 0.  0.
        5    1    3    3  502    0 -0.63445701920E+03  0.23802255660E+03  0.11083495875E+04  0.12990963570E+04  0.46999998093E+01 0.  1.
       -5    1    3    3    0  502  0.63445701920E+03 -0.23802255660E+03 -0.35065698838E+02  0.67855886988E+03  0.46999998093E+01 0. -1.
</event>
<event>
 5   0  0.5035495E-04  0.1571399E+04  0.7818609E-02  0.8838314E-01
        1   -1    0    0  501    0  0.00000000000E+00  0.00000000000E+00  0.15622726001E+04  0.15622726001E+04  0.50400001928E-02 0. -1.
       -1   -1    0    0    0  501  0.00000000000E+00  0.00000000000E+00 -0.39514485880E+03  0.39514485883E+03  0.50400001928E-02 0.  1.
    10030    2    1    2    0    0  0.00000000000E+00  0.00000000000E+00  0.11671277413E+04  0.19574174589E+04  0.15713993585E+04 0.  0.
        4    1    3    3  502    0 -0.18622698018E+03 -0.76234956096E+03  0.53588560818E+03  0.95028013722E+03  0.12699999809E+01 0.  1.
       -4    1    3    3    0  502  0.18622698018E+03  0.76234956096E+03  0.63124213308E+03  0.10071373217E+04  0.12699999809E+01 0. -1.
</event>
<event>
 5   0  0.5059689E-04  0.1675528E+04  0.7818609E-02  0.8775446E-01
       -1   -1    0    0    0  501  0.00000000000E+00  0.00000000000E+00  0.56624505978E+03  0.56624505980E+03  0.50400001928E-02 0.  1.
        1   -1    0    0  501    0  0.00000000000E+00  0.00000000000E+00 -0.12394783702E+04  0.12394783702E+04  0.50400001928E-02 0. -1.
    10030    2    1    2    0    0  0.00000000000E+00  0.00000000000E+00 -0.67323331038E+03  0.18057234300E+04  0.16755279811E+04 0.  0.
        5    1    3    3  502    0  0.40407774982E+03  0.51365589136E+03  0.22823316834E+03  0.69226705234E+03  0.46999998093E+01 0.  1.
       -5    1    3    3    0  502 -0.40407774982E+03 -0.51365589136E+03 -0.90146647873E+03  0.11134563776E+04  0.46999998093E+01 0. -1.
</event>
<event>
 5   0  0.5035495E-04  0.1670391E+04  0.7818609E-02  0.8778434E-01
        1   -1    0    0  501    0  0.00000000000E+00  0.00000000000E+00  0.14889029652E+04  0.14889029652E+04  0.50400001928E-02 0. -1.
       -1   -1    0    0    0  501  0.00000000000E+00  0.00000000000E+00 -0.46850017953E+03  0.46850017956E+03  0.50400001928E-02 0.  1.
    10030    2    1    2    0    0  0.00000000000E+00  0.00000000000E+00  0.10204027857E+04  0.19574031448E+04  0.16703907406E+04 0.  0.
        4    1    3    3  502    0  0.45919802280E+03 -0.69655854775E+03  0.55548079682E+03  0.10023059229E+04  0.12699999809E+01 0. -1.
       -4    1    3    3    0  502 -0.45919802280E+03  0.69655854775E+03  0.46492198887E+03  0.95509722187E+03  0.12699999809E+01 0.  1.
</event>
<event>
 5   0  0.9312096E-04  0.1740173E+04  0.7818609E-02  0.8738778E-01
       -2   -1    0    0    0  501  0.00000000000E+00  0.00000000000E+00  0.37811633189E+03  0.37811633190E+03  0.25500000920E-02 0. -1.
        2   -1    0    0  501    0  0.00000000000E+00  0.00000000000E+00 -0.20021631628E+04  0.20021631628E+04  0.25500000920E-02 0.  1.
    10030    2    1    2    0    0  0.00000000000E+00  0.00000000000E+00 -0.16240468309E+04  0.23802794947E+04  0.17401730845E+04 0.  0.
        3    1    3    3  502    0 -0.68673061116E+03  0.48968045263E+03 -0.11043214035E+04  0.13895724704E+04  0.10100000352E+00 0. -1.
       -3    1    3    3    0  502  0.68673061116E+03 -0.48968045263E+03 -0.51972542747E+03  0.99070702438E+03  0.10100000352E+00 0.  1.
</event>
<event>
 5   0  0.5009762E-04  0.1678849E+04  0.7818609E-02  0.8773520E-01
       -1   -1    0    0    0  501  0.00000000000E+00  0.00000000000E+00  0.44269366716E+03  0.44269366719E+03  0.50400001928E-02 0.  1.
        1   -1    0    0  501    0  0.00000000000E+00  0.00000000000E+00 -0.15916951041E+04  0.15916951041E+04  0.50400001928E-02 0. -1.
    10030    2    1    2    0    0  0.00000000000E+00  0.00000000000E+00 -0.11490014369E+04  0.20343887713E+04  0.16788488230E+04 0.  0.
        3    1    3    3  502    0  0.26469032085E+03  0.77462857853E+03 -0.79965291848E+03  0.11443579863E+04  0.10100000352E+00 0. -1.
       -3    1    3    3    0  502 -0.26469032085E+03 -0.77462857853E+03 -0.34934851845E+03  0.89003078495E+03  0.10100000352E+00 0.  1.
</event>
<event>
 5   0  0.1007187E-03  0.1731300E+04  0.7818609E-02  0.8743711E-01
       -2   -1    0    0    0  501  0.00000000000E+00  0.00000000000E+00  0.14183456601E+04  0.14183456601E+04  0.25500000920E-02 0.  1.
        2   -1    0    0  501    0  0.00000000000E+00  0.00000000000E+00 -0.52832700473E+03  0.52832700474E+03  0.25500000920E-02 0. -1.
    10030    2    1    2    0    0  0.00000000000E+00  0.00000000000E+00  0.89001865536E+03  0.19466726648E+04  0.17313004526E+04 0.  0.
        5    1    3    3  502    0 -0.33813324522E+03 -0.82179258967E+02 -0.44620779714E+03  0.56587190278E+03  0.46999998093E+01 0. -1.
       -5    1    3    3    0  502  0.33813324522E+03  0.82179258967E+02  0.13362264525E+04  0.13808007620E+04  0.46999998093E+01 0.  1.
</event>
<event>
 5   0  0.9312096E-04  0.1697118E+04  0.7818609E-02  0.8763009E-01
       -2   -1    0    0    0  501  0.00000000000E+00  0.00000000000E+00  0.59426191134E+03  0.59426191135E+03  0.25500000920E-02 0. -1.
        2   -1    0    0  501    0  0.00000000000E+00  0.00000000000E+00 -0.12116758334E+04  0.12116758334E+04  0.25500000920E-02 0.  1.
    10030    2    1    2    0    0  0.00000000000E+00  0.00000000000E+00 -0.61741392206E+03  0.18059377447E+04  0.16971184952E+04 0.  0.
        3    1    3    3  502    0  0.30899877623E+02 -0.33684285800E+03 -0.11368322473E+04  0.11860883113E+04  0.10100000352E+00 0.  1.
       -3    1    3    3    0  502 -0.30899877623E+02  0.33684285800E+03  0.51941832522E+03  0.61984943350E+03  0.10100000352E+00 0. -1.
</event>
<event>
 5   0  0.5009762E-04  0.1671314E+04  0.7818609E-02  0.8777896E-01
        1   -1    0    0  501    0  0.00000000000E+00  0.00000000000E+00  0.15324712827E+04  0.15324712827E+04  0.50400001928E-02 0.  1.
       -1   -1    0    0    0  501  0.00000000000E+00  0.00000000000E+00 -0.45568381562E+03  0.45568381564E+03  0.50400001928E-02 0. -1.
    10030    2    1    2    0    0  0.00000000000E+00  0.00000000000E+00  0.10767874671E+04  0.19881550984E+04  0.16713136886E+04 0.  0.
        3    1    3    3  502    0  0.72289743465E+03  0.15860965917E+02  0.10367255052E+04  0.12639747049E+04  0.10100000352E+00 0.  1.
       -3    1    3    3    0  502 -0.72289743465E+03 -0.15860965917E+02  0.40061961858E+02  0.72418039345E+03  0.10100000352E+00 0. -1.
</event>
<event>
 5   0  0.9284971E-04  0.1400438E+04  0.7818609E-02  0.8953502E-01
        2   -1    0    0  501    0  0.00000000000E+00  0.00000000000E+00  0.35610125417E+03  0.35610125418E+03  0.25500000920E-02 0. -1.
       -2   -1    0    0    0  501  0.00000000000E+00  0.00000000000E+00 -0.13768741173E+04  0.13768741173E+04  0.25500000920E-02 0.  1.
    10030    2    1    2    0    0  0.00000000000E+00  0.00000000000E+00 -0.10207728631E+04  0.17329753715E+04  0.14004379315E+04 0.  0.
        4    1    3    3  502    0 -0.63094357282E+03 -0.29164956228E+03 -0.61506443544E+03  0.92814607250E+03  0.12699999809E+01 0.  1.
       -4    1    3    3    0  502  0.63094357282E+03  0.29164956228E+03 -0.40570842767E+03  0.80482929895E+03  0.12699999809E+01 0. -1.
</event>
<event>
 5   0  0.3523125E-04  0.1716421E+04  0.7818609E-02  0.8752054E-01
        4   -1    0    0  501    0  0.00000000000E+00  0.00000000000E+00  0.74685975193E+03  0.74686083172E+03  0.12699999809E+01 0.  1.
       -4   -1    0    0    0  501  0.00000000000E+00  0.00000000000E+00 -0.98616085351E+03  0.98616167127E+03  0.12699999809E+01 0. -1.
    10030    2    1    2    0    0  0.00000000000E+00  0.00000000000E+00 -0.23930110157E+03  0.17330225030E+04  0.17164212707E+04 0.  0.
        2    1    3    3  502    0 -0.23416781195E+01  0.82900783742E+03  0.10445573553E+03  0.83556596308E+03  0.25500000920E-02 0.  1.
       -2    1    3    3    0  502  0.23416781195E+01 -0.82900783742E+03 -0.34375683710E+03  0.89745653991E+03  0.25500000920E-02 0. -1.
</event>
<event>
 5   0  0.4947006E-04  0.1711278E+04  0.7818609E-02  0.8754958E-01
       -1   -1    0    0    0  501  0.00000000000E+00  0.00000000000E+00  0.37024202375E+03  0.37024202379E+03  0.50400001928E-02 0.  1.
        1   -1    0    0  501    0  0.00000000000E+00  0.00000000000E+00 -0.19774041273E+04  0.19774041273E+04  0.50400001928E-02 0. -1.
    10030    2    1    2    0    0  0.00000000000E+00  0.00000000000E+00 -0.16071621035E+04  0.23476461511E+04  0.17112780089E+04 0.  0.
        2    1    3    3  502    0 -0.31379968569E+03  0.30943879924E+03  0.20256498686E+03  0.48503111975E+03  0.25500000920E-02 0.  1.
       -2    1    3    3    0  502  0.31379968569E+03 -0.30943879924E+03 -0.18097270904E+04  0.18626150313E+04  0.25500000920E-02 0. -1.
</event>
<event>
 5   0  0.5035495E-04  0.1630147E+04  0.7818609E-02  0.8802239E-01
       -1   -1    0    0    0  501  0.00000000000E+00  0.00000000000E+00  0.24977849175E+03  0.24977849180E+03  0.50400001928E-02 0. -1.
        1   -1    0    0  501    0  0.00000000000E+00  0.00000000000E+00 -0.26597356996E+04  0.26597356996E+04  0.50400001928E-02 0.  1.
    10030    2    1    2    0    0  0.00000000000E+00  0.00000000000E+00 -0.24099572078E+04  0.29095141914E+04  0.16301469524E+04 0.  0.
        4    1    3    3  502    0 -0.35615537546E+03 -0.44454735105E+03 -0.16445293827E+03  0.59288732538E+03  0.12699999809E+01 0. -1.
       -4    1    3    3    0  502  0.35615537546E+03  0.44454735105E+03 -0.22455042696E+04  0.23166268660E+04  0.12699999809E+01 0.  1.
</event>
<event>
 5   0  0.5009762E-04  0.1737085E+04  0.7818609E-02  0.8740492E-01
       -1   -1    0    0    0  501  0.00000000000E+00  0.00000000000E+00  0.56905699825E+03  0.56905699827E+03  0.50400001928E-02 0. -1.
        1   -1    0    0  501    0  0.00000000000E+00  0.00000000000E+00 -0.13256424427E+04  0.13256424427E+04  0.50400001928E-02 0.  1.
    10030    2    1    2    0    0  0.00000000000E+00  0.00000000000E+00 -0.75658544449E+03  0.18946994410E+04  0.17370850402E+04 0.  0.
        3    1    3    3  502    0  0.12921771857E+03  0.43047110433E+03  0.43235419710E+03  0.62364473252E+03  0.10100000352E+00 0. -1.
       -3    1    3    3    0  502 -0.12921771857E+03 -0.43047110433E+03 -0.11889396416E+04  0.12710547085E+04  0.10100000352E+00 0.  1.
</event>
<event>
 5   0  0.5059689E-04  0.1713036E+04  0.7818609E-02  0.8753964E-01
       -1   -1    0    0    0  501  0.00000000000E+00  0.00000000000E+00  0.77478077602E+03  0.77478077603E+03  0.50400001928E-02 0.  1.
        1   -1    0    0  501    0  0.00000000000E+00  0.00000000000E+00 -0.94687846082E+03  0.94687846083E+03  0.50400001928E-02 0. -1.
    10030    2    1    2    0    0  0.00000000000E+00  0.00000000000E+00 -0.17209768480E+03  0.17216592369E+04  0.17130361686E+04 0.  0.
        5    1    3    3  502    0  0.43343896263E+03 -0.47128048904E+03 -0.65779427758E+03  0.91798150051E+03  0.46999998093E+01 0. -1.
       -5    1    3    3    0  502 -0.43343896263E+03  0.47128048904E+03  0.48569659277E+03  0.80367773635E+03  0.46999998093E+01 0.  1.
</event>
<event>
 5   0  0.9312096E-04  0.1647795E+04  0.7818609E-02  0.8791712E-01
       -2   -1    0    0    0  501  0.00000000000E+00  0.00000000000E+00  0.74729277886E+03  0.74729277886E+03  0.25500000920E-02 0. -1.
        2   -1    0    0  501    0  0.00000000000E+00  0.00000000000E+00 -0.90835468807E+03  0.90835468807E+03  0.25500000920E-02 0.  1.
    10030    2    1    2    0    0  0.00000000000E+00  0.00000000000E+00 -0.16106190921E+03  0.16556474669E+04  0.16477947676E+04 0.  0.
        3    1    3    3  502    0 -0.63632025933E+03 -0.32978694069E+03 -0.48884670841E+03  0.86754481913E+03  0.10100000352E+00 0.  1.
       -3    1    3    3    0  502  0.63632025933E+03  0.32978694069E+03  0.32778479919E+03  0.78810264780E+03  0.10100000352E+00 0. -1.
</event>
<event>
 5   0  0.5074133E-04  0.1699078E+04  0.7818609E-02  0.8761890E-01
       -1   -1    0    0    0  501  0.00000000000E+00  0.00000000000E+00  0.90140069523E+03  0.90140069524E+03  0.50400001928E-02 0. -1.
        1   -1    0    0  501    0  0.00000000000E+00  0.00000000000E+00 -0.80066134317E+03  0.80066134318E+03  0.50400001928E-02 0.  1.
    10030    2    1    2    0    0  0.00000000000E+00  0.00000000000E+00  0.10073935206E+03  0.17020620384E+04  0.16990782106E+04 0.  0.
        1    1    3    3  502    0  0.65921144096E+03 -0.29970083816E+03 -0.39463603888E+03  0.82469262121E+03  0.50400001928E-02 0.  1.
       -1    1    3    3    0  502 -0.65921144096E+03  0.29970083816E+03  0.49537539094E+03  0.87736941721E+03  0.50400001928E-02 0. -1.
</event>
<event>
 5   0  0.9625225E-04  0.1705983E+04  0.7818609E-02  0.8757959E-01
        2   -1    0    0  501    0  0.00000000000E+00  0.00000000000E+00  0.23988987221E+04  0.23988987221E+04  0.25500000920E-02 0. -1.
       -2   -1    0    0    0  501  0.00000000000E+00  0.00000000000E+00 -0.30330365359E+03  0.30330365360E+03  0.25500000920E-02 0.  1.
    10030    2    1    2    0    0  0.00000000000E+00  0.00000000000E+00  0.20955950685E+04  0.27022023757E+04  0.17059832907E+04 0.  0.
        1    1    3    3  502    0  0.42045570703E+02 -0.83132371590E+03  0.13429739885E+04  0.15800145836E+04  0.50400001928E-02 0. -1.
       -1    1    3    3    0  502 -0.42045570703E+02  0.83132371590E+03  0.75262108008E+03  0.11221877921E+04  0.50400001928E-02 0.  1.
</event>
<event>
 5   0  0.5009762E-04  0.1652942E+04  0.7818609E-02  0.8788668E-01
       -1   -1    0    0    0  501  0.00000000000E+00  0.00000000000E+00  0.17317546794E+04  0.17317546794E+04  0.50400001928E-02 0. -1.
        1   -1    0    0  501    0  0.00000000000E+00  0.00000000000E+00 -0.39442896101E+03  0.39442896104E+03  0.50400001928E-02 0.  1.
    10030    2    1    2    0    0  0.00000000000E+00  0.00000000000E+00  0.13373257184E+04  0.21261836405E+04  0.16529418610E+04 0.  0.
        3    1    3    3  502    0 -0.76968960478E+03  0.26989811261E+03  0.49711081888E+03  0.95518912020E+03  0.10100000352E+00 0.  1.
       -3    1    3    3    0  502  0.76968960478E+03 -0.26989811261E+03  0.84021489954E+03  0.11709945203E+04  0.10100000352E+00 0. -1.
</event>
<event>
 5   0  0.4947006E-04  0.1611008E+04  0.7818609E-02  0.8813814E-01
        1   -1    0    0  501    0  0.00000000000E+00  0.00000000000E+00  0.18764153778E+04  0.18764153778E+04  0.50400001928E-02 0. -1.
       -1   -1    0    0    0  501  0.00000000000E+00  0.00000000000E+00 -0.34578539266E+03  0.34578539270E+03  0.50400001928E-02 0.  1.
    10030    2    1    2    0    0  0.00000000000E+00  0.00000000000E+00  0.15306299851E+04  0.22222007705E+04  0.16110084149E+04 0.  0.
        2    1    3    3  502    0 -0.21656993718E+03  0.55380858243E+03  0.15148054862E+04  0.16273420491E+04  0.25500000920E-02 0. -1.
       -2    1    3    3    0  502  0.21656993718E+03 -0.55380858243E+03  0.15824498920E+02  0.59485872141E+03  0.25500000920E-02 0.  1.
</event>
<event>
 5   0  0.5059689E-04  0.1625540E+04  0.7818609E-02  0.8805010E-01
       -1   -1    0    0    0  501  0.00000000000E+00  0.00000000000E+00  0.73409120739E+03  0.73409120740E+03  0.50400001928E-02 0.  1.
        1   -1    0    0  501    0  0.00000000000E+00  0.00000000000E+00 -0.89988113923E+03  0.89988113924E+03  0.50400001928E-02 0. -1.
    10030    2    1    2    0    0  0.00000000000E+00  0.00000000000E+00 -0.16578993184E+03  0.16339723466E+04  0.16255397036E+04 0.  0.
        5    1    3    3  502    0 -0.34692109310E+03 -0.44266201675E+03 -0.67268302611E+03  0.87682863179E+03  0.46999998093E+01 0. -1.
       -5    1    3    3    0  502  0.34692109310E+03  0.44266201675E+03  0.50689309427E+03  0.75714371485E+03  0.46999998093E+01 0.  1.
</event>
<event>
 5   0  0.1007187E-03  0.1471375E+04  0.7818609E-02  0.8903715E-01
        2   -1    0    0  501    0  0.00000000000E+00  0.00000000000E+00  0.82402689397E+03  0.82402689397E+03  0.25500000920E-02 0. -1.
       -2   -1    0    0    0  501  0.00000000000E+00  0.00000000000E+00 -0.65681822394E+03  0.65681822394E+03  0.25500000920E-02 0.  1.
    10030    2    1    2    0    0  0.00000000000E+00  0.00000000000E+00  0.16720867003E+03  0.14808451179E+04  0.14713747055E+04 0.  0.
        5    1    3    3  502    0  0.58980907919E+03  0.12225310773E+03 -0.34148041304E+03  0.69242438919E+03  0.46999998093E+01 0.  1.
       -5    1    3    3    0  502 -0.58980907919E+03 -0.12225310773E+03  0.50868908308E+03  0.78842072873E+03  0.46999998093E+01 0. -1.
</event>
<event>
 5   0  0.1007187E-03  0.1391074E+04  0.7818609E-02  0.8960305E-01
       -2   -1    0    0    0  501  0.00000000000E+00  0.00000000000E+00  0.32296486733E+03  0.32296486734E+03  0.25500000920E-02 0. -1.
        2   -1    0    0  501    0  0.00000000000E+00  0.00000000000E+00 -0.14979079735E+04  0.14979079735E+04  0.25500000920E-02 0.  1.
    10030    2    1    2    0    0  0.00000000000E+00  0.00000000000E+00 -0.11749431061E+04  0.18208728408E+04  0.13910739016E+04 0.  0.
        5    1    3    3  502    0 -0.42232913095E+03 -0.26510135483E+03 -0.12221649560E+04  0.13199810199E+04  0.46999998093E+01 0.  1.
       -5    1    3    3    0  502  0.42232913095E+03  0.26510135483E+03  0.47221849857E+02  0.50089182094E+03  0.46999998093E+01 0. -1.
</event>
<event>
 5   0  0.1007187E-03  0.1682720E+04  0.7818609E-02  0.8771281E-01
       -2   -1    0    0    0  501  0.00000000000E+00  0.00000000000E+00  0.69194403250E+03  0.69194403251E+03  0.25500000920E-02 0. -1.
        2   -1    0    0  501    0  0.00000000000E+00  0.00000000000E+00 -0.10230407242E+04  0.10230407242E+04  0.25500000920E-02 0.  1.
    10030    2    1    2    0    0  0.00000000000E+00  0.00000000000E+00 -0.33109669166E+03  0.17149847567E+04  0.16827203263E+04 0.  0.
        5    1    3    3  502    0  0.17049140797E+03 -0.16014156686E+03  0.65812595888E+03  0.69847298400E+03  0.46999998093E+01 0. -1.
       -5    1    3    3    0  502 -0.17049140797E+03  0.16014156686E+03 -0.98922265054E+03  0.10165117727E+04  0.46999998093E+01 0.  1.
</event>
<event>
 5   0  0.5035495E-04  0.1700774E+04  0.7818609E-02  0.8760923E-01
       -1   -1    0    0    0  501  0.00000000000E+00  0.00000000000E+00  0.44634254659E+03  0.44634254661E+03  0.50400001928E-02 0. -1.
        1   -1    0    0  501    0  0.00000000000E+00  0.00000000000E+00 -0.16201855787E+04  0.16201855787E+04  0.50400001928E-02 0.  1.
    10030    2    1    2    0    0  0.00000000000E+00  0.00000000000E+00 -0.11738430321E+04  0.20665281253E+04  0.17007736559E+04 0.  0.
        4    1    3    3  502    0  0.56250326288E+03  0.63436774208E+03 -0.50702512498E+03  0.98788078390E+03  0.12699999809E+01 0. -1.
       -4    1    3    3    0  502 -0.56250326288E+03 -0.63436774208E+03 -0.66681790710E+03  0.10786473414E+04  0.12699999809E+01 0.  1.
</event>
<event>
 5   0  0.9610114E-04  0.1617739E+04  0.7818609E-02  0.8809724E-01
       -2   -1    0    0    0  501  0.00000000000E+00  0.00000000000E+00  0.60564374396E+03  0.60564374397E+03  0.25500000920E-02 0. -1.
        2   -1    0    0  501    0  0.00000000000E+00  0.00000000000E+00 -0.10802887960E+04  0.10802887960E+04  0.25500000920E-02 0.  1.
    10030    2    1    2    0    0  0.00000000000E+00  0.00000000000E+00 -0.47464505199E+03  0.16859325399E+04  0.16177393498E+04 0.  0.
        2    1    3    3  502    0 -0.55803068634E+03 -0.11757576328E+03 -0.83512976311E+03  0.10112685243E+04  0.25500000920E-02 0.  1.
       -2    1    3    3    0  502  0.55803068634E+03  0.11757576328E+03  0.36048471113E+03  0.67466401562E+03  0.25500000920E-02 0. -1.
</event>
<event>
 5   0  0.9312096E-04  0.1690379E+04  0.7818609E-02  0.8766870E-01
       -2   -1    0    0    0  501  0.00000000000E+00  0.00000000000E+00  0.55233563941E+03  0.55233563942E+03  0.25500000920E-02 0. -1.
        2   -1    0    0  501    0  0.00000000000E+00  0.00000000000E+00 -0.12933179189E+04  0.12933179189E+04  0.25500000920E-02 0.  1.
    10030    2    1    2    0    0  0.00000000000E+00  0.00000000000E+00 -0.74098227946E+03  0.18456535583E+04  0.16903793417E+04 0.  0.
        3    1    3    3  502    0 -0.23294087873E+03 -0.10566566910E+03 -0.12500425185E+04  0.12759439623E+04  0.10100000352E+00 0.  1.
       -3    1    3    3    0  502  0.23294087873E+03  0.10566566910E+03  0.50906023905E+03  0.56970959601E+03  0.10100000352E+00 0. -1.
</event>
<event>
 5   0  0.5074133E-04  0.1700489E+04  0.7818609E-02  0.8761085E-01
        1   -1    0    0  501    0  0.00000000000E+00  0.00000000000E+00  0.70617555933E+03  0.70617555934E+03  0.50400001928E-02 0.  1.
       -1   -1    0    0    0  501  0.00000000000E+00  0.00000000000E+00 -0.10237055185E+04  0.10237055186E+04  0.50400001928E-02 0. -1.
    10030    2    1    2    0    0  0.00000000000E+00  0.00000000000E+00 -0.31752995921E+03  0.17298810779E+04  0.17004891263E+04 0.  0.
        1    1    3    3  502    0  0.67313536650E+03 -0.80307381744E+02  0.36328662735E+03  0.76911486192E+03  0.50400001928E-02 0.  1.
       -1    1    3    3    0  502 -0.67313536650E+03  0.80307381744E+02 -0.68081658656E+03  0.96076621597E+03  0.50400001928E-02 0. -1.
</event>
<event>
 5   0  0.9312096E-04  0.1704285E+04  0.7818609E-02  0.8758924E-01
       -2   -1    0    0    0  501  0.00000000000E+00  0.00000000000E+00  0.33761437880E+03  0.33761437881E+03  0.25500000920E-02 0. -1.
        2   -1    0    0  501    0  0.00000000000E+00  0.00000000000E+00 -0.21508178616E+04  0.21508178616E+04  0.25500000920E-02 0.  1.
    10030    2    1    2    0    0  0.00000000000E+00  0.00000000000E+00 -0.18132034828E+04  0.24884322404E+04  0.17042852300E+04 0.  0.
        3    1    3    3  502    0 -0.48173763396E+03  0.27637544306E+03  0.37050278797E+02  0.55662129573E+03  0.10100000352E+00 0. -1.
       -3    1    3    3    0  502  0.48173763396E+03 -0.27637544306E+03 -0.18502537616E+04  0.19318109447E+04  0.10100000352E+00 0.  1.
</event>
<event>
 5   0  0.5035495E-04  0.1685530E+04  0.7818609E-02  0.8769660E-01
        1   -1    0    0  501    0  0.00000000000E+00  0.00000000000E+00  0.75050292267E+03  0.75050292268E+03  0.50400001928E-02 0.  1.
       -1   -1    0    0    0  501  0.00000000000E+00  0.00000000000E+00 -0.94636913107E+03  0.94636913108E+03  0.50400001928E-02 0. -1.
    10030    2    1    2    0    0  0.00000000000E+00  0.00000000000E+00 -0.19586620840E+03  0.16968720538E+04  0.16855299449E+04 0.  0.
        4    1    3    3  502    0 -0.38245155179E+03 -0.65821356387E+03 -0.46194176545E+03  0.89045274591E+03  0.12699999809E+01 0. -1.
       -4    1    3    3    0  502  0.38245155179E+03  0.65821356387E+03  0.26607555705E+03  0.80641930786E+03  0.12699999809E+01 0.  1.
</event>
<event>
 5   0  0.1007187E-03  0.1723854E+04  0.7818609E-02  0.8747875E-01
       -2   -1    0    0    0  501  0.00000000000E+00  0.00000000000E+00  0.11335145922E+04  0.11335145922E+04  0.25500000920E-02 0. -1.
        2   -1    0    0  501    0  0.00000000000E+00  0.00000000000E+00 -0.65541142573E+03  0.65541142574E+03  0.25500000920E-02 0.  1.
    10030    2    1    2    0    0  0.00000000000E+00  0.00000000000E+00  0.47810316650E+03  0.17889260180E+04  0.17238543036E+04 0.  0.
        5    1    3    3  502    0 -0.25784011831E+03  0.56394921524E+03  0.86029432973E+03  0.10604945392E+04  0.46999998093E+01 0. -1.
       -5    1    3    3    0  502  0.25784011831E+03 -0.56394921524E+03 -0.38219116323E+03  0.72843147874E+03  0.46999998093E+01 0.  1.
</event>
<event>
 5   0  0.5009762E-04  0.1554551E+04  0.7818609E-02  0.8848966E-01
       -1   -1    0    0    0  501  0.00000000000E+00  0.00000000000E+00  0.31076227815E+03  0.31076227819E+03  0.50400001928E-02 0.  1.
        1   -1    0    0  501    0  0.00000000000E+00  0.00000000000E+00 -0.19441130545E+04  0.19441130545E+04  0.50400001928E-02 0. -1.
    10030    2    1    2    0    0  0.00000000000E+00  0.00000000000E+00 -0.16333507763E+04  0.22548753327E+04  0.15545507413E+04 0.  0.
        3    1    3    3  502    0  0.26504626281E+03  0.12520562742E+02  0.24303420185E+03  0.35982206629E+03  0.10100000352E+00 0.  1.
       -3    1    3    3    0  502 -0.26504626281E+03 -0.12520562742E+02 -0.18763849782E+04  0.18950532664E+04  0.10100000352E+00 0. -1.
</event>
<event>
 5   0  0.9610114E-04  0.1688380E+04  0.7818609E-02  0.8768020E-01
        2   -1    0    0  501    0  0.00000000000E+00  0.00000000000E+00  0.66914789918E+03  0.66914789918E+03  0.25500000920E-02 0.  1.
       -2   -1    0    0    0  501  0.00000000000E+00  0.00000000000E+00 -0.10650206936E+04  0.10650206936E+04  0.25500000920E-02 0. -1.
    10030    2    1    2    0    0  0.00000000000E+00  0.00000000000E+00 -0.39587279438E+03  0.17341685927E+04  0.16883795304E+04 0.  0.
        2    1    3    3  502    0  0.15009684806E+03 -0.53288572019E+03  0.45665436136E+03  0.71765553042E+03  0.25500000920E-02 0.  1.
       -2    1    3    3    0  502 -0.15009684806E+03  0.53288572019E+03 -0.85252715574E+03  0.10165130623E+04  0.25500000920E-02 0. -1.
</event>
<event>
 5   0  0.5059689E-04  0.1723982E+04  0.7818609E-02  0.8747803E-01
        1   -1    0    0  501    0  0.00000000000E+00  0.00000000000E+00  0.85909378684E+03  0.85909378685E+03  0.50400001928E-02 0.  1.
       -1   -1    0    0    0  501  0.00000000000E+00  0.00000000000E+00 -0.86489821535E+03  0.86489821536E+03  0.50400001928E-02 0. -1.
    10030    2    1    2    0    0  0.00000000000E+00  0.00000000000E+00 -0.58044285078E+01  0.17239920022E+04  0.17239822309E+04 0.  0.
        5    1    3    3  502    0  0.59037615671E+03 -0.14604402236E+03 -0.61375240864E+03  0.86405264422E+03  0.46999998093E+01 0. -1.
       -5    1    3    3    0  502 -0.59037615671E+03  0.14604402236E+03  0.60794798013E+03  0.85993935799E+03  0.46999998093E+01 0.  1.
</event>
<event>
 5   0  0.4947006E-04  0.1692192E+04  0.7818609E-02  0.8765830E-01
        1   -1    0    0  501    0  0.00000000000E+00  0.00000000000E+00  0.92528518180E+03  0.92528518181E+03  0.50400001928E-02 0.  1.
       -1   -1    0    0    0  501  0.00000000000E+00  0.00000000000E+00 -0.77368447986E+03  0.77368447987E+03  0.50400001928E-02 0. -1.
    10030    2    1    2    0    0  0.00000000000E+00  0.00000000000E+00  0.15160070194E+03  0.16989696617E+04  0.16921924059E+04 0.  0.
        2    1    3    3  502    0  0.75016630993E+03 -0.27579356210E+03 -0.20292128425E+03  0.82461423044E+03  0.25500000920E-02 0. -1.
       -2    1    3    3    0  502 -0.75016630993E+03  0.27579356210E+03  0.35452198619E+03  0.87435543124E+03  0.25500000920E-02 0.  1.
</event>
<event>
 5   0  0.5059689E-04  0.1128060E+04  0.7818609E-02  0.9178266E-01
       -1   -1    0    0    0  501  0.00000000000E+00  0.00000000000E+00  0.46937598324E+03  0.46937598326E+03  0.50400001928E-02 0.  1.
        1   -1    0    0  501    0  0.00000000000E+00  0.00000000000E+00 -0.67777159297E+03  0.67777159299E+03  0.50400001928E-02 0. -1.
    10030    2    1    2    0    0  0.00000000000E+00  0.00000000000E+00 -0.20839560973E+03  0.11471475762E+04  0.11280597642E+04 0.  0.
        5    1    3    3  502    0 -0.44239578309E+03 -0.25487588195E+03  0.13950676658E+03  0.52930139998E+03  0.46999998093E+01 0. -1.
       -5    1    3    3    0  502  0.44239578309E+03  0.25487588195E+03 -0.34790237631E+03  0.61784617627E+03  0.46999998093E+01 0.  1.
</event>
<event>
 5   0  0.1007187E-03  0.1711521E+04  0.7818609E-02  0.8754820E-01
       -2   -1    0    0    0  501  0.00000000000E+00  0.00000000000E+00  0.43746400427E+03  0.43746400428E+03  0.25500000920E-02 0. -1.
        2   -1    0    0  501    0  0.00000000000E+00  0.00000000000E+00 -0.16740266676E+04  0.16740266676E+04  0.25500000920E-02 0.  1.
    10030    2    1    2    0    0  0.00000000000E+00  0.00000000000E+00 -0.12365626634E+04  0.21114906719E+04  0.17115214393E+04 0.  0.
        5    1    3    3  502    0 -0.78319965868E+02  0.39202080648E+03 -0.15517307126E+04  0.16024058862E+04  0.46999998093E+01 0.  1.
       -5    1    3    3    0  502  0.78319965868E+02 -0.39202080648E+03  0.31516804924E+03  0.50908478570E+03  0.46999998093E+01 0. -1.
</event>
<event>
 5   0  0.5059689E-04  0.1706765E+04  0.7818609E-02  0.8757516E-01
       -1   -1    0    0    0  501  0.00000000000E+00  0.00000000000E+00  0.65436994165E+03  0.65436994167E+03  0.50400001928E-02 0.  1.
        1   -1    0    0  501    0  0.00000000000E+00  0.00000000000E+00 -0.11129200044E+04  0.11129200044E+04  0.50400001928E-02 0. -1.
    10030    2    1    2    0    0  0.00000000000E+00  0.00000000000E+00 -0.45855006277E+03  0.17672899461E+04  0.17067646567E+04 0.  0.
        5    1    3    3  502    0 -0.32650931830E+03 -0.15168643186E+03 -0.10304190140E+04  0.10915138767E+04  0.46999998093E+01 0. -1.
       -5    1    3    3    0  502  0.32650931830E+03  0.15168643186E+03  0.57186895126E+03  0.67577606940E+03  0.46999998093E+01 0.  1.
</event>
<event>
 5   0  0.9625225E-04  0.1662025E+04  0.7818609E-02  0.8783324E-01
       -2   -1    0    0    0  501  0.00000000000E+00  0.00000000000E+00  0.38215004710E+03  0.38215004711E+03  0.25500000920E-02 0. -1.
        2   -1    0    0  501    0  0.00000000000E+00  0.00000000000E+00 -0.18070962117E+04  0.18070962117E+04  0.25500000920E-02 0.  1.
    10030    2    1    2    0    0  0.00000000000E+00  0.00000000000E+00 -0.14249461646E+04  0.21892462588E+04  0.16620251531E+04 0.  0.
        1    1    3    3  502    0 -0.39762933366E+02 -0.82429456741E+03 -0.58382160755E+03  0.10108858957E+04  0.50400001928E-02 0. -1.
       -1    1    3    3    0  502  0.39762933366E+02  0.82429456741E+03 -0.84112455702E+03  0.11783603630E+04  0.50400001928E-02 0.  1.
</event>
<event>
 5   0  0.1007187E-03  0.1592880E+04  0.7818609E-02  0.8824934E-01
       -2   -1    0    0    0  501  0.00000000000E+00  0.00000000000E+00  0.61409858333E+03  0.61409858334E+03  0.25500000920E-02 0. -1.
        2   -1    0    0  501    0  0.00000000000E+00  0.00000000000E+00 -0.10329235096E+04  0.10329235096E+04  0.25500000920E-02 0.  1.
    10030    2    1    2    0    0  0.00000000000E+00  0.00000000000E+00 -0.41882492625E+03  0.16470220929E+04  0.15928802390E+04 0.  0.
        5    1    3    3  502    0  0.12485192645E+03  0.78039140049E+03 -0.31122782990E+03  0.84940190346E+03  0.46999998093E+01 0.  1.
       -5    1    3    3    0  502 -0.12485192645E+03 -0.78039140049E+03 -0.10759709635E+03  0.79762018947E+03  0.46999998093E+01 0. -1.
</event>
<event>
 5   0  0.1007187E-03  0.1728697E+04  0.7818609E-02  0.8745165E-01
       -2   -1    0    0    0  501  0.00000000000E+00  0.00000000000E+00  0.50145583649E+03  0.50145583650E+03  0.25500000920E-02 0. -1.
        2   -1    0    0  501    0  0.00000000000E+00  0.00000000000E+00 -0.14898581957E+04  0.14898581957E+04  0.25500000920E-02 0.  1.
    10030    2    1    2    0    0  0.00000000000E+00  0.00000000000E+00 -0.98840235924E+03  0.19913140322E+04  0.17286967204E+04 0.  0.
        5    1    3    3  502    0  0.64678703176E+03 -0.53664436016E+03 -0.26165279101E+03  0.88023003061E+03  0.46999998093E+01 0.  1.
       -5    1    3    3    0  502 -0.64678703176E+03  0.53664436016E+03 -0.72674956822E+03  0.11110840016E+04  0.46999998093E+01 0. -1.
</event>
<event>
 5   0  0.5059689E-04  0.1669736E+04  0.7818609E-02  0.8778816E-01
       -1   -1    0    0    0  501  0.00000000000E+00  0.00000000000E+00  0.87066616144E+03  0.87066616145E+03  0.50400001928E-02 0.  1.
        1   -1    0    0  501    0  0.00000000000E+00  0.00000000000E+00 -0.80054180033E+03  0.80054180034E+03  0.50400001928E-02 0. -1.
    10030    2    1    2    0    0  0.00000000000E+00  0.00000000000E+00  0.70124361110E+02  0.16712079618E+04  0.16697360946E+04 0.  0.
        5    1    3    3  502    0 -0.43617544852E+03 -0.70511840561E+03 -0.62704929137E+02  0.83150164519E+03  0.46999998093E+01 0. -1.
       -5    1    3    3    0  502  0.43617544852E+03  0.70511840561E+03  0.13282929025E+03  0.83970631661E+03  0.46999998093E+01 0.  1.
</event>
<event>
 5   0  0.5059689E-04  0.1882153E+04  0.7818609E-02  0.8663791E-01
        1   -1    0    0  501    0  0.00000000000E+00  0.00000000000E+00  0.73037870759E+03  0.73037870760E+03  0.50400001928E-02 0. -1.
       -1   -1    0    0    0  501  0.00000000000E+00  0.00000000000E+00 -0.12125554958E+04  0.12125554958E+04  0.50400001928E-02 0.  1.
    10030    2    1    2    0    0  0.00000000000E+00  0.00000000000E+00 -0.48217678824E+03  0.19429342034E+04  0.18821527206E+04 0.  0.
        5    1    3    3  502    0  0.71856768313E+03  0.56490386108E+03 -0.99220633128E+01  0.91409869535E+03  0.46999998093E+01 0. -1.
       -5    1    3    3    0  502 -0.71856768313E+03 -0.56490386108E+03 -0.47225472493E+03  0.10288355081E+04  0.46999998093E+01 0.  1.
</event>
<event>
 5   0  0.1007187E-03  0.1698049E+04  0.7818609E-02  0.8762478E-01
       -2   -1    0    0    0  501  0.00000000000E+00  0.00000000000E+00  0.48521934326E+03  0.48521934327E+03  0.25500000920E-02 0.  1.
        2   -1    0    0  501    0  0.00000000000E+00  0.00000000000E+00 -0.14856022214E+04  0.14856022214E+04  0.25500000920E-02 0. -1.
    10030    2    1    2    0    0  0.00000000000E+00  0.00000000000E+00 -0.10003828781E+04  0.19708215647E+04  0.16980493918E+04 0.  0.
        5    1    3    3  502    0  0.73775903763E+03 -0.26776012997E+03 -0.87598920630E+03  0.11761645567E+04  0.46999998093E+01 0. -1.
       -5    1    3    3    0  502 -0.73775903763E+03  0.26776012997E+03 -0.12439367185E+03  0.79465700802E+03  0.46999998093E+01 0.  1.
</event>
<event>
 5   0  0.5035495E-04  0.1692481E+04  0.7818609E-02  0.8765664E-01
        1   -1    0    0  501    0  0.00000000000E+00  0.00000000000E+00  0.12662227253E+04  0.12662227253E+04  0.50400001928E-02 0. -1.
       -1   -1    0    0    0  501  0.00000000000E+00  0.00000000000E+00 -0.56555868407E+03  0.56555868409E+03  0.50400001928E-02 0.  1.
    10030    2    1    2    0    0  0.00000000000E+00  0.00000000000E+00  0.70066404126E+03  0.18317814094E+04  0.16924813243E+04 0.  0.
        4    1    3    3  502    0  0.30563908899E+03 -0.13250675041E+03 -0.49160710112E+03  0.59384547350E+03  0.12699999809E+01 0.  1.
       -4    1    3    3    0  502 -0.30563908899E+03  0.13250675041E+03  0.11922711424E+04  0.12379359359E+04  0.12699999809E+01 0. -1.
</event>
<event>
 5   0  0.9625225E-04  0.1715220E+04  0.7818609E-02  0.8752731E-01
        2   -1    0    0  501    0  0.00000000000E+00  0.00000000000E+00  0.77102204977E+03  0.77102204977E+03  0.25500000920E-02 0.  1.
       -2   -1    0    0    0  501  0.00000000000E+00  0.00000000000E+00 -0.95392227317E+03  0.95392227317E+03  0.25500000920E-02 0. -1.
    10030    2    1    2    0    0  0.00000000000E+00  0.00000000000E+00 -0.18290022340E+03  0.17249443229E+04  0.17152202265E+04 0.  0.
        1    1    3    3  502    0  0.30995023202E+03  0.79586590306E+03 -0.13399389941E+02  0.85419624540E+03  0.50400001928E-02 0.  1.
       -1    1    3    3    0  502 -0.30995023202E+03 -0.79586590306E+03 -0.16950083346E+03  0.87074807755E+03  0.50400001928E-02 0. -1.
</event>
<event>
 5   0  0.5059689E-04  0.1677980E+04  0.7818609E-02  0.8774024E-01
        1   -1    0    0  501    0  0.00000000000E+00  0.00000000000E+00  0.14380429414E+04  0.14380429414E+04  0.50400001928E-02 0.  1.
       -1   -1    0    0    0  501  0.00000000000E+00  0.00000000000E+00 -0.48948787431E+03  0.48948787433E+03  0.50400001928E-02 0. -1.
    10030    2    1    2    0    0  0.00000000000E+00  0.00000000000E+00  0.94855506706E+03  0.19275308157E+04  0.16779804320E+04 0.  0.
        5    1    3    3  502    0 -0.61929526634E+03  0.49737949985E+03  0.78457992278E+03  0.11164679749E+04  0.46999998093E+01 0. -1.
       -5    1    3    3    0  502  0.61929526634E+03 -0.49737949985E+03  0.16397514428E+03  0.81106284079E+03  0.46999998093E+01 0.  1.
</event>
<event>
 5   0  0.5074133E-04  0.9684061E+03  0.7818609E-02  0.9343892E-01
        1   -1    0    0  501    0  0.00000000000E+00  0.00000000000E+00  0.36187071041E+03  0.36187071044E+03  0.50400001928E-02 0.  1.
       -1   -1    0    0    0  501  0.00000000000E+00  0.00000000000E+00 -0.64789047325E+03  0.64789047327E+03  0.50400001928E-02 0. -1.
    10030    2    1    2    0    0  0.00000000000E+00  0.00000000000E+00 -0.28601976284E+03  0.10097611837E+04  0.96840608393E+03 0.  0.
        1    1    3    3  502    0 -0.15086716951E+03 -0.39460258998E+03  0.10369597989E+03  0.43499995762E+03  0.50400001928E-02 0.  1.
       -1    1    3    3    0  502  0.15086716951E+03  0.39460258998E+03 -0.38971574273E+03  0.57476122609E+03  0.50400001928E-02 0. -1.
</event>
<event>
 5   0  0.5074133E-04  0.1552886E+04  0.7818609E-02  0.8850027E-01
       -1   -1    0    0    0  501  0.00000000000E+00  0.00000000000E+00  0.65737017250E+03  0.65737017252E+03  0.50400001928E-02 0. -1.
        1   -1    0    0  501    0  0.00000000000E+00  0.00000000000E+00 -0.91708383089E+03  0.91708383090E+03  0.50400001928E-02 0.  1.
    10030    2    1    2    0    0  0.00000000000E+00  0.00000000000E+00 -0.25971365839E+03  0.15744540034E+04  0.15528857732E+04 0.  0.
        1    1    3    3  502    0 -0.46732364645E+03  0.61976544441E+03 -0.11054072461E+03  0.78404071861E+03  0.50400001928E-02 0. -1.
       -1    1    3    3    0  502  0.46732364645E+03 -0.61976544441E+03 -0.14917293378E+03  0.79041328481E+03  0.50400001928E-02 0.  1.
</event>
<event>
 5   0  0.5035495E-04  0.1684527E+04  0.7818609E-02  0.8770239E-01
       -1   -1    0    0    0  501  0.00000000000E+00  0.00000000000E+00  0.58110107316E+03  0.58110107318E+03  0.50400001928E-02 0.  1.
        1   -1    0    0  501    0  0.00000000000E+00  0.00000000000E+00 -0.12207996886E+04  0.12207996886E+04  0.50400001928E-02 0. -1.
    10030    2    1    2    0    0  0.00000000000E+00  0.00000000000E+00 -0.63969861541E+03  0.18019007618E+04  0.16845272443E+04 0.  0.
        4    1    3    3  502    0  0.41027217365E+03 -0.73531087572E+03 -0.34127107328E+03  0.90855539114E+03  0.12699999809E+01 0.  1.
       -4    1    3    3    0  502 -0.41027217365E+03  0.73531087572E+03 -0.29842754213E+03  0.89334537063E+03  0.12699999809E+01 0. -1.
</event>
<event>
 5   0  0.9284971E-04  0.1581854E+04  0.7818609E-02  0.8831774E-01
       -2   -1    0    0    0  501  0.00000000000E+00  0.00000000000E+00  0.59087856883E+03  0.59087856883E+03  0.25500000920E-02 0. -1.
        2   -1    0    0  501    0  0.00000000000E+00  0.00000000000E+00 -0.10587046818E+04  0.10587046818E+04  0.25500000920E-02 0.  1.
    10030    2    1    2    0    0  0.00000000000E+00  0.00000000000E+00 -0.46782611300E+03  0.16495832507E+04  0.15818544904E+04 0.  0.
        4    1    3    3  502    0 -0.56043852893E+02 -0.30503970076E+03 -0.99264623668E+03  0.10399703345E+04  0.12699999809E+01 0.  1.
       -4    1    3    3    0  502  0.56043852893E+02  0.30503970076E+03  0.52482012367E+03  0.60961291620E+03  0.12699999809E+01 0. -1.
</event>
<event>
 5   0  0.9312096E-04  0.1683402E+04  0.7818609E-02  0.8770888E-01
       -2   -1    0    0    0  501  0.00000000000E+00  0.00000000000E+00  0.10286671228E+04  0.10286671228E+04  0.25500000920E-02 0. -1.
        2   -1    0    0  501    0  0.00000000000E+00  0.00000000000E+00 -0.68871714668E+03  0.68871714668E+03  0.25500000920E-02 0.  1.
    10030    2    1    2    0    0  0.00000000000E+00  0.00000000000E+00  0.33994997615E+03  0.17173842695E+04  0.16834021334E+04 0.  0.
        3    1    3    3  502    0  0.35418088006E+03 -0.57641648028E+03 -0.34089368917E+03  0.75756753630E+03  0.10100000352E+00 0.  1.
       -3    1    3    3    0  502 -0.35418088006E+03  0.57641648028E+03  0.68084366532E+03  0.95981673321E+03  0.10100000352E+00 0. -1.
</event>
<event>
 5   0  0.5035495E-04  0.1661278E+04  0.7818609E-02  0.8783762E-01
        1   -1    0    0  501    0  0.00000000000E+00  0.00000000000E+00  0.89904511674E+03  0.89904511675E+03  0.50400001928E-02 0. -1.
       -1   -1    0    0    0  501  0.00000000000E+00  0.00000000000E+00 -0.76743808399E+03  0.76743808400E+03  0.50400001928E-02 0.  1.
    10030    2    1    2    0    0  0.00000000000E+00  0.00000000000E+00  0.13160703275E+03  0.16664832008E+04  0.16612783774E+04 0.  0.
        4    1    3    3  502    0 -0.36667406949E+03  0.32673855922E+03  0.73779175619E+03  0.88631046915E+03  0.12699999809E+01 0. -1.
       -4    1    3    3    0  502  0.36667406949E+03 -0.32673855922E+03 -0.60618472344E+03  0.78017273161E+03  0.12699999809E+01 0.  1.
</event>
<event>
 5   0  0.1007187E-03  0.1711150E+04  0.7818609E-02  0.8755030E-01
       -2   -1    0    0    0  501  0.00000000000E+00  0.00000000000E+00  0.45547067312E+03  0.45547067313E+03  0.25500000920E-02 0. -1.
        2   -1    0    0  501    0  0.00000000000E+00  0.00000000000E+00 -0.16071482355E+04  0.16071482355E+04  0.25500000920E-02 0.  1.
    10030    2    1    2    0    0  0.00000000000E+00  0.00000000000E+00 -0.11516775624E+04  0.20626189086E+04  0.17111503600E+04 0.  0.
        5    1    3    3  502    0 -0.75943223705E+02 -0.46716168666E+03  0.28328128982E+03  0.55161380863E+03  0.46999998093E+01 0. -1.
       -5    1    3    3    0  502  0.75943223705E+02  0.46716168666E+03 -0.14349588522E+04  0.15110051000E+04  0.46999998093E+01 0.  1.
</event>
<event>
 5   0  0.9312096E-04  0.1622284E+04  0.7818609E-02  0.8806974E-01
        2   -1    0    0  501    0  0.00000000000E+00  0.00000000000E+00  0.13472764604E+04  0.13472764604E+04  0.25500000920E-02 0. -1.
       -2   -1    0    0    0  501  0.00000000000E+00  0.00000000000E+00 -0.48835646469E+03  0.48835646470E+03  0.25500000920E-02 0.  1.
    10030    2    1    2    0    0  0.00000000000E+00  0.00000000000E+00  0.85891999567E+03  0.18356329251E+04  0.16222837842E+04 0.  0.
        3    1    3    3  502    0 -0.33885084627E+03  0.16085248301E+03 -0.38433030671E+03  0.53703185396E+03  0.10100000352E+00 0.  1.
       -3    1    3    3    0  502  0.33885084627E+03 -0.16085248301E+03  0.12432503024E+04  0.12986010711E+04  0.10100000352E+00 0. -1.
</event>
<event>
 5   0  0.9284971E-04  0.1593160E+04  0.7818609E-02  0.8824761E-01
        2   -1    0    0  501    0  0.00000000000E+00  0.00000000000E+00  0.16272681222E+04  0.16272681222E+04  0.25500000920E-02 0. -1.
       -2   -1    0    0    0  501  0.00000000000E+00  0.00000000000E+00 -0.38994193178E+03  0.38994193179E+03  0.25500000920E-02 0.  1.
    10030    2    1    2    0    0  0.00000000000E+00  0.00000000000E+00  0.12373261904E+04  0.20172100540E+04  0.15931604754E+04 0.  0.
        4    1    3    3  502    0 -0.61942377681E+03  0.29042344710E+03  0.10199971985E+03  0.69169151335E+03  0.12699999809E+01 0.  1.
       -4    1    3    3    0  502  0.61942377681E+03 -0.29042344710E+03  0.11353264706E+04  0.13255185407E+04  0.12699999809E+01 0. -1.
</event>
<event>
 5   0  0.9610114E-04  0.1701061E+04  0.7818609E-02  0.8760760E-01
       -2   -1    0    0    0  501  0.00000000000E+00  0.00000000000E+00  0.27563598703E+03  0.27563598705E+03  0.25500000920E-02 0. -1.
        2   -1    0    0  501    0  0.00000000000E+00  0.00000000000E+00 -0.26244830757E+04  0.26244830757E+04  0.25500000920E-02 0.  1.
    10030    2    1    2    0    0  0.00000000000E+00  0.00000000000E+00 -0.23488470887E+04  0.29001190628E+04  0.17010608255E+04 0.  0.
        2    1    3    3  502    0 -0.10242317284E+03  0.13709208949E+03  0.24598213175E+03  0.29965306019E+03  0.25500000920E-02 0. -1.
       -2    1    3    3    0  502  0.10242317284E+03 -0.13709208949E+03 -0.25948292204E+04  0.26004660026E+04  0.25500000920E-02 0.  1.
</event>
<event>
 5   0  0.9610114E-04  0.1582550E+04  0.7818609E-02  0.8831341E-01
       -2   -1    0    0    0  501  0.00000000000E+00  0.00000000000E+00  0.36583999239E+03  0.36583999240E+03  0.25500000920E-02 0. -1.
        2   -1    0    0  501    0  0.00000000000E+00  0.00000000000E+00 -0.17114474771E+04  0.17114474771E+04  0.25500000920E-02 0.  1.
    10030    2    1    2    0    0  0.00000000000E+00  0.00000000000E+00 -0.13456074847E+04  0.20772874695E+04  0.15825497553E+04 0.  0.
        2    1    3    3  502    0 -0.62846407544E+03 -0.37032566955E+03 -0.27034531490E+03  0.77794266173E+03  0.25500000920E-02 0. -1.
       -2    1    3    3    0  502  0.62846407544E+03  0.37032566955E+03 -0.10752621698E+04  0.12993448078E+04  0.25500000920E-02 0.  1.
</event>
<event>
 5   0  0.9610114E-04  0.1684762E+04  0.7818609E-02  0.8770103E-01
       -2   -1    0    0    0  501  0.00000000000E+00  0.00000000000E+00  0.44227908336E+03  0.44227908336E+03  0.25500000920E-02 0.  1.
        2   -1    0    0  501    0  0.00000000000E+00  0.00000000000E+00 -0.16044295257E+04  0.16044295257E+04  0.25500000920E-02 0. -1.
    10030    2    1    2    0    0  0.00000000000E+00  0.00000000000E+00 -0.11621504424E+04  0.20467086091E+04  0.16847618466E+04 0.  0.
        2    1    3    3  502    0 -0.43009523608E+03  0.64696274894E+03 -0.18543606639E+03  0.79870472976E+03  0.25500000920E-02 0.  1.
       -2    1    3    3    0  502  0.43009523608E+03 -0.64696274894E+03 -0.97671437600E+03  0.12480038794E+04  0.25500000920E-02 0. -1.
</event>
<event>
 5   0  0.9312096E-04  0.1721126E+04  0.7818609E-02  0.8749406E-01
       -2   -1    0    0    0  501  0.00000000000E+00  0.00000000000E+00  0.58113928179E+03  0.58113928179E+03  0.25500000920E-02 0. -1.
        2   -1    0    0  501    0  0.00000000000E+00  0.00000000000E+00 -0.12743394353E+04  0.12743394353E+04  0.25500000920E-02 0.  1.
    10030    2    1    2    0    0  0.00000000000E+00  0.00000000000E+00 -0.69320015351E+03  0.18554787171E+04  0.17211260316E+04 0.  0.
        3    1    3    3  502    0 -0.39977408795E+03  0.22880982261E+03 -0.11302513319E+04  0.12205086398E+04  0.10100000352E+00 0.  1.
       -3    1    3    3    0  502  0.39977408795E+03 -0.22880982261E+03  0.43705117840E+03  0.63497007730E+03  0.10100000352E+00 0. -1.
</event>
<event>
 5   0  0.9284971E-04  0.1720084E+04  0.7818609E-02  0.8749992E-01
        2   -1    0    0  501    0  0.00000000000E+00  0.00000000000E+00  0.77629066160E+03  0.77629066161E+03  0.25500000920E-02 0. -1.
       -2   -1    0    0    0  501  0.00000000000E+00  0.00000000000E+00 -0.95282884690E+03  0.95282884690E+03  0.25500000920E-02 0.  1.
    10030    2    1    2    0    0  0.00000000000E+00  0.00000000000E+00 -0.17653818529E+03  0.17291195085E+04  0.17200838770E+04 0.  0.
        4    1    3    3  502    0 -0.43281960178E+03 -0.43703985931E+03  0.51599908802E+03  0.80286569116E+03  0.12699999809E+01 0. -1.
       -4    1    3    3    0  502  0.43281960178E+03  0.43703985931E+03 -0.69253727332E+03  0.92625381734E+03  0.12699999809E+01 0.  1.
</event>
<event>
 5   0  0.9625225E-04  0.1538604E+04  0.7818609E-02  0.8859180E-01
       -2   -1    0    0    0  501  0.00000000000E+00  0.00000000000E+00  0.33766312183E+03  0.33766312183E+03  0.25500000920E-02 0.  1.
        2   -1    0    0  501    0  0.00000000000E+00  0.00000000000E+00 -0.17527097722E+04  0.17527097722E+04  0.25500000920E-02 0. -1.
    10030    2    1    2    0    0  0.00000000000E+00  0.00000000000E+00 -0.14150466503E+04  0.20903728940E+04  0.15386038520E+04 0.  0.
        1    1    3    3  502    0 -0.60802388085E+03  0.46160087951E+03 -0.57822582374E+03  0.95766043821E+03  0.50400001928E-02 0. -1.
       -1    1    3    3    0  502  0.60802388085E+03 -0.46160087951E+03 -0.83682082659E+03  0.11327124558E+04  0.50400001928E-02 0.  1.
</event>
<event>
 5   0  0.5074133E-04  0.1724309E+04  0.7818609E-02  0.8747620E-01
        1   -1    0    0  501    0  0.00000000000E+00  0.00000000000E+00  0.10901671496E+04  0.10901671496E+04  0.50400001928E-02 0. -1.
       -1   -1    0    0    0  501  0.00000000000E+00  0.00000000000E+00 -0.68183131534E+03  0.68183131536E+03  0.50400001928E-02 0.  1.
    10030    2    1    2    0    0  0.00000000000E+00  0.00000000000E+00  0.40833583424E+03  0.17719984650E+04  0.17243086749E+04 0.  0.
        1    1    3    3  502    0 -0.76977637714E+03 -0.31177048098E+03  0.44198478502E+03  0.94080128286E+03  0.50400001928E-02 0.  1.
       -1    1    3    3    0  502  0.76977637714E+03  0.31177048098E+03 -0.33648950784E+02  0.83119718210E+03  0.50400001928E-02 0. -1.
</event>
<event>
 5   0  0.5009762E-04  0.1743556E+04  0.7818609E-02  0.8736905E-01
        1   -1    0    0  501    0  0.00000000000E+00  0.00000000000E+00  0.73141717000E+03  0.73141717002E+03  0.50400001928E-02 0. -1.
       -1   -1    0    0    0  501  0.00000000000E+00  0.00000000000E+00 -0.10390742319E+04  0.10390742319E+04  0.50400001928E-02 0.  1.
    10030    2    1    2    0    0  0.00000000000E+00  0.00000000000E+00 -0.30765706190E+03  0.17704914019E+04  0.17435558312E+04 0.  0.
        3    1    3    3  502    0  0.47363354996E+02 -0.78422644547E+03  0.22982070447E+03  0.81857923964E+03  0.10100000352E+00 0. -1.
       -3    1    3    3    0  502 -0.47363354996E+02  0.78422644547E+03 -0.53747776637E+03  0.95191216229E+03  0.10100000352E+00 0.  1.
</event>
<event>
 5   0  0.5074133E-04  0.1631888E+04  0.7818609E-02  0.8801194E-01
        1   -1    0    0  501    0  0.00000000000E+00  0.00000000000E+00  0.15682646791E+04  0.15682646791E+04  0.50400001928E-02 0. -1.
       -1   -1    0    0    0  501  0.00000000000E+00  0.00000000000E+00 -0.42452317406E+03  0.42452317409E+03  0.50400001928E-02 0.  1.
    10030    2    1    2    0    0  0.00000000000E+00  0.00000000000E+00  0.11437415050E+04  0.19927878532E+04  0.16318881081E+04 0.  0.
        1    1    3    3  502    0 -0.34398591964E+02  0.81347518927E+03  0.50679852815E+03  0.95904634656E+03  0.50400001928E-02 0.  1.
       -1    1    3    3    0  502  0.34398591964E+02 -0.81347518927E+03  0.63694297688E+03  0.10337415066E+04  0.50400001928E-02 0. -1.
</event>
<event>
 5   0  0.9284971E-04  0.1674920E+04  0.7818609E-02  0.8775799E-01
       -2   -1    0    0    0  501  0.00000000000E+00  0.00000000000E+00  0.61825460426E+03  0.61825460426E+03  0.25500000920E-02 0. -1.
        2   -1    0    0  501    0  0.00000000000E+00  0.00000000000E+00 -0.11343860396E+04  0.11343860396E+04  0.25500000920E-02 0.  1.
    10030    2    1    2    0    0  0.00000000000E+00  0.00000000000E+00 -0.51613143532E+03  0.17526406438E+04  0.16749201676E+04 0.  0.
        4    1    3    3  502    0 -0.62892911931E+03 -0.66008696202E+02  0.31643573986E+03  0.70713660311E+03  0.12699999809E+01 0.  1.
       -4    1    3    3    0  502  0.62892911931E+03  0.66008696202E+02 -0.83256717518E+03  0.10455040407E+04  0.12699999809E+01 0. -1.
</event>
<event>
 5   0  0.9610114E-04  0.1690407E+04  0.7818609E-02  0.8766854E-01
        2   -1    0    0  501    0  0.00000000000E+00  0.00000000000E+00  0.14341207414E+04  0.14341207415E+04  0.25500000920E-02 0. -1.
       -2   -1    0    0    0  501  0.00000000000E+00  0.00000000000E+00 -0.49812338418E+03  0.49812338418E+03  0.25500000920E-02 0.  1.
    10030    2    1    2    0    0  0.00000000000E+00  0.00000000000E+00  0.93599735727E+03  0.19322441256E+04  0.16904071427E+04 0.  0.
        2    1    3    3  502    0 -0.28447628401E+03 -0.33901443868E+03 -0.35509617461E+03  0.56740711929E+03  0.25500000920E-02 0.  1.
       -2    1    3    3    0  502  0.28447628401E+03  0.33901443868E+03  0.12910935319E+04  0.13648370063E+04  0.25500000920E-02 0. -1.
</event>
<event>
 5   0  0.9610114E-04  0.1682448E+04  0.7818609E-02  0.8771439E-01
       -2   -1    0    0    0  501  0.00000000000E+00  0.00000000000E+00  0.92685631888E+03  0.92685631888E+03  0.25500000920E-02 0. -1.
        2   -1    0    0  501    0  0.00000000000E+00  0.00000000000E+00 -0.76350318216E+03  0.76350318216E+03  0.25500000920E-02 0.  1.
    10030    2    1    2    0    0  0.00000000000E+00  0.00000000000E+00  0.16335313672E+03  0.16903595010E+04  0.16824479176E+04 0.  0.
        2    1    3    3  502    0 -0.20282499397E+03  0.67701098964E+03  0.54008507237E+03  0.88947947906E+03  0.25500000920E-02 0. -1.
       -2    1    3    3    0  502  0.20282499397E+03 -0.67701098964E+03 -0.37673193565E+03  0.80088002198E+03  0.25500000920E-02 0.  1.
</event>
<event>
 5   0  0.9625225E-04  0.1668717E+04  0.7818609E-02  0.8779410E-01
        2   -1    0    0  501    0  0.00000000000E+00  0.00000000000E+00  0.16583971541E+04  0.16583971541E+04  0.25500000920E-02 0.  1.
       -2   -1    0    0    0  501  0.00000000000E+00  0.00000000000E+00 -0.41977536570E+03  0.41977536571E+03  0.25500000920E-02 0. -1.
    10030    2    1    2    0    0  0.00000000000E+00  0.00000000000E+00  0.12386217884E+04  0.20781725198E+04  0.16687171981E+04 0.  0.
        1    1    3    3  502    0 -0.80864374331E+03 -0.26043792091E+02  0.36539165863E+03  0.88774661189E+03  0.50400001928E-02 0. -1.
       -1    1    3    3    0  502  0.80864374331E+03  0.26043792091E+02  0.87323012974E+03  0.11904259079E+04  0.50400001928E-02 0.  1.
</event>
<event>
 5   0  0.1007187E-03  0.1704888E+04  0.7818609E-02  0.8758581E-01
       -2   -1    0    0    0  501  0.00000000000E+00  0.00000000000E+00  0.72308297013E+03  0.72308297014E+03  0.25500000920E-02 0.  1.
        2   -1    0    0  501    0  0.00000000000E+00  0.00000000000E+00 -0.10049485031E+04  0.10049485031E+04  0.25500000920E-02 0. -1.
    10030    2    1    2    0    0  0.00000000000E+00  0.00000000000E+00 -0.28186553299E+03  0.17280314733E+04  0.17048884403E+04 0.  0.
        5    1    3    3  502    0  0.43730798087E+03  0.66245257607E+03 -0.45588769042E+03  0.91538918606E+03  0.46999998093E+01 0. -1.
       -5    1    3    3    0  502 -0.43730798087E+03 -0.66245257607E+03  0.17402215743E+03  0.81264228720E+03  0.46999998093E+01 0.  1.
</event>
<event>
 5   0  0.4947006E-04  0.1721826E+04  0.7818609E-02  0.8749013E-01
       -1   -1    0    0    0  501  0.00000000000E+00  0.00000000000E+00  0.43942312114E+03  0.43942312117E+03  0.50400001928E-02 0.  1.
        1   -1    0    0  501    0  0.00000000000E+00  0.00000000000E+00 -0.16866917096E+04  0.16866917096E+04  0.50400001928E-02 0. -1.
    10030    2    1    2    0    0  0.00000000000E+00  0.00000000000E+00 -0.12472685884E+04  0.21261148308E+04  0.17218261648E+04 0.  0.
        2    1    3    3  502    0  0.22355047219E+03  0.83138219264E+03 -0.62312278366E+03  0.10627573417E+04  0.25500000920E-02 0.  1.
       -2    1    3    3    0  502 -0.22355047219E+03 -0.83138219264E+03 -0.62414580477E+03  0.10633574890E+04  0.25500000920E-02 0. -1.
</event>
<event>
 5   0  0.5009762E-04  0.1612450E+04  0.7818609E-02  0.8812936E-01
        1   -1    0    0  501    0  0.00000000000E+00  0.00000000000E+00  0.70277676510E+03  0.70277676512E+03  0.50400001928E-02 0. -1.
       -1   -1    0    0    0  501  0.00000000000E+00  0.00000000000E+00 -0.92490064541E+03  0.92490064542E+03  0.50400001928E-02 0.  1.
    10030    2    1    2    0    0  0.00000000000E+00  0.00000000000E+00 -0.22212388031E+03  0.16276774105E+04  0.16124499169E+04 0.  0.
        3    1    3    3  502    0 -0.53720362438E+03 -0.54837451286E+03  0.13763092684E+03  0.77990039276E+03  0.10100000352E+00 0. -1.
       -3    1    3    3    0  502  0.53720362438E+03  0.54837451286E+03 -0.35975480715E+03  0.84777701778E+03  0.10100000352E+00 0.  1.
</event>
<event>
 5   0  0.5074133E-04  0.1707578E+04  0.7818609E-02  0.8757054E-01
       -1   -1    0    0    0  501  0.00000000000E+00  0.00000000000E+00  0.44577396202E+03  0.44577396205E+03  0.50400001928E-02 0. -1.
        1   -1    0    0  501    0  0.00000000000E+00  0.00000000000E+00 -0.16352577157E+04  0.16352577157E+04  0.50400001928E-02 0.  1.
    10030    2    1    2    0    0  0.00000000000E+00  0.00000000000E+00 -0.11894837536E+04  0.20810316777E+04  0.17075775952E+04 0.  0.
        1    1    3    3  502    0  0.71036421461E+03 -0.29477031745E+03 -0.10465647074E+04  0.12987703970E+04  0.50400001928E-02 0. -1.
       -1    1    3    3    0  502 -0.71036421461E+03  0.29477031745E+03 -0.14291904627E+03  0.78226128069E+03  0.50400001928E-02 0.  1.
</event>
<event>
 5   0  0.4947006E-04  0.1725999E+04  0.7818609E-02  0.8746674E-01
       -1   -1    0    0    0  501  0.00000000000E+00  0.00000000000E+00  0.38062169647E+03  0.38062169650E+03  0.50400001928E-02 0. -1.
        1   -1    0    0  501    0  0.00000000000E+00  0.00000000000E+00 -0.19567142670E+04  0.19567142671E+04  0.50400001928E-02 0.  1.
    10030    2    1    2    0    0  0.00000000000E+00  0.00000000000E+00 -0.15760925706E+04  0.23373359636E+04  0.17259987299E+04 0.  0.
        2    1    3    3  502    0  0.50436227751E+03  0.46678747078E+03 -0.81141732915E+02  0.69199409729E+03  0.25500000920E-02 0. -1.
       -2    1    3    3    0  502 -0.50436227751E+03 -0.46678747078E+03 -0.14949508377E+04  0.16453418663E+04  0.25500000920E-02 0.  1.
</event>
<event>
 5   0  0.9312096E-04  0.1748891E+04  0.7818609E-02  0.8733961E-01
        2   -1    0    0  501    0  0.00000000000E+00  0.00000000000E+00  0.11065108058E+04  0.11065108058E+04  0.25500000920E-02 0.  1.
       -2   -1    0    0    0  501  0.00000000000E+00  0.00000000000E+00 -0.69105053497E+03  0.69105053497E+03  0.25500000920E-02 0. -1.
    10030    2    1    2    0    0  0.00000000000E+00  0.00000000000E+00  0.41546027087E+03  0.17975613408E+04  0.17488909449E+04 0.  0.
        3    1    3    3  502    0 -0.48909928943E+03 -0.45845518688E+03  0.78483189134E+03  0.10321629625E+04  0.10100000352E+00 0.  1.
       -3    1    3    3    0  502  0.48909928943E+03  0.45845518688E+03 -0.36937162047E+03  0.76539837830E+03  0.10100000352E+00 0. -1.
</event>
<event>
 5   0  0.4947006E-04  0.1662231E+04  0.7818609E-02  0.8783204E-01
       -1   -1    0    0    0  501  0.00000000000E+00  0.00000000000E+00  0.46956475571E+03  0.46956475573E+03  0.50400001928E-02 0. -1.
        1   -1    0    0  501    0  0.00000000000E+00  0.00000000000E+00 -0.14710486047E+04  0.14710486047E+04  0.50400001928E-02 0.  1.
    10030    2    1    2    0    0  0.00000000000E+00  0.00000000000E+00 -0.10014838490E+04  0.19406133604E+04  0.16622305240E+04 0.  0.
        2    1    3    3  502    0  0.80480324065E+03  0.20218313444E+03 -0.44640346332E+03  0.94226446823E+03  0.25500000920E-02 0. -1.
       -2    1    3    3    0  502 -0.80480324065E+03 -0.20218313444E+03 -0.55508038566E+03  0.99834889220E+03  0.25500000920E-02 0.  1.
</event>
<event>
 5   0  0.1007187E-03  0.1797633E+04  0.7818609E-02  0.8707559E-01
        2   -1    0    0  501    0  0.00000000000E+00  0.00000000000E+00  0.23648013275E+04  0.23648013275E+04  0.25500000920E-02 0.  1.
       -2   -1    0    0    0  501  0.00000000000E+00  0.00000000000E+00 -0.34162321260E+03  0.34162321261E+03  0.25500000920E-02 0. -1.
    10030    2    1    2    0    0  0.00000000000E+00  0.00000000000E+00  0.20231781149E+04  0.27064245401E+04  0.17976329177E+04 0.  0.
        5    1    3    3  502    0  0.69511372973E+03 -0.23234549184E+03  0.22829627093E+03  0.76766451146E+03  0.46999998093E+01 0. -1.
       -5    1    3    3    0  502 -0.69511372973E+03  0.23234549184E+03  0.17948818440E+04  0.19387600286E+04  0.46999998093E+01 0.  1.
</event>
<event>
 5   0  0.9284971E-04  0.1117300E+04  0.7818609E-02  0.9188492E-01
        2   -1    0    0  501    0  0.00000000000E+00  0.00000000000E+00  0.12896394657E+04  0.12896394657E+04  0.25500000920E-02 0.  1.
       -2   -1    0    0    0  501  0.00000000000E+00  0.00000000000E+00 -0.24199766274E+03  0.24199766275E+03  0.25500000920E-02 0. -1.
    10030    2    1    2    0    0  0.00000000000E+00  0.00000000000E+00  0.10476418029E+04  0.15316371284E+04  0.11172998460E+04 0.  0.
        4    1    3    3  502    0  0.19487835922E+02  0.51818490354E+03  0.23892146353E+03  0.57094697533E+03  0.12699999809E+01 0. -1.
       -4    1    3    3    0  502 -0.19487835922E+02 -0.51818490354E+03  0.80872033941E+03  0.96069015311E+03  0.12699999809E+01 0.  1.
</event>
<event>
 5   0  0.5059689E-04  0.1714739E+04  0.7818609E-02  0.8753002E-01
        1   -1    0    0  501    0  0.00000000000E+00  0.00000000000E+00  0.89261284965E+03  0.89261284967E+03  0.50400001928E-02 0.  1.
       -1   -1    0    0    0  501  0.00000000000E+00  0.00000000000E+00 -0.82351778284E+03  0.82351778286E+03  0.50400001928E-02 0. -1.
    10030    2    1    2    0    0  0.00000000000E+00  0.00000000000E+00  0.69095066814E+02  0.17161306325E+04  0.17147391112E+04 0.  0.
        5    1    3    3  502    0  0.33715054506E+03 -0.83387874587E+02  0.81904360079E+03  0.88965079534E+03  0.46999998093E+01 0.  1.
       -5    1    3    3    0  502 -0.33715054506E+03  0.83387874587E+02 -0.74994853397E+03  0.82647983718E+03  0.46999998093E+01 0. -1.
</event>
<event>
 5   0  0.5009762E-04  0.1705217E+04  0.7818609E-02  0.8758395E-01
       -1   -1    0    0    0  501  0.00000000000E+00  0.00000000000E+00  0.11587538957E+04  0.11587538957E+04  0.50400001928E-02 0.  1.
        1   -1    0    0  501    0  0.00000000000E+00  0.00000000000E+00 -0.62734723340E+03  0.62734723342E+03  0.50400001928E-02 0. -1.
    10030    2    1    2    0    0  0.00000000000E+00  0.00000000000E+00  0.53140666231E+03  0.17861011291E+04  0.17052167612E+04 0.  0.
        3    1    3    3  502    0  0.25632395321E+03 -0.81005307599E+03  0.34016020177E+03  0.91520321676E+03  0.10100000352E+00 0. -1.
       -3    1    3    3    0  502 -0.25632395321E+03  0.81005307599E+03  0.19124646054E+03  0.87089791237E+03  0.10100000352E+00 0.  1.
</event>
<event>
 5   0  0.5035495E-04  0.1701776E+04  0.7818609E-02  0.8760352E-01
       -1   -1    0    0    0  501  0.00000000000E+00  0.00000000000E+00  0.48974849412E+03  0.48974849415E+03  0.50400001928E-02 0. -1.
        1   -1    0    0  501    0  0.00000000000E+00  0.00000000000E+00 -0.14783305219E+04  0.14783305219E+04  0.50400001928E-02 0.  1.
    10030    2    1    2    0    0  0.00000000000E+00  0.00000000000E+00 -0.98858202780E+03  0.19680790161E+04  0.17017757161E+04 0.  0.
        4    1    3    3  502    0 -0.38804893415E+03  0.64832805911E+03 -0.94679661106E+03  0.12113367340E+04  0.12699999809E+01 0.  1.
       -4    1    3    3    0  502  0.38804893415E+03 -0.64832805911E+03 -0.41785416737E+02  0.75674228207E+03  0.12699999809E+01 0. -1.
</event>
<event>
 5   0  0.5059689E-04  0.1765128E+04  0.7818609E-02  0.8725067E-01
        1   -1    0    0  501    0  0.00000000000E+00  0.00000000000E+00  0.11317358344E+04  0.11317358344E+04  0.50400001928E-02 0. -1.
       -1   -1    0    0    0  501  0.00000000000E+00  0.00000000000E+00 -0.68825188438E+03  0.68825188439E+03  0.50400001928E-02 0.  1.
    10030    2    1    2    0    0  0.00000000000E+00  0.00000000000E+00  0.44348394998E+03  0.18199877188E+04  0.17651281207E+04 0.  0.
        5    1    3    3  502    0  0.38713441875E+03  0.25626948645E+03  0.99563586912E+03  0.10985717918E+04  0.46999998093E+01 0. -1.
       -5    1    3    3    0  502 -0.38713441875E+03 -0.25626948645E+03 -0.55215191913E+03  0.72141592696E+03  0.46999998093E+01 0.  1.
</event>
<event>
 5   0  0.9610114E-04  0.1590492E+04  0.7818609E-02  0.8826411E-01
        2   -1    0    0  501    0  0.00000000000E+00  0.00000000000E+00  0.16605512386E+04  0.16605512386E+04  0.25500000920E-02 0.  1.
       -2   -1    0    0    0  501  0.00000000000E+00  0.00000000000E+00 -0.38084711807E+03  0.38084711808E+03  0.25500000920E-02 0. -1.
    10030    2    1    2    0    0  0.00000000000E+00  0.00000000000E+00  0.12797041206E+04  0.20413983567E+04  0.15904919411E+04 0.  0.
        2    1    3    3  502    0  0.11837644511E+03  0.60285450014E+03  0.12879498024E+04  0.14269762523E+04  0.25500000920E-02 0.  1.
       -2    1    3    3    0  502 -0.11837644511E+03 -0.60285450014E+03 -0.82456818680E+01  0.61442210439E+03  0.25500000920E-02 0. -1.
</event>
<event>
 5   0  0.4947006E-04  0.1664146E+04  0.7818609E-02  0.8782082E-01
        1   -1    0    0  501    0  0.00000000000E+00  0.00000000000E+00  0.10251564916E+04  0.10251564916E+04  0.50400001928E-02 0. -1.
       -1   -1    0    0    0  501  0.00000000000E+00  0.00000000000E+00 -0.67535590223E+03  0.67535590225E+03  0.50400001928E-02 0.  1.
    10030    2    1    2    0    0  0.00000000000E+00  0.00000000000E+00  0.34980058937E+03  0.17005123939E+04  0.16641460120E+04 0.  0.
        2    1    3    3  502    0  0.22038611893E+03  0.62787784784E+03  0.68536143029E+03  0.95525961045E+03  0.25500000920E-02 0. -1.
       -2    1    3    3    0  502 -0.22038611893E+03 -0.62787784784E+03 -0.33556084091E+03  0.74525278342E+03  0.25500000920E-02 0.  1.
</event>
<event>
 5   0  0.1007187E-03  0.1686394E+04  0.7818609E-02  0.8769163E-01
        2   -1    0    0  501    0  0.00000000000E+00  0.00000000000E+00  0.17461849355E+04  0.17461849355E+04  0.25500000920E-02 0.  1.
       -2   -1    0    0    0  501  0.00000000000E+00  0.00000000000E+00 -0.40716256547E+03  0.40716256548E+03  0.25500000920E-02 0. -1.
    10030    2    1    2    0    0  0.00000000000E+00  0.00000000000E+00  0.13390223700E+04  0.21533475009E+04  0.16863939494E+04 0.  0.
        5    1    3    3  502    0 -0.55954558466E+02 -0.84088299234E+03  0.70433855997E+03  0.10983305588E+04  0.46999998093E+01 0. -1.
       -5    1    3    3    0  502  0.55954558466E+02  0.84088299234E+03  0.63468381001E+03  0.10550169421E+04  0.46999998093E+01 0.  1.
</event>
<event>
 5   0  0.5074133E-04  0.1657700E+04  0.7818609E-02  0.8785864E-01
       -1   -1    0    0    0  501  0.00000000000E+00  0.00000000000E+00  0.16950155568E+04  0.16950155568E+04  0.50400001928E-02 0.  1.
        1   -1    0    0  501    0  0.00000000000E+00  0.00000000000E+00 -0.40530169115E+03  0.40530169118E+03  0.50400001928E-02 0. -1.
    10030    2    1    2    0    0  0.00000000000E+00  0.00000000000E+00  0.12897138656E+04  0.21003172480E+04  0.16577004213E+04 0.  0.
        1    1    3    3  502    0  0.48211694983E+03  0.34299991121E+03  0.13802742546E+04  0.15017465533E+04  0.50400001928E-02 0. -1.
       -1    1    3    3    0  502 -0.48211694983E+03 -0.34299991121E+03 -0.90560389005E+02  0.59857069465E+03  0.50400001928E-02 0.  1.
</event>
<event>
 5   0  0.9312096E-04  0.1712870E+04  0.7818609E-02  0.8754058E-01
        2   -1    0    0  501    0  0.00000000000E+00  0.00000000000E+00  0.62784976042E+03  0.62784976043E+03  0.25500000920E-02 0. -1.
       -2   -1    0    0    0  501  0.00000000000E+00  0.00000000000E+00 -0.11682422415E+04  0.11682422416E+04  0.25500000920E-02 0.  1.
    10030    2    1    2    0    0  0.00000000000E+00  0.00000000000E+00 -0.54039248113E+03  0.17960920020E+04  0.17128696523E+04 0.  0.
        3    1    3    3  502    0  0.76285828654E+02 -0.53252926733E+03  0.42856976335E+03  0.68780738617E+03  0.10100000352E+00 0. -1.
       -3    1    3    3    0  502 -0.76285828654E+02  0.53252926733E+03 -0.96896224448E+03  0.11082846158E+04  0.10100000352E+00 0.  1.
</event>
<event>
 5   0  0.1007187E-03  0.1522097E+04  0.7818609E-02  0.8869890E-01
       -2   -1    0    0    0  501  0.00000000000E+00  0.00000000000E+00  0.86484696982E+03  0.86484696982E+03  0.25500000920E-02 0. -1.
        2   -1    0    0  501    0  0.00000000000E+00  0.00000000000E+00 -0.66970789398E+03  0.66970789398E+03  0.25500000920E-02 0.  1.
    10030    2    1    2    0    0  0.00000000000E+00  0.00000000000E+00  0.19513907584E+03  0.15345548638E+04  0.15220970308E+04 0.  0.
        5    1    3    3  502    0  0.32590795543E+02 -0.68658905673E+03 -0.23176298677E+03  0.72539841798E+03  0.46999998093E+01 0.  1.
       -5    1    3    3    0  502 -0.32590795543E+02  0.68658905673E+03  0.42690206261E+03  0.80915644583E+03  0.46999998093E+01 0. -1.
</event>
<event>
 5   0  0.1007187E-03  0.1142535E+04  0.7818609E-02  0.9164698E-01
       -2   -1    0    0    0  501  0.00000000000E+00  0.00000000000E+00  0.54731182580E+03  0.54731182580E+03  0.25500000920E-02 0.  1.
        2   -1    0    0  501    0  0.00000000000E+00  0.00000000000E+00 -0.59627143055E+03  0.59627143056E+03  0.25500000920E-02 0. -1.
    10030    2    1    2    0    0  0.00000000000E+00  0.00000000000E+00 -0.48959604755E+02  0.11435832564E+04  0.11425347353E+04 0.  0.
        5    1    3    3  502    0 -0.45964308193E+03 -0.31024958667E+03  0.11275089502E+03  0.56591644536E+03  0.46999998093E+01 0. -1.
       -5    1    3    3    0  502  0.45964308193E+03  0.31024958667E+03 -0.16171049978E+03  0.57766681100E+03  0.46999998093E+01 0.  1.
</event>
<event>
 5   0  0.9312096E-04  0.1689537E+04  0.7818609E-02  0.8767354E-01
        2   -1    0    0  501    0  0.00000000000E+00  0.00000000000E+00  0.15202003990E+04  0.15202003990E+04  0.25500000920E-02 0. -1.
       -2   -1    0    0    0  501  0.00000000000E+00  0.00000000000E+00 -0.46943409304E+03  0.46943409305E+03  0.25500000920E-02 0.  1.
    10030    2    1    2    0    0  0.00000000000E+00  0.00000000000E+00  0.10507663059E+04  0.19896344920E+04  0.16895370911E+04 0.  0.
        3    1    3    3  502    0 -0.35539239666E+03  0.43478538894E+02  0.14264285506E+04  0.14706775851E+04  0.10100000352E+00 0. -1.
       -3    1    3    3    0  502  0.35539239666E+03 -0.43478538894E+02 -0.37566224472E+03  0.51895690694E+03  0.10100000352E+00 0.  1.
</event>
<event>
 5   0  0.5074133E-04  0.1705123E+04  0.7818609E-02  0.8758448E-01
       -1   -1    0    0    0  501  0.00000000000E+00  0.00000000000E+00  0.46008257151E+03  0.46008257154E+03  0.50400001928E-02 0.  1.
        1   -1    0    0  501    0  0.00000000000E+00  0.00000000000E+00 -0.15798487803E+04  0.15798487803E+04  0.50400001928E-02 0. -1.
    10030    2    1    2    0    0  0.00000000000E+00  0.00000000000E+00 -0.11197662088E+04  0.20399313518E+04  0.17051227398E+04 0.  0.
        1    1    3    3  502    0 -0.44737303026E+03 -0.69972937429E+03 -0.79030814676E+03  0.11464513912E+04  0.50400001928E-02 0. -1.
       -1    1    3    3    0  502  0.44737303026E+03  0.69972937429E+03 -0.32945806202E+03  0.89347996066E+03  0.50400001928E-02 0.  1.
</event>
<event>
 5   0  0.4947006E-04  0.1692619E+04  0.7818609E-02  0.8765585E-01
       -1   -1    0    0    0  501  0.00000000000E+00  0.00000000000E+00  0.67210039226E+03  0.67210039228E+03  0.50400001928E-02 0. -1.
        1   -1    0    0  501    0  0.00000000000E+00  0.00000000000E+00 -0.10656737091E+04  0.10656737091E+04  0.50400001928E-02 0.  1.
    10030    2    1    2    0    0  0.00000000000E+00  0.00000000000E+00 -0.39357331686E+03  0.17377741014E+04  0.16926189387E+04 0.  0.
        2    1    3    3  502    0  0.14400070176E+03 -0.72897074896E+03 -0.61269271715E+03  0.96308199059E+03  0.25500000920E-02 0.  1.
       -2    1    3    3    0  502 -0.14400070176E+03  0.72897074896E+03  0.21911940030E+03  0.77469211080E+03  0.25500000920E-02 0. -1.
</event>
<event>
 5   0  0.5059689E-04  0.1661078E+04  0.7818609E-02  0.8783880E-01
       -1   -1    0    0    0  501  0.00000000000E+00  0.00000000000E+00  0.87247729050E+03  0.87247729051E+03  0.50400001928E-02 0. -1.
        1   -1    0    0  501    0  0.00000000000E+00  0.00000000000E+00 -0.79061649765E+03  0.79061649767E+03  0.50400001928E-02 0.  1.
    10030    2    1    2    0    0  0.00000000000E+00  0.00000000000E+00  0.81860792845E+02  0.16630937882E+04  0.16610778907E+04 0.  0.
        5    1    3    3  502    0  0.31354546299E+03  0.98732307875E+01 -0.72900521931E+03  0.79364912766E+03  0.46999998093E+01 0.  1.
       -5    1    3    3    0  502 -0.31354546299E+03 -0.98732307875E+01  0.81086601215E+03  0.86944466052E+03  0.46999998093E+01 0. -1.
</event>
<event>
 5   0  0.9610114E-04  0.1701694E+04  0.7818609E-02  0.8760399E-01
        2   -1    0    0  501    0  0.00000000000E+00  0.00000000000E+00  0.78054548691E+03  0.78054548691E+03  0.25500000920E-02 0.  1.
       -2   -1    0    0    0  501  0.00000000000E+00  0.00000000000E+00 -0.92748038249E+03  0.92748038250E+03  0.25500000920E-02 0. -1.
    10030    2    1    2    0    0  0.00000000000E+00  0.00000000000E+00 -0.14693489559E+03  0.17080258694E+04  0.17016940110E+04 0.  0.
        2    1    3    3  502    0 -0.22812122092E+03 -0.77039128783E+03  0.20757189716E+03  0.82983620088E+03  0.25500000920E-02 0.  1.
       -2    1    3    3    0  502  0.22812122092E+03  0.77039128783E+03 -0.35450679275E+03  0.87818966853E+03  0.25500000920E-02 0. -1.
</event>
<event>
 5   0  0.5009762E-04  0.1680242E+04  0.7818609E-02  0.8772714E-01
       -1   -1    0    0    0  501  0.00000000000E+00  0.00000000000E+00  0.12748302207E+04  0.12748302208E+04  0.50400001928E-02 0.  1.
        1   -1    0    0  501    0  0.00000000000E+00  0.00000000000E+00 -0.55364514370E+03  0.55364514372E+03  0.50400001928E-02 0. -1.
    10030    2    1    2    0    0  0.00000000000E+00  0.00000000000E+00  0.72118507705E+03  0.18284753645E+04  0.16802423168E+04 0.  0.
        3    1    3    3  502    0  0.17293300673E+03  0.82011367759E+03  0.42321285425E+03  0.93893631263E+03  0.10100000352E+00 0. -1.
       -3    1    3    3    0  502 -0.17293300673E+03 -0.82011367759E+03  0.29797222280E+03  0.88953905184E+03  0.10100000352E+00 0.  1.
</event>
<event>
 5   0  0.5035495E-04  0.1413240E+04  0.7818609E-02  0.8944290E-01
        1   -1    0    0  501    0  0.00000000000E+00  0.00000000000E+00  0.34143630837E+03  0.34143630841E+03  0.50400001928E-02 0.  1.
       -1   -1    0    0    0  501  0.00000000000E+00  0.00000000000E+00 -0.14623867551E+04  0.14623867551E+04  0.50400001928E-02 0. -1.
    10030    2    1    2    0    0  0.00000000000E+00  0.00000000000E+00 -0.11209504467E+04  0.18038230635E+04  0.14132401567E+04 0.  0.
        4    1    3    3  502    0  0.11147425036E+03 -0.65961681278E+03 -0.85094350555E+03  0.10824173459E+04  0.12699999809E+01 0. -1.
       -4    1    3    3    0  502 -0.11147425036E+03  0.65961681278E+03 -0.27000694116E+03  0.72140571759E+03  0.12699999809E+01 0.  1.
</event>
<event>
 5   0  0.9284971E-04  0.1664733E+04  0.7818609E-02  0.8781738E-01
       -2   -1    0    0    0  501  0.00000000000E+00  0.00000000000E+00  0.46886442404E+03  0.46886442404E+03  0.25500000920E-02 0.  1.
        2   -1    0    0  501    0  0.00000000000E+00  0.00000000000E+00 -0.14776854186E+04  0.14776854186E+04  0.25500000920E-02 0. -1.
    10030    2    1    2    0    0  0.00000000000E+00  0.00000000000E+00 -0.10088209946E+04  0.19465498426E+04  0.16647331590E+04 0.  0.
        4    1    3    3  502    0  0.40058486270E+03 -0.24393307839E+03 -0.13084689371E+04  0.13899871047E+04  0.12699999809E+01 0. -1.
       -4    1    3    3    0  502 -0.40058486270E+03  0.24393307839E+03  0.29964794251E+03  0.55656273798E+03  0.12699999809E+01 0.  1.
</event>
<event>
 5   0  0.5035495E-04  0.1719590E+04  0.7818609E-02  0.8750269E-01
       -1   -1    0    0    0  501  0.00000000000E+00  0.00000000000E+00  0.95397071717E+03  0.95397071718E+03  0.50400001928E-02 0. -1.
        1   -1    0    0  501    0  0.00000000000E+00  0.00000000000E+00 -0.77491673329E+03  0.77491673331E+03  0.50400001928E-02 0.  1.
    10030    2    1    2    0    0  0.00000000000E+00  0.00000000000E+00  0.17905398388E+03  0.17288874505E+04  0.17195904999E+04 0.  0.
        4    1    3    3  502    0  0.16543290733E+03  0.27241155997E+03 -0.71333283967E+03  0.78129473177E+03  0.12699999809E+01 0.  1.
       -4    1    3    3    0  502 -0.16543290733E+03 -0.27241155997E+03  0.89238682355E+03  0.94759271872E+03  0.12699999809E+01 0. -1.
</event>
<event>
 5   0  0.5035495E-04  0.1756531E+04  0.7818609E-02  0.8729764E-01
       -1   -1    0    0    0  501  0.00000000000E+00  0.00000000000E+00  0.76294518421E+03  0.76294518422E+03  0.50400001928E-02 0.  1.
        1   -1    0    0  501    0  0.00000000000E+00  0.00000000000E+00 -0.10110162737E+04  0.10110162737E+04  0.50400001928E-02 0. -1.
    10030    2    1    2    0    0  0.00000000000E+00  0.00000000000E+00 -0.24807108944E+03  0.17739614579E+04  0.17565306683E+04 0.  0.
        4    1    3    3  502    0  0.40468866515E+03 -0.41059203765E+03 -0.79317337257E+03  0.98055308318E+03  0.12699999809E+01 0. -1.
       -4    1    3    3    0  502 -0.40468866515E+03  0.41059203765E+03  0.54510228313E+03  0.79340837471E+03  0.12699999809E+01 0.  1.
</event>
<event>
 5   0  0.5074133E-04  0.1679081E+04  0.7818609E-02  0.8773386E-01
        1   -1    0    0  501    0  0.00000000000E+00  0.00000000000E+00  0.18885112382E+04  0.18885112382E+04  0.50400001928E-02 0.  1.
       -1   -1    0    0    0  501  0.00000000000E+00  0.00000000000E+00 -0.37321905813E+03  0.37321905816E+03  0.50400001928E-02 0. -1.
    10030    2    1    2    0    0  0.00000000000E+00  0.00000000000E+00  0.15152921801E+04  0.22617302964E+04  0.16790811602E+04 0.  0.
        1    1    3    3  502    0  0.32518980385E+03  0.51987492636E+03 -0.14752834637E+02  0.61338079016E+03  0.50400001928E-02 0. -1.
       -1    1    3    3    0  502 -0.32518980385E+03 -0.51987492636E+03  0.15300450147E+04  0.16483495062E+04  0.50400001928E-02 0.  1.
</event>
<event>
 5   0  0.9625225E-04  0.1699289E+04  0.7818609E-02  0.8761770E-01
       -2   -1    0    0    0  501  0.00000000000E+00  0.00000000000E+00  0.72997914748E+03  0.72997914749E+03  0.25500000920E-02 0.  1.
        2   -1    0    0  501    0  0.00000000000E+00  0.00000000000E+00 -0.98892704839E+03  0.98892704839E+03  0.25500000920E-02 0. -1.
    10030    2    1    2    0    0  0.00000000000E+00  0.00000000000E+00 -0.25894790091E+03  0.17189061959E+04  0.16992894088E+04 0.  0.
        1    1    3    3  502    0 -0.58108563123E+03  0.16172491658E+03 -0.73478034469E+03  0.95064063369E+03  0.50400001928E-02 0. -1.
       -1    1    3    3    0  502  0.58108563123E+03 -0.16172491658E+03  0.47583244378E+03  0.76826556219E+03  0.50400001928E-02 0.  1.
</event>
<event>
 5   0  0.5009762E-04  0.1699062E+04  0.7818609E-02  0.8761899E-01
       -1   -1    0    0    0  501  0.00000000000E+00  0.00000000000E+00  0.36021502935E+03  0.36021502938E+03  0.50400001928E-02 0. -1.
        1   -1    0    0  501    0  0.00000000000E+00  0.00000000000E+00 -0.20035346717E+04  0.20035346717E+04  0.50400001928E-02 0.  1.
    10030    2    1    2    0    0  0.00000000000E+00  0.00000000000E+00 -0.16433196423E+04  0.23637497011E+04  0.16990624481E+04 0.  0.
        3    1    3    3  502    0 -0.42033426910E+03  0.71327381225E+03 -0.55673467630E+03  0.99769431141E+03  0.10100000352E+00 0. -1.
       -3    1    3    3    0  502  0.42033426910E+03 -0.71327381225E+03 -0.10865849660E+04  0.13660553897E+04  0.10100000352E+00 0.  1.
</event>
<event>
 5   0  0.9610114E-04  0.1707015E+04  0.7818609E-02  0.8757373E-01
        2   -1    0    0  501    0  0.00000000000E+00  0.00000000000E+00  0.10481271090E+04  0.10481271090E+04  0.25500000920E-02 0.  1.
       -2   -1    0    0    0  501  0.00000000000E+00  0.00000000000E+00 -0.69502580037E+03  0.69502580038E+03  0.25500000920E-02 0. -1.
    10030    2    1    2    0    0  0.00000000000E+00  0.00000000000E+00  0.35310130866E+03  0.17431529094E+04  0.17070153870E+04 0.  0.
        2    1    3    3  502    0  0.51067318886E+03  0.68258261860E+03  0.13359778937E+03  0.86287571896E+03  0.25500000920E-02 0.  1.
       -2    1    3    3    0  502 -0.51067318886E+03 -0.68258261860E+03  0.21950351929E+03  0.88027719045E+03  0.25500000920E-02 0. -1.
</event>
<event>
 5   0  0.9312096E-04  0.1702116E+04  0.7818609E-02  0.8760159E-01
        2   -1    0    0  501    0  0.00000000000E+00  0.00000000000E+00  0.14977794763E+04  0.14977794763E+04  0.25500000920E-02 0. -1.
       -2   -1    0    0    0  501  0.00000000000E+00  0.00000000000E+00 -0.48358221964E+03  0.48358221965E+03  0.25500000920E-02 0.  1.
    10030    2    1    2    0    0  0.00000000000E+00  0.00000000000E+00  0.10141972567E+04  0.19813616959E+04  0.17021157701E+04 0.  0.
        3    1    3    3  502    0 -0.80146577448E+03 -0.20975927969E+03  0.73387546740E+03  0.11067608391E+04  0.10100000352E+00 0. -1.
       -3    1    3    3    0  502  0.80146577448E+03  0.20975927969E+03  0.28032178926E+03  0.87460085686E+03  0.10100000352E+00 0.  1.
</event>
<event>
 5   0  0.3523125E-04  0.1708764E+04  0.7818609E-02  0.8756382E-01
        3   -1    0    0  501    0  0.00000000000E+00  0.00000000000E+00  0.12273749522E+04  0.12273749563E+04  0.10100000352E+00 0.  1.
       -3   -1    0    0    0  501  0.00000000000E+00  0.00000000000E+00 -0.59473979535E+03  0.59473980393E+03  0.10100000352E+00 0. -1.
    10030    2    1    2    0    0  0.00000000000E+00  0.00000000000E+00  0.63263515681E+03  0.18221147602E+04  0.17087641610E+04 0.  0.
        5    1    3    3  502    0 -0.12755783688E+03 -0.71498106253E+02  0.12139179828E+04  0.12227027194E+04  0.46999998093E+01 0.  1.
       -5    1    3    3    0  502  0.12755783688E+03  0.71498106253E+02 -0.58128282600E+03  0.59941204088E+03  0.46999998093E+01 0. -1.
</event>
<event>
 5   0  0.5059689E-04  0.1691650E+04  0.7818609E-02  0.8766141E-01
        1   -1    0    0  501    0  0.00000000000E+00  0.00000000000E+00  0.88639016235E+03  0.88639016236E+03  0.50400001928E-02 0.  1.
       -1   -1    0    0    0  501  0.00000000000E+00  0.00000000000E+00 -0.80711594990E+03  0.80711594992E+03  0.50400001928E-02 0. -1.
    10030    2    1    2    0    0  0.00000000000E+00  0.00000000000E+00  0.79274212446E+02  0.16935061123E+04  0.16916496539E+04 0.  0.
        5    1    3    3  502    0 -0.77422999362E+03 -0.21099437699E+03 -0.22795164329E+03  0.83422703853E+03  0.46999998093E+01 0. -1.
       -5    1    3    3    0  502  0.77422999362E+03  0.21099437699E+03  0.30722585573E+03  0.85927907374E+03  0.46999998093E+01 0.  1.
</event>
<event>
 5   0  0.9284971E-04  0.1389918E+04  0.7818609E-02  0.8961149E-01
       -2   -1    0    0    0  501  0.00000000000E+00  0.00000000000E+00  0.38221718173E+03  0.38221718174E+03  0.25500000920E-02 0. -1.
        2   -1    0    0  501    0  0.00000000000E+00  0.00000000000E+00 -0.12635962069E+04  0.12635962069E+04  0.25500000920E-02 0.  1.
    10030    2    1    2    0    0  0.00000000000E+00  0.00000000000E+00 -0.88137902517E+03  0.16458133886E+04  0.13899182437E+04 0.  0.
        4    1    3    3  502    0  0.15478108717E+03  0.33453116553E+03  0.25692831098E+03  0.44931287043E+03  0.12699999809E+01 0. -1.
       -4    1    3    3    0  502 -0.15478108717E+03 -0.33453116553E+03 -0.11383073361E+04  0.11965005182E+04  0.12699999809E+01 0.  1.
</event>
<event>
 5   0  0.9284971E-04  0.1660266E+04  0.7818609E-02  0.8784356E-01
        2   -1    0    0  501    0  0.00000000000E+00  0.00000000000E+00  0.11074733574E+04  0.11074733574E+04  0.25500000920E-02 0. -1.
       -2   -1    0    0    0  501  0.00000000000E+00  0.00000000000E+00 -0.62224579984E+03  0.62224579984E+03  0.25500000920E-02 0.  1.
    10030    2    1    2    0    0  0.00000000000E+00  0.00000000000E+00  0.48522755757E+03  0.17297191573E+04  0.16602658162E+04 0.  0.
        4    1    3    3  502    0 -0.16404360745E+03  0.36015332054E+03 -0.51763737388E+03  0.65159096309E+03  0.12699999809E+01 0.  1.
       -4    1    3    3    0  502  0.16404360745E+03 -0.36015332054E+03  0.10028649315E+04  0.10781281942E+04  0.12699999809E+01 0. -1.
</event>
<event>
 5   0  0.9610114E-04  0.1528166E+04  0.7818609E-02  0.8865936E-01
       -2   -1    0    0    0  501  0.00000000000E+00  0.00000000000E+00  0.87399131872E+03  0.87399131872E+03  0.25500000920E-02 0. -1.
        2   -1    0    0  501    0  0.00000000000E+00  0.00000000000E+00 -0.66799571726E+03  0.66799571726E+03  0.25500000920E-02 0.  1.
    10030    2    1    2    0    0  0.00000000000E+00  0.00000000000E+00  0.20599560146E+03  0.15419870360E+04  0.15281655118E+04 0.  0.
        2    1    3    3  502    0  0.90368172663E+01 -0.36339904993E+03 -0.57515363233E+03  0.68039858491E+03  0.25500000920E-02 0.  1.
       -2    1    3    3    0  502 -0.90368172663E+01  0.36339904993E+03  0.78114923380E+03  0.86158845107E+03  0.25500000920E-02 0. -1.
</event>
<event>
 5   0  0.5059689E-04  0.1681173E+04  0.7818609E-02  0.8772176E-01
       -1   -1    0    0    0  501  0.00000000000E+00  0.00000000000E+00  0.35935419318E+03  0.35935419321E+03  0.50400001928E-02 0. -1.
        1   -1    0    0  501    0  0.00000000000E+00  0.00000000000E+00 -0.19662646465E+04  0.19662646465E+04  0.50400001928E-02 0.  1.
    10030    2    1    2    0    0  0.00000000000E+00  0.00000000000E+00 -0.16069104533E+04  0.23256188397E+04  0.16811727403E+04 0.  0.
        5    1    3    3  502    0  0.15584968473E+03  0.22828579282E+03 -0.19015796596E+04  0.19215698840E+04  0.46999998093E+01 0.  1.
       -5    1    3    3    0  502 -0.15584968473E+03 -0.22828579282E+03  0.29466920630E+03  0.40404895566E+03  0.46999998093E+01 0. -1.
</event>
<event>
 5   0  0.9312096E-04  0.9611410E+03  0.7818609E-02  0.9352222E-01
       -2   -1    0    0    0  501  0.00000000000E+00  0.00000000000E+00  0.18500422210E+03  0.18500422211E+03  0.25500000920E-02 0.  1.
        2   -1    0    0  501    0  0.00000000000E+00  0.00000000000E+00 -0.12483391591E+04  0.12483391591E+04  0.25500000920E-02 0. -1.
    10030    2    1    2    0    0  0.00000000000E+00  0.00000000000E+00 -0.10633349370E+04  0.14333433812E+04  0.96114101993E+03 0.  0.
        3    1    3    3  502    0  0.75730483627E+01  0.13623796369E+03  0.15550963524E+03  0.20688496965E+03  0.10100000352E+00 0.  1.
       -3    1    3    3    0  502 -0.75730483627E+01 -0.13623796369E+03 -0.12188445722E+04  0.12264584115E+04  0.10100000352E+00 0. -1.
</event>
<event>
 5   0  0.3523125E-04  0.1294323E+04  0.7818609E-02  0.9034079E-01
       -3   -1    0    0    0  501  0.00000000000E+00  0.00000000000E+00  0.12223255609E+04  0.12223255650E+04  0.10100000352E+00 0.  1.
        3   -1    0    0  501    0  0.00000000000E+00  0.00000000000E+00 -0.34264051715E+03  0.34264053203E+03  0.10100000352E+00 0. -1.
    10030    2    1    2    0    0  0.00000000000E+00  0.00000000000E+00  0.87968504372E+03  0.15649660971E+04  0.12943234174E+04 0.  0.
        1    1    3    3  502    0  0.29477203756E+03 -0.57223653465E+03  0.52070835098E+03  0.82793864055E+03  0.50400001928E-02 0.  1.
       -1    1    3    3    0  502 -0.29477203756E+03  0.57223653465E+03  0.35897669273E+03  0.73702745652E+03  0.50400001928E-02 0. -1.
</event>
<event>
 5   0  0.5009762E-04  0.2544321E+04  0.7818609E-02  0.8387364E-01
        1   -1    0    0  501    0  0.00000000000E+00  0.00000000000E+00  0.15352624589E+04  0.15352624589E+04  0.50400001928E-02 0.  1.
       -1   -1    0    0    0  501  0.00000000000E+00  0.00000000000E+00 -0.10541473096E+04  0.10541473096E+04  0.50400001928E-02 0. -1.
    10030    2    1    2    0    0  0.00000000000E+00  0.00000000000E+00  0.48111514929E+03  0.25894097686E+04  0.25443213560E+04 0.  0.
        3    1    3    3  502    0 -0.95314397377E+03 -0.56032654280E+03  0.88094889031E+03  0.14136902867E+04  0.10100000352E+00 0.  1.
       -3    1    3    3    0  502  0.95314397377E+03  0.56032654280E+03 -0.39983374102E+03  0.11757194818E+04  0.10100000352E+00 0. -1.
</event>
<event>
 5   0  0.3523125E-04  0.1041834E+04  0.7818609E-02  0.9263816E-01
        3   -1    0    0  501    0  0.00000000000E+00  0.00000000000E+00  0.37025357800E+03  0.37025359178E+03  0.10100000352E+00 0. -1.
       -3   -1    0    0    0  501  0.00000000000E+00  0.00000000000E+00 -0.73288763543E+03  0.73288764238E+03  0.10100000352E+00 0.  1.
    10030    2    1    2    0    0  0.00000000000E+00  0.00000000000E+00 -0.36263405743E+03  0.11031412342E+04  0.10418335390E+04 0.  0.
        3    1    3    3  502    0 -0.28302709647E+03  0.32227787045E+03 -0.49432541181E+03  0.65446542008E+03  0.10100000352E+00 0.  1.
       -3    1    3    3    0  502  0.28302709647E+03 -0.32227787045E+03  0.13169135439E+03  0.44867581408E+03  0.10100000352E+00 0. -1.
</event>
<event>
 5   0  0.9284971E-04  0.1705386E+04  0.7818609E-02  0.8758299E-01
        2   -1    0    0  501    0  0.00000000000E+00  0.00000000000E+00  0.54040380299E+03  0.54040380300E+03  0.25500000920E-02 0. -1.
       -2   -1    0    0    0  501  0.00000000000E+00  0.00000000000E+00 -0.13454480109E+04  0.13454480109E+04  0.25500000920E-02 0.  1.
    10030    2    1    2    0    0  0.00000000000E+00  0.00000000000E+00 -0.80504420786E+03  0.18858518139E+04  0.17053858470E+04 0.  0.
        4    1    3    3  502    0 -0.65911807223E+03  0.52808180929E+03 -0.53231639612E+03  0.99833330552E+03  0.12699999809E+01 0. -1.
       -4    1    3    3    0  502  0.65911807223E+03 -0.52808180929E+03 -0.27272781173E+03  0.88751850833E+03  0.12699999809E+01 0.  1.
</event>
<event>
 5   0  0.5035495E-04  0.1686144E+04  0.7818609E-02  0.8769306E-01
        1   -1    0    0  501    0  0.00000000000E+00  0.00000000000E+00  0.15184752682E+04  0.15184752682E+04  0.50400001928E-02 0.  1.
       -1   -1    0    0    0  501  0.00000000000E+00  0.00000000000E+00 -0.46808188775E+03  0.46808188777E+03  0.50400001928E-02 0. -1.
    10030    2    1    2    0    0  0.00000000000E+00  0.00000000000E+00  0.10503933804E+04  0.19865571560E+04  0.16861444423E+04 0.  0.
        4    1    3    3  502    0 -0.10096357413E+03  0.63060319483E+02 -0.45812967717E+03  0.47334412555E+03  0.12699999809E+01 0. -1.
       -4    1    3    3    0  502  0.10096357413E+03 -0.63060319483E+02  0.15085230576E+04  0.15132130304E+04  0.12699999809E+01 0.  1.
</event>
<event>
 5   0  0.5009762E-04  0.9735680E+03  0.7818609E-02  0.9338020E-01
       -1   -1    0    0    0  501  0.00000000000E+00  0.00000000000E+00  0.32700044796E+03  0.32700044800E+03  0.50400001928E-02 0. -1.
        1   -1    0    0  501    0  0.00000000000E+00  0.00000000000E+00 -0.72464323892E+03  0.72464323893E+03  0.50400001928E-02 0.  1.
    10030    2    1    2    0    0  0.00000000000E+00  0.00000000000E+00 -0.39764279096E+03  0.10516436869E+04  0.97356800228E+03 0.  0.
        3    1    3    3  502    0  0.34597913094E+03 -0.33960371849E+03 -0.15141067383E+03  0.50789511418E+03  0.10100000352E+00 0. -1.
       -3    1    3    3    0  502 -0.34597913094E+03  0.33960371849E+03 -0.24623211713E+03  0.54374857275E+03  0.10100000352E+00 0.  1.
</event>
<event>
 5   0  0.9610114E-04  0.1603781E+04  0.7818609E-02  0.8818228E-01
       -2   -1    0    0    0  501  0.00000000000E+00  0.00000000000E+00  0.36664250886E+03  0.36664250887E+03  0.25500000920E-02 0. -1.
        2   -1    0    0  501    0  0.00000000000E+00  0.00000000000E+00 -0.17538299210E+04  0.17538299210E+04  0.25500000920E-02 0.  1.
    10030    2    1    2    0    0  0.00000000000E+00  0.00000000000E+00 -0.13871874121E+04  0.21204724299E+04  0.16037812848E+04 0.  0.
        2    1    3    3  502    0  0.94801099110E+02  0.51335292759E+03 -0.14983928943E+04  0.15867261082E+04  0.25500000920E-02 0.  1.
       -2    1    3    3    0  502 -0.94801099110E+02 -0.51335292759E+03  0.11120548217E+03  0.53374632170E+03  0.25500000920E-02 0. -1.
</event>
<event>
 5   0  0.5009762E-04  0.1743002E+04  0.7818609E-02  0.8737212E-01
       -1   -1    0    0    0  501  0.00000000000E+00  0.00000000000E+00  0.66746326461E+03  0.66746326462E+03  0.50400001928E-02 0. -1.
        1   -1    0    0  501    0  0.00000000000E+00  0.00000000000E+00 -0.11379108046E+04  0.11379108046E+04  0.50400001928E-02 0.  1.
    10030    2    1    2    0    0  0.00000000000E+00  0.00000000000E+00 -0.47044754002E+03  0.18053740693E+04  0.17430016185E+04 0.  0.
        3    1    3    3  502    0  0.69529155333E+02 -0.86708559290E+03 -0.29044110538E+03  0.91707566468E+03  0.10100000352E+00 0. -1.
       -3    1    3    3    0  502 -0.69529155333E+02  0.86708559290E+03 -0.18000643464E+03  0.88829840457E+03  0.10100000352E+00 0.  1.
</event>
<event>
 5   0  0.9284971E-04  0.1659744E+04  0.7818609E-02  0.8784663E-01
       -2   -1    0    0    0  501  0.00000000000E+00  0.00000000000E+00  0.25868744532E+03  0.25868744533E+03  0.25500000920E-02 0.  1.
        2   -1    0    0  501    0  0.00000000000E+00  0.00000000000E+00 -0.26622368183E+04  0.26622368183E+04  0.25500000920E-02 0. -1.
    10030    2    1    2    0    0  0.00000000000E+00  0.00000000000E+00 -0.24035493730E+04  0.29209242637E+04  0.16597436445E+04 0.  0.
        4    1    3    3  502    0 -0.72065879845E+03 -0.28262104573E+03 -0.67539603638E+03  0.10273194139E+04  0.12699999809E+01 0.  1.
       -4    1    3    3    0  502  0.72065879845E+03  0.28262104573E+03 -0.17281533366E+04  0.18936048498E+04  0.12699999809E+01 0. -1.
</event>
<event>
 5   0  0.9625225E-04  0.1668375E+04  0.7818609E-02  0.8779610E-01
        2   -1    0    0  501    0  0.00000000000E+00  0.00000000000E+00  0.79040752382E+03  0.79040752382E+03  0.25500000920E-02 0. -1.
       -2   -1    0    0    0  501  0.00000000000E+00  0.00000000000E+00 -0.88039224023E+03  0.88039224023E+03  0.25500000920E-02 0.  1.
    10030    2    1    2    0    0  0.00000000000E+00  0.00000000000E+00 -0.89984716409E+02  0.16707997640E+04  0.16683748387E+04 0.  0.
        1    1    3    3  502    0 -0.46671399419E+03  0.30607396418E+03 -0.66586558396E+03  0.86883841987E+03  0.50400001928E-02 0.  1.
       -1    1    3    3    0  502  0.46671399419E+03 -0.30607396418E+03  0.57588086755E+03  0.80196134418E+03  0.50400001928E-02 0. -1.
</event>
<event>
 5   0  0.9625225E-04  0.1689325E+04  0.7818609E-02  0.8767476E-01
        2   -1    0    0  501    0  0.00000000000E+00  0.00000000000E+00  0.84309419946E+03  0.84309419947E+03  0.25500000920E-02 0. -1.
       -2   -1    0    0    0  501  0.00000000000E+00  0.00000000000E+00 -0.84623392038E+03  0.84623392038E+03  0.25500000920E-02 0.  1.
    10030    2    1    2    0    0  0.00000000000E+00  0.00000000000E+00 -0.31397209158E+01  0.16893281199E+04  0.16893252022E+04 0.  0.
        1    1    3    3  502    0 -0.64414365644E+03  0.25103501263E+03  0.48373014519E+03  0.84376209981E+03  0.50400001928E-02 0. -1.
       -1    1    3    3    0  502  0.64414365644E+03 -0.25103501263E+03 -0.48686986610E+03  0.84556602004E+03  0.50400001928E-02 0.  1.
</event>
<event>
 5   0  0.9312096E-04  0.1653978E+04  0.7818609E-02  0.8788056E-01
        2   -1    0    0  501    0  0.00000000000E+00  0.00000000000E+00  0.12132283321E+04  0.12132283321E+04  0.25500000920E-02 0. -1.
       -2   -1    0    0    0  501  0.00000000000E+00  0.00000000000E+00 -0.56371167046E+03  0.56371167046E+03  0.25500000920E-02 0.  1.
    10030    2    1    2    0    0  0.00000000000E+00  0.00000000000E+00  0.64951666166E+03  0.17769400026E+04  0.16539781979E+04 0.  0.
        3    1    3    3  502    0 -0.82668300484E+03 -0.13594721309E+02  0.30549932329E+03  0.88143034533E+03  0.10100000352E+00 0.  1.
       -3    1    3    3    0  502  0.82668300484E+03  0.13594721309E+02  0.34401733836E+03  0.89550965725E+03  0.10100000352E+00 0. -1.
</event>
<event>
 5   0  0.1007187E-03  0.1680295E+04  0.7818609E-02  0.8772683E-01
        2   -1    0    0  501    0  0.00000000000E+00  0.00000000000E+00  0.54525097180E+03  0.54525097181E+03  0.25500000920E-02 0.  1.
       -2   -1    0    0    0  501  0.00000000000E+00  0.00000000000E+00 -0.12945378947E+04  0.12945378947E+04  0.25500000920E-02 0. -1.
    10030    2    1    2    0    0  0.00000000000E+00  0.00000000000E+00 -0.74928692291E+03  0.18397888665E+04  0.16802952659E+04 0.  0.
        5    1    3    3  502    0  0.68929971144E+03  0.24416451611E+02 -0.89985787234E+03  0.11337973962E+04  0.46999998093E+01 0. -1.
       -5    1    3    3    0  502 -0.68929971144E+03 -0.24416451611E+02  0.15057094943E+03  0.70599147029E+03  0.46999998093E+01 0.  1.
</event>
<event>
 5   0  0.5009762E-04  0.1659009E+04  0.7818609E-02  0.8785095E-01
       -1   -1    0    0    0  501  0.00000000000E+00  0.00000000000E+00  0.11033666085E+04  0.11033666085E+04  0.50400001928E-02 0.  1.
        1   -1    0    0  501    0  0.00000000000E+00  0.00000000000E+00 -0.62361637548E+03  0.62361637550E+03  0.50400001928E-02 0. -1.
    10030    2    1    2    0    0  0.00000000000E+00  0.00000000000E+00  0.47975023297E+03  0.17269829840E+04  0.16590087224E+04 0.  0.
        3    1    3    3  502    0  0.32878201916E+03 -0.33625427975E+03 -0.47143229528E+03  0.66589261597E+03  0.10100000352E+00 0. -1.
       -3    1    3    3    0  502 -0.32878201916E+03  0.33625427975E+03  0.95118252825E+03  0.10610903680E+04  0.10100000352E+00 0.  1.
</event>
<event>
 5   0  0.5035495E-04  0.1662872E+04  0.7818609E-02  0.8782828E-01
       -1   -1    0    0    0  501  0.00000000000E+00  0.00000000000E+00  0.84510546511E+03  0.84510546513E+03  0.50400001928E-02 0.  1.
        1   -1    0    0  501    0  0.00000000000E+00  0.00000000000E+00 -0.81798742985E+03  0.81798742987E+03  0.50400001928E-02 0. -1.
    10030    2    1    2    0    0  0.00000000000E+00  0.00000000000E+00  0.27118035261E+02  0.16630928950E+04  0.16628717899E+04 0.  0.
        4    1    3    3  502    0 -0.44960583454E+03  0.68952538879E+03 -0.10347519956E+03  0.82963811271E+03  0.12699999809E+01 0. -1.
       -4    1    3    3    0  502  0.44960583454E+03 -0.68952538879E+03  0.13059323482E+03  0.83345478229E+03  0.12699999809E+01 0.  1.
</event>
<event>
 5   0  0.9284971E-04  0.1682957E+04  0.7818609E-02  0.8771145E-01
        2   -1    0    0  501    0  0.00000000000E+00  0.00000000000E+00  0.15197479423E+04  0.15197479423E+04  0.25500000920E-02 0.  1.
       -2   -1    0    0    0  501  0.00000000000E+00  0.00000000000E+00 -0.46592352027E+03  0.46592352028E+03  0.25500000920E-02 0. -1.
    10030    2    1    2    0    0  0.00000000000E+00  0.00000000000E+00  0.10538244220E+04  0.19856714626E+04  0.16829572915E+04 0.  0.
        4    1    3    3  502    0 -0.35213136924E+03  0.62213052788E+03  0.31749337294E+01  0.71488082086E+03  0.12699999809E+01 0.  1.
       -4    1    3    3    0  502  0.35213136924E+03 -0.62213052788E+03  0.10506494883E+04  0.12707906417E+04  0.12699999809E+01 0. -1.
</event>
<event>
 5   0  0.5009762E-04  0.1702863E+04  0.7818609E-02  0.8759733E-01
       -1   -1    0    0    0  501  0.00000000000E+00  0.00000000000E+00  0.79009106809E+03  0.79009106811E+03  0.50400001928E-02 0. -1.
        1   -1    0    0  501    0  0.00000000000E+00  0.00000000000E+00 -0.91753453243E+03  0.91753453244E+03  0.50400001928E-02 0.  1.
    10030    2    1    2    0    0  0.00000000000E+00  0.00000000000E+00 -0.12744346433E+03  0.17076256005E+04  0.17028632814E+04 0.  0.
        3    1    3    3  502    0  0.66768257663E+03 -0.34676117218E+03 -0.46344973000E+03  0.88364528862E+03  0.10100000352E+00 0.  1.
       -3    1    3    3    0  502 -0.66768257663E+03  0.34676117218E+03  0.33600626567E+03  0.82398031192E+03  0.10100000352E+00 0. -1.
</event>
<event>
 5   0  0.4947006E-04  0.1636682E+04  0.7818609E-02  0.8798325E-01
       -1   -1    0    0    0  501  0.00000000000E+00  0.00000000000E+00  0.79984161995E+03  0.79984161997E+03  0.50400001928E-02 0. -1.
        1   -1    0    0  501    0  0.00000000000E+00  0.00000000000E+00 -0.83726791453E+03  0.83726791455E+03  0.50400001928E-02 0.  1.
    10030    2    1    2    0    0  0.00000000000E+00  0.00000000000E+00 -0.37426294582E+02  0.16371095345E+04  0.16366816735E+04 0.  0.
        2    1    3    3  502    0  0.39930248324E+03  0.70340081900E+03 -0.14311020270E+03  0.82139863368E+03  0.25500000920E-02 0.  1.
       -2    1    3    3    0  502 -0.39930248324E+03 -0.70340081900E+03  0.10568390812E+03  0.81571090083E+03  0.25500000920E-02 0. -1.
</event>
<event>
 5   0  0.5009762E-04  0.1492516E+04  0.7818609E-02  0.8889445E-01
        1   -1    0    0  501    0  0.00000000000E+00  0.00000000000E+00  0.10164119297E+04  0.10164119297E+04  0.50400001928E-02 0. -1.
       -1   -1    0    0    0  501  0.00000000000E+00  0.00000000000E+00 -0.54790865098E+03  0.54790865100E+03  0.50400001928E-02 0.  1.
    10030    2    1    2    0    0  0.00000000000E+00  0.00000000000E+00  0.46850327870E+03  0.15643205807E+04  0.14925158482E+04 0.  0.
        3    1    3    3  502    0 -0.49684562670E+03 -0.54616545139E+03  0.34785728215E+03  0.81618440074E+03  0.10100000352E+00 0.  1.
       -3    1    3    3    0  502  0.49684562670E+03  0.54616545139E+03  0.12064599655E+03  0.74813617995E+03  0.10100000352E+00 0. -1.
</event>
<event>
 5   0  0.5009762E-04  0.1708660E+04  0.7818609E-02  0.8756441E-01
        1   -1    0    0  501    0  0.00000000000E+00  0.00000000000E+00  0.21592261434E+04  0.21592261434E+04  0.50400001928E-02 0. -1.
       -1   -1    0    0    0  501  0.00000000000E+00  0.00000000000E+00 -0.33802836073E+03  0.33802836076E+03  0.50400001928E-02 0.  1.
    10030    2    1    2    0    0  0.00000000000E+00  0.00000000000E+00  0.18211977827E+04  0.24972545042E+04  0.17086599120E+04 0.  0.
        3    1    3    3  502    0 -0.61663730322E+03 -0.43855130183E+03  0.33092128783E+03  0.82587996525E+03  0.10100000352E+00 0.  1.
       -3    1    3    3    0  502  0.61663730322E+03  0.43855130183E+03  0.14902764949E+04  0.16713745389E+04  0.10100000352E+00 0. -1.
</event>
<event>
 5   0  0.5059689E-04  0.1701210E+04  0.7818609E-02  0.8760675E-01
        1   -1    0    0  501    0  0.00000000000E+00  0.00000000000E+00  0.82070360568E+03  0.82070360569E+03  0.50400001928E-02 0.  1.
       -1   -1    0    0    0  501  0.00000000000E+00  0.00000000000E+00 -0.88159543581E+03  0.88159543582E+03  0.50400001928E-02 0. -1.
    10030    2    1    2    0    0  0.00000000000E+00  0.00000000000E+00 -0.60891830127E+02  0.17022990415E+04  0.17012096319E+04 0.  0.
        5    1    3    3  502    0 -0.40790563690E+03  0.43292378720E+03  0.57797013340E+03  0.82938626661E+03  0.46999998093E+01 0.  1.
       -5    1    3    3    0  502  0.40790563690E+03 -0.43292378720E+03 -0.63886196353E+03  0.87291277490E+03  0.46999998093E+01 0. -1.
</event>
<event>
 5   0  0.4947006E-04  0.1779144E+04  0.7818609E-02  0.8717470E-01
       -1   -1    0    0    0  501  0.00000000000E+00  0.00000000000E+00  0.30390626176E+03  0.30390626180E+03  0.50400001928E-02 0. -1.
        1   -1    0    0  501    0  0.00000000000E+00  0.00000000000E+00 -0.26038887961E+04  0.26038887961E+04  0.50400001928E-02 0.  1.
    10030    2    1    2    0    0  0.00000000000E+00  0.00000000000E+00 -0.22999825343E+04  0.29077950579E+04  0.17791437380E+04 0.  0.
        2    1    3    3  502    0  0.74868163569E+03  0.73829588269E+02 -0.19258705786E+04  0.20675958225E+04  0.25500000920E-02 0.  1.
       -2    1    3    3    0  502 -0.74868163569E+03 -0.73829588269E+02 -0.37411195574E+03  0.84019923540E+03  0.25500000920E-02 0. -1.
</event>
<event>
 5   0  0.4947006E-04  0.1706348E+04  0.7818609E-02  0.8757752E-01
       -1   -1    0    0    0  501  0.00000000000E+00  0.00000000000E+00  0.21978727898E+04  0.21978727898E+04  0.50400001928E-02 0. -1.
        1   -1    0    0  501    0  0.00000000000E+00  0.00000000000E+00 -0.33118668188E+03  0.33118668192E+03  0.50400001928E-02 0.  1.
    10030    2    1    2    0    0  0.00000000000E+00  0.00000000000E+00  0.18666861079E+04  0.25290594718E+04  0.17063483777E+04 0.  0.
        2    1    3    3  502    0 -0.50050878781E+03 -0.54573215696E+03  0.30526656343E+03  0.80094962923E+03  0.25500000920E-02 0.  1.
       -2    1    3    3    0  502  0.50050878781E+03  0.54573215696E+03  0.15614195445E+04  0.17281098425E+04  0.25500000920E-02 0. -1.
</event>
<event>
 5   0  0.1007187E-03  0.1886753E+04  0.7818609E-02  0.8661479E-01
        2   -1    0    0  501    0  0.00000000000E+00  0.00000000000E+00  0.13200407229E+04  0.13200407229E+04  0.25500000920E-02 0. -1.
       -2   -1    0    0    0  501  0.00000000000E+00  0.00000000000E+00 -0.67419052566E+03  0.67419052567E+03  0.25500000920E-02 0.  1.
    10030    2    1    2    0    0  0.00000000000E+00  0.00000000000E+00  0.64585019720E+03  0.19942312485E+04  0.18867527118E+04 0.  0.
        5    1    3    3  502    0  0.55732876799E+02  0.79377848679E+03 -0.21264057282E+03  0.82366773814E+03  0.46999998093E+01 0.  1.
       -5    1    3    3    0  502 -0.55732876799E+02 -0.79377848679E+03  0.85849077002E+03  0.11705635104E+04  0.46999998093E+01 0. -1.
</event>
<event>
 5   0  0.5009762E-04  0.1751032E+04  0.7818609E-02  0.8732782E-01
        1   -1    0    0  501    0  0.00000000000E+00  0.00000000000E+00  0.11231668757E+04  0.11231668757E+04  0.50400001928E-02 0. -1.
       -1   -1    0    0    0  501  0.00000000000E+00  0.00000000000E+00 -0.68247054289E+03  0.68247054291E+03  0.50400001928E-02 0.  1.
    10030    2    1    2    0    0  0.00000000000E+00  0.00000000000E+00  0.44069633277E+03  0.18056374186E+04  0.17510320470E+04 0.  0.
        3    1    3    3  502    0  0.24919696738E+03 -0.72431565404E+03  0.65759479222E+03  0.10095361391E+04  0.10100000352E+00 0. -1.
       -3    1    3    3    0  502 -0.24919696738E+03  0.72431565404E+03 -0.21689845945E+03  0.79610127946E+03  0.10100000352E+00 0.  1.
</event>
<event>
 5   0  0.1007187E-03  0.1710603E+04  0.7818609E-02  0.8755340E-01
       -2   -1    0    0    0  501  0.00000000000E+00  0.00000000000E+00  0.59210563066E+03  0.59210563066E+03  0.25500000920E-02 0.  1.
        2   -1    0    0  501    0  0.00000000000E+00  0.00000000000E+00 -0.12354907470E+04  0.12354907470E+04  0.25500000920E-02 0. -1.
    10030    2    1    2    0    0  0.00000000000E+00  0.00000000000E+00 -0.64338511632E+03  0.18275963777E+04  0.17106034350E+04 0.  0.
        5    1    3    3  502    0 -0.36446288944E+03 -0.76385260408E+03 -0.18990753352E+03  0.86740472666E+03  0.46999998093E+01 0. -1.
       -5    1    3    3    0  502  0.36446288944E+03  0.76385260408E+03 -0.45347758280E+03  0.96019165100E+03  0.46999998093E+01 0.  1.
</event>
<event>
 5   0  0.5009762E-04  0.1685811E+04  0.7818609E-02  0.8769498E-01
        1   -1    0    0  501    0  0.00000000000E+00  0.00000000000E+00  0.78146494808E+03  0.78146494810E+03  0.50400001928E-02 0.  1.
       -1   -1    0    0    0  501  0.00000000000E+00  0.00000000000E+00 -0.90917707235E+03  0.90917707236E+03  0.50400001928E-02 0. -1.
    10030    2    1    2    0    0  0.00000000000E+00  0.00000000000E+00 -0.12771212426E+03  0.16906420205E+04  0.16858113936E+04 0.  0.
        3    1    3    3  502    0 -0.37668295504E+03 -0.49568532021E+03 -0.63372373217E+03  0.88836915987E+03  0.10100000352E+00 0. -1.
       -3    1    3    3    0  502  0.37668295504E+03  0.49568532021E+03  0.50601160791E+03  0.80227286059E+03  0.10100000352E+00 0.  1.
</event>
<event>
 5   0  0.9284971E-04  0.1711559E+04  0.7818609E-02  0.8754799E-01
       -2   -1    0    0    0  501  0.00000000000E+00  0.00000000000E+00  0.80931057448E+03  0.80931057448E+03  0.25500000920E-02 0.  1.
        2   -1    0    0  501    0  0.00000000000E+00  0.00000000000E+00 -0.90491704032E+03  0.90491704033E+03  0.25500000920E-02 0. -1.
    10030    2    1    2    0    0  0.00000000000E+00  0.00000000000E+00 -0.95606465846E+02  0.17142276148E+04  0.17115594407E+04 0.  0.
        4    1    3    3  502    0 -0.73638405541E+03  0.36703990067E+03 -0.28349443637E+03  0.87025885465E+03  0.12699999809E+01 0.  1.
       -4    1    3    3    0  502  0.73638405541E+03 -0.36703990067E+03  0.18788797053E+03  0.84396876015E+03  0.12699999809E+01 0. -1.
</event>
<event>
 5   0  0.5035495E-04  0.1746202E+04  0.7818609E-02  0.8735444E-01
       -1   -1    0    0    0  501  0.00000000000E+00  0.00000000000E+00  0.15639934904E+04  0.15639934904E+04  0.50400001928E-02 0. -1.
        1   -1    0    0  501    0  0.00000000000E+00  0.00000000000E+00 -0.48740964815E+03  0.48740964818E+03  0.50400001928E-02 0.  1.
    10030    2    1    2    0    0  0.00000000000E+00  0.00000000000E+00  0.10765838422E+04  0.20514031386E+04  0.17462021840E+04 0.  0.
        4    1    3    3  502    0  0.38354271027E+03  0.94133959923E+02 -0.37648199229E+03  0.54562488619E+03  0.12699999809E+01 0.  1.
       -4    1    3    3    0  502 -0.38354271027E+03 -0.94133959923E+02  0.14530658345E+04  0.15057782524E+04  0.12699999809E+01 0. -1.
</event>
<event>
 5   0  0.9284971E-04  0.1677544E+04  0.7818609E-02  0.8774276E-01
        2   -1    0    0  501    0  0.00000000000E+00  0.00000000000E+00  0.10376509299E+04  0.10376509299E+04  0.25500000920E-02 0. -1.
       -2   -1    0    0    0  501  0.00000000000E+00  0.00000000000E+00 -0.67801108259E+03  0.67801108259E+03  0.25500000920E-02 0.  1.
    10030    2    1    2    0    0  0.00000000000E+00  0.00000000000E+00  0.35963984734E+03  0.17156620125E+04  0.16775444320E+04 0.  0.
        4    1    3    3  502    0  0.54302655513E+03 -0.16397786219E+03 -0.45209551465E+03  0.72536786952E+03  0.12699999809E+01 0.  1.
       -4    1    3    3    0  502 -0.54302655513E+03  0.16397786219E+03  0.81173536199E+03  0.99029414300E+03  0.12699999809E+01 0. -1.
</event>
<event>
 5   0  0.9610114E-04  0.1650670E+04  0.7818609E-02  0.8790010E-01
        2   -1    0    0  501    0  0.00000000000E+00  0.00000000000E+00  0.80409848897E+03  0.80409848898E+03  0.25500000920E-02 0.  1.
       -2   -1    0    0    0  501  0.00000000000E+00  0.00000000000E+00 -0.84713210433E+03  0.84713210434E+03  0.25500000920E-02 0. -1.
    10030    2    1    2    0    0  0.00000000000E+00  0.00000000000E+00 -0.43033615360E+02  0.16512305933E+04  0.16506697369E+04 0.  0.
        2    1    3    3  502    0 -0.25404266729E+03 -0.67102577916E+03 -0.42953328295E+03  0.83624883514E+03  0.25500000920E-02 0. -1.
       -2    1    3    3    0  502  0.25404266729E+03  0.67102577916E+03  0.38649966759E+03  0.81498175817E+03  0.25500000920E-02 0.  1.
</event>
<event>
 5   0  0.5074133E-04  0.1523413E+04  0.7818609E-02  0.8869031E-01
       -1   -1    0    0    0  501  0.00000000000E+00  0.00000000000E+00  0.39710626283E+03  0.39710626286E+03  0.50400001928E-02 0. -1.
        1   -1    0    0  501    0  0.00000000000E+00  0.00000000000E+00 -0.14610621577E+04  0.14610621577E+04  0.50400001928E-02 0.  1.
    10030    2    1    2    0    0  0.00000000000E+00  0.00000000000E+00 -0.10639558948E+04  0.18581684205E+04  0.15234131852E+04 0.  0.
        1    1    3    3  502    0  0.34426924401E+03  0.40452437205E+03 -0.11978663870E+04  0.13103606989E+04  0.50400001928E-02 0.  1.
       -1    1    3    3    0  502 -0.34426924401E+03 -0.40452437205E+03  0.13391049221E+03  0.54780772165E+03  0.50400001928E-02 0. -1.
</event>
<event>
 5   0  0.3523125E-04  0.1639986E+04  0.7818609E-02  0.8796353E-01
        3   -1    0    0  501    0  0.00000000000E+00  0.00000000000E+00  0.44316080631E+03  0.44316081782E+03  0.10100000352E+00 0. -1.
       -3   -1    0    0    0  501  0.00000000000E+00  0.00000000000E+00 -0.15172557044E+04  0.15172557078E+04  0.10100000352E+00 0.  1.
    10030    2    1    2    0    0  0.00000000000E+00  0.00000000000E+00 -0.10740948981E+04  0.19604165256E+04  0.16399857023E+04 0.  0.
        3    1    3    3  502    0  0.21434932367E+03  0.43041600156E+03  0.25694891540E+03  0.54518466805E+03  0.10100000352E+00 0. -1.
       -3    1    3    3    0  502 -0.21434932367E+03 -0.43041600156E+03 -0.13310438135E+04  0.14152318575E+04  0.10100000352E+00 0.  1.
</event>
<event>
 5   0  0.5074133E-04  0.1435234E+04  0.7818609E-02  0.8928702E-01
        1   -1    0    0  501    0  0.00000000000E+00  0.00000000000E+00  0.80592060891E+03  0.80592060893E+03  0.50400001928E-02 0. -1.
       -1   -1    0    0    0  501  0.00000000000E+00  0.00000000000E+00 -0.63898895209E+03  0.63898895210E+03  0.50400001928E-02 0.  1.
    10030    2    1    2    0    0  0.00000000000E+00  0.00000000000E+00  0.16693165683E+03  0.14449095610E+04  0.14352342880E+04 0.  0.
        1    1    3    3  502    0  0.31443880519E+03  0.43872042350E+03  0.55954587069E+03  0.77745672139E+03  0.50400001928E-02 0. -1.
       -1    1    3    3    0  502 -0.31443880519E+03 -0.43872042350E+03 -0.39261421386E+03  0.66745283965E+03  0.50400001928E-02 0.  1.
</event>
<event>
 5   0  0.1007187E-03  0.1460423E+04  0.7818609E-02  0.8911206E-01
       -2   -1    0    0    0  501  0.00000000000E+00  0.00000000000E+00  0.38972640528E+03  0.38972640529E+03  0.25500000920E-02 0.  1.
        2   -1    0    0  501    0  0.00000000000E+00  0.00000000000E+00 -0.13681617708E+04  0.13681617708E+04  0.25500000920E-02 0. -1.
    10030    2    1    2    0    0  0.00000000000E+00  0.00000000000E+00 -0.97843536552E+03  0.17578881761E+04  0.14604229097E+04 0.  0.
        5    1    3    3  502    0  0.30459890978E+02  0.15516298586E+03 -0.13472878671E+04  0.13565434177E+04  0.46999998093E+01 0. -1.
       -5    1    3    3    0  502 -0.30459890978E+02 -0.15516298586E+03  0.36885250162E+03  0.40134475840E+03  0.46999998093E+01 0.  1.
</event>
<event>
 5   0  0.9312096E-04  0.1679919E+04  0.7818609E-02  0.8772901E-01
       -2   -1    0    0    0  501  0.00000000000E+00  0.00000000000E+00  0.77232759932E+03  0.77232759933E+03  0.25500000920E-02 0. -1.
        2   -1    0    0  501    0  0.00000000000E+00  0.00000000000E+00 -0.91351391961E+03  0.91351391961E+03  0.25500000920E-02 0.  1.
    10030    2    1    2    0    0  0.00000000000E+00  0.00000000000E+00 -0.14118632029E+03  0.16858415189E+04  0.16799190605E+04 0.  0.
        3    1    3    3  502    0  0.68278663378E+03  0.48664477736E+03 -0.20303860870E+02  0.83870911737E+03  0.10100000352E+00 0.  1.
       -3    1    3    3    0  502 -0.68278663378E+03 -0.48664477736E+03 -0.12088245942E+03  0.84713240157E+03  0.10100000352E+00 0. -1.
</event>
<event>
 5   0  0.1007187E-03  0.1713499E+04  0.7818609E-02  0.8753703E-01
        2   -1    0    0  501    0  0.00000000000E+00  0.00000000000E+00  0.12993083057E+04  0.12993083057E+04  0.25500000920E-02 0. -1.
       -2   -1    0    0    0  501  0.00000000000E+00  0.00000000000E+00 -0.56493092932E+03  0.56493092933E+03  0.25500000920E-02 0.  1.
    10030    2    1    2    0    0  0.00000000000E+00  0.00000000000E+00  0.73437737634E+03  0.18642392350E+04  0.17134986999E+04 0.  0.
        5    1    3    3  502    0  0.33193714083E+03 -0.78628009365E+03  0.28592722089E+03  0.90010839168E+03  0.46999998093E+01 0. -1.
       -5    1    3    3    0  502 -0.33193714083E+03  0.78628009365E+03  0.44845015545E+03  0.96413084332E+03  0.46999998093E+01 0.  1.
</event>
<event>
 5   0  0.4947006E-04  0.1678171E+04  0.7818609E-02  0.8773913E-01
       -1   -1    0    0    0  501  0.00000000000E+00  0.00000000000E+00  0.38744446129E+03  0.38744446132E+03  0.50400001928E-02 0.  1.
        1   -1    0    0  501    0  0.00000000000E+00  0.00000000000E+00 -0.18172002063E+04  0.18172002063E+04  0.50400001928E-02 0. -1.
    10030    2    1    2    0    0  0.00000000000E+00  0.00000000000E+00 -0.14297557450E+04  0.22046446677E+04  0.16781706171E+04 0.  0.
        2    1    3    3  502    0  0.18380711154E+03 -0.65699051164E+03 -0.13566434909E+04  0.15185200519E+04  0.25500000920E-02 0. -1.
       -2    1    3    3    0  502 -0.18380711154E+03  0.65699051164E+03 -0.73112254138E+02  0.68612461575E+03  0.25500000920E-02 0.  1.
</event>
<event>
 5   0  0.9284971E-04  0.1702575E+04  0.7818609E-02  0.8759897E-01
       -2   -1    0    0    0  501  0.00000000000E+00  0.00000000000E+00  0.13317095642E+04  0.13317095642E+04  0.25500000920E-02 0.  1.
        2   -1    0    0  501    0  0.00000000000E+00  0.00000000000E+00 -0.54418040811E+03  0.54418040812E+03  0.25500000920E-02 0. -1.
    10030    2    1    2    0    0  0.00000000000E+00  0.00000000000E+00  0.78752915610E+03  0.18758899723E+04  0.17025748197E+04 0.  0.
        4    1    3    3  502    0  0.18486257168E+03  0.76477131250E+03  0.75187250504E+03  0.10882845251E+04  0.12699999809E+01 0.  1.
       -4    1    3    3    0  502 -0.18486257168E+03 -0.76477131250E+03  0.35656651059E+02  0.78760544723E+03  0.12699999809E+01 0. -1.
</event>
<event>
 5   0  0.5074133E-04  0.1604239E+04  0.7818609E-02  0.8817948E-01
       -1   -1    0    0    0  501  0.00000000000E+00  0.00000000000E+00  0.77963208601E+03  0.77963208603E+03  0.50400001928E-02 0. -1.
        1   -1    0    0  501    0  0.00000000000E+00  0.00000000000E+00 -0.82525561065E+03  0.82525561067E+03  0.50400001928E-02 0.  1.
    10030    2    1    2    0    0  0.00000000000E+00  0.00000000000E+00 -0.45623524641E+02  0.16048876967E+04  0.16042390760E+04 0.  0.
        1    1    3    3  502    0 -0.34684156586E+03  0.62063286718E+03 -0.39432632193E+03  0.81300521267E+03  0.50400001928E-02 0.  1.
       -1    1    3    3    0  502  0.34684156586E+03 -0.62063286718E+03  0.34870279729E+03  0.79188248402E+03  0.50400001928E-02 0. -1.
</event>
<event>
 5   0  0.9312096E-04  0.1600585E+04  0.7818609E-02  0.8820188E-01
        2   -1    0    0  501    0  0.00000000000E+00  0.00000000000E+00  0.63089092729E+03  0.63089092730E+03  0.25500000920E-02 0.  1.
       -2   -1    0    0    0  501  0.00000000000E+00  0.00000000000E+00 -0.10151810020E+04  0.10151810020E+04  0.25500000920E-02 0. -1.
    10030    2    1    2    0    0  0.00000000000E+00  0.00000000000E+00 -0.38429007475E+03  0.16460719293E+04  0.16005854976E+04 0.  0.
        3    1    3    3  502    0  0.43058121428E+03  0.43001877926E+03 -0.72667756491E+03  0.94782731874E+03  0.10100000352E+00 0. -1.
       -3    1    3    3    0  502 -0.43058121428E+03 -0.43001877926E+03  0.34238749016E+03  0.69824461060E+03  0.10100000352E+00 0.  1.
</event>
<event>
 5   0  0.5074133E-04  0.1705826E+04  0.7818609E-02  0.8758049E-01
        1   -1    0    0  501    0  0.00000000000E+00  0.00000000000E+00  0.19398907269E+04  0.19398907269E+04  0.50400001928E-02 0. -1.
       -1   -1    0    0    0  501  0.00000000000E+00  0.00000000000E+00 -0.37500065807E+03  0.37500065811E+03  0.50400001928E-02 0.  1.
    10030    2    1    2    0    0  0.00000000000E+00  0.00000000000E+00  0.15648900688E+04  0.23148913850E+04  0.17058256643E+04 0.  0.
        1    1    3    3  502    0 -0.45315392771E+03 -0.71632766996E+03  0.91108944790E+03  0.12444106216E+04  0.50400001928E-02 0.  1.
       -1    1    3    3    0  502  0.45315392771E+03  0.71632766996E+03  0.65380062089E+03  0.10704807634E+04  0.50400001928E-02 0. -1.
</event>
<event>
 5   0  0.1007187E-03  0.1705843E+04  0.7818609E-02  0.8758039E-01
        2   -1    0    0  501    0  0.00000000000E+00  0.00000000000E+00  0.14552157500E+04  0.14552157500E+04  0.25500000920E-02 0.  1.
       -2   -1    0    0    0  501  0.00000000000E+00  0.00000000000E+00 -0.49990885270E+03  0.49990885270E+03  0.25500000920E-02 0. -1.
    10030    2    1    2    0    0  0.00000000000E+00  0.00000000000E+00  0.95530689733E+03  0.19551246027E+04  0.17058431769E+04 0.  0.
        5    1    3    3  502    0 -0.62615416502E+03 -0.16734812535E+03  0.11130900573E+04  0.12880473591E+04  0.46999998093E+01 0.  1.
       -5    1    3    3    0  502  0.62615416502E+03  0.16734812535E+03 -0.15778316001E+03  0.66707724367E+03  0.46999998093E+01 0. -1.
</event>
<event>
 5   0  0.3523125E-04  0.1657823E+04  0.7818609E-02  0.8785792E-01
       -3   -1    0    0    0  501  0.00000000000E+00  0.00000000000E+00  0.10411734935E+04  0.10411734984E+04  0.10100000352E+00 0.  1.
        3   -1    0    0  501    0  0.00000000000E+00  0.00000000000E+00 -0.65992321440E+03  0.65992322213E+03  0.10100000352E+00 0. -1.
    10030    2    1    2    0    0  0.00000000000E+00  0.00000000000E+00  0.38125027908E+03  0.17010967205E+04  0.16578233553E+04 0.  0.
        5    1    3    3  502    0  0.35965947729E+03  0.41073420110E+03  0.83061619272E+03  0.99398333647E+03  0.46999998093E+01 0.  1.
       -5    1    3    3    0  502 -0.35965947729E+03 -0.41073420110E+03 -0.44936591364E+03  0.70711338405E+03  0.46999998093E+01 0. -1.
</event>
<event>
 5   0  0.5035495E-04  0.1751991E+04  0.7818609E-02  0.8732255E-01
        1   -1    0    0  501    0  0.00000000000E+00  0.00000000000E+00  0.18220433082E+04  0.18220433082E+04  0.50400001928E-02 0. -1.
       -1   -1    0    0    0  501  0.00000000000E+00  0.00000000000E+00 -0.42115786591E+03  0.42115786594E+03  0.50400001928E-02 0.  1.
    10030    2    1    2    0    0  0.00000000000E+00  0.00000000000E+00  0.14008854423E+04  0.22432011742E+04  0.17519907207E+04 0.  0.
        4    1    3    3  502    0  0.23703103640E+03 -0.57256508491E+02 -0.37682507760E+03  0.44884381692E+03  0.12699999809E+01 0.  1.
       -4    1    3    3    0  502 -0.23703103640E+03  0.57256508491E+02  0.17777105199E+04  0.17943573572E+04  0.12699999809E+01 0. -1.
</event>
<event>
 5   0  0.9610114E-04  0.1687682E+04  0.7818609E-02  0.8768421E-01
       -2   -1    0    0    0  501  0.00000000000E+00  0.00000000000E+00  0.60720439375E+03  0.60720439376E+03  0.25500000920E-02 0.  1.
        2   -1    0    0  501    0  0.00000000000E+00  0.00000000000E+00 -0.11726990229E+04  0.11726990229E+04  0.25500000920E-02 0. -1.
    10030    2    1    2    0    0  0.00000000000E+00  0.00000000000E+00 -0.56549462915E+03  0.17799034167E+04  0.16876824337E+04 0.  0.
        2    1    3    3  502    0 -0.12161934164E+03 -0.70079858649E+03 -0.76160436164E+03  0.10420897882E+04  0.25500000920E-02 0.  1.
       -2    1    3    3    0  502  0.12161934164E+03  0.70079858649E+03  0.19610973249E+03  0.73781362842E+03  0.25500000920E-02 0. -1.
</event>
<event>
 5   0  0.9312096E-04  0.1753926E+04  0.7818609E-02  0.8731192E-01
       -2   -1    0    0    0  501  0.00000000000E+00  0.00000000000E+00  0.98372316500E+03  0.98372316500E+03  0.25500000920E-02 0.  1.
        2   -1    0    0  501    0  0.00000000000E+00  0.00000000000E+00 -0.78178931613E+03  0.78178931613E+03  0.25500000920E-02 0. -1.
    10030    2    1    2    0    0  0.00000000000E+00  0.00000000000E+00  0.20193384887E+03  0.17655124811E+04  0.17539261791E+04 0.  0.
        3    1    3    3  502    0 -0.23946752003E+02  0.16212275575E+03 -0.76623854683E+03  0.78356796496E+03  0.10100000352E+00 0. -1.
       -3    1    3    3    0  502  0.23946752003E+02 -0.16212275575E+03  0.96817239570E+03  0.98194451618E+03  0.10100000352E+00 0.  1.
</event>
<event>
 5   0  0.5059689E-04  0.1696196E+04  0.7818609E-02  0.8763537E-01
        1   -1    0    0  501    0  0.00000000000E+00  0.00000000000E+00  0.13928057640E+04  0.13928057640E+04  0.50400001928E-02 0.  1.
       -1   -1    0    0    0  501  0.00000000000E+00  0.00000000000E+00 -0.51641787706E+03  0.51641787709E+03  0.50400001928E-02 0. -1.
    10030    2    1    2    0    0  0.00000000000E+00  0.00000000000E+00  0.87638788691E+03  0.19092236411E+04  0.16961955027E+04 0.  0.
        5    1    3    3  502    0 -0.11838869978E+03  0.82314719300E+03  0.25099169176E+03  0.86868066912E+03  0.46999998093E+01 0. -1.
       -5    1    3    3    0  502  0.11838869978E+03 -0.82314719300E+03  0.62539619515E+03  0.10405429720E+04  0.46999998093E+01 0.  1.
</event>
<event>
 5   0  0.3523125E-04  0.1701334E+04  0.7818609E-02  0.8760604E-01
       -4   -1    0    0    0  501  0.00000000000E+00  0.00000000000E+00  0.76821214741E+03  0.76821319719E+03  0.12699999809E+01 0. -1.
        4   -1    0    0  501    0  0.00000000000E+00  0.00000000000E+00 -0.94196982604E+03  0.94197068217E+03  0.12699999809E+01 0.  1.
    10030    2    1    2    0    0  0.00000000000E+00  0.00000000000E+00 -0.17375767862E+03  0.17101838794E+04  0.17013339385E+04 0.  0.
        4    1    3    3  502    0  0.77215236067E+03  0.22118465710E+03 -0.36849819944E+03  0.88370496010E+03  0.12699999809E+01 0.  1.
       -4    1    3    3    0  502 -0.77215236067E+03 -0.22118465710E+03  0.19474052081E+03  0.82647891925E+03  0.12699999809E+01 0. -1.
</event>
<event>
 5   0  0.9284971E-04  0.1717561E+04  0.7818609E-02  0.8751412E-01
        2   -1    0    0  501    0  0.00000000000E+00  0.00000000000E+00  0.78809499314E+03  0.78809499315E+03  0.25500000920E-02 0. -1.
       -2   -1    0    0    0  501  0.00000000000E+00  0.00000000000E+00 -0.93580604104E+03  0.93580604104E+03  0.25500000920E-02 0.  1.
    10030    2    1    2    0    0  0.00000000000E+00  0.00000000000E+00 -0.14771104790E+03  0.17239010342E+04  0.17175611261E+04 0.  0.
        4    1    3    3  502    0  0.28497702323E+03 -0.54819108351E+03 -0.67252774665E+03  0.91324725607E+03  0.12699999809E+01 0.  1.
       -4    1    3    3    0  502 -0.28497702323E+03  0.54819108351E+03  0.52481669875E+03  0.81065377812E+03  0.12699999809E+01 0. -1.
</event>
<event>
 5   0  0.9610114E-04  0.1291220E+04  0.7818609E-02  0.9036557E-01
        2   -1    0    0  501    0  0.00000000000E+00  0.00000000000E+00  0.84181603894E+03  0.84181603895E+03  0.25500000920E-02 0. -1.
       -2   -1    0    0    0  501  0.00000000000E+00  0.00000000000E+00 -0.49513449920E+03  0.49513449920E+03  0.25500000920E-02 0.  1.
    10030    2    1    2    0    0  0.00000000000E+00  0.00000000000E+00  0.34668153975E+03  0.13369505381E+04  0.12912198308E+04 0.  0.
        2    1    3    3  502    0 -0.97777761615E+02  0.22090944794E+03  0.79325251124E+03  0.82922314334E+03  0.25500000920E-02 0. -1.
       -2    1    3    3    0  502  0.97777761615E+02 -0.22090944794E+03 -0.44657097149E+03  0.50772739481E+03  0.25500000920E-02 0.  1.
</event>
<event>
 5   0  0.4947006E-04  0.1700020E+04  0.7818609E-02  0.8761353E-01
       -1   -1    0    0    0  501  0.00000000000E+00  0.00000000000E+00  0.60422990759E+03  0.60422990761E+03  0.50400001928E-02 0.  1.
        1   -1    0    0  501    0  0.00000000000E+00  0.00000000000E+00 -0.11957647630E+04  0.11957647630E+04  0.50400001928E-02 0. -1.
    10030    2    1    2    0    0  0.00000000000E+00  0.00000000000E+00 -0.59153485543E+03  0.17999946706E+04  0.17000198026E+04 0.  0.
        2    1    3    3  502    0 -0.25544492855E+03  0.59814737620E+03 -0.87520195251E+03  0.10904177424E+04  0.25500000920E-02 0. -1.
       -2    1    3    3    0  502  0.25544492855E+03 -0.59814737620E+03  0.28366709708E+03  0.70957692828E+03  0.25500000920E-02 0.  1.
</event>
<event>
 5   0  0.9610114E-04  0.1695917E+04  0.7818609E-02  0.8763696E-01
        2   -1    0    0  501    0  0.00000000000E+00  0.00000000000E+00  0.13519115361E+04  0.13519115361E+04  0.25500000920E-02 0. -1.
       -2   -1    0    0    0  501  0.00000000000E+00  0.00000000000E+00 -0.53186438660E+03  0.53186438661E+03  0.25500000920E-02 0.  1.
    10030    2    1    2    0    0  0.00000000000E+00  0.00000000000E+00  0.82004714950E+03  0.18837759227E+04  0.16959169790E+04 0.  0.
        2    1    3    3  502    0  0.56953405300E+03  0.35599935260E+03  0.98497947350E+03  0.11921783171E+04  0.25500000920E-02 0. -1.
       -2    1    3    3    0  502 -0.56953405300E+03 -0.35599935260E+03 -0.16493232400E+03  0.69159760561E+03  0.25500000920E-02 0.  1.
</event>
<event>
 5   0  0.1007187E-03  0.1645788E+04  0.7818609E-02  0.8792902E-01
        2   -1    0    0  501    0  0.00000000000E+00  0.00000000000E+00  0.56984077974E+03  0.56984077975E+03  0.25500000920E-02 0.  1.
       -2   -1    0    0    0  501  0.00000000000E+00  0.00000000000E+00 -0.11883229101E+04  0.11883229101E+04  0.25500000920E-02 0. -1.
    10030    2    1    2    0    0  0.00000000000E+00  0.00000000000E+00 -0.61848213037E+03  0.17581636899E+04  0.16457883870E+04 0.  0.
        5    1    3    3  502    0 -0.13809281101E+03 -0.44551524334E+03  0.41497065044E+03  0.62432058049E+03  0.46999998093E+01 0.  1.
       -5    1    3    3    0  502  0.13809281101E+03  0.44551524334E+03 -0.10334527808E+04  0.11338431094E+04  0.46999998093E+01 0. -1.
</event>
<event>
 5   0  0.9284971E-04  0.1715258E+04  0.7818609E-02  0.8752710E-01
        2   -1    0    0  501    0  0.00000000000E+00  0.00000000000E+00  0.19981352304E+04  0.19981352304E+04  0.25500000920E-02 0. -1.
       -2   -1    0    0    0  501  0.00000000000E+00  0.00000000000E+00 -0.36810678660E+03  0.36810678661E+03  0.25500000920E-02 0.  1.
    10030    2    1    2    0    0  0.00000000000E+00  0.00000000000E+00  0.16300284438E+04  0.23662420170E+04  0.17152575770E+04 0.  0.
        4    1    3    3  502    0 -0.48203989741E+03  0.25787559322E+03  0.17266117369E+04  0.18110913801E+04  0.12699999809E+01 0. -1.
       -4    1    3    3    0  502  0.48203989741E+03 -0.25787559322E+03 -0.96583293057E+02  0.55515063692E+03  0.12699999809E+01 0.  1.
</event>
<event>
 5   0  0.9610114E-04  0.1688275E+04  0.7818609E-02  0.8768080E-01
        2   -1    0    0  501    0  0.00000000000E+00  0.00000000000E+00  0.15531477417E+04  0.15531477417E+04  0.25500000920E-02 0.  1.
       -2   -1    0    0    0  501  0.00000000000E+00  0.00000000000E+00 -0.45878957656E+03  0.45878957657E+03  0.25500000920E-02 0. -1.
    10030    2    1    2    0    0  0.00000000000E+00  0.00000000000E+00  0.10943581651E+04  0.20119373183E+04  0.16882748529E+04 0.  0.
        2    1    3    3  502    0  0.53237958285E+03  0.54614681602E+03  0.97828181529E+03  0.12404594613E+04  0.25500000920E-02 0.  1.
       -2    1    3    3    0  502 -0.53237958285E+03 -0.54614681602E+03  0.11607634985E+03  0.77147785702E+03  0.25500000920E-02 0. -1.
</event>
<event>
 5   0  0.1007187E-03  0.1905537E+04  0.7818609E-02  0.8652105E-01
        2   -1    0    0  501    0  0.00000000000E+00  0.00000000000E+00  0.79863900269E+03  0.79863900269E+03  0.25500000920E-02 0.  1.
       -2   -1    0    0    0  501  0.00000000000E+00  0.00000000000E+00 -0.11366429559E+04  0.11366429559E+04  0.25500000920E-02 0. -1.
    10030    2    1    2    0    0  0.00000000000E+00  0.00000000000E+00 -0.33800395319E+03  0.19352819586E+04  0.19055365614E+04 0.  0.
        5    1    3    3  502    0  0.77714022108E+03 -0.39641699646E+03 -0.55793147247E+03  0.10355689143E+04  0.46999998093E+01 0.  1.
       -5    1    3    3    0  502 -0.77714022108E+03  0.39641699646E+03  0.21992751928E+03  0.89971304427E+03  0.46999998093E+01 0. -1.
</event>
<event>
 5   0  0.5074133E-04  0.1700357E+04  0.7818609E-02  0.8761161E-01
       -1   -1    0    0    0  501  0.00000000000E+00  0.00000000000E+00  0.39054680643E+03  0.39054680647E+03  0.50400001928E-02 0. -1.
        1   -1    0    0  501    0  0.00000000000E+00  0.00000000000E+00 -0.18507465615E+04  0.18507465615E+04  0.50400001928E-02 0.  1.
    10030    2    1    2    0    0  0.00000000000E+00  0.00000000000E+00 -0.14601997551E+04  0.22412933680E+04  0.17003566204E+04 0.  0.
        1    1    3    3  502    0  0.64482085872E+03  0.39833689111E+00  0.25559160535E+00  0.64482103243E+03  0.50400001928E-02 0. -1.
       -1    1    3    3    0  502 -0.64482085872E+03 -0.39833689111E+00 -0.14604553467E+04  0.15964723356E+04  0.50400001928E-02 0.  1.
</event>
<event>
 5   0  0.9312096E-04  0.1688860E+04  0.7818609E-02  0.8767743E-01
       -2   -1    0    0    0  501  0.00000000000E+00  0.00000000000E+00  0.10986266399E+04  0.10986266399E+04  0.25500000920E-02 0.  1.
        2   -1    0    0  501    0  0.00000000000E+00  0.00000000000E+00 -0.64904859401E+03  0.64904859402E+03  0.25500000920E-02 0. -1.
    10030    2    1    2    0    0  0.00000000000E+00  0.00000000000E+00  0.44957804585E+03  0.17476752339E+04  0.16888600605E+04 0.  0.
        3    1    3    3  502    0  0.37881576763E+03 -0.65699485537E+03  0.60909596956E+03  0.97269807038E+03  0.10100000352E+00 0.  1.
       -3    1    3    3    0  502 -0.37881576763E+03  0.65699485537E+03 -0.15951792371E+03  0.77497716351E+03  0.10100000352E+00 0. -1.
</event>
<event>
 5   0  0.5074133E-04  0.1684850E+04  0.7818609E-02  0.8770052E-01
        1   -1    0    0  501    0  0.00000000000E+00  0.00000000000E+00  0.16147882741E+04  0.16147882741E+04  0.50400001928E-02 0.  1.
       -1   -1    0    0    0  501  0.00000000000E+00  0.00000000000E+00 -0.43948797176E+03  0.43948797179E+03  0.50400001928E-02 0. -1.
    10030    2    1    2    0    0  0.00000000000E+00  0.00000000000E+00  0.11753003023E+04  0.20542762459E+04  0.16848501695E+04 0.  0.
        1    1    3    3  502    0 -0.61308805468E+03  0.53312136451E+03  0.31614924855E+03  0.87180599876E+03  0.50400001928E-02 0.  1.
       -1    1    3    3    0  502  0.61308805468E+03 -0.53312136451E+03  0.85915105377E+03  0.11824702471E+04  0.50400001928E-02 0. -1.
</event>
<event>
 5   0  0.9610114E-04  0.1762746E+04  0.7818609E-02  0.8726366E-01
        2   -1    0    0  501    0  0.00000000000E+00  0.00000000000E+00  0.84022168341E+03  0.84022168342E+03  0.25500000920E-02 0.  1.
       -2   -1    0    0    0  501  0.00000000000E+00  0.00000000000E+00 -0.92453958614E+03  0.92453958615E+03  0.25500000920E-02 0. -1.
    10030    2    1    2    0    0  0.00000000000E+00  0.00000000000E+00 -0.84317902727E+02  0.17647612696E+04  0.17627458211E+04 0.  0.
        2    1    3    3  502    0 -0.17907373588E+03 -0.24110286031E+03  0.78741396135E+03  0.84274476484E+03  0.25500000920E-02 0.  1.
       -2    1    3    3    0  502  0.17907373588E+03  0.24110286031E+03 -0.87173186408E+03  0.92201650472E+03  0.25500000920E-02 0. -1.
</event>
<event>
 5   0  0.1007187E-03  0.1703036E+04  0.7818609E-02  0.8759635E-01
       -2   -1    0    0    0  501  0.00000000000E+00  0.00000000000E+00  0.89394206491E+03  0.89394206491E+03  0.25500000920E-02 0.  1.
        2   -1    0    0  501    0  0.00000000000E+00  0.00000000000E+00 -0.81110729853E+03  0.81110729854E+03  0.25500000920E-02 0. -1.
    10030    2    1    2    0    0  0.00000000000E+00  0.00000000000E+00  0.82834766371E+02  0.17050493634E+04  0.17030360341E+04 0.  0.
        5    1    3    3  502    0 -0.98469068007E+02  0.50008709778E+03 -0.64150159685E+03  0.81934708853E+03  0.46999998093E+01 0. -1.
       -5    1    3    3    0  502  0.98469068007E+02 -0.50008709778E+03  0.72433636322E+03  0.88570227492E+03  0.46999998093E+01 0.  1.
</event>
<event>
 5   0  0.5009762E-04  0.1667577E+04  0.7818609E-02  0.8780076E-01
       -1   -1    0    0    0  501  0.00000000000E+00  0.00000000000E+00  0.79031364225E+03  0.79031364227E+03  0.50400001928E-02 0.  1.
        1   -1    0    0  501    0  0.00000000000E+00  0.00000000000E+00 -0.87965440084E+03  0.87965440085E+03  0.50400001928E-02 0. -1.
    10030    2    1    2    0    0  0.00000000000E+00  0.00000000000E+00 -0.89340758587E+02  0.16699680431E+04  0.16675765331E+04 0.  0.
        3    1    3    3  502    0  0.59723917704E+03 -0.31359130834E+03  0.44610255903E+03  0.80872841339E+03  0.10100000352E+00 0.  1.
       -3    1    3    3    0  502 -0.59723917704E+03  0.31359130834E+03 -0.53544331761E+03  0.86123962974E+03  0.10100000352E+00 0. -1.
</event>
<event>
 5   0  0.5035495E-04  0.1736148E+04  0.7818609E-02  0.8741012E-01
       -1   -1    0    0    0  501  0.00000000000E+00  0.00000000000E+00  0.30744809655E+03  0.30744809659E+03  0.50400001928E-02 0.  1.
        1   -1    0    0  501    0  0.00000000000E+00  0.00000000000E+00 -0.24509916019E+04  0.24509916019E+04  0.50400001928E-02 0. -1.
    10030    2    1    2    0    0  0.00000000000E+00  0.00000000000E+00 -0.21435435054E+04  0.27584396985E+04  0.17361482687E+04 0.  0.
        4    1    3    3  502    0 -0.20788605459E+03 -0.82093527867E+03 -0.13748996184E+04  0.16147761198E+04  0.12699999809E+01 0. -1.
       -4    1    3    3    0  502  0.20788605459E+03  0.82093527867E+03 -0.76864388700E+03  0.11436635788E+04  0.12699999809E+01 0.  1.
</event>
<event>
 5   0  0.5059689E-04  0.1693552E+04  0.7818609E-02  0.8765051E-01
        1   -1    0    0  501    0  0.00000000000E+00  0.00000000000E+00  0.10372713877E+04  0.10372713877E+04  0.50400001928E-02 0.  1.
       -1   -1    0    0    0  501  0.00000000000E+00  0.00000000000E+00 -0.69126487434E+03  0.69126487436E+03  0.50400001928E-02 0. -1.
    10030    2    1    2    0    0  0.00000000000E+00  0.00000000000E+00  0.34600651333E+03  0.17285362620E+04  0.16935516236E+04 0.  0.
        5    1    3    3  502    0 -0.22794808529E+03  0.39049566050E+03 -0.55771912309E+03  0.71799714534E+03  0.46999998093E+01 0. -1.
       -5    1    3    3    0  502  0.22794808529E+03 -0.39049566050E+03  0.90372563643E+03  0.10105391167E+04  0.46999998093E+01 0.  1.
</event>
<event>
 5   0  0.3523125E-04  0.1708994E+04  0.7818609E-02  0.8756252E-01
        3   -1    0    0  501    0  0.00000000000E+00  0.00000000000E+00  0.10543550972E+04  0.10543551020E+04  0.10100000352E+00 0.  1.
       -3   -1    0    0    0  501  0.00000000000E+00  0.00000000000E+00 -0.69252269727E+03  0.69252270464E+03  0.10100000352E+00 0. -1.
    10030    2    1    2    0    0  0.00000000000E+00  0.00000000000E+00  0.36183239994E+03  0.17468778067E+04  0.17089936764E+04 0.  0.
        5    1    3    3  502    0  0.57259308273E+03  0.12637034472E+03  0.81623294479E+03  0.10050326425E+04  0.46999998093E+01 0.  1.
       -5    1    3    3    0  502 -0.57259308273E+03 -0.12637034472E+03 -0.45440054485E+03  0.74184516415E+03  0.46999998093E+01 0. -1.
</event>
<event>
 5   0  0.3523125E-04  0.1620078E+04  0.7818609E-02  0.8808307E-01
        3   -1    0    0  501    0  0.00000000000E+00  0.00000000000E+00  0.99915031447E+03  0.99915031958E+03  0.10100000352E+00 0.  1.
       -3   -1    0    0    0  501  0.00000000000E+00  0.00000000000E+00 -0.65672157496E+03  0.65672158272E+03  0.10100000352E+00 0. -1.
    10030    2    1    2    0    0  0.00000000000E+00  0.00000000000E+00  0.34242873951E+03  0.16558719023E+04  0.16200784904E+04 0.  0.
        1    1    3    3  502    0  0.77254896787E+03 -0.24133821322E+03  0.13750793072E+03  0.82096557294E+03  0.50400001928E-02 0. -1.
       -1    1    3    3    0  502 -0.77254896787E+03  0.24133821322E+03  0.20492080879E+03  0.83490632936E+03  0.50400001928E-02 0.  1.
</event>
<event>
 5   0  0.5009762E-04  0.1703333E+04  0.7818609E-02  0.8759466E-01
       -1   -1    0    0    0  501  0.00000000000E+00  0.00000000000E+00  0.47248766440E+03  0.47248766443E+03  0.50400001928E-02 0. -1.
        1   -1    0    0  501    0  0.00000000000E+00  0.00000000000E+00 -0.15351416529E+04  0.15351416529E+04  0.50400001928E-02 0.  1.
    10030    2    1    2    0    0  0.00000000000E+00  0.00000000000E+00 -0.10626539885E+04  0.20076293173E+04  0.17033326089E+04 0.  0.
        3    1    3    3  502    0  0.18904189757E+03 -0.63193095970E+03  0.10368085050E+03  0.66770001185E+03  0.10100000352E+00 0. -1.
       -3    1    3    3    0  502 -0.18904189757E+03  0.63193095970E+03 -0.11663348389E+04  0.13399293055E+04  0.10100000352E+00 0.  1.
</event>
<event>
 5   0  0.1007187E-03  0.1626031E+04  0.7818609E-02  0.8804714E-01
       -2   -1    0    0    0  501  0.00000000000E+00  0.00000000000E+00  0.51825374954E+03  0.51825374954E+03  0.25500000920E-02 0.  1.
        2   -1    0    0  501    0  0.00000000000E+00  0.00000000000E+00 -0.12754252797E+04  0.12754252797E+04  0.25500000920E-02 0. -1.
    10030    2    1    2    0    0  0.00000000000E+00  0.00000000000E+00 -0.75717153016E+03  0.17936790292E+04  0.16260306682E+04 0.  0.
        5    1    3    3  502    0 -0.35226530467E+03 -0.13577761081E+03  0.41568307891E+03  0.56155223849E+03  0.46999998093E+01 0.  1.
       -5    1    3    3    0  502  0.35226530467E+03  0.13577761081E+03 -0.11728546091E+04  0.12321267907E+04  0.46999998093E+01 0. -1.
</event>
<event>
 5   0  0.3523125E-04  0.1601050E+04  0.7818609E-02  0.8819903E-01
        3   -1    0    0  501    0  0.00000000000E+00  0.00000000000E+00  0.73143159269E+03  0.73143159966E+03  0.10100000352E+00 0. -1.
       -3   -1    0    0    0  501  0.00000000000E+00  0.00000000000E+00 -0.87614519740E+03  0.87614520322E+03  0.10100000352E+00 0.  1.
    10030    2    1    2    0    0  0.00000000000E+00  0.00000000000E+00 -0.14471360471E+03  0.16075768029E+04  0.16010500148E+04 0.  0.
        1    1    3    3  502    0  0.43456436703E+03 -0.35836104581E+03  0.49879550489E+03  0.75237343385E+03  0.50400001928E-02 0. -1.
       -1    1    3    3    0  502 -0.43456436703E+03  0.35836104581E+03 -0.64350910960E+03  0.85520336903E+03  0.50400001928E-02 0.  1.
</event>
<event>
 5   0  0.1007187E-03  0.1649412E+04  0.7818609E-02  0.8790754E-01
       -2   -1    0    0    0  501  0.00000000000E+00  0.00000000000E+00  0.41808195450E+03  0.41808195451E+03  0.25500000920E-02 0.  1.
        2   -1    0    0  501    0  0.00000000000E+00  0.00000000000E+00 -0.16268109946E+04  0.16268109946E+04  0.25500000920E-02 0. -1.
    10030    2    1    2    0    0  0.00000000000E+00  0.00000000000E+00 -0.12087290401E+04  0.20448929491E+04  0.16494124047E+04 0.  0.
        5    1    3    3  502    0 -0.60508665624E+03 -0.15860075010E+03  0.61929026304E+02  0.62860269948E+03  0.46999998093E+01 0.  1.
       -5    1    3    3    0  502  0.60508665624E+03  0.15860075010E+03 -0.12706580664E+04  0.14162902496E+04  0.46999998093E+01 0. -1.
</event>
<event>
 5   0  0.5035495E-04  0.1726140E+04  0.7818609E-02  0.8746595E-01
        1   -1    0    0  501    0  0.00000000000E+00  0.00000000000E+00  0.39665162033E+03  0.39665162037E+03  0.50400001928E-02 0.  1.
       -1   -1    0    0    0  501  0.00000000000E+00  0.00000000000E+00 -0.18779446358E+04  0.18779446358E+04  0.50400001928E-02 0. -1.
    10030    2    1    2    0    0  0.00000000000E+00  0.00000000000E+00 -0.14812930154E+04  0.22745962561E+04  0.17261399511E+04 0.  0.
        4    1    3    3  502    0 -0.71505372956E+03 -0.46688487817E+03 -0.90525719723E+03  0.12444981043E+04  0.12699999809E+01 0. -1.
       -4    1    3    3    0  502  0.71505372956E+03  0.46688487817E+03 -0.57603581820E+03  0.10300981518E+04  0.12699999809E+01 0.  1.
</event>
<event>
 5   0  0.5059689E-04  0.1843179E+04  0.7818609E-02  0.8683669E-01
       -1   -1    0    0    0  501  0.00000000000E+00  0.00000000000E+00  0.68097002950E+03  0.68097002952E+03  0.50400001928E-02 0.  1.
        1   -1    0    0  501    0  0.00000000000E+00  0.00000000000E+00 -0.12472309285E+04  0.12472309286E+04  0.50400001928E-02 0. -1.
    10030    2    1    2    0    0  0.00000000000E+00  0.00000000000E+00 -0.56626089905E+03  0.19282009581E+04  0.18431786481E+04 0.  0.
        5    1    3    3  502    0 -0.14003098472E+03  0.74160432437E+03  0.27015080580E+03  0.80161661564E+03  0.46999998093E+01 0.  1.
       -5    1    3    3    0  502  0.14003098472E+03 -0.74160432437E+03 -0.83641170484E+03  0.11265843424E+04  0.46999998093E+01 0. -1.
</event>
<event>
 5   0  0.9312096E-04  0.1705238E+04  0.7818609E-02  0.8758382E-01
        2   -1    0    0  501    0  0.00000000000E+00  0.00000000000E+00  0.61926098517E+03  0.61926098518E+03  0.25500000920E-02 0.  1.
       -2   -1    0    0    0  501  0.00000000000E+00  0.00000000000E+00 -0.11739141932E+04  0.11739141932E+04  0.25500000920E-02 0. -1.
    10030    2    1    2    0    0  0.00000000000E+00  0.00000000000E+00 -0.55465320806E+03  0.17931751784E+04  0.17052381181E+04 0.  0.
        3    1    3    3  502    0 -0.47745551120E+03  0.53604946711E+03 -0.76110133940E+03  0.10462256236E+04  0.10100000352E+00 0. -1.
       -3    1    3    3    0  502  0.47745551120E+03 -0.53604946711E+03  0.20644813134E+03  0.74694955485E+03  0.10100000352E+00 0.  1.
</event>
<event>
 5   0  0.1007187E-03  0.1634636E+04  0.7818609E-02  0.8799548E-01
        2   -1    0    0  501    0  0.00000000000E+00  0.00000000000E+00  0.19678771406E+04  0.19678771406E+04  0.25500000920E-02 0. -1.
       -2   -1    0    0    0  501  0.00000000000E+00  0.00000000000E+00 -0.33945652472E+03  0.33945652473E+03  0.25500000920E-02 0.  1.
    10030    2    1    2    0    0  0.00000000000E+00  0.00000000000E+00  0.16284206159E+04  0.23073336653E+04  0.16346360271E+04 0.  0.
        5    1    3    3  502    0  0.14735990569E+03  0.45064985774E+03 -0.12547525203E+03  0.49047565174E+03  0.46999998093E+01 0.  1.
       -5    1    3    3    0  502 -0.14735990569E+03 -0.45064985774E+03  0.17538958679E+04  0.18168580136E+04  0.46999998093E+01 0. -1.
</event>
<event>
 5   0  0.3523125E-04  0.9124536E+03  0.7818609E-02  0.9410146E-01
        3   -1    0    0  501    0  0.00000000000E+00  0.00000000000E+00  0.11099894337E+04  0.11099894383E+04  0.10100000352E+00 0. -1.
       -3   -1    0    0    0  501  0.00000000000E+00  0.00000000000E+00 -0.18751789967E+03  0.18751792687E+03  0.10100000352E+00 0.  1.
    10030    2    1    2    0    0  0.00000000000E+00  0.00000000000E+00  0.92247153403E+03  0.12975073652E+04  0.91245363255E+03 0.  0.
        3    1    3    3  502    0 -0.11461776192E+03 -0.30822092057E+03  0.11548038629E+02  0.32904518629E+03  0.10100000352E+00 0.  1.
       -3    1    3    3    0  502  0.11461776192E+03  0.30822092057E+03  0.91092349541E+03  0.96846217887E+03  0.10100000352E+00 0. -1.
</event>
<event>
 5   0  0.9284971E-04  0.1720203E+04  0.7818609E-02  0.8749925E-01
       -2   -1    0    0    0  501  0.00000000000E+00  0.00000000000E+00  0.69136896451E+03  0.69136896452E+03  0.25500000920E-02 0.  1.
        2   -1    0    0  501    0  0.00000000000E+00  0.00000000000E+00 -0.10700137891E+04  0.10700137891E+04  0.25500000920E-02 0. -1.
    10030    2    1    2    0    0  0.00000000000E+00  0.00000000000E+00 -0.37864482454E+03  0.17613827536E+04  0.17202026920E+04 0.  0.
        4    1    3    3  502    0  0.58233236626E+03 -0.31700078315E+03  0.37167308225E+03  0.76009405621E+03  0.12699999809E+01 0.  1.
       -4    1    3    3    0  502 -0.58233236626E+03  0.31700078315E+03 -0.75031790680E+03  0.10012886974E+04  0.12699999809E+01 0. -1.
</event>
<event>
 5   0  0.5074133E-04  0.1727669E+04  0.7818609E-02  0.8745739E-01
       -1   -1    0    0    0  501  0.00000000000E+00  0.00000000000E+00  0.12487723280E+04  0.12487723280E+04  0.50400001928E-02 0. -1.
        1   -1    0    0  501    0  0.00000000000E+00  0.00000000000E+00 -0.59755520397E+03  0.59755520399E+03  0.50400001928E-02 0.  1.
    10030    2    1    2    0    0  0.00000000000E+00  0.00000000000E+00  0.65121712404E+03  0.18463275320E+04  0.17276694165E+04 0.  0.
        1    1    3    3  502    0  0.76323786545E+02 -0.40624434552E+03 -0.48500598114E+03  0.63725237577E+03  0.50400001928E-02 0.  1.
       -1    1    3    3    0  502 -0.76323786545E+02  0.40624434552E+03  0.11362231052E+04  0.12090751562E+04  0.50400001928E-02 0. -1.
</event>
<event>
 5   0  0.4947006E-04  0.1616688E+04  0.7818609E-02  0.8810361E-01
        1   -1    0    0  501    0  0.00000000000E+00  0.00000000000E+00  0.13116726999E+04  0.13116726999E+04  0.50400001928E-02 0.  1.
       -1   -1    0    0    0  501  0.00000000000E+00  0.00000000000E+00 -0.49815777075E+03  0.49815777077E+03  0.50400001928E-02 0. -1.
    10030    2    1    2    0    0  0.00000000000E+00  0.00000000000E+00  0.81351492914E+03  0.18098304707E+04  0.16166879082E+04 0.  0.
        2    1    3    3  502    0  0.18294168631E+03 -0.49222345772E+02 -0.47295458794E+03  0.50948654759E+03  0.25500000920E-02 0. -1.
       -2    1    3    3    0  502 -0.18294168631E+03  0.49222345772E+02  0.12864695171E+04  0.13003439231E+04  0.25500000920E-02 0.  1.
</event>
<event>
 5   0  0.5035495E-04  0.1702077E+04  0.7818609E-02  0.8760181E-01
        1   -1    0    0  501    0  0.00000000000E+00  0.00000000000E+00  0.13348639462E+04  0.13348639462E+04  0.50400001928E-02 0. -1.
       -1   -1    0    0    0  501  0.00000000000E+00  0.00000000000E+00 -0.54257674004E+03  0.54257674006E+03  0.50400001928E-02 0.  1.
    10030    2    1    2    0    0  0.00000000000E+00  0.00000000000E+00  0.79228720618E+03  0.18774406863E+04  0.17020765299E+04 0.  0.
        4    1    3    3  502    0 -0.74400604961E+03  0.13917066411E+03  0.82526468057E+03  0.11198110919E+04  0.12699999809E+01 0. -1.
       -4    1    3    3    0  502  0.74400604961E+03 -0.13917066411E+03 -0.32977474391E+02  0.75762959441E+03  0.12699999809E+01 0.  1.
</event>
<event>
 5   0  0.5035495E-04  0.1717292E+04  0.7818609E-02  0.8751563E-01
        1   -1    0    0  501    0  0.00000000000E+00  0.00000000000E+00  0.82025841746E+03  0.82025841748E+03  0.50400001928E-02 0. -1.
       -1   -1    0    0    0  501  0.00000000000E+00  0.00000000000E+00 -0.89883038473E+03  0.89883038474E+03  0.50400001928E-02 0.  1.
    10030    2    1    2    0    0  0.00000000000E+00  0.00000000000E+00 -0.78571967267E+02  0.17190888022E+04  0.17172922744E+04 0.  0.
        4    1    3    3  502    0 -0.44359003248E+03  0.37368429447E+03 -0.67308299852E+03  0.88851246736E+03  0.12699999809E+01 0.  1.
       -4    1    3    3    0  502  0.44359003248E+03 -0.37368429447E+03  0.59451103126E+03  0.83057633486E+03  0.12699999809E+01 0. -1.
</event>
<event>
 5   0  0.5074133E-04  0.1688527E+04  0.7818609E-02  0.8767935E-01
       -1   -1    0    0    0  501  0.00000000000E+00  0.00000000000E+00  0.49564792604E+03  0.49564792606E+03  0.50400001928E-02 0.  1.
        1   -1    0    0  501    0  0.00000000000E+00  0.00000000000E+00 -0.14380787419E+04  0.14380787419E+04  0.50400001928E-02 0. -1.
    10030    2    1    2    0    0  0.00000000000E+00  0.00000000000E+00 -0.94243081587E+03  0.19337266680E+04  0.16885268679E+04 0.  0.
        1    1    3    3  502    0  0.21666962898E+03 -0.63083060626E+03  0.12152365565E+03  0.67798302400E+03  0.50400001928E-02 0.  1.
       -1    1    3    3    0  502 -0.21666962898E+03  0.63083060626E+03 -0.10639544715E+04  0.12557436440E+04  0.50400001928E-02 0. -1.
</event>
<event>
 5   0  0.5059689E-04  0.1745560E+04  0.7818609E-02  0.8735798E-01
        1   -1    0    0  501    0  0.00000000000E+00  0.00000000000E+00  0.25049900791E+03  0.25049900796E+03  0.50400001928E-02 0. -1.
       -1   -1    0    0    0  501  0.00000000000E+00  0.00000000000E+00 -0.30409093548E+04  0.30409093548E+04  0.50400001928E-02 0.  1.
    10030    2    1    2    0    0  0.00000000000E+00  0.00000000000E+00 -0.27904103468E+04  0.32914083627E+04  0.17455598261E+04 0.  0.
        5    1    3    3  502    0  0.32184589744E+03  0.79976658621E+03 -0.16517514030E+04  0.18632005156E+04  0.46999998093E+01 0.  1.
       -5    1    3    3    0  502 -0.32184589744E+03 -0.79976658621E+03 -0.11386589438E+04  0.14282078471E+04  0.46999998093E+01 0. -1.
</event>
<event>
 5   0  0.9284971E-04  0.1814468E+04  0.7818609E-02  0.8698643E-01
       -2   -1    0    0    0  501  0.00000000000E+00  0.00000000000E+00  0.89118211507E+03  0.89118211508E+03  0.25500000920E-02 0. -1.
        2   -1    0    0  501    0  0.00000000000E+00  0.00000000000E+00 -0.92357508909E+03  0.92357508909E+03  0.25500000920E-02 0.  1.
    10030    2    1    2    0    0  0.00000000000E+00  0.00000000000E+00 -0.32392974013E+02  0.18147572042E+04  0.18144680778E+04 0.  0.
        4    1    3    3  502    0  0.58419719340E+03  0.51974436825E+03  0.44393270777E+03  0.89916540805E+03  0.12699999809E+01 0. -1.
       -4    1    3    3    0  502 -0.58419719340E+03 -0.51974436825E+03 -0.47632568178E+03  0.91559179612E+03  0.12699999809E+01 0.  1.
</event>
<event>
 5   0  0.5059689E-04  0.1771040E+04  0.7818609E-02  0.8721853E-01
        1   -1    0    0  501    0  0.00000000000E+00  0.00000000000E+00  0.11135648779E+04  0.11135648779E+04  0.50400001928E-02 0. -1.
       -1   -1    0    0    0  501  0.00000000000E+00  0.00000000000E+00 -0.70417614193E+03  0.70417614195E+03  0.50400001928E-02 0.  1.
    10030    2    1    2    0    0  0.00000000000E+00  0.00000000000E+00  0.40938873598E+03  0.18177410199E+04  0.17710401684E+04 0.  0.
        5    1    3    3  502    0 -0.67213427021E+02 -0.67697406673E+03 -0.37709690538E+03  0.77784040641E+03  0.46999998093E+01 0.  1.
       -5    1    3    3    0  502  0.67213427021E+02  0.67697406673E+03  0.78648564136E+03  0.10399006135E+04  0.46999998093E+01 0. -1.
</event>
<event>
 5   0  0.9284971E-04  0.1782634E+04  0.7818609E-02  0.8715589E-01
       -2   -1    0    0    0  501  0.00000000000E+00  0.00000000000E+00  0.48356845667E+03  0.48356845668E+03  0.25500000920E-02 0. -1.
        2   -1    0    0  501    0  0.00000000000E+00  0.00000000000E+00 -0.16428818768E+04  0.16428818768E+04  0.25500000920E-02 0.  1.
    10030    2    1    2    0    0  0.00000000000E+00  0.00000000000E+00 -0.11593134202E+04  0.21264503335E+04  0.17826338420E+04 0.  0.
        4    1    3    3  502    0  0.47396355107E+03  0.47524281664E+03  0.11992572403E+03  0.68182180568E+03  0.12699999809E+01 0. -1.
       -4    1    3    3    0  502 -0.47396355107E+03 -0.47524281664E+03 -0.12792391442E+04  0.14446285278E+04  0.12699999809E+01 0.  1.
</event>
<event>
 5   0  0.5074133E-04  0.1704862E+04  0.7818609E-02  0.8758596E-01
       -1   -1    0    0    0  501  0.00000000000E+00  0.00000000000E+00  0.58800376114E+03  0.58800376116E+03  0.50400001928E-02 0.  1.
        1   -1    0    0  501    0  0.00000000000E+00  0.00000000000E+00 -0.12357724191E+04  0.12357724191E+04  0.50400001928E-02 0. -1.
    10030    2    1    2    0    0  0.00000000000E+00  0.00000000000E+00 -0.64776865795E+03  0.18237761802E+04  0.17048622588E+04 0.  0.
        1    1    3    3  502    0  0.82555044188E+03 -0.65963076719E+02 -0.10792683813E+03  0.83518432816E+03  0.50400001928E-02 0.  1.
       -1    1    3    3    0  502 -0.82555044188E+03  0.65963076719E+02 -0.53984181981E+03  0.98859185209E+03  0.50400001928E-02 0. -1.
</event>
<event>
 5   0  0.9625225E-04  0.1754083E+04  0.7818609E-02  0.8731106E-01
        2   -1    0    0  501    0  0.00000000000E+00  0.00000000000E+00  0.16195970225E+04  0.16195970225E+04  0.25500000920E-02 0.  1.
       -2   -1    0    0    0  501  0.00000000000E+00  0.00000000000E+00 -0.47493424234E+03  0.47493424235E+03  0.25500000920E-02 0. -1.
    10030    2    1    2    0    0  0.00000000000E+00  0.00000000000E+00  0.11446627801E+04  0.20945312648E+04  0.17540833330E+04 0.  0.
        1    1    3    3  502    0 -0.14486305377E+02 -0.49783392114E+03  0.14343556816E+04  0.15183625020E+04  0.50400001928E-02 0.  1.
       -1    1    3    3    0  502  0.14486305377E+02  0.49783392114E+03 -0.28969290147E+03  0.57616876284E+03  0.50400001928E-02 0. -1.
</event>
<event>
 5   0  0.5009762E-04  0.1757061E+04  0.7818609E-02  0.8729473E-01
       -1   -1    0    0    0  501  0.00000000000E+00  0.00000000000E+00  0.18871706368E+04  0.18871706368E+04  0.50400001928E-02 0.  1.
        1   -1    0    0  501    0  0.00000000000E+00  0.00000000000E+00 -0.40898051159E+03  0.40898051162E+03  0.50400001928E-02 0. -1.
    10030    2    1    2    0    0  0.00000000000E+00  0.00000000000E+00  0.14781901252E+04  0.22961511484E+04  0.17570611970E+04 0.  0.
        3    1    3    3  502    0  0.26522908528E+03  0.24196042283E+03 -0.30874171271E+03  0.47351110786E+03  0.10100000352E+00 0. -1.
       -3    1    3    3    0  502 -0.26522908528E+03 -0.24196042283E+03  0.17869318379E+04  0.18226400405E+04  0.10100000352E+00 0.  1.
</event>
<event>
 5   0  0.9610114E-04  0.1690576E+04  0.7818609E-02  0.8766757E-01
        2   -1    0    0  501    0  0.00000000000E+00  0.00000000000E+00  0.61209434998E+03  0.61209434999E+03  0.25500000920E-02 0.  1.
       -2   -1    0    0    0  501  0.00000000000E+00  0.00000000000E+00 -0.11673233738E+04  0.11673233738E+04  0.25500000920E-02 0. -1.
    10030    2    1    2    0    0  0.00000000000E+00  0.00000000000E+00 -0.55522902384E+03  0.17794177238E+04  0.16905762825E+04 0.  0.
        2    1    3    3  502    0 -0.57661120446E+02 -0.87610087070E+01  0.60997401575E+03  0.61275595467E+03  0.25500000920E-02 0.  1.
       -2    1    3    3    0  502  0.57661120446E+02  0.87610087070E+01 -0.11652030396E+04  0.11666617691E+04  0.25500000920E-02 0. -1.
</event>
<event>
 5   0  0.5074133E-04  0.1670410E+04  0.7818609E-02  0.8778423E-01
       -1   -1    0    0    0  501  0.00000000000E+00  0.00000000000E+00  0.81842441934E+03  0.81842441935E+03  0.50400001928E-02 0.  1.
        1   -1    0    0  501    0  0.00000000000E+00  0.00000000000E+00 -0.85232921668E+03  0.85232921670E+03  0.50400001928E-02 0. -1.
    10030    2    1    2    0    0  0.00000000000E+00  0.00000000000E+00 -0.33904797341E+02  0.16707536360E+04  0.16704095836E+04 0.  0.
        1    1    3    3  502    0  0.17515499570E+03  0.73007363332E+03  0.34901948233E+03  0.82795010819E+03  0.50400001928E-02 0.  1.
       -1    1    3    3    0  502 -0.17515499570E+03 -0.73007363332E+03 -0.38292427967E+03  0.84280352786E+03  0.50400001928E-02 0. -1.
</event>
<event>
 5   0  0.5009762E-04  0.1694253E+04  0.7818609E-02  0.8764649E-01
        1   -1    0    0  501    0  0.00000000000E+00  0.00000000000E+00  0.74817583776E+03  0.74817583778E+03  0.50400001928E-02 0.  1.
       -1   -1    0    0    0  501  0.00000000000E+00  0.00000000000E+00 -0.95916414205E+03  0.95916414206E+03  0.50400001928E-02 0. -1.
    10030    2    1    2    0    0  0.00000000000E+00  0.00000000000E+00 -0.21098830429E+03  0.17073399798E+04  0.16942531518E+04 0.  0.
        3    1    3    3  502    0  0.76909996645E+03  0.35189116508E+03 -0.15362577651E+03  0.85961796158E+03  0.10100000352E+00 0. -1.
       -3    1    3    3    0  502 -0.76909996645E+03 -0.35189116508E+03 -0.57362527777E+02  0.84772201827E+03  0.10100000352E+00 0.  1.
</event>
<event>
 5   0  0.5074133E-04  0.1623762E+04  0.7818609E-02  0.8806081E-01
       -1   -1    0    0    0  501  0.00000000000E+00  0.00000000000E+00  0.65808075849E+03  0.65808075850E+03  0.50400001928E-02 0. -1.
        1   -1    0    0  501    0  0.00000000000E+00  0.00000000000E+00 -0.10016264268E+04  0.10016264269E+04  0.50400001928E-02 0.  1.
    10030    2    1    2    0    0  0.00000000000E+00  0.00000000000E+00 -0.34354566836E+03  0.16597071854E+04  0.16237623948E+04 0.  0.
        1    1    3    3  502    0 -0.22786417520E+03 -0.73045598938E+03  0.10564464778E+03  0.77243046703E+03  0.50400001928E-02 0. -1.
       -1    1    3    3    0  502  0.22786417520E+03  0.73045598938E+03 -0.44919031614E+03  0.88727671833E+03  0.50400001928E-02 0.  1.
</event>
<event>
 5   0  0.1007187E-03  0.1714410E+04  0.7818609E-02  0.8753188E-01
       -2   -1    0    0    0  501  0.00000000000E+00  0.00000000000E+00  0.52992476137E+03  0.52992476137E+03  0.25500000920E-02 0.  1.
        2   -1    0    0  501    0  0.00000000000E+00  0.00000000000E+00 -0.13866128346E+04  0.13866128346E+04  0.25500000920E-02 0. -1.
    10030    2    1    2    0    0  0.00000000000E+00  0.00000000000E+00 -0.85668807327E+03  0.19165375960E+04  0.17144100741E+04 0.  0.
        5    1    3    3  502    0  0.13885350363E+03  0.18367882979E+03  0.49469155624E+03  0.54567392626E+03  0.46999998093E+01 0.  1.
       -5    1    3    3    0  502 -0.13885350363E+03 -0.18367882979E+03 -0.13513796295E+04  0.13708636698E+04  0.46999998093E+01 0. -1.
</event>
<event>
 5   0  0.9312096E-04  0.1699649E+04  0.7818609E-02  0.8761565E-01
       -2   -1    0    0    0  501  0.00000000000E+00  0.00000000000E+00  0.36305307013E+03  0.36305307014E+03  0.25500000920E-02 0.  1.
        2   -1    0    0  501    0  0.00000000000E+00  0.00000000000E+00 -0.19892455726E+04  0.19892455726E+04  0.25500000920E-02 0. -1.
    10030    2    1    2    0    0  0.00000000000E+00  0.00000000000E+00 -0.16261925025E+04  0.23522986427E+04  0.16996490372E+04 0.  0.
        3    1    3    3  502    0  0.15125815936E+02  0.51754752186E+03 -0.17457432830E+04  0.18209074243E+04  0.10100000352E+00 0. -1.
       -3    1    3    3    0  502 -0.15125815936E+02 -0.51754752186E+03  0.11955078050E+03  0.53139121842E+03  0.10100000352E+00 0.  1.
</event>
<event>
 5   0  0.9625225E-04  0.1294057E+04  0.7818609E-02  0.9034291E-01
       -2   -1    0    0    0  501  0.00000000000E+00  0.00000000000E+00  0.33091416750E+03  0.33091416751E+03  0.25500000920E-02 0.  1.
        2   -1    0    0  501    0  0.00000000000E+00  0.00000000000E+00 -0.12651201172E+04  0.12651201172E+04  0.25500000920E-02 0. -1.
    10030    2    1    2    0    0  0.00000000000E+00  0.00000000000E+00 -0.93420594967E+03  0.15960342847E+04  0.12940574491E+04 0.  0.
        1    1    3    3  502    0  0.24959654053E+03  0.50824855047E+03 -0.80939935491E+02  0.57198452364E+03  0.50400001928E-02 0.  1.
       -1    1    3    3    0  502 -0.24959654053E+03 -0.50824855047E+03 -0.85326601418E+03  0.10240497610E+04  0.50400001928E-02 0. -1.
</event>
<event>
 5   0  0.4947006E-04  0.1688569E+04  0.7818609E-02  0.8767911E-01
       -1   -1    0    0    0  501  0.00000000000E+00  0.00000000000E+00  0.55144577383E+03  0.55144577386E+03  0.50400001928E-02 0. -1.
        1   -1    0    0  501    0  0.00000000000E+00  0.00000000000E+00 -0.12926312496E+04  0.12926312496E+04  0.50400001928E-02 0.  1.
    10030    2    1    2    0    0  0.00000000000E+00  0.00000000000E+00 -0.74118547574E+03  0.18440770234E+04  0.16885686717E+04 0.  0.
        2    1    3    3  502    0  0.48391430330E+03 -0.12507992978E+03  0.37251175278E+03  0.62336429778E+03  0.25500000920E-02 0. -1.
       -2    1    3    3    0  502 -0.48391430330E+03  0.12507992978E+03 -0.11136972285E+04  0.12207127257E+04  0.25500000920E-02 0.  1.
</event>
<event>
 5   0  0.5074133E-04  0.1723281E+04  0.7818609E-02  0.8748197E-01
       -1   -1    0    0    0  501  0.00000000000E+00  0.00000000000E+00  0.10862569927E+04  0.10862569927E+04  0.50400001928E-02 0.  1.
        1   -1    0    0  501    0  0.00000000000E+00  0.00000000000E+00 -0.68347037931E+03  0.68347037933E+03  0.50400001928E-02 0. -1.
    10030    2    1    2    0    0  0.00000000000E+00  0.00000000000E+00  0.40278661335E+03  0.17697273720E+04  0.17232811481E+04 0.  0.
        1    1    3    3  502    0  0.69362347849E+02  0.35587095104E+03  0.10041055612E+04  0.10675594817E+04  0.50400001928E-02 0.  1.
       -1    1    3    3    0  502 -0.69362347849E+02 -0.35587095104E+03 -0.60131894781E+03  0.70216789026E+03  0.50400001928E-02 0. -1.
</event>
<event>
 5   0  0.1007187E-03  0.1731131E+04  0.7818609E-02  0.8743806E-01
        2   -1    0    0  501    0  0.00000000000E+00  0.00000000000E+00  0.10384298067E+04  0.10384298067E+04  0.25500000920E-02 0.  1.
       -2   -1    0    0    0  501  0.00000000000E+00  0.00000000000E+00 -0.72147765219E+03  0.72147765219E+03  0.25500000920E-02 0. -1.
    10030    2    1    2    0    0  0.00000000000E+00  0.00000000000E+00  0.31695215447E+03  0.17599074589E+04  0.17311313051E+04 0.  0.
        5    1    3    3  502    0 -0.79196645547E+03  0.34825648713E+03  0.18514884566E+03  0.88475738622E+03  0.46999998093E+01 0.  1.
       -5    1    3    3    0  502  0.79196645547E+03 -0.34825648713E+03  0.13180330881E+03  0.87515007263E+03  0.46999998093E+01 0. -1.
</event>
<event>
 5   0  0.5059689E-04  0.1696246E+04  0.7818609E-02  0.8763508E-01
       -1   -1    0    0    0  501  0.00000000000E+00  0.00000000000E+00  0.92127575531E+03  0.92127575532E+03  0.50400001928E-02 0.  1.
        1   -1    0    0  501    0  0.00000000000E+00  0.00000000000E+00 -0.78077875714E+03  0.78077875716E+03  0.50400001928E-02 0. -1.
    10030    2    1    2    0    0  0.00000000000E+00  0.00000000000E+00  0.14049699817E+03  0.17020545125E+04  0.16962459011E+04 0.  0.
        5    1    3    3  502    0 -0.43308736369E+02 -0.83965500597E+03  0.18195930692E+03  0.86024848449E+03  0.46999998093E+01 0.  1.
       -5    1    3    3    0  502  0.43308736369E+02  0.83965500597E+03 -0.41462308758E+02  0.84180602798E+03  0.46999998093E+01 0. -1.
</event>
<event>
 5   0  0.5035495E-04  0.1513610E+04  0.7818609E-02  0.8875452E-01
       -1   -1    0    0    0  501  0.00000000000E+00  0.00000000000E+00  0.65871681410E+03  0.65871681412E+03  0.50400001928E-02 0.  1.
        1   -1    0    0  501    0  0.00000000000E+00  0.00000000000E+00 -0.86949956782E+03  0.86949956783E+03  0.50400001928E-02 0. -1.
    10030    2    1    2    0    0  0.00000000000E+00  0.00000000000E+00 -0.21078275372E+03  0.15282163819E+04  0.15136102341E+04 0.  0.
        4    1    3    3  502    0 -0.45266396272E+03 -0.33957569155E+03 -0.61277038437E+03  0.83408960568E+03  0.12699999809E+01 0. -1.
       -4    1    3    3    0  502  0.45266396272E+03  0.33957569155E+03  0.40198763065E+03  0.69412677627E+03  0.12699999809E+01 0.  1.
</event>
<event>
 5   0  0.1007187E-03  0.1702504E+04  0.7818609E-02  0.8759938E-01
        2   -1    0    0  501    0  0.00000000000E+00  0.00000000000E+00  0.96931610208E+03  0.96931610208E+03  0.25500000920E-02 0. -1.
       -2   -1    0    0    0  501  0.00000000000E+00  0.00000000000E+00 -0.74756807289E+03  0.74756807290E+03  0.25500000920E-02 0.  1.
    10030    2    1    2    0    0  0.00000000000E+00  0.00000000000E+00  0.22174802919E+03  0.17168841750E+04  0.17025037685E+04 0.  0.
        5    1    3    3  502    0  0.27489072079E+03  0.10911360072E+03 -0.69407676791E+03  0.75447686246E+03  0.46999998093E+01 0.  1.
       -5    1    3    3    0  502 -0.27489072079E+03 -0.10911360072E+03  0.91582479709E+03  0.96240731253E+03  0.46999998093E+01 0. -1.
</event>
<event>
 5   0  0.3523125E-04  0.1713515E+04  0.7818609E-02  0.8753694E-01
        3   -1    0    0  501    0  0.00000000000E+00  0.00000000000E+00  0.10137970517E+04  0.10137970567E+04  0.10100000352E+00 0.  1.
       -3   -1    0    0    0  501  0.00000000000E+00  0.00000000000E+00 -0.72404336616E+03  0.72404337320E+03  0.10100000352E+00 0. -1.
    10030    2    1    2    0    0  0.00000000000E+00  0.00000000000E+00  0.28975368553E+03  0.17378404299E+04  0.17135145642E+04 0.  0.
        2    1    3    3  502    0  0.33048714003E+03  0.16784970299E+03  0.92826583927E+03  0.99953626292E+03  0.25500000920E-02 0.  1.
       -2    1    3    3    0  502 -0.33048714003E+03 -0.16784970299E+03 -0.63851215374E+03  0.73830416700E+03  0.25500000920E-02 0. -1.
</event>
<event>
 5   0  0.1007187E-03  0.1811121E+04  0.7818609E-02  0.8700407E-01
        2   -1    0    0  501    0  0.00000000000E+00  0.00000000000E+00  0.20651061166E+04  0.20651061166E+04  0.25500000920E-02 0.  1.
       -2   -1    0    0    0  501  0.00000000000E+00  0.00000000000E+00 -0.39709349694E+03  0.39709349694E+03  0.25500000920E-02 0. -1.
    10030    2    1    2    0    0  0.00000000000E+00  0.00000000000E+00  0.16680126197E+04  0.24621996135E+04  0.18111214309E+04 0.  0.
        5    1    3    3  502    0 -0.80525528336E+03 -0.29967733259E+03  0.44524108422E+03  0.96773151655E+03  0.46999998093E+01 0. -1.
       -5    1    3    3    0  502  0.80525528336E+03  0.29967733259E+03  0.12227715354E+04  0.14944680970E+04  0.46999998093E+01 0.  1.
</event>
<event>
 5   0  0.9284971E-04  0.1667631E+04  0.7818609E-02  0.8780044E-01
       -2   -1    0    0    0  501  0.00000000000E+00  0.00000000000E+00  0.80766337274E+03  0.80766337274E+03  0.25500000920E-02 0. -1.
        2   -1    0    0  501    0  0.00000000000E+00  0.00000000000E+00 -0.86081420377E+03  0.86081420377E+03  0.25500000920E-02 0.  1.
    10030    2    1    2    0    0  0.00000000000E+00  0.00000000000E+00 -0.53150831034E+02  0.16684775765E+04  0.16676307782E+04 0.  0.
        4    1    3    3  502    0  0.13383132981E+03  0.74074788378E+01  0.79681318997E+03  0.80800901492E+03  0.12699999809E+01 0. -1.
       -4    1    3    3    0  502 -0.13383132981E+03 -0.74074788378E+01 -0.84996402101E+03  0.86046856159E+03  0.12699999809E+01 0.  1.
</event>
<event>
 5   0  0.9625225E-04  0.1713474E+04  0.7818609E-02  0.8753717E-01
       -2   -1    0    0    0  501  0.00000000000E+00  0.00000000000E+00  0.44412362663E+03  0.44412362663E+03  0.25500000920E-02 0.  1.
        2   -1    0    0  501    0  0.00000000000E+00  0.00000000000E+00 -0.16526889617E+04  0.16526889617E+04  0.25500000920E-02 0. -1.
    10030    2    1    2    0    0  0.00000000000E+00  0.00000000000E+00 -0.12085653351E+04  0.20968125884E+04  0.17134739162E+04 0.  0.
        1    1    3    3  502    0  0.82361317172E+03 -0.21960348316E+03 -0.70979168211E+03  0.11092198062E+04  0.50400001928E-02 0. -1.
       -1    1    3    3    0  502 -0.82361317172E+03  0.21960348316E+03 -0.49877365298E+03  0.98759278216E+03  0.50400001928E-02 0.  1.
</event>
<event>
 5   0  0.9625225E-04  0.1738317E+04  0.7818609E-02  0.8739808E-01
       -2   -1    0    0    0  501  0.00000000000E+00  0.00000000000E+00  0.93742750714E+03  0.93742750714E+03  0.25500000920E-02 0. -1.
        2   -1    0    0  501    0  0.00000000000E+00  0.00000000000E+00 -0.80586083164E+03  0.80586083165E+03  0.25500000920E-02 0.  1.
    10030    2    1    2    0    0  0.00000000000E+00  0.00000000000E+00  0.13156667550E+03  0.17432883388E+04  0.17383165540E+04 0.  0.
        1    1    3    3  502    0  0.82395570197E+02 -0.47508631310E+03 -0.65943089997E+03  0.81691195777E+03  0.50400001928E-02 0.  1.
       -1    1    3    3    0  502 -0.82395570197E+02  0.47508631310E+03  0.79099757547E+03  0.92637638102E+03  0.50400001928E-02 0. -1.
</event>
<event>
 5   0  0.4947006E-04  0.1766274E+04  0.7818609E-02  0.8724443E-01
       -1   -1    0    0    0  501  0.00000000000E+00  0.00000000000E+00  0.35225662105E+03  0.35225662109E+03  0.50400001928E-02 0. -1.
        1   -1    0    0  501    0  0.00000000000E+00  0.00000000000E+00 -0.22140998657E+04  0.22140998657E+04  0.50400001928E-02 0.  1.
    10030    2    1    2    0    0  0.00000000000E+00  0.00000000000E+00 -0.18618432446E+04  0.25663564868E+04  0.17662744265E+04 0.  0.
        2    1    3    3  502    0 -0.61804586840E+03 -0.56436936357E+03 -0.52140401457E+03  0.98608094008E+03  0.25500000920E-02 0. -1.
       -2    1    3    3    0  502  0.61804586840E+03  0.56436936357E+03 -0.13404392300E+04  0.15802755467E+04  0.25500000920E-02 0.  1.
</event>
<event>
 5   0  0.9625225E-04  0.1659245E+04  0.7818609E-02  0.8784956E-01
       -2   -1    0    0    0  501  0.00000000000E+00  0.00000000000E+00  0.13833180078E+04  0.13833180078E+04  0.25500000920E-02 0.  1.
        2   -1    0    0  501    0  0.00000000000E+00  0.00000000000E+00 -0.49755242650E+03  0.49755242651E+03  0.25500000920E-02 0. -1.
    10030    2    1    2    0    0  0.00000000000E+00  0.00000000000E+00  0.88576558125E+03  0.18808704343E+04  0.16592446853E+04 0.  0.
        1    1    3    3  502    0  0.24150088284E+03  0.23201701694E+03  0.13032907416E+04  0.13456304581E+04  0.50400001928E-02 0.  1.
       -1    1    3    3    0  502 -0.24150088284E+03 -0.23201701694E+03 -0.41752516034E+03  0.53523997619E+03  0.50400001928E-02 0. -1.
</event>
<event>
 5   0  0.5059689E-04  0.1688194E+04  0.7818609E-02  0.8768127E-01
       -1   -1    0    0    0  501  0.00000000000E+00  0.00000000000E+00  0.79837758543E+03  0.79837758545E+03  0.50400001928E-02 0.  1.
        1   -1    0    0  501    0  0.00000000000E+00  0.00000000000E+00 -0.89243433080E+03  0.89243433081E+03  0.50400001928E-02 0. -1.
    10030    2    1    2    0    0  0.00000000000E+00  0.00000000000E+00 -0.94056745366E+02  0.16908119163E+04  0.16881937877E+04 0.  0.
        5    1    3    3  502    0  0.70567242814E+03  0.28515638817E+03  0.31848929928E+03  0.82507288485E+03  0.46999998093E+01 0.  1.
       -5    1    3    3    0  502 -0.70567242814E+03 -0.28515638817E+03 -0.41254604464E+03  0.86573903141E+03  0.46999998093E+01 0. -1.
</event>
<event>
 5   0  0.5009762E-04  0.1593693E+04  0.7818609E-02  0.8824432E-01
        1   -1    0    0  501    0  0.00000000000E+00  0.00000000000E+00  0.80961259784E+03  0.80961259785E+03  0.50400001928E-02 0.  1.
       -1   -1    0    0    0  501  0.00000000000E+00  0.00000000000E+00 -0.78428122813E+03  0.78428122815E+03  0.50400001928E-02 0. -1.
    10030    2    1    2    0    0  0.00000000000E+00  0.00000000000E+00  0.25331369708E+02  0.15938938260E+04  0.15936925206E+04 0.  0.
        3    1    3    3  502    0  0.27935122297E+03  0.34196335520E+03  0.67606531586E+03  0.80749016315E+03  0.10100000352E+00 0.  1.
       -3    1    3    3    0  502 -0.27935122297E+03 -0.34196335520E+03 -0.65073394615E+03  0.78640366285E+03  0.10100000352E+00 0. -1.
</event>
<event>
 5   0  0.9284971E-04  0.1664998E+04  0.7818609E-02  0.8781583E-01
        2   -1    0    0  501    0  0.00000000000E+00  0.00000000000E+00  0.10737961194E+04  0.10737961195E+04  0.25500000920E-02 0.  1.
       -2   -1    0    0    0  501  0.00000000000E+00  0.00000000000E+00 -0.64542471014E+03  0.64542471014E+03  0.25500000920E-02 0. -1.
    10030    2    1    2    0    0  0.00000000000E+00  0.00000000000E+00  0.42837140931E+03  0.17192208296E+04  0.16649979569E+04 0.  0.
        4    1    3    3  502    0  0.27334283513E+03 -0.88366874479E+02 -0.59262328076E+03  0.65858103208E+03  0.12699999809E+01 0. -1.
       -4    1    3    3    0  502 -0.27334283513E+03  0.88366874479E+02  0.10209946901E+04  0.10606397975E+04  0.12699999809E+01 0.  1.
</event>
<event>
 5   0  0.5035495E-04  0.1683419E+04  0.7818609E-02  0.8770878E-01
       -1   -1    0    0    0  501  0.00000000000E+00  0.00000000000E+00  0.51822477118E+03  0.51822477121E+03  0.50400001928E-02 0. -1.
        1   -1    0    0  501    0  0.00000000000E+00  0.00000000000E+00 -0.13671188223E+04  0.13671188223E+04  0.50400001928E-02 0.  1.
    10030    2    1    2    0    0  0.00000000000E+00  0.00000000000E+00 -0.84889405112E+03  0.18853435935E+04  0.16834189483E+04 0.  0.
        4    1    3    3  502    0  0.65880017152E+03 -0.50395774333E+03 -0.58472952294E+03  0.10148405298E+04  0.12699999809E+01 0. -1.
       -4    1    3    3    0  502 -0.65880017152E+03  0.50395774333E+03 -0.26416452818E+03  0.87050306370E+03  0.12699999809E+01 0.  1.
</event>
<event>
 5   0  0.9312096E-04  0.1737207E+04  0.7818609E-02  0.8740424E-01
        2   -1    0    0  501    0  0.00000000000E+00  0.00000000000E+00  0.75056604554E+03  0.75056604554E+03  0.25500000920E-02 0. -1.
       -2   -1    0    0    0  501  0.00000000000E+00  0.00000000000E+00 -0.10052042879E+04  0.10052042879E+04  0.25500000920E-02 0.  1.
    10030    2    1    2    0    0  0.00000000000E+00  0.00000000000E+00 -0.25463824237E+03  0.17557703335E+04  0.17372071924E+04 0.  0.
        3    1    3    3  502    0  0.78563243226E+03  0.29723483237E+03 -0.35082770039E+03  0.91030047224E+03  0.10100000352E+00 0.  1.
       -3    1    3    3    0  502 -0.78563243226E+03 -0.29723483237E+03  0.96189458024E+02  0.84546986122E+03  0.10100000352E+00 0. -1.
</event>
<event>
 5   0  0.9312096E-04  0.1738339E+04  0.7818609E-02  0.8739796E-01
       -2   -1    0    0    0  501  0.00000000000E+00  0.00000000000E+00  0.10620755434E+04  0.10620755434E+04  0.25500000920E-02 0.  1.
        2   -1    0    0  501    0  0.00000000000E+00  0.00000000000E+00 -0.71130089153E+03  0.71130089153E+03  0.25500000920E-02 0. -1.
    10030    2    1    2    0    0  0.00000000000E+00  0.00000000000E+00  0.35077465190E+03  0.17733764350E+04  0.17383386102E+04 0.  0.
        3    1    3    3  502    0 -0.46460490384E+03  0.70091810159E+03  0.39961604116E+03  0.93104075762E+03  0.10100000352E+00 0. -1.
       -3    1    3    3    0  502  0.46460490384E+03 -0.70091810159E+03 -0.48841389267E+02  0.84233567733E+03  0.10100000352E+00 0.  1.
</event>
<event>
 5   0  0.9312096E-04  0.1685154E+04  0.7818609E-02  0.8769877E-01
        2   -1    0    0  501    0  0.00000000000E+00  0.00000000000E+00  0.76604557107E+03  0.76604557108E+03  0.25500000920E-02 0. -1.
       -2   -1    0    0    0  501  0.00000000000E+00  0.00000000000E+00 -0.92675413141E+03  0.92675413142E+03  0.25500000920E-02 0.  1.
    10030    2    1    2    0    0  0.00000000000E+00  0.00000000000E+00 -0.16070856034E+03  0.16927997025E+04  0.16851538777E+04 0.  0.
        3    1    3    3  502    0  0.41905933014E+03 -0.67703306657E+03  0.19648893196E+03  0.82011731233E+03  0.10100000352E+00 0. -1.
       -3    1    3    3    0  502 -0.41905933014E+03  0.67703306657E+03 -0.35719749230E+03  0.87268239017E+03  0.10100000352E+00 0.  1.
</event>
<event>
 5   0  0.4947006E-04  0.1703706E+04  0.7818609E-02  0.8759253E-01
       -1   -1    0    0    0  501  0.00000000000E+00  0.00000000000E+00  0.11779407017E+04  0.11779407017E+04  0.50400001928E-02 0.  1.
        1   -1    0    0  501    0  0.00000000000E+00  0.00000000000E+00 -0.61603605216E+03  0.61603605218E+03  0.50400001928E-02 0. -1.
    10030    2    1    2    0    0  0.00000000000E+00  0.00000000000E+00  0.56190464957E+03  0.17939767539E+04  0.17037064766E+04 0.  0.
        2    1    3    3  502    0  0.23875115686E+03  0.33169683727E+03 -0.50606408600E+03  0.65048118028E+03  0.25500000920E-02 0. -1.
       -2    1    3    3    0  502 -0.23875115686E+03 -0.33169683727E+03  0.10679687356E+04  0.11434955736E+04  0.25500000920E-02 0.  1.
</event>
<event>
 5   0  0.1007187E-03  0.1719533E+04  0.7818609E-02  0.8750302E-01
        2   -1    0    0  501    0  0.00000000000E+00  0.00000000000E+00  0.10832194101E+04  0.10832194101E+04  0.25500000920E-02 0.  1.
       -2   -1    0    0    0  501  0.00000000000E+00  0.00000000000E+00 -0.68240875590E+03  0.68240875591E+03  0.25500000920E-02 0. -1.
    10030    2    1    2    0    0  0.00000000000E+00  0.00000000000E+00  0.40081065424E+03  0.17656281661E+04  0.17195329715E+04 0.  0.
        5    1    3    3  502    0 -0.55518574447E+03  0.30474023035E+03 -0.39662654704E+03  0.74728343128E+03  0.46999998093E+01 0. -1.
       -5    1    3    3    0  502  0.55518574447E+03 -0.30474023035E+03  0.79743720127E+03  0.10183447348E+04  0.46999998093E+01 0.  1.
</event>
<event>
 5   0  0.1007187E-03  0.1767059E+04  0.7818609E-02  0.8724016E-01
       -2   -1    0    0    0  501  0.00000000000E+00  0.00000000000E+00  0.89369328771E+03  0.89369328771E+03  0.25500000920E-02 0.  1.
        2   -1    0    0  501    0  0.00000000000E+00  0.00000000000E+00 -0.87348136777E+03  0.87348136777E+03  0.25500000920E-02 0. -1.
    10030    2    1    2    0    0  0.00000000000E+00  0.00000000000E+00  0.20211919941E+02  0.17671746555E+04  0.17670590656E+04 0.  0.
        5    1    3    3  502    0 -0.31012141344E+03  0.31745477894E+03  0.77412551302E+03  0.89232574077E+03  0.46999998093E+01 0.  1.
       -5    1    3    3    0  502  0.31012141344E+03 -0.31745477894E+03 -0.75391359307E+03  0.87484891471E+03  0.46999998093E+01 0. -1.
</event>
<event>
 5   0  0.9284971E-04  0.1543114E+04  0.7818609E-02  0.8856278E-01
       -2   -1    0    0    0  501  0.00000000000E+00  0.00000000000E+00  0.82895197553E+03  0.82895197554E+03  0.25500000920E-02 0. -1.
        2   -1    0    0  501    0  0.00000000000E+00  0.00000000000E+00 -0.71813635189E+03  0.71813635190E+03  0.25500000920E-02 0.  1.
    10030    2    1    2    0    0  0.00000000000E+00  0.00000000000E+00  0.11081562364E+03  0.15470883274E+04  0.15431144450E+04 0.  0.
        4    1    3    3  502    0 -0.29937595726E+03  0.17506280969E+03 -0.63558838282E+03  0.72404913949E+03  0.12699999809E+01 0.  1.
       -4    1    3    3    0  502  0.29937595726E+03 -0.17506280969E+03  0.74640400646E+03  0.82303918794E+03  0.12699999809E+01 0. -1.
</event>
<event>
 5   0  0.9284971E-04  0.1399758E+04  0.7818609E-02  0.8953994E-01
       -2   -1    0    0    0  501  0.00000000000E+00  0.00000000000E+00  0.53139961807E+03  0.53139961807E+03  0.25500000920E-02 0. -1.
        2   -1    0    0  501    0  0.00000000000E+00  0.00000000000E+00 -0.92177428580E+03  0.92177428580E+03  0.25500000920E-02 0.  1.
    10030    2    1    2    0    0  0.00000000000E+00  0.00000000000E+00 -0.39037466773E+03  0.14531739039E+04  0.13997578411E+04 0.  0.
        4    1    3    3  502    0  0.56149296897E+03  0.29825224444E+02 -0.62782150819E+03  0.84280801922E+03  0.12699999809E+01 0.  1.
       -4    1    3    3    0  502 -0.56149296897E+03 -0.29825224444E+02  0.23744684045E+03  0.61036588466E+03  0.12699999809E+01 0. -1.
</event>
<event>
 5   0  0.4947006E-04  0.1631667E+04  0.7818609E-02  0.8801326E-01
        1   -1    0    0  501    0  0.00000000000E+00  0.00000000000E+00  0.15293202161E+04  0.15293202161E+04  0.50400001928E-02 0.  1.
       -1   -1    0    0    0  501  0.00000000000E+00  0.00000000000E+00 -0.43521597100E+03  0.43521597103E+03  0.50400001928E-02 0. -1.
    10030    2    1    2    0    0  0.00000000000E+00  0.00000000000E+00  0.10941042451E+04  0.19645361871E+04  0.16316673470E+04 0.  0.
        2    1    3    3  502    0 -0.13059046162E+03  0.80515089983E+03  0.52753599179E+03  0.97139902347E+03  0.25500000920E-02 0.  1.
       -2    1    3    3    0  502  0.13059046162E+03 -0.80515089983E+03  0.56656825326E+03  0.99313716362E+03  0.25500000920E-02 0. -1.
</event>
<event>
 5   0  0.9312096E-04  0.1738177E+04  0.7818609E-02  0.8739885E-01
        2   -1    0    0  501    0  0.00000000000E+00  0.00000000000E+00  0.18263645528E+04  0.18263645528E+04  0.25500000920E-02 0.  1.
       -2   -1    0    0    0  501  0.00000000000E+00  0.00000000000E+00 -0.41356210255E+03  0.41356210256E+03  0.25500000920E-02 0. -1.
    10030    2    1    2    0    0  0.00000000000E+00  0.00000000000E+00  0.14128024503E+04  0.22399266554E+04  0.17381773954E+04 0.  0.
        3    1    3    3  502    0 -0.47453580537E+03 -0.34123434261E+03  0.15352536959E+04  0.16427504461E+04  0.10100000352E+00 0.  1.
       -3    1    3    3    0  502  0.47453580537E+03  0.34123434261E+03 -0.12245124565E+03  0.59717620927E+03  0.10100000352E+00 0. -1.
</event>
<event>
 5   0  0.5035495E-04  0.1757531E+04  0.7818609E-02  0.8729216E-01
        1   -1    0    0  501    0  0.00000000000E+00  0.00000000000E+00  0.93408304125E+03  0.93408304127E+03  0.50400001928E-02 0. -1.
       -1   -1    0    0    0  501  0.00000000000E+00  0.00000000000E+00 -0.82672438944E+03  0.82672438945E+03  0.50400001928E-02 0.  1.
    10030    2    1    2    0    0  0.00000000000E+00  0.00000000000E+00  0.10735865182E+03  0.17608074307E+04  0.17575314870E+04 0.  0.
        4    1    3    3  502    0 -0.64226112487E+03 -0.59134966196E+03 -0.46676460237E+02  0.87428489639E+03  0.12699999809E+01 0.  1.
       -4    1    3    3    0  502  0.64226112487E+03  0.59134966196E+03  0.15403511205E+03  0.88652253432E+03  0.12699999809E+01 0. -1.
</event>
<event>
 5   0  0.9625225E-04  0.1814751E+04  0.7818609E-02  0.8698494E-01
        2   -1    0    0  501    0  0.00000000000E+00  0.00000000000E+00  0.14813044434E+04  0.14813044434E+04  0.25500000920E-02 0.  1.
       -2   -1    0    0    0  501  0.00000000000E+00  0.00000000000E+00 -0.55581427568E+03  0.55581427569E+03  0.25500000920E-02 0. -1.
    10030    2    1    2    0    0  0.00000000000E+00  0.00000000000E+00  0.92549016770E+03  0.20371187191E+04  0.18147508438E+04 0.  0.
        1    1    3    3  502    0 -0.54568025814E+03 -0.50729032673E+03  0.10441044830E+04  0.12826786780E+04  0.50400001928E-02 0.  1.
       -1    1    3    3    0  502  0.54568025814E+03  0.50729032673E+03 -0.11861431526E+03  0.75444004104E+03  0.50400001928E-02 0. -1.
</event>
<event>
 5   0  0.9610114E-04  0.1752356E+04  0.7818609E-02  0.8732054E-01
       -2   -1    0    0    0  501  0.00000000000E+00  0.00000000000E+00  0.37471613705E+03  0.37471613706E+03  0.25500000920E-02 0.  1.
        2   -1    0    0  501    0  0.00000000000E+00  0.00000000000E+00 -0.20487194046E+04  0.20487194046E+04  0.25500000920E-02 0. -1.
    10030    2    1    2    0    0  0.00000000000E+00  0.00000000000E+00 -0.16740032675E+04  0.24234355416E+04  0.17523563807E+04 0.  0.
        2    1    3    3  502    0 -0.22642536918E+03  0.45440182728E+03  0.15056872707E+03  0.52954736334E+03  0.25500000920E-02 0.  1.
       -2    1    3    3    0  502  0.22642536918E+03 -0.45440182728E+03 -0.18245719946E+04  0.18938881783E+04  0.25500000920E-02 0. -1.
</event>
<event>
 5   0  0.5035495E-04  0.1702821E+04  0.7818609E-02  0.8759757E-01
        1   -1    0    0  501    0  0.00000000000E+00  0.00000000000E+00  0.14297788692E+04  0.14297788692E+04  0.50400001928E-02 0. -1.
       -1   -1    0    0    0  501  0.00000000000E+00  0.00000000000E+00 -0.50700120639E+03  0.50700120642E+03  0.50400001928E-02 0.  1.
    10030    2    1    2    0    0  0.00000000000E+00  0.00000000000E+00  0.92277766284E+03  0.19367800757E+04  0.17028207323E+04 0.  0.
        4    1    3    3  502    0  0.24094117466E+03 -0.81179211433E+03  0.56209110569E+03  0.10163695738E+04  0.12699999809E+01 0.  1.
       -4    1    3    3    0  502 -0.24094117466E+03  0.81179211433E+03  0.36068655715E+03  0.92041050186E+03  0.12699999809E+01 0. -1.
</event>
<event>
 5   0  0.4947006E-04  0.1666406E+04  0.7818609E-02  0.8780760E-01
       -1   -1    0    0    0  501  0.00000000000E+00  0.00000000000E+00  0.57998789732E+03  0.57998789734E+03  0.50400001928E-02 0. -1.
        1   -1    0    0  501    0  0.00000000000E+00  0.00000000000E+00 -0.11969687486E+04  0.11969687486E+04  0.50400001928E-02 0.  1.
    10030    2    1    2    0    0  0.00000000000E+00  0.00000000000E+00 -0.61698085132E+03  0.17769566460E+04  0.16664061782E+04 0.  0.
        2    1    3    3  502    0 -0.23950877164E+03  0.68942730905E+03  0.12011076492E+03  0.73966280291E+03  0.25500000920E-02 0. -1.
       -2    1    3    3    0  502  0.23950877164E+03 -0.68942730905E+03 -0.73709161624E+03  0.10372938431E+04  0.25500000920E-02 0.  1.
</event>
<event>
 5   0  0.9284971E-04  0.1630994E+04  0.7818609E-02  0.8801730E-01
       -2   -1    0    0    0  501  0.00000000000E+00  0.00000000000E+00  0.44217939776E+03  0.44217939776E+03  0.25500000920E-02 0.  1.
        2   -1    0    0  501    0  0.00000000000E+00  0.00000000000E+00 -0.15039937756E+04  0.15039937756E+04  0.25500000920E-02 0. -1.
    10030    2    1    2    0    0  0.00000000000E+00  0.00000000000E+00 -0.10618143779E+04  0.19461731734E+04  0.16309936382E+04 0.  0.
        4    1    3    3  502    0  0.80100298885E+02 -0.69220117418E+03 -0.25395612230E+02  0.69728406940E+03  0.12699999809E+01 0.  1.
       -4    1    3    3    0  502 -0.80100298885E+02  0.69220117418E+03 -0.10364187656E+04  0.12488891040E+04  0.12699999809E+01 0. -1.
</event>
<event>
 5   0  0.9284971E-04  0.1699879E+04  0.7818609E-02  0.8761433E-01
        2   -1    0    0  501    0  0.00000000000E+00  0.00000000000E+00  0.13840423132E+04  0.13840423132E+04  0.25500000920E-02 0. -1.
       -2   -1    0    0    0  501  0.00000000000E+00  0.00000000000E+00 -0.52194717949E+03  0.52194717949E+03  0.25500000920E-02 0.  1.
    10030    2    1    2    0    0  0.00000000000E+00  0.00000000000E+00  0.86209513372E+03  0.19059894927E+04  0.16998787976E+04 0.  0.
        4    1    3    3  502    0 -0.50826073256E+03 -0.67934617592E+03  0.48772529396E+03  0.97863056066E+03  0.12699999809E+01 0.  1.
       -4    1    3    3    0  502  0.50826073256E+03  0.67934617592E+03  0.37436983976E+03  0.92735893203E+03  0.12699999809E+01 0. -1.
</event>
<event>
 5   0  0.5035495E-04  0.1743951E+04  0.7818609E-02  0.8736687E-01
        1   -1    0    0  501    0  0.00000000000E+00  0.00000000000E+00  0.12529637203E+04  0.12529637203E+04  0.50400001928E-02 0.  1.
       -1   -1    0    0    0  501  0.00000000000E+00  0.00000000000E+00 -0.60683409935E+03  0.60683409937E+03  0.50400001928E-02 0. -1.
    10030    2    1    2    0    0  0.00000000000E+00  0.00000000000E+00  0.64612962094E+03  0.18597978197E+04  0.17439508144E+04 0.  0.
        4    1    3    3  502    0 -0.69550757727E+03 -0.17240712423E+03 -0.20681626224E+03  0.74580800865E+03  0.12699999809E+01 0. -1.
       -4    1    3    3    0  502  0.69550757727E+03  0.17240712423E+03  0.85294588319E+03  0.11139898110E+04  0.12699999809E+01 0.  1.
</event>
<event>
 5   0  0.4947006E-04  0.1683717E+04  0.7818609E-02  0.8770706E-01
       -1   -1    0    0    0  501  0.00000000000E+00  0.00000000000E+00  0.41785239117E+03  0.41785239120E+03  0.50400001928E-02 0. -1.
        1   -1    0    0  501    0  0.00000000000E+00  0.00000000000E+00 -0.16961147864E+04  0.16961147865E+04  0.50400001928E-02 0.  1.
    10030    2    1    2    0    0  0.00000000000E+00  0.00000000000E+00 -0.12782623953E+04  0.21139671777E+04  0.16837168637E+04 0.  0.
        2    1    3    3  502    0 -0.11453768454E+02  0.55615424467E+03  0.15423136296E+03  0.57725734815E+03  0.25500000920E-02 0. -1.
       -2    1    3    3    0  502  0.11453768454E+02 -0.55615424467E+03 -0.14324937582E+04  0.15367098295E+04  0.25500000920E-02 0.  1.
</event>
<event>
 5   0  0.1007187E-03  0.1680816E+04  0.7818609E-02  0.8772382E-01
        2   -1    0    0  501    0  0.00000000000E+00  0.00000000000E+00  0.80055833513E+03  0.80055833513E+03  0.25500000920E-02 0.  1.
       -2   -1    0    0    0  501  0.00000000000E+00  0.00000000000E+00 -0.88224103141E+03  0.88224103142E+03  0.25500000920E-02 0. -1.
    10030    2    1    2    0    0  0.00000000000E+00  0.00000000000E+00 -0.81682696282E+02  0.16827993666E+04  0.16808157678E+04 0.  0.
        5    1    3    3  502    0  0.55274394839E+03 -0.52813612391E+03 -0.39026567209E+03  0.85836066002E+03  0.46999998093E+01 0. -1.
       -5    1    3    3    0  502 -0.55274394839E+03  0.52813612391E+03  0.30858297580E+03  0.82443870653E+03  0.46999998093E+01 0.  1.
</event>
<event>
 5   0  0.1007187E-03  0.1723513E+04  0.7818609E-02  0.8748066E-01
        2   -1    0    0  501    0  0.00000000000E+00  0.00000000000E+00  0.23731900629E+04  0.23731900629E+04  0.25500000920E-02 0.  1.
       -2   -1    0    0    0  501  0.00000000000E+00  0.00000000000E+00 -0.31292243705E+03  0.31292243706E+03  0.25500000920E-02 0. -1.
    10030    2    1    2    0    0  0.00000000000E+00  0.00000000000E+00  0.20602676259E+04  0.26861125000E+04  0.17235131773E+04 0.  0.
        5    1    3    3  502    0  0.46629081546E+03  0.13817687149E+03 -0.78581862324E+02  0.49266334498E+03  0.46999998093E+01 0. -1.
       -5    1    3    3    0  502 -0.46629081546E+03 -0.13817687149E+03  0.21388494882E+04  0.21934491550E+04  0.46999998093E+01 0.  1.
</event>
<event>
 5   0  0.5059689E-04  0.1644496E+04  0.7818609E-02  0.8793669E-01
        1   -1    0    0  501    0  0.00000000000E+00  0.00000000000E+00  0.14470864547E+04  0.14470864548E+04  0.50400001928E-02 0.  1.
       -1   -1    0    0    0  501  0.00000000000E+00  0.00000000000E+00 -0.46720925177E+03  0.46720925180E+03  0.50400001928E-02 0. -1.
    10030    2    1    2    0    0  0.00000000000E+00  0.00000000000E+00  0.97987720297E+03  0.19142957065E+04  0.16444964941E+04 0.  0.
        5    1    3    3  502    0  0.67722767346E+03  0.12935846584E+03  0.10114320368E+04  0.12240865122E+04  0.46999998093E+01 0.  1.
       -5    1    3    3    0  502 -0.67722767346E+03 -0.12935846584E+03 -0.31554833806E+02  0.69020919432E+03  0.46999998093E+01 0. -1.
</event>
<event>
 5   0  0.9610114E-04  0.1702732E+04  0.7818609E-02  0.8759808E-01
        2   -1    0    0  501    0  0.00000000000E+00  0.00000000000E+00  0.17662504585E+04  0.17662504585E+04  0.25500000920E-02 0. -1.
       -2   -1    0    0    0  501  0.00000000000E+00  0.00000000000E+00 -0.41037461264E+03  0.41037461265E+03  0.25500000920E-02 0.  1.
    10030    2    1    2    0    0  0.00000000000E+00  0.00000000000E+00  0.13558758459E+04  0.21766250712E+04  0.17027323310E+04 0.  0.
        2    1    3    3  502    0  0.46910333731E+03 -0.13694376368E+03  0.15691090430E+04  0.16434459907E+04  0.25500000920E-02 0. -1.
       -2    1    3    3    0  502 -0.46910333731E+03  0.13694376368E+03 -0.21323319713E+03  0.53317908047E+03  0.25500000920E-02 0.  1.
</event>
<event>
 5   0  0.5035495E-04  0.1422358E+04  0.7818609E-02  0.8937792E-01
        1   -1    0    0  501    0  0.00000000000E+00  0.00000000000E+00  0.14212870932E+04  0.14212870933E+04  0.50400001928E-02 0.  1.
       -1   -1    0    0    0  501  0.00000000000E+00  0.00000000000E+00 -0.35585730736E+03  0.35585730739E+03  0.50400001928E-02 0. -1.
    10030    2    1    2    0    0  0.00000000000E+00  0.00000000000E+00  0.10654297859E+04  0.17771444006E+04  0.14223577581E+04 0.  0.
        4    1    3    3  502    0  0.57449983208E+03  0.27791968774E+03  0.14061426422E+03  0.65350087536E+03  0.12699999809E+01 0. -1.
       -4    1    3    3    0  502 -0.57449983208E+03 -0.27791968774E+03  0.92481552167E+03  0.11236435253E+04  0.12699999809E+01 0.  1.
</event>
<event>
 5   0  0.9312096E-04  0.1699062E+04  0.7818609E-02  0.8761900E-01
       -2   -1    0    0    0  501  0.00000000000E+00  0.00000000000E+00  0.34647592487E+03  0.34647592488E+03  0.25500000920E-02 0.  1.
        2   -1    0    0  501    0  0.00000000000E+00  0.00000000000E+00 -0.20829814466E+04  0.20829814466E+04  0.25500000920E-02 0. -1.
    10030    2    1    2    0    0  0.00000000000E+00  0.00000000000E+00 -0.17365055218E+04  0.24294573715E+04  0.16990620038E+04 0.  0.
        3    1    3    3  502    0  0.32123038381E+03  0.34816184711E+03  0.14008979846E+03  0.49399472983E+03  0.10100000352E+00 0.  1.
       -3    1    3    3    0  502 -0.32123038381E+03 -0.34816184711E+03 -0.18765953202E+04  0.19354626417E+04  0.10100000352E+00 0. -1.
</event>
<event>
 5   0  0.3523125E-04  0.1709849E+04  0.7818609E-02  0.8755767E-01
       -4   -1    0    0    0  501  0.00000000000E+00  0.00000000000E+00  0.14484977853E+04  0.14484983420E+04  0.12699999809E+01 0. -1.
        4   -1    0    0  501    0  0.00000000000E+00  0.00000000000E+00 -0.50458767734E+03  0.50458927558E+03  0.12699999809E+01 0.  1.
    10030    2    1    2    0    0  0.00000000000E+00  0.00000000000E+00  0.94391010795E+03  0.19530876176E+04  0.17098493940E+04 0.  0.
        4    1    3    3  502    0  0.59184310995E+03  0.29307039620E+02 -0.23195476309E+03  0.63635037078E+03  0.12699999809E+01 0.  1.
       -4    1    3    3    0  502 -0.59184310995E+03 -0.29307039620E+02  0.11758648710E+04  0.13167372468E+04  0.12699999809E+01 0. -1.
</event>
<event>
 5   0  0.9610114E-04  0.1699978E+04  0.7818609E-02  0.8761377E-01
        2   -1    0    0  501    0  0.00000000000E+00  0.00000000000E+00  0.20939923803E+04  0.20939923803E+04  0.25500000920E-02 0. -1.
       -2   -1    0    0    0  501  0.00000000000E+00  0.00000000000E+00 -0.34502582779E+03  0.34502582779E+03  0.25500000920E-02 0.  1.
    10030    2    1    2    0    0  0.00000000000E+00  0.00000000000E+00  0.17489665525E+04  0.24390182081E+04  0.16999781815E+04 0.  0.
        2    1    3    3  502    0 -0.65281193879E+03 -0.46427536917E+03  0.46673974408E+03  0.92712514503E+03  0.25500000920E-02 0. -1.
       -2    1    3    3    0  502  0.65281193879E+03  0.46427536917E+03  0.12822268084E+04  0.15118930631E+04  0.25500000920E-02 0.  1.
</event>
<event>
 5   0  0.5009762E-04  0.1719609E+04  0.7818609E-02  0.8750259E-01
       -1   -1    0    0    0  501  0.00000000000E+00  0.00000000000E+00  0.60132333870E+03  0.60132333872E+03  0.50400001928E-02 0.  1.
        1   -1    0    0  501    0  0.00000000000E+00  0.00000000000E+00 -0.12293952876E+04  0.12293952877E+04  0.50400001928E-02 0. -1.
    10030    2    1    2    0    0  0.00000000000E+00  0.00000000000E+00 -0.62807194895E+03  0.18307186264E+04  0.17196093498E+04 0.  0.
        3    1    3    3  502    0  0.24967490270E+03  0.49723876682E+03 -0.10118897509E+04  0.11547747947E+04  0.10100000352E+00 0. -1.
       -3    1    3    3    0  502 -0.24967490270E+03 -0.49723876682E+03  0.38381780197E+03  0.67594383168E+03  0.10100000352E+00 0.  1.
</event>
<event>
 5   0  0.9610114E-04  0.1538365E+04  0.7818609E-02  0.8859334E-01
       -2   -1    0    0    0  501  0.00000000000E+00  0.00000000000E+00  0.77564609906E+03  0.77564609907E+03  0.25500000920E-02 0. -1.
        2   -1    0    0  501    0  0.00000000000E+00  0.00000000000E+00 -0.76277231838E+03  0.76277231838E+03  0.25500000920E-02 0.  1.
    10030    2    1    2    0    0  0.00000000000E+00  0.00000000000E+00  0.12873780684E+02  0.15384184175E+04  0.15383645514E+04 0.  0.
        2    1    3    3  502    0 -0.57599358331E+03 -0.50738001396E+03 -0.42943848828E+02  0.76879598122E+03  0.25500000920E-02 0.  1.
       -2    1    3    3    0  502  0.57599358331E+03  0.50738001396E+03  0.55817629512E+02  0.76962243623E+03  0.25500000920E-02 0. -1.
</event>
<event>
 5   0  0.5059689E-04  0.1728146E+04  0.7818609E-02  0.8745472E-01
        1   -1    0    0  501    0  0.00000000000E+00  0.00000000000E+00  0.21865437848E+04  0.21865437848E+04  0.50400001928E-02 0. -1.
       -1   -1    0    0    0  501  0.00000000000E+00  0.00000000000E+00 -0.34146228997E+03  0.34146229001E+03  0.50400001928E-02 0.  1.
    10030    2    1    2    0    0  0.00000000000E+00  0.00000000000E+00  0.18450814948E+04  0.25280060748E+04  0.17281461141E+04 0.  0.
        5    1    3    3  502    0 -0.65424404061E+03  0.56012149724E+03  0.82088841825E+03  0.11898114311E+04  0.46999998093E+01 0.  1.
       -5    1    3    3    0  502  0.65424404061E+03 -0.56012149724E+03  0.10241930765E+04  0.13381946437E+04  0.46999998093E+01 0. -1.
</event>
<event>
 5   0  0.5035495E-04  0.1836845E+04  0.7818609E-02  0.8686947E-01
       -1   -1    0    0    0  501  0.00000000000E+00  0.00000000000E+00  0.82621683508E+03  0.82621683509E+03  0.50400001928E-02 0.  1.
        1   -1    0    0  501    0  0.00000000000E+00  0.00000000000E+00 -0.10209188511E+04  0.10209188511E+04  0.50400001928E-02 0. -1.
    10030    2    1    2    0    0  0.00000000000E+00  0.00000000000E+00 -0.19470201598E+03  0.18471356862E+04  0.18368454938E+04 0.  0.
        4    1    3    3  502    0 -0.81350483369E+03 -0.29824534486E+03  0.20891770233E+03  0.89128481386E+03  0.12699999809E+01 0. -1.
       -4    1    3    3    0  502  0.81350483369E+03  0.29824534486E+03 -0.40361971831E+03  0.95585087230E+03  0.12699999809E+01 0.  1.
</event>
<event>
 5   0  0.9312096E-04  0.1627766E+04  0.7818609E-02  0.8803670E-01
        2   -1    0    0  501    0  0.00000000000E+00  0.00000000000E+00  0.18368612891E+04  0.18368612891E+04  0.25500000920E-02 0.  1.
       -2   -1    0    0    0  501  0.00000000000E+00  0.00000000000E+00 -0.36061813842E+03  0.36061813843E+03  0.25500000920E-02 0. -1.
    10030    2    1    2    0    0  0.00000000000E+00  0.00000000000E+00  0.14762431507E+04  0.21974794275E+04  0.16277659520E+04 0.  0.
        3    1    3    3  502    0  0.43318462508E+03  0.48027716615E+03  0.14050945220E+04  0.15468049980E+04  0.10100000352E+00 0.  1.
       -3    1    3    3    0  502 -0.43318462508E+03 -0.48027716615E+03  0.71148628668E+02  0.65067442957E+03  0.10100000352E+00 0. -1.
</event>
<event>
 5   0  0.5009762E-04  0.1642998E+04  0.7818609E-02  0.8794559E-01
       -1   -1    0    0    0  501  0.00000000000E+00  0.00000000000E+00  0.41757218091E+03  0.41757218094E+03  0.50400001928E-02 0.  1.
        1   -1    0    0  501    0  0.00000000000E+00  0.00000000000E+00 -0.16161540869E+04  0.16161540869E+04  0.50400001928E-02 0. -1.
    10030    2    1    2    0    0  0.00000000000E+00  0.00000000000E+00 -0.11985819060E+04  0.20337262679E+04  0.16429984623E+04 0.  0.
        3    1    3    3  502    0  0.81981977201E+01  0.65289747232E+03  0.17779625313E+02  0.65319097137E+03  0.10100000352E+00 0.  1.
       -3    1    3    3    0  502 -0.81981977201E+01 -0.65289747232E+03 -0.12163615313E+04  0.13805352965E+04  0.10100000352E+00 0. -1.
</event>
<event>
 5   0  0.4947006E-04  0.1759841E+04  0.7818609E-02  0.8727952E-01
       -1   -1    0    0    0  501  0.00000000000E+00  0.00000000000E+00  0.87019006295E+03  0.87019006297E+03  0.50400001928E-02 0. -1.
        1   -1    0    0  501    0  0.00000000000E+00  0.00000000000E+00 -0.88975924944E+03  0.88975924945E+03  0.50400001928E-02 0.  1.
    10030    2    1    2    0    0  0.00000000000E+00  0.00000000000E+00 -0.19569186484E+02  0.17599493124E+04  0.17598405124E+04 0.  0.
        2    1    3    3  502    0 -0.49700663289E+02 -0.70630460768E+03 -0.53223750966E+03  0.88578390224E+03  0.25500000920E-02 0.  1.
       -2    1    3    3    0  502  0.49700663289E+02  0.70630460768E+03  0.51266832318E+03  0.87416541018E+03  0.25500000920E-02 0. -1.
</event>
<event>
 5   0  0.4947006E-04  0.1645204E+04  0.7818609E-02  0.8793249E-01
        1   -1    0    0  501    0  0.00000000000E+00  0.00000000000E+00  0.11603717036E+04  0.11603717036E+04  0.50400001928E-02 0.  1.
       -1   -1    0    0    0  501  0.00000000000E+00  0.00000000000E+00 -0.58315257762E+03  0.58315257764E+03  0.50400001928E-02 0. -1.
    10030    2    1    2    0    0  0.00000000000E+00  0.00000000000E+00  0.57721912596E+03  0.17435242812E+04  0.16452036348E+04 0.  0.
        2    1    3    3  502    0 -0.45627767796E+03 -0.22115212901E+03  0.97506720614E+03  0.10990239488E+04  0.25500000920E-02 0.  1.
       -2    1    3    3    0  502  0.45627767796E+03  0.22115212901E+03 -0.39784808018E+03  0.64450033241E+03  0.25500000920E-02 0. -1.
</event>
<event>
 5   0  0.9284971E-04  0.1696579E+04  0.7818609E-02  0.8763318E-01
       -2   -1    0    0    0  501  0.00000000000E+00  0.00000000000E+00  0.81564738464E+03  0.81564738464E+03  0.25500000920E-02 0.  1.
        2   -1    0    0  501    0  0.00000000000E+00  0.00000000000E+00 -0.88223830746E+03  0.88223830746E+03  0.25500000920E-02 0. -1.
    10030    2    1    2    0    0  0.00000000000E+00  0.00000000000E+00 -0.66590922822E+02  0.16978856921E+04  0.16965793446E+04 0.  0.
        4    1    3    3  502    0 -0.18893439189E+03 -0.73432264238E+03  0.34734962090E+03  0.83401398045E+03  0.12699999809E+01 0.  1.
       -4    1    3    3    0  502  0.18893439189E+03  0.73432264238E+03 -0.41394054372E+03  0.86387171165E+03  0.12699999809E+01 0. -1.
</event>
<event>
 5   0  0.5074133E-04  0.1674869E+04  0.7818609E-02  0.8775829E-01
        1   -1    0    0  501    0  0.00000000000E+00  0.00000000000E+00  0.14885952482E+04  0.14885952482E+04  0.50400001928E-02 0. -1.
       -1   -1    0    0    0  501  0.00000000000E+00  0.00000000000E+00 -0.47111292100E+03  0.47111292103E+03  0.50400001928E-02 0.  1.
    10030    2    1    2    0    0  0.00000000000E+00  0.00000000000E+00  0.10174823272E+04  0.19597081693E+04  0.16748688971E+04 0.  0.
        1    1    3    3  502    0 -0.46535856526E+03 -0.15870973185E+03 -0.28444757018E+03  0.56802974698E+03  0.50400001928E-02 0.  1.
       -1    1    3    3    0  502  0.46535856526E+03  0.15870973185E+03  0.13019298974E+04  0.13916784223E+04  0.50400001928E-02 0. -1.
</event>
<event>
 5   0  0.5074133E-04  0.1709272E+04  0.7818609E-02  0.8756094E-01
        1   -1    0    0  501    0  0.00000000000E+00  0.00000000000E+00  0.65889105342E+03  0.65889105344E+03  0.50400001928E-02 0. -1.
       -1   -1    0    0    0  501  0.00000000000E+00  0.00000000000E+00 -0.11085335667E+04  0.11085335667E+04  0.50400001928E-02 0.  1.
    10030    2    1    2    0    0  0.00000000000E+00  0.00000000000E+00 -0.44964251327E+03  0.17674246201E+04  0.17092721838E+04 0.  0.
        1    1    3    3  502    0 -0.74401537865E+03  0.92553512462E+02 -0.64899433898E+03  0.99162426775E+03  0.50400001928E-02 0.  1.
       -1    1    3    3    0  502  0.74401537865E+03 -0.92553512462E+02  0.19935182571E+03  0.77580035239E+03  0.50400001928E-02 0. -1.
</event>
<event>
 5   0  0.1007187E-03  0.1696494E+04  0.7818609E-02  0.8763367E-01
        2   -1    0    0  501    0  0.00000000000E+00  0.00000000000E+00  0.63808464746E+03  0.63808464747E+03  0.25500000920E-02 0.  1.
       -2   -1    0    0    0  501  0.00000000000E+00  0.00000000000E+00 -0.11276291174E+04  0.11276291174E+04  0.25500000920E-02 0. -1.
    10030    2    1    2    0    0  0.00000000000E+00  0.00000000000E+00 -0.48954446995E+03  0.17657137649E+04  0.16964938289E+04 0.  0.
        5    1    3    3  502    0  0.24703001069E+03 -0.19003981557E+03  0.57631533121E+03  0.65521020190E+03  0.46999998093E+01 0.  1.
       -5    1    3    3    0  502 -0.24703001069E+03  0.19003981557E+03 -0.10658598012E+04  0.11105035630E+04  0.46999998093E+01 0. -1.
</event>
<event>
 5   0  0.9625225E-04  0.1702357E+04  0.7818609E-02  0.8760021E-01
       -2   -1    0    0    0  501  0.00000000000E+00  0.00000000000E+00  0.52277959149E+03  0.52277959150E+03  0.25500000920E-02 0.  1.
        2   -1    0    0  501    0  0.00000000000E+00  0.00000000000E+00 -0.13858707622E+04  0.13858707622E+04  0.25500000920E-02 0. -1.
    10030    2    1    2    0    0  0.00000000000E+00  0.00000000000E+00 -0.86309117073E+03  0.19086503537E+04  0.17023571317E+04 0.  0.
        1    1    3    3  502    0  0.90409270812E+02  0.61948517439E+03 -0.10781173530E+04  0.12467047543E+04  0.50400001928E-02 0. -1.
       -1    1    3    3    0  502 -0.90409270812E+02 -0.61948517439E+03  0.21502618225E+03  0.66194559944E+03  0.50400001928E-02 0.  1.
</event>
<event>
 5   0  0.9625225E-04  0.1657073E+04  0.7818609E-02  0.8786233E-01
        2   -1    0    0  501    0  0.00000000000E+00  0.00000000000E+00  0.15938253626E+04  0.15938253626E+04  0.25500000920E-02 0.  1.
       -2   -1    0    0    0  501  0.00000000000E+00  0.00000000000E+00 -0.43070754322E+03  0.43070754323E+03  0.25500000920E-02 0. -1.
    10030    2    1    2    0    0  0.00000000000E+00  0.00000000000E+00  0.11631178194E+04  0.20245329059E+04  0.16570728485E+04 0.  0.
        1    1    3    3  502    0  0.10060288065E+03 -0.36908223499E+03  0.14794680171E+04  0.15281257309E+04  0.50400001928E-02 0.  1.
       -1    1    3    3    0  502 -0.10060288065E+03  0.36908223499E+03 -0.31635019768E+03  0.49640717498E+03  0.50400001928E-02 0. -1.
</event>
<event>
 5   0  0.5009762E-04  0.1712708E+04  0.7818609E-02  0.8754149E-01
       -1   -1    0    0    0  501  0.00000000000E+00  0.00000000000E+00  0.68707474846E+03  0.68707474847E+03  0.50400001928E-02 0.  1.
        1   -1    0    0  501    0  0.00000000000E+00  0.00000000000E+00 -0.10673402594E+04  0.10673402594E+04  0.50400001928E-02 0. -1.
    10030    2    1    2    0    0  0.00000000000E+00  0.00000000000E+00 -0.38026551094E+03  0.17544150079E+04  0.17127084285E+04 0.  0.
        3    1    3    3  502    0 -0.30606142679E+02  0.37424249210E+03 -0.97851619085E+03  0.10480878421E+04  0.10100000352E+00 0. -1.
       -3    1    3    3    0  502  0.30606142679E+02 -0.37424249210E+03  0.59825067991E+03  0.70632716575E+03  0.10100000352E+00 0.  1.
</event>
<event>
 5   0  0.1007187E-03  0.1618875E+04  0.7818609E-02  0.8809035E-01
        2   -1    0    0  501    0  0.00000000000E+00  0.00000000000E+00  0.13289231497E+04  0.13289231497E+04  0.25500000920E-02 0. -1.
       -2   -1    0    0    0  501  0.00000000000E+00  0.00000000000E+00 -0.49302277610E+03  0.49302277611E+03  0.25500000920E-02 0.  1.
    10030    2    1    2    0    0  0.00000000000E+00  0.00000000000E+00  0.83590037364E+03  0.18219459259E+04  0.16188753881E+04 0.  0.
        5    1    3    3  502    0 -0.43097309185E+03 -0.66355880091E+03  0.60999907622E+03  0.99908410615E+03  0.46999998093E+01 0.  1.
       -5    1    3    3    0  502  0.43097309185E+03  0.66355880091E+03  0.22590129742E+03  0.82286181971E+03  0.46999998093E+01 0. -1.
</event>
<event>
 5   0  0.9610114E-04  0.1715270E+04  0.7818609E-02  0.8752703E-01
       -2   -1    0    0    0  501  0.00000000000E+00  0.00000000000E+00  0.44614112539E+03  0.44614112540E+03  0.25500000920E-02 0.  1.
        2   -1    0    0  501    0  0.00000000000E+00  0.00000000000E+00 -0.16486655444E+04  0.16486655444E+04  0.25500000920E-02 0. -1.
    10030    2    1    2    0    0  0.00000000000E+00  0.00000000000E+00 -0.12025244190E+04  0.20948066698E+04  0.17152696597E+04 0.  0.
        2    1    3    3  502    0  0.35977098425E+03 -0.62392487934E+03 -0.11699334926E+04  0.13738492614E+04  0.25500000920E-02 0. -1.
       -2    1    3    3    0  502 -0.35977098425E+03  0.62392487934E+03 -0.32590926455E+02  0.72095740835E+03  0.25500000920E-02 0.  1.
</event>
<event>
 5   0  0.5059689E-04  0.1735517E+04  0.7818609E-02  0.8741363E-01
        1   -1    0    0  501    0  0.00000000000E+00  0.00000000000E+00  0.13184568633E+04  0.13184568633E+04  0.50400001928E-02 0. -1.
       -1   -1    0    0    0  501  0.00000000000E+00  0.00000000000E+00 -0.57112571497E+03  0.57112571499E+03  0.50400001928E-02 0.  1.
    10030    2    1    2    0    0  0.00000000000E+00  0.00000000000E+00  0.74733114832E+03  0.18895825783E+04  0.17355167746E+04 0.  0.
        5    1    3    3  502    0  0.52654396597E+03 -0.29687025635E+03 -0.30417893555E+03  0.67670334123E+03  0.46999998093E+01 0.  1.
       -5    1    3    3    0  502 -0.52654396597E+03  0.29687025635E+03  0.10515100839E+04  0.12128792371E+04  0.46999998093E+01 0. -1.
</event>
<event>
 5   0  0.9625225E-04  0.1658005E+04  0.7818609E-02  0.8785685E-01
        2   -1    0    0  501    0  0.00000000000E+00  0.00000000000E+00  0.24245461442E+04  0.24245461442E+04  0.25500000920E-02 0.  1.
       -2   -1    0    0    0  501  0.00000000000E+00  0.00000000000E+00 -0.28345308521E+03  0.28345308522E+03  0.25500000920E-02 0. -1.
    10030    2    1    2    0    0  0.00000000000E+00  0.00000000000E+00  0.21410930590E+04  0.27079992294E+04  0.16580049274E+04 0.  0.
        1    1    3    3  502    0  0.64113228637E+03  0.15741559527E+03  0.18894979584E+04  0.20015076351E+04  0.50400001928E-02 0.  1.
       -1    1    3    3    0  502 -0.64113228637E+03 -0.15741559527E+03  0.25159510055E+03  0.70649159436E+03  0.50400001928E-02 0. -1.
</event>
<event>
 5   0  0.9284971E-04  0.1748081E+04  0.7818609E-02  0.8734407E-01
        2   -1    0    0  501    0  0.00000000000E+00  0.00000000000E+00  0.18708163578E+04  0.18708163578E+04  0.25500000920E-02 0.  1.
       -2   -1    0    0    0  501  0.00000000000E+00  0.00000000000E+00 -0.40834965415E+03  0.40834965416E+03  0.25500000920E-02 0. -1.
    10030    2    1    2    0    0  0.00000000000E+00  0.00000000000E+00  0.14624667036E+04  0.22791660120E+04  0.17480814772E+04 0.  0.
        4    1    3    3  502    0 -0.40102248596E+03 -0.51246549436E+01  0.17437660625E+04  0.17892923154E+04  0.12699999809E+01 0.  1.
       -4    1    3    3    0  502  0.40102248596E+03  0.51246549436E+01 -0.28129935889E+03  0.48987369652E+03  0.12699999809E+01 0. -1.
</event>
<event>
 5   0  0.9625225E-04  0.1672464E+04  0.7818609E-02  0.8777227E-01
       -2   -1    0    0    0  501  0.00000000000E+00  0.00000000000E+00  0.58617447912E+03  0.58617447913E+03  0.25500000920E-02 0. -1.
        2   -1    0    0  501    0  0.00000000000E+00  0.00000000000E+00 -0.11929617004E+04  0.11929617004E+04  0.25500000920E-02 0.  1.
    10030    2    1    2    0    0  0.00000000000E+00  0.00000000000E+00 -0.60678722132E+03  0.17791361796E+04  0.16724636957E+04 0.  0.
        1    1    3    3  502    0 -0.31542403455E+03 -0.75814303210E+02  0.51650781757E+03  0.60993479634E+03  0.50400001928E-02 0. -1.
       -1    1    3    3    0  502  0.31542403455E+03  0.75814303210E+02 -0.11232950389E+04  0.11692013832E+04  0.50400001928E-02 0.  1.
</event>
<event>
 5   0  0.9610114E-04  0.1671865E+04  0.7818609E-02  0.8777575E-01
        2   -1    0    0  501    0  0.00000000000E+00  0.00000000000E+00  0.60170144017E+03  0.60170144017E+03  0.25500000920E-02 0.  1.
       -2   -1    0    0    0  501  0.00000000000E+00  0.00000000000E+00 -0.11613457705E+04  0.11613457705E+04  0.25500000920E-02 0. -1.
    10030    2    1    2    0    0  0.00000000000E+00  0.00000000000E+00 -0.55964433037E+03  0.17630472107E+04  0.16718653327E+04 0.  0.
        2    1    3    3  502    0  0.34415801437E+03 -0.56323311984E+03 -0.82073708868E+03  0.10532263075E+04  0.25500000920E-02 0. -1.
       -2    1    3    3    0  502 -0.34415801437E+03  0.56323311984E+03  0.26109275831E+03  0.70982090318E+03  0.25500000920E-02 0.  1.
</event>
<event>
 5   0  0.4947006E-04  0.1792009E+04  0.7818609E-02  0.8710561E-01
       -1   -1    0    0    0  501  0.00000000000E+00  0.00000000000E+00  0.33021369465E+03  0.33021369469E+03  0.50400001928E-02 0.  1.
        1   -1    0    0  501    0  0.00000000000E+00  0.00000000000E+00 -0.24312258440E+04  0.24312258440E+04  0.50400001928E-02 0. -1.
    10030    2    1    2    0    0  0.00000000000E+00  0.00000000000E+00 -0.21010121493E+04  0.27614395387E+04  0.17920090050E+04 0.  0.
        2    1    3    3  502    0 -0.39459933990E+03  0.79820400631E+03 -0.12044939929E+04  0.14978798529E+04  0.25500000920E-02 0. -1.
       -2    1    3    3    0  502  0.39459933990E+03 -0.79820400631E+03 -0.89651815644E+03  0.12635596858E+04  0.25500000920E-02 0.  1.
</event>
<event>
 5   0  0.4947006E-04  0.1737397E+04  0.7818609E-02  0.8740319E-01
        1   -1    0    0  501    0  0.00000000000E+00  0.00000000000E+00  0.56178950097E+03  0.56178950099E+03  0.50400001928E-02 0.  1.
       -1   -1    0    0    0  501  0.00000000000E+00  0.00000000000E+00 -0.13432730092E+04  0.13432730092E+04  0.50400001928E-02 0. -1.
    10030    2    1    2    0    0  0.00000000000E+00  0.00000000000E+00 -0.78148350819E+03  0.19050625102E+04  0.17373965276E+04 0.  0.
        2    1    3    3  502    0  0.80918360523E+03  0.30881674617E+03 -0.31726138047E+03  0.92238856955E+03  0.25500000920E-02 0. -1.
       -2    1    3    3    0  502 -0.80918360523E+03 -0.30881674617E+03 -0.46422212772E+03  0.98267394061E+03  0.25500000920E-02 0.  1.
</event>
<event>
 5   0  0.9625225E-04  0.1625333E+04  0.7818609E-02  0.8805134E-01
        2   -1    0    0  501    0  0.00000000000E+00  0.00000000000E+00  0.21171779091E+04  0.21171779091E+04  0.25500000920E-02 0. -1.
       -2   -1    0    0    0  501  0.00000000000E+00  0.00000000000E+00 -0.31193752190E+03  0.31193752191E+03  0.25500000920E-02 0.  1.
    10030    2    1    2    0    0  0.00000000000E+00  0.00000000000E+00  0.18052403872E+04  0.24291154310E+04  0.16253334801E+04 0.  0.
        1    1    3    3  502    0 -0.68298660304E+03  0.21904854114E+03  0.33161005020E+03  0.79020135961E+03  0.50400001928E-02 0.  1.
       -1    1    3    3    0  502  0.68298660304E+03 -0.21904854114E+03  0.14736303370E+04  0.16389140714E+04  0.50400001928E-02 0. -1.
</event>
<event>
 5   0  0.5074133E-04  0.1676935E+04  0.7818609E-02  0.8774629E-01
       -1   -1    0    0    0  501  0.00000000000E+00  0.00000000000E+00  0.13344584984E+04  0.13344584984E+04  0.50400001928E-02 0. -1.
        1   -1    0    0  501    0  0.00000000000E+00  0.00000000000E+00 -0.52682638067E+03  0.52682638069E+03  0.50400001928E-02 0.  1.
    10030    2    1    2    0    0  0.00000000000E+00  0.00000000000E+00  0.80763211771E+03  0.18612848791E+04  0.16769352294E+04 0.  0.
        1    1    3    3  502    0 -0.51166087193E+03 -0.23192136800E+03  0.10946931477E+04  0.12304216580E+04  0.50400001928E-02 0. -1.
       -1    1    3    3    0  502  0.51166087193E+03  0.23192136800E+03 -0.28706102997E+03  0.63086322111E+03  0.50400001928E-02 0.  1.
</event>
<event>
 5   0  0.5059689E-04  0.1627202E+04  0.7818609E-02  0.8804009E-01
        1   -1    0    0  501    0  0.00000000000E+00  0.00000000000E+00  0.68226250901E+03  0.68226250902E+03  0.50400001928E-02 0.  1.
       -1   -1    0    0    0  501  0.00000000000E+00  0.00000000000E+00 -0.97022268435E+03  0.97022268436E+03  0.50400001928E-02 0. -1.
    10030    2    1    2    0    0  0.00000000000E+00  0.00000000000E+00 -0.28796017534E+03  0.16524851934E+04  0.16272019702E+04 0.  0.
        5    1    3    3  502    0  0.44109908632E+02 -0.81234125743E+03 -0.15308999865E+03  0.82783007934E+03  0.46999998093E+01 0.  1.
       -5    1    3    3    0  502 -0.44109908632E+02  0.81234125743E+03 -0.13487017669E+03  0.82465511405E+03  0.46999998093E+01 0. -1.
</event>
<event>
 5   0  0.9625225E-04  0.1687508E+04  0.7818609E-02  0.8768521E-01
       -2   -1    0    0    0  501  0.00000000000E+00  0.00000000000E+00  0.39794459138E+03  0.39794459138E+03  0.25500000920E-02 0.  1.
        2   -1    0    0  501    0  0.00000000000E+00  0.00000000000E+00 -0.17889955949E+04  0.17889955949E+04  0.25500000920E-02 0. -1.
    10030    2    1    2    0    0  0.00000000000E+00  0.00000000000E+00 -0.13910510036E+04  0.21869401863E+04  0.16875083656E+04 0.  0.
        1    1    3    3  502    0 -0.18583043099E+03 -0.81356634112E+03 -0.85686047662E+03  0.11960907227E+04  0.50400001928E-02 0. -1.
       -1    1    3    3    0  502  0.18583043099E+03  0.81356634112E+03 -0.53419052693E+03  0.99084946363E+03  0.50400001928E-02 0.  1.
</event>
<event>
 5   0  0.5035495E-04  0.1475882E+04  0.7818609E-02  0.8900651E-01
       -1   -1    0    0    0  501  0.00000000000E+00  0.00000000000E+00  0.53066155900E+03  0.53066155902E+03  0.50400001928E-02 0.  1.
        1   -1    0    0  501    0  0.00000000000E+00  0.00000000000E+00 -0.10261853060E+04  0.10261853060E+04  0.50400001928E-02 0. -1.
    10030    2    1    2    0    0  0.00000000000E+00  0.00000000000E+00 -0.49552374695E+03  0.15568468650E+04  0.14758822369E+04 0.  0.
        4    1    3    3  502    0  0.54387984709E+03  0.42981296121E+03 -0.51464525787E+03  0.86336888064E+03  0.12699999809E+01 0. -1.
       -4    1    3    3    0  502 -0.54387984709E+03 -0.42981296121E+03  0.19121510923E+02  0.69347798435E+03  0.12699999809E+01 0.  1.
</event>
<event>
 5   0  0.9610114E-04  0.1659854E+04  0.7818609E-02  0.8784598E-01
        2   -1    0    0  501    0  0.00000000000E+00  0.00000000000E+00  0.99090087379E+03  0.99090087379E+03  0.25500000920E-02 0.  1.
       -2   -1    0    0    0  501  0.00000000000E+00  0.00000000000E+00 -0.69510349252E+03  0.69510349252E+03  0.25500000920E-02 0. -1.
    10030    2    1    2    0    0  0.00000000000E+00  0.00000000000E+00  0.29579738127E+03  0.16860043663E+04  0.16598537985E+04 0.  0.
        2    1    3    3  502    0  0.50546776483E+03 -0.18575502976E+03 -0.49353741257E+03  0.73046681648E+03  0.25500000920E-02 0. -1.
       -2    1    3    3    0  502 -0.50546776483E+03  0.18575502976E+03  0.78933479384E+03  0.95553754984E+03  0.25500000920E-02 0.  1.
</event>
<event>
 5   0  0.5035495E-04  0.1696770E+04  0.7818609E-02  0.8763209E-01
       -1   -1    0    0    0  501  0.00000000000E+00  0.00000000000E+00  0.12573933079E+04  0.12573933079E+04  0.50400001928E-02 0.  1.
        1   -1    0    0  501    0  0.00000000000E+00  0.00000000000E+00 -0.57241979031E+03  0.57241979033E+03  0.50400001928E-02 0. -1.
    10030    2    1    2    0    0  0.00000000000E+00  0.00000000000E+00  0.68497351758E+03  0.18298130982E+04  0.16967696528E+04 0.  0.
        4    1    3    3  502    0 -0.71162613416E+03 -0.37151809653E+03  0.63844641389E+03  0.10256962938E+04  0.12699999809E+01 0.  1.
       -4    1    3    3    0  502  0.71162613416E+03  0.37151809653E+03  0.46527103694E+02  0.80411680441E+03  0.12699999809E+01 0. -1.
</event>
<event>
 5   0  0.5074133E-04  0.1774829E+04  0.7818609E-02  0.8719801E-01
       -1   -1    0    0    0  501  0.00000000000E+00  0.00000000000E+00  0.55795281197E+03  0.55795281199E+03  0.50400001928E-02 0. -1.
        1   -1    0    0  501    0  0.00000000000E+00  0.00000000000E+00 -0.14114177181E+04  0.14114177181E+04  0.50400001928E-02 0.  1.
    10030    2    1    2    0    0  0.00000000000E+00  0.00000000000E+00 -0.85346490614E+03  0.19693705301E+04  0.17748289886E+04 0.  0.
        1    1    3    3  502    0 -0.69705318426E+03 -0.42930404459E+03 -0.46669269899E+02  0.81997751504E+03  0.50400001928E-02 0.  1.
       -1    1    3    3    0  502  0.69705318426E+03  0.42930404459E+03 -0.80679563624E+03  0.11493930151E+04  0.50400001928E-02 0. -1.
</event>
<event>
 5   0  0.1007187E-03  0.2355099E+04  0.7818609E-02  0.8456508E-01
        2   -1    0    0  501    0  0.00000000000E+00  0.00000000000E+00  0.19848685246E+04  0.19848685246E+04  0.25500000920E-02 0.  1.
       -2   -1    0    0    0  501  0.00000000000E+00  0.00000000000E+00 -0.69859674702E+03  0.69859674702E+03  0.25500000920E-02 0. -1.
    10030    2    1    2    0    0  0.00000000000E+00  0.00000000000E+00  0.12862717776E+04  0.26834652716E+04  0.23550988893E+04 0.  0.
        5    1    3    3  502    0 -0.14059414235E+03 -0.38957992594E+03 -0.61285340939E+03  0.73969630455E+03  0.46999998093E+01 0. -1.
       -5    1    3    3    0  502  0.14059414235E+03  0.38957992594E+03  0.18991251870E+04  0.19437689671E+04  0.46999998093E+01 0.  1.
</event>
<event>
 5   0  0.5009762E-04  0.1662337E+04  0.7818609E-02  0.8783142E-01
       -1   -1    0    0    0  501  0.00000000000E+00  0.00000000000E+00  0.53998737764E+03  0.53998737767E+03  0.50400001928E-02 0.  1.
        1   -1    0    0  501    0  0.00000000000E+00  0.00000000000E+00 -0.12793645164E+04  0.12793645164E+04  0.50400001928E-02 0. -1.
    10030    2    1    2    0    0  0.00000000000E+00  0.00000000000E+00 -0.73937713875E+03  0.18193518941E+04  0.16623365367E+04 0.  0.
        3    1    3    3  502    0 -0.48130905115E+03  0.13070288437E+03 -0.10973972232E+04  0.12054137557E+04  0.10100000352E+00 0. -1.
       -3    1    3    3    0  502  0.48130905115E+03 -0.13070288437E+03  0.35802008445E+03  0.61393813839E+03  0.10100000352E+00 0.  1.
</event>
<event>
 5   0  0.5009762E-04  0.9894619E+03  0.7818609E-02  0.9320179E-01
       -1   -1    0    0    0  501  0.00000000000E+00  0.00000000000E+00  0.34018624517E+03  0.34018624521E+03  0.50400001928E-02 0. -1.
        1   -1    0    0  501    0  0.00000000000E+00  0.00000000000E+00 -0.71948437607E+03  0.71948437609E+03  0.50400001928E-02 0.  1.
    10030    2    1    2    0    0  0.00000000000E+00  0.00000000000E+00 -0.37929813090E+03  0.10596706213E+04  0.98946185048E+03 0.  0.
        3    1    3    3  502    0  0.33963601464E+02  0.49010204382E+02  0.33632378682E+03  0.34156877220E+03  0.10100000352E+00 0. -1.
       -3    1    3    3    0  502 -0.33963601464E+02 -0.49010204382E+02 -0.71562191772E+03  0.71810184910E+03  0.10100000352E+00 0.  1.
</event>
<event>
 5   0  0.9610114E-04  0.1781179E+04  0.7818609E-02  0.8716373E-01
        2   -1    0    0  501    0  0.00000000000E+00  0.00000000000E+00  0.15134982410E+04  0.15134982410E+04  0.25500000920E-02 0. -1.
       -2   -1    0    0    0  501  0.00000000000E+00  0.00000000000E+00 -0.52405042526E+03  0.52405042526E+03  0.25500000920E-02 0.  1.
    10030    2    1    2    0    0  0.00000000000E+00  0.00000000000E+00  0.98944781576E+03  0.20375486663E+04  0.17811787073E+04 0.  0.
        2    1    3    3  502    0  0.78761850658E+03  0.99722884041E+02  0.95637105144E+03  0.12429533996E+04  0.25500000920E-02 0. -1.
       -2    1    3    3    0  502 -0.78761850658E+03 -0.99722884041E+02  0.33076764314E+02  0.79459526669E+03  0.25500000920E-02 0.  1.
</event>
<event>
 5   0  0.9284971E-04  0.1677094E+04  0.7818609E-02  0.8774537E-01
        2   -1    0    0  501    0  0.00000000000E+00  0.00000000000E+00  0.11790955882E+04  0.11790955882E+04  0.25500000920E-02 0.  1.
       -2   -1    0    0    0  501  0.00000000000E+00  0.00000000000E+00 -0.59635644341E+03  0.59635644342E+03  0.25500000920E-02 0. -1.
    10030    2    1    2    0    0  0.00000000000E+00  0.00000000000E+00  0.58273914480E+03  0.17754520316E+04  0.16770942149E+04 0.  0.
        4    1    3    3  502    0 -0.18363690472E+03  0.60415371254E+03  0.87548552912E+03  0.10794446469E+04  0.12699999809E+01 0.  1.
       -4    1    3    3    0  502  0.18363690472E+03 -0.60415371254E+03 -0.29274638432E+03  0.69600738472E+03  0.12699999809E+01 0. -1.
</event>
<event>
 5   0  0.5009762E-04  0.1722869E+04  0.7818609E-02  0.8748428E-01
        1   -1    0    0  501    0  0.00000000000E+00  0.00000000000E+00  0.86978838475E+03  0.86978838477E+03  0.50400001928E-02 0. -1.
       -1   -1    0    0    0  501  0.00000000000E+00  0.00000000000E+00 -0.85316087665E+03  0.85316087667E+03  0.50400001928E-02 0.  1.
    10030    2    1    2    0    0  0.00000000000E+00  0.00000000000E+00  0.16627508103E+02  0.17229492614E+04  0.17228690268E+04 0.  0.
        3    1    3    3  502    0 -0.16099003604E+03  0.33888640902E+03 -0.76716263391E+03  0.85399081200E+03  0.10100000352E+00 0.  1.
       -3    1    3    3    0  502  0.16099003604E+03 -0.33888640902E+03  0.78379014201E+03  0.86895844943E+03  0.10100000352E+00 0. -1.
</event>
<event>
 5   0  0.9610114E-04  0.1492063E+04  0.7818609E-02  0.8889748E-01
       -2   -1    0    0    0  501  0.00000000000E+00  0.00000000000E+00  0.44151319002E+03  0.44151319003E+03  0.25500000920E-02 0. -1.
        2   -1    0    0  501    0  0.00000000000E+00  0.00000000000E+00 -0.12605810821E+04  0.12605810821E+04  0.25500000920E-02 0.  1.
    10030    2    1    2    0    0  0.00000000000E+00  0.00000000000E+00 -0.81906789203E+03  0.17020942721E+04  0.14920632357E+04 0.  0.
        2    1    3    3  502    0 -0.11046032660E+03 -0.72963252531E+03 -0.53448849165E+03  0.91117674106E+03  0.25500000920E-02 0.  1.
       -2    1    3    3    0  502  0.11046032660E+03  0.72963252531E+03 -0.28457940038E+03  0.79091753102E+03  0.25500000920E-02 0. -1.
</event>
<event>
 5   0  0.9284971E-04  0.1733108E+04  0.7818609E-02  0.8742704E-01
       -2   -1    0    0    0  501  0.00000000000E+00  0.00000000000E+00  0.22441992826E+04  0.22441992826E+04  0.25500000920E-02 0. -1.
        2   -1    0    0  501    0  0.00000000000E+00  0.00000000000E+00 -0.33460292472E+03  0.33460292473E+03  0.25500000920E-02 0.  1.
    10030    2    1    2    0    0  0.00000000000E+00  0.00000000000E+00  0.19095963579E+04  0.25788022073E+04  0.17331077793E+04 0.  0.
        4    1    3    3  502    0  0.25597805732E+03 -0.50270678145E+03  0.19335519345E+04  0.20141657256E+04  0.12699999809E+01 0. -1.
       -4    1    3    3    0  502 -0.25597805732E+03  0.50270678145E+03 -0.23955576614E+02  0.56463648173E+03  0.12699999809E+01 0.  1.
</event>
<event>
 5   0  0.9312096E-04  0.1742131E+04  0.7818609E-02  0.8737694E-01
        2   -1    0    0  501    0  0.00000000000E+00  0.00000000000E+00  0.20422892616E+04  0.20422892616E+04  0.25500000920E-02 0.  1.
       -2   -1    0    0    0  501  0.00000000000E+00  0.00000000000E+00 -0.37152175048E+03  0.37152175049E+03  0.25500000920E-02 0. -1.
    10030    2    1    2    0    0  0.00000000000E+00  0.00000000000E+00  0.16707675111E+04  0.24138110121E+04  0.17421307431E+04 0.  0.
        3    1    3    3  502    0 -0.59443534309E+03 -0.40512583042E+03  0.15480516700E+03  0.73582944051E+03  0.10100000352E+00 0. -1.
       -3    1    3    3    0  502  0.59443534309E+03  0.40512583042E+03  0.15159623441E+04  0.16779815716E+04  0.10100000352E+00 0.  1.
</event>
<event>
 5   0  0.5009762E-04  0.1709936E+04  0.7818609E-02  0.8755718E-01
       -1   -1    0    0    0  501  0.00000000000E+00  0.00000000000E+00  0.67947680212E+03  0.67947680214E+03  0.50400001928E-02 0. -1.
        1   -1    0    0  501    0  0.00000000000E+00  0.00000000000E+00 -0.10757835361E+04  0.10757835361E+04  0.50400001928E-02 0.  1.
    10030    2    1    2    0    0  0.00000000000E+00  0.00000000000E+00 -0.39630673395E+03  0.17552603382E+04  0.17099356209E+04 0.  0.
        3    1    3    3  502    0 -0.35978827857E+03  0.35029096981E+03 -0.90846229968E+03  0.10380053608E+04  0.10100000352E+00 0.  1.
       -3    1    3    3    0  502  0.35978827857E+03 -0.35029096981E+03  0.51215556573E+03  0.71725497742E+03  0.10100000352E+00 0. -1.
</event>
<event>
 5   0  0.9610114E-04  0.1701191E+04  0.7818609E-02  0.8760685E-01
        2   -1    0    0  501    0  0.00000000000E+00  0.00000000000E+00  0.15135754774E+04  0.15135754774E+04  0.25500000920E-02 0.  1.
       -2   -1    0    0    0  501  0.00000000000E+00  0.00000000000E+00 -0.47801577560E+03  0.47801577560E+03  0.25500000920E-02 0. -1.
    10030    2    1    2    0    0  0.00000000000E+00  0.00000000000E+00  0.10355597018E+04  0.19915912530E+04  0.17011912953E+04 0.  0.
        2    1    3    3  502    0  0.24188170767E+03 -0.25255818639E+03  0.14255250683E+04  0.14677922600E+04  0.25500000920E-02 0.  1.
       -2    1    3    3    0  502 -0.24188170767E+03  0.25255818639E+03 -0.38996536651E+03  0.52379899304E+03  0.25500000920E-02 0. -1.
</event>
<event>
 5   0  0.3523125E-04  0.1622134E+04  0.7818609E-02  0.8807065E-01
        3   -1    0    0  501    0  0.00000000000E+00  0.00000000000E+00  0.29215908512E+03  0.29215910257E+03  0.10100000352E+00 0.  1.
       -3   -1    0    0    0  501  0.00000000000E+00  0.00000000000E+00 -0.22516133157E+04  0.22516133179E+04  0.10100000352E+00 0. -1.
    10030    2    1    2    0    0  0.00000000000E+00  0.00000000000E+00 -0.19594542306E+04  0.25437724205E+04  0.16221335474E+04 0.  0.
        4    1    3    3  502    0 -0.88850464221E+02  0.61157298477E+03 -0.15601250693E+03  0.63738327238E+03  0.12699999809E+01 0.  1.
       -4    1    3    3    0  502  0.88850464221E+02 -0.61157298477E+03 -0.18034417236E+04  0.19063891481E+04  0.12699999809E+01 0. -1.
</event>
<event>
 5   0  0.5035495E-04  0.1920594E+04  0.7818609E-02  0.8644673E-01
       -1   -1    0    0    0  501  0.00000000000E+00  0.00000000000E+00  0.15874222890E+04  0.15874222890E+04  0.50400001928E-02 0.  1.
        1   -1    0    0  501    0  0.00000000000E+00  0.00000000000E+00 -0.58092326505E+03  0.58092326507E+03  0.50400001928E-02 0. -1.
    10030    2    1    2    0    0  0.00000000000E+00  0.00000000000E+00  0.10064990240E+04  0.21683455541E+04  0.19205942197E+04 0.  0.
        4    1    3    3  502    0  0.92008904096E+03  0.26268188091E+03  0.41150632998E+03  0.10415875798E+04  0.12699999809E+01 0. -1.
       -4    1    3    3    0  502 -0.92008904096E+03 -0.26268188091E+03  0.59499269398E+03  0.11267579743E+04  0.12699999809E+01 0.  1.
</event>
<event>
 5   0  0.9610114E-04  0.1641367E+04  0.7818609E-02  0.8795530E-01
       -2   -1    0    0    0  501  0.00000000000E+00  0.00000000000E+00  0.64729779682E+03  0.64729779682E+03  0.25500000920E-02 0. -1.
        2   -1    0    0  501    0  0.00000000000E+00  0.00000000000E+00 -0.10405126897E+04  0.10405126897E+04  0.25500000920E-02 0.  1.
    10030    2    1    2    0    0  0.00000000000E+00  0.00000000000E+00 -0.39321489291E+03  0.16878104865E+04  0.16413672004E+04 0.  0.
        2    1    3    3  502    0 -0.31278814369E+02  0.39842062596E+03 -0.93369106698E+03  0.10156260965E+04  0.25500000920E-02 0.  1.
       -2    1    3    3    0  502  0.31278814369E+02 -0.39842062596E+03  0.54047617407E+03  0.67218439000E+03  0.25500000920E-02 0. -1.
</event>
<event>
 5   0  0.5059689E-04  0.1390742E+04  0.7818609E-02  0.8960548E-01
       -1   -1    0    0    0  501  0.00000000000E+00  0.00000000000E+00  0.48946153106E+03  0.48946153108E+03  0.50400001928E-02 0. -1.
        1   -1    0    0  501    0  0.00000000000E+00  0.00000000000E+00 -0.98790300108E+03  0.98790300109E+03  0.50400001928E-02 0.  1.
    10030    2    1    2    0    0  0.00000000000E+00  0.00000000000E+00 -0.49844147002E+03  0.14773645322E+04  0.13907415511E+04 0.  0.
        5    1    3    3  502    0 -0.43791337908E+03  0.24472722726E+03  0.26228806189E+03  0.56610658073E+03  0.46999998093E+01 0. -1.
       -5    1    3    3    0  502  0.43791337908E+03 -0.24472722726E+03 -0.76072953191E+03  0.91125795144E+03  0.46999998093E+01 0.  1.
</event>
<event>
 5   0  0.5059689E-04  0.1697842E+04  0.7818609E-02  0.8762596E-01
       -1   -1    0    0    0  501  0.00000000000E+00  0.00000000000E+00  0.88991123592E+03  0.88991123593E+03  0.50400001928E-02 0. -1.
        1   -1    0    0  501    0  0.00000000000E+00  0.00000000000E+00 -0.80981907734E+03  0.80981907736E+03  0.50400001928E-02 0.  1.
    10030    2    1    2    0    0  0.00000000000E+00  0.00000000000E+00  0.80092158574E+02  0.16997303133E+04  0.16978422730E+04 0.  0.
        5    1    3    3  502    0 -0.83834949364E+03  0.62396991663E+02  0.15816774448E+03  0.85543110971E+03  0.46999998093E+01 0. -1.
       -5    1    3    3    0  502  0.83834949364E+03 -0.62396991663E+02 -0.78075585902E+02  0.84429920358E+03  0.46999998093E+01 0.  1.
</event>
<event>
 5   0  0.5009762E-04  0.1731359E+04  0.7818609E-02  0.8743678E-01
       -1   -1    0    0    0  501  0.00000000000E+00  0.00000000000E+00  0.17430233520E+04  0.17430233520E+04  0.50400001928E-02 0.  1.
        1   -1    0    0  501    0  0.00000000000E+00  0.00000000000E+00 -0.42994338270E+03  0.42994338273E+03  0.50400001928E-02 0. -1.
    10030    2    1    2    0    0  0.00000000000E+00  0.00000000000E+00  0.13130799693E+04  0.21729667347E+04  0.17313594152E+04 0.  0.
        3    1    3    3  502    0 -0.37067039885E+03 -0.60946344793E+03  0.40970976627E+02  0.71450743178E+03  0.10100000352E+00 0. -1.
       -3    1    3    3    0  502  0.37067039885E+03  0.60946344793E+03  0.12721089926E+04  0.14584593029E+04  0.10100000352E+00 0.  1.
</event>
<event>
 5   0  0.4947006E-04  0.1602310E+04  0.7818609E-02  0.8819130E-01
        1   -1    0    0  501    0  0.00000000000E+00  0.00000000000E+00  0.51186129572E+03  0.51186129574E+03  0.50400001928E-02 0.  1.
       -1   -1    0    0    0  501  0.00000000000E+00  0.00000000000E+00 -0.12539511950E+04  0.12539511950E+04  0.50400001928E-02 0. -1.
    10030    2    1    2    0    0  0.00000000000E+00  0.00000000000E+00 -0.74208989926E+03  0.17658124907E+04  0.16023096872E+04 0.  0.
        2    1    3    3  502    0 -0.39883249373E+02  0.46734852521E+03 -0.10868156945E+04  0.11837118194E+04  0.25500000920E-02 0. -1.
       -2    1    3    3    0  502  0.39883249373E+02 -0.46734852521E+03  0.34472579526E+03  0.58210067130E+03  0.25500000920E-02 0.  1.
</event>
<event>
 5   0  0.1007187E-03  0.1706604E+04  0.7818609E-02  0.8757607E-01
       -2   -1    0    0    0  501  0.00000000000E+00  0.00000000000E+00  0.68211737609E+03  0.68211737609E+03  0.25500000920E-02 0. -1.
        2   -1    0    0  501    0  0.00000000000E+00  0.00000000000E+00 -0.10674468736E+04  0.10674468736E+04  0.25500000920E-02 0.  1.
    10030    2    1    2    0    0  0.00000000000E+00  0.00000000000E+00 -0.38532949756E+03  0.17495642497E+04  0.17066037157E+04 0.  0.
        5    1    3    3  502    0  0.45543793126E+03 -0.51679905861E+03  0.32359618187E+03  0.76107920424E+03  0.46999998093E+01 0. -1.
       -5    1    3    3    0  502 -0.45543793126E+03  0.51679905861E+03 -0.70892567943E+03  0.98848504550E+03  0.46999998093E+01 0.  1.
</event>
<event>
 5   0  0.5035495E-04  0.1498295E+04  0.7818609E-02  0.8885588E-01
        1   -1    0    0  501    0  0.00000000000E+00  0.00000000000E+00  0.18103961238E+04  0.18103961238E+04  0.50400001928E-02 0.  1.
       -1   -1    0    0    0  501  0.00000000000E+00  0.00000000000E+00 -0.30999936624E+03  0.30999936628E+03  0.50400001928E-02 0. -1.
    10030    2    1    2    0    0  0.00000000000E+00  0.00000000000E+00  0.15003967575E+04  0.21203954901E+04  0.14982945652E+04 0.  0.
        4    1    3    3  502    0 -0.47553075295E+03 -0.10045807698E+03 -0.56591590761E+02  0.48931129486E+03  0.12699999809E+01 0. -1.
       -4    1    3    3    0  502  0.47553075295E+03  0.10045807698E+03  0.15569883483E+04  0.16310841952E+04  0.12699999809E+01 0.  1.
</event>
<event>
 5   0  0.5059689E-04  0.1728283E+04  0.7818609E-02  0.8745396E-01
        1   -1    0    0  501    0  0.00000000000E+00  0.00000000000E+00  0.15437742525E+04  0.15437742525E+04  0.50400001928E-02 0. -1.
       -1   -1    0    0    0  501  0.00000000000E+00  0.00000000000E+00 -0.48371075326E+03  0.48371075328E+03  0.50400001928E-02 0.  1.
    10030    2    1    2    0    0  0.00000000000E+00  0.00000000000E+00  0.10600634992E+04  0.20274850058E+04  0.17282826234E+04 0.  0.
        5    1    3    3  502    0  0.44775335360E+03 -0.41251914099E+03  0.12494363258E+04  0.13898806890E+04  0.46999998093E+01 0. -1.
       -5    1    3    3    0  502 -0.44775335360E+03  0.41251914099E+03 -0.18937282658E+03  0.63760431679E+03  0.46999998093E+01 0.  1.
</event>
<event>
 5   0  0.9610114E-04  0.1972258E+04  0.7818609E-02  0.8619702E-01
        2   -1    0    0  501    0  0.00000000000E+00  0.00000000000E+00  0.20565232784E+04  0.20565232784E+04  0.25500000920E-02 0. -1.
       -2   -1    0    0    0  501  0.00000000000E+00  0.00000000000E+00 -0.47286112782E+03  0.47286112782E+03  0.25500000920E-02 0.  1.
    10030    2    1    2    0    0  0.00000000000E+00  0.00000000000E+00  0.15836621506E+04  0.25293844063E+04  0.19722575053E+04 0.  0.
        2    1    3    3  502    0 -0.47181556186E+03  0.38022913848E+03 -0.20592477985E+03  0.63999151332E+03  0.25500000920E-02 0.  1.
       -2    1    3    3    0  502  0.47181556186E+03 -0.38022913848E+03  0.17895869305E+04  0.18893928929E+04  0.25500000920E-02 0. -1.
</event>
<event>
 5   0  0.4947006E-04  0.1789703E+04  0.7818609E-02  0.8711794E-01
        1   -1    0    0  501    0  0.00000000000E+00  0.00000000000E+00  0.14807718754E+04  0.14807718754E+04  0.50400001928E-02 0. -1.
       -1   -1    0    0    0  501  0.00000000000E+00  0.00000000000E+00 -0.54077158782E+03  0.54077158784E+03  0.50400001928E-02 0.  1.
    10030    2    1    2    0    0  0.00000000000E+00  0.00000000000E+00  0.94000028754E+03  0.20215434632E+04  0.17897031690E+04 0.  0.
        2    1    3    3  502    0  0.98752128321E+02 -0.71951944283E+03 -0.12050164016E+03  0.73619349137E+03  0.25500000920E-02 0.  1.
       -2    1    3    3    0  502 -0.98752128321E+02  0.71951944283E+03  0.10605019277E+04  0.12853499718E+04  0.25500000920E-02 0. -1.
</event>
<event>
 5   0  0.1007187E-03  0.1603267E+04  0.7818609E-02  0.8818543E-01
        2   -1    0    0  501    0  0.00000000000E+00  0.00000000000E+00  0.36215592723E+03  0.36215592724E+03  0.25500000920E-02 0.  1.
       -2   -1    0    0    0  501  0.00000000000E+00  0.00000000000E+00 -0.17744188764E+04  0.17744188764E+04  0.25500000920E-02 0. -1.
    10030    2    1    2    0    0  0.00000000000E+00  0.00000000000E+00 -0.14122629492E+04  0.21365748037E+04  0.16032670564E+04 0.  0.
        5    1    3    3  502    0 -0.54033744434E+03 -0.58006860756E+03 -0.54760869259E+03  0.96350480717E+03  0.46999998093E+01 0. -1.
       -5    1    3    3    0  502  0.54033744434E+03  0.58006860756E+03 -0.86465425660E+03  0.11730699965E+04  0.46999998093E+01 0.  1.
</event>
<event>
 5   0  0.5074133E-04  0.8638441E+03  0.7818609E-02  0.9471942E-01
        1   -1    0    0  501    0  0.00000000000E+00  0.00000000000E+00  0.13935349709E+04  0.13935349709E+04  0.50400001928E-02 0. -1.
       -1   -1    0    0    0  501  0.00000000000E+00  0.00000000000E+00 -0.13387296166E+03  0.13387296176E+03  0.50400001928E-02 0.  1.
    10030    2    1    2    0    0  0.00000000000E+00  0.00000000000E+00  0.12596620092E+04  0.15274079327E+04  0.86384409198E+03 0.  0.
        1    1    3    3  502    0 -0.92534486918E+02 -0.17980505518E+03 -0.45001566326E+02  0.20716570695E+03  0.50400001928E-02 0.  1.
       -1    1    3    3    0  502  0.92534486918E+02  0.17980505518E+03  0.13046635756E+04  0.13202422257E+04  0.50400001928E-02 0. -1.
</event>
<event>
 5   0  0.9312096E-04  0.1656434E+04  0.7818609E-02  0.8786609E-01
        2   -1    0    0  501    0  0.00000000000E+00  0.00000000000E+00  0.72801104764E+03  0.72801104764E+03  0.25500000920E-02 0.  1.
       -2   -1    0    0    0  501  0.00000000000E+00  0.00000000000E+00 -0.94221531589E+03  0.94221531589E+03  0.25500000920E-02 0. -1.
    10030    2    1    2    0    0  0.00000000000E+00  0.00000000000E+00 -0.21420426825E+03  0.16702263635E+04  0.16564337104E+04 0.  0.
        3    1    3    3  502    0  0.25669517085E+03 -0.75099207405E+03 -0.34584707909E+03  0.86573189750E+03  0.10100000352E+00 0. -1.
       -3    1    3    3    0  502 -0.25669517085E+03  0.75099207405E+03  0.13164281084E+03  0.80449446603E+03  0.10100000352E+00 0.  1.
</event>
<event>
 5   0  0.1007187E-03  0.1614855E+04  0.7818609E-02  0.8811474E-01
       -2   -1    0    0    0  501  0.00000000000E+00  0.00000000000E+00  0.11233692969E+04  0.11233692969E+04  0.25500000920E-02 0. -1.
        2   -1    0    0  501    0  0.00000000000E+00  0.00000000000E+00 -0.58034274458E+03  0.58034274458E+03  0.25500000920E-02 0.  1.
    10030    2    1    2    0    0  0.00000000000E+00  0.00000000000E+00  0.54302655231E+03  0.17037120415E+04  0.16148550659E+04 0.  0.
        5    1    3    3  502    0 -0.61115862562E+03  0.29160538159E+03 -0.19242006177E+03  0.70398589077E+03  0.46999998093E+01 0.  1.
       -5    1    3    3    0  502  0.61115862562E+03 -0.29160538159E+03  0.73544661408E+03  0.99972615070E+03  0.46999998093E+01 0. -1.
</event>
<event>
 5   0  0.5074133E-04  0.1669208E+04  0.7818609E-02  0.8779124E-01
       -1   -1    0    0    0  501  0.00000000000E+00  0.00000000000E+00  0.41649369293E+03  0.41649369296E+03  0.50400001928E-02 0.  1.
        1   -1    0    0  501    0  0.00000000000E+00  0.00000000000E+00 -0.16724475774E+04  0.16724475774E+04  0.50400001928E-02 0. -1.
    10030    2    1    2    0    0  0.00000000000E+00  0.00000000000E+00 -0.12559538845E+04  0.20889412704E+04  0.16692080371E+04 0.  0.
        1    1    3    3  502    0  0.51411588649E+03 -0.11366476295E+03  0.18241149419E+03  0.55723314359E+03  0.50400001928E-02 0.  1.
       -1    1    3    3    0  502 -0.51411588649E+03  0.11366476295E+03 -0.14383653787E+04  0.15317081268E+04  0.50400001928E-02 0. -1.
</event>
<event>
 5   0  0.9610114E-04  0.1753894E+04  0.7818609E-02  0.8731210E-01
       -2   -1    0    0    0  501  0.00000000000E+00  0.00000000000E+00  0.28650851229E+03  0.28650851230E+03  0.25500000920E-02 0.  1.
        2   -1    0    0  501    0  0.00000000000E+00  0.00000000000E+00 -0.26841644830E+04  0.26841644830E+04  0.25500000920E-02 0. -1.
    10030    2    1    2    0    0  0.00000000000E+00  0.00000000000E+00 -0.23976559707E+04  0.29706729953E+04  0.17538939224E+04 0.  0.
        2    1    3    3  502    0 -0.12043563292E+03 -0.14591043114E+03  0.25152932184E+03  0.31474052065E+03  0.25500000920E-02 0.  1.
       -2    1    3    3    0  502  0.12043563292E+03  0.14591043114E+03 -0.26491852925E+04  0.26559324746E+04  0.25500000920E-02 0. -1.
</event>
<event>
 5   0  0.1007187E-03  0.1670173E+04  0.7818609E-02  0.8778561E-01
       -2   -1    0    0    0  501  0.00000000000E+00  0.00000000000E+00  0.39743121834E+03  0.39743121835E+03  0.25500000920E-02 0.  1.
        2   -1    0    0  501    0  0.00000000000E+00  0.00000000000E+00 -0.17546928463E+04  0.17546928463E+04  0.25500000920E-02 0. -1.
    10030    2    1    2    0    0  0.00000000000E+00  0.00000000000E+00 -0.13572616280E+04  0.21521240646E+04  0.16701733033E+04 0.  0.
        5    1    3    3  502    0  0.76645939637E+03  0.30042520800E+03 -0.85917832691E+03  0.11899263840E+04  0.46999998093E+01 0. -1.
       -5    1    3    3    0  502 -0.76645939637E+03 -0.30042520800E+03 -0.49808330105E+03  0.96219768066E+03  0.46999998093E+01 0.  1.
</event>
<event>
 5   0  0.4947006E-04  0.1636483E+04  0.7818609E-02  0.8798443E-01
        1   -1    0    0  501    0  0.00000000000E+00  0.00000000000E+00  0.91790996118E+03  0.91790996119E+03  0.50400001928E-02 0.  1.
       -1   -1    0    0    0  501  0.00000000000E+00  0.00000000000E+00 -0.72939540123E+03  0.72939540125E+03  0.50400001928E-02 0. -1.
    10030    2    1    2    0    0  0.00000000000E+00  0.00000000000E+00  0.18851455995E+03  0.16473053624E+04  0.16364831859E+04 0.  0.
        2    1    3    3  502    0  0.13226550774E+03 -0.73444472529E+03  0.43205971682E+03  0.86231016342E+03  0.25500000920E-02 0.  1.
       -2    1    3    3    0  502 -0.13226550774E+03  0.73444472529E+03 -0.24354515687E+03  0.78499519902E+03  0.25500000920E-02 0. -1.
</event>
<event>
 5   0  0.1007187E-03  0.1816519E+04  0.7818609E-02  0.8697564E-01
        2   -1    0    0  501    0  0.00000000000E+00  0.00000000000E+00  0.16193037591E+04  0.16193037591E+04  0.25500000920E-02 0. -1.
       -2   -1    0    0    0  501  0.00000000000E+00  0.00000000000E+00 -0.50943847264E+03  0.50943847264E+03  0.25500000920E-02 0.  1.
    10030    2    1    2    0    0  0.00000000000E+00  0.00000000000E+00  0.11098652865E+04  0.21287422318E+04  0.18165193462E+04 0.  0.
        5    1    3    3  502    0 -0.83704529168E+02  0.24962771729E+02 -0.50449069344E+03  0.51201810314E+03  0.46999998093E+01 0.  1.
       -5    1    3    3    0  502  0.83704529168E+02 -0.24962771729E+02  0.16143559799E+04  0.16167241287E+04  0.46999998093E+01 0. -1.
</event>
<event>
 5   0  0.5035495E-04  0.1506550E+04  0.7818609E-02  0.8880109E-01
       -1   -1    0    0    0  501  0.00000000000E+00  0.00000000000E+00  0.42196663366E+03  0.42196663369E+03  0.50400001928E-02 0.  1.
        1   -1    0    0  501    0  0.00000000000E+00  0.00000000000E+00 -0.13447106511E+04  0.13447106512E+04  0.50400001928E-02 0. -1.
    10030    2    1    2    0    0  0.00000000000E+00  0.00000000000E+00 -0.92274401749E+03  0.17666772848E+04  0.15065497360E+04 0.  0.
        4    1    3    3  502    0 -0.16143951447E+03 -0.39399834165E+03 -0.11900525158E+04  0.12639319654E+04  0.12699999809E+01 0. -1.
       -4    1    3    3    0  502  0.16143951447E+03  0.39399834165E+03  0.26730849827E+03  0.50274531942E+03  0.12699999809E+01 0.  1.
</event>
<event>
 5   0  0.5059689E-04  0.1137659E+04  0.7818609E-02  0.9169245E-01
       -1   -1    0    0    0  501  0.00000000000E+00  0.00000000000E+00  0.76079753697E+03  0.76079753699E+03  0.50400001928E-02 0.  1.
        1   -1    0    0  501    0  0.00000000000E+00  0.00000000000E+00 -0.42529955427E+03  0.42529955430E+03  0.50400001928E-02 0. -1.
    10030    2    1    2    0    0  0.00000000000E+00  0.00000000000E+00  0.33549798270E+03  0.11860970913E+04  0.11376587421E+04 0.  0.
        5    1    3    3  502    0 -0.22150927358E+03 -0.24035406111E+03 -0.31759095250E+03  0.45576587859E+03  0.46999998093E+01 0. -1.
       -5    1    3    3    0  502  0.22150927358E+03  0.24035406111E+03  0.65308893520E+03  0.73033121271E+03  0.46999998093E+01 0.  1.
</event>
<event>
 5   0  0.5059689E-04  0.1655470E+04  0.7818609E-02  0.8787177E-01
        1   -1    0    0  501    0  0.00000000000E+00  0.00000000000E+00  0.12262584942E+04  0.12262584943E+04  0.50400001928E-02 0. -1.
       -1   -1    0    0    0  501  0.00000000000E+00  0.00000000000E+00 -0.55872852147E+03  0.55872852149E+03  0.50400001928E-02 0.  1.
    10030    2    1    2    0    0  0.00000000000E+00  0.00000000000E+00  0.66752997278E+03  0.17849870157E+04  0.16554704412E+04 0.  0.
        5    1    3    3  502    0  0.11863863179E+03 -0.62142186051E+03  0.90926732075E+03  0.11077135931E+04  0.46999998093E+01 0. -1.
       -5    1    3    3    0  502 -0.11863863179E+03  0.62142186051E+03 -0.24173734797E+03  0.67727342268E+03  0.46999998093E+01 0.  1.
</event>
<event>
 5   0  0.3523125E-04  0.1569150E+04  0.7818609E-02  0.8839728E-01
       -3   -1    0    0    0  501  0.00000000000E+00  0.00000000000E+00  0.63889046467E+03  0.63889047265E+03  0.10100000352E+00 0.  1.
        3   -1    0    0  501    0  0.00000000000E+00  0.00000000000E+00 -0.96347997074E+03  0.96347997604E+03  0.10100000352E+00 0. -1.
    10030    2    1    2    0    0  0.00000000000E+00  0.00000000000E+00 -0.32458950607E+03  0.16023704487E+04  0.15691503138E+04 0.  0.
        1    1    3    3  502    0  0.54839963558E+03  0.40840182379E+03  0.23058929718E+03  0.72159935835E+03  0.50400001928E-02 0.  1.
       -1    1    3    3    0  502 -0.54839963558E+03 -0.40840182379E+03 -0.55517880325E+03  0.88077109034E+03  0.50400001928E-02 0. -1.
</event>
<event>
 5   0  0.9312096E-04  0.1719906E+04  0.7818609E-02  0.8750092E-01
        2   -1    0    0  501    0  0.00000000000E+00  0.00000000000E+00  0.13871529716E+04  0.13871529716E+04  0.25500000920E-02 0. -1.
       -2   -1    0    0    0  501  0.00000000000E+00  0.00000000000E+00 -0.53312036158E+03  0.53312036159E+03  0.25500000920E-02 0.  1.
    10030    2    1    2    0    0  0.00000000000E+00  0.00000000000E+00  0.85403261006E+03  0.19202733332E+04  0.17199063856E+04 0.  0.
        3    1    3    3  502    0 -0.62753194137E+03  0.33696122861E+03 -0.11096960817E+03  0.72086994053E+03  0.10100000352E+00 0.  1.
       -3    1    3    3    0  502  0.62753194137E+03 -0.33696122861E+03  0.96500221824E+03  0.11994033927E+04  0.10100000352E+00 0. -1.
</event>
<event>
 5   0  0.5059689E-04  0.1549299E+04  0.7818609E-02  0.8852315E-01
       -1   -1    0    0    0  501  0.00000000000E+00  0.00000000000E+00  0.10611167133E+04  0.10611167133E+04  0.50400001928E-02 0.  1.
        1   -1    0    0  501    0  0.00000000000E+00  0.00000000000E+00 -0.56551944192E+03  0.56551944195E+03  0.50400001928E-02 0. -1.
    10030    2    1    2    0    0  0.00000000000E+00  0.00000000000E+00  0.49559727136E+03  0.16266361552E+04  0.15492993662E+04 0.  0.
        5    1    3    3  502    0  0.16699939464E+03 -0.39051688119E+03 -0.43235638278E+03  0.60609105260E+03  0.46999998093E+01 0. -1.
       -5    1    3    3    0  502 -0.16699939464E+03  0.39051688119E+03  0.92795365414E+03  0.10205451026E+04  0.46999998093E+01 0.  1.
</event>
<event>
 5   0  0.5059689E-04  0.1679423E+04  0.7818609E-02  0.8773188E-01
       -1   -1    0    0    0  501  0.00000000000E+00  0.00000000000E+00  0.49298413001E+03  0.49298413004E+03  0.50400001928E-02 0. -1.
        1   -1    0    0  501    0  0.00000000000E+00  0.00000000000E+00 -0.14303001572E+04  0.14303001572E+04  0.50400001928E-02 0.  1.
    10030    2    1    2    0    0  0.00000000000E+00  0.00000000000E+00 -0.93731602720E+03  0.19232842873E+04  0.16794228517E+04 0.  0.
        5    1    3    3  502    0  0.81414688172E+03  0.98702683073E+02 -0.67516312586E+03  0.10622827784E+04  0.46999998093E+01 0.  1.
       -5    1    3    3    0  502 -0.81414688172E+03 -0.98702683073E+02 -0.26215290134E+03  0.86100150891E+03  0.46999998093E+01 0. -1.
</event>
<event>
 5   0  0.9312096E-04  0.1755731E+04  0.7818609E-02  0.8730202E-01
       -2   -1    0    0    0  501  0.00000000000E+00  0.00000000000E+00  0.86799676178E+03  0.86799676179E+03  0.25500000920E-02 0. -1.
        2   -1    0    0  501    0  0.00000000000E+00  0.00000000000E+00 -0.88784686132E+03  0.88784686132E+03  0.25500000920E-02 0.  1.
    10030    2    1    2    0    0  0.00000000000E+00  0.00000000000E+00 -0.19850099538E+02  0.17558436231E+04  0.17557314152E+04 0.  0.
        3    1    3    3  502    0 -0.68209389056E+02  0.85475026558E+02 -0.88100866660E+03  0.88776955441E+03  0.10100000352E+00 0.  1.
       -3    1    3    3    0  502  0.68209389056E+02 -0.85475026558E+02  0.86115856706E+03  0.86807406870E+03  0.10100000352E+00 0. -1.
</event>
<event>
 5   0  0.9625225E-04  0.1690545E+04  0.7818609E-02  0.8766775E-01
       -2   -1    0    0    0  501  0.00000000000E+00  0.00000000000E+00  0.25749458520E+03  0.25749458521E+03  0.25500000920E-02 0. -1.
        2   -1    0    0  501    0  0.00000000000E+00  0.00000000000E+00 -0.27747605655E+04  0.27747605655E+04  0.25500000920E-02 0.  1.
    10030    2    1    2    0    0  0.00000000000E+00  0.00000000000E+00 -0.25172659803E+04  0.30322551507E+04  0.16905452622E+04 0.  0.
        1    1    3    3  502    0  0.16576772800E+03  0.71058279063E+03 -0.49326755679E+03  0.88074952432E+03  0.50400001928E-02 0. -1.
       -1    1    3    3    0  502 -0.16576772800E+03 -0.71058279063E+03 -0.20239984235E+04  0.21515056264E+04  0.50400001928E-02 0.  1.
</event>
<event>
 5   0  0.9284971E-04  0.1684361E+04  0.7818609E-02  0.8770335E-01
        2   -1    0    0  501    0  0.00000000000E+00  0.00000000000E+00  0.14503634058E+04  0.14503634058E+04  0.25500000920E-02 0.  1.
       -2   -1    0    0    0  501  0.00000000000E+00  0.00000000000E+00 -0.48902754541E+03  0.48902754542E+03  0.25500000920E-02 0. -1.
    10030    2    1    2    0    0  0.00000000000E+00  0.00000000000E+00  0.96133586036E+03  0.19393909512E+04  0.16843605983E+04 0.  0.
        4    1    3    3  502    0 -0.50172532963E+03 -0.76188216754E+02  0.12545436925E+04  0.13532976169E+04  0.12699999809E+01 0.  1.
       -4    1    3    3    0  502  0.50172532963E+03  0.76188216754E+02 -0.29320783211E+03  0.58609333427E+03  0.12699999809E+01 0. -1.
</event>
<event>
 5   0  0.4947006E-04  0.1689424E+04  0.7818609E-02  0.8767419E-01
       -1   -1    0    0    0  501  0.00000000000E+00  0.00000000000E+00  0.88643454681E+03  0.88643454683E+03  0.50400001928E-02 0.  1.
        1   -1    0    0  501    0  0.00000000000E+00  0.00000000000E+00 -0.80495356949E+03  0.80495356950E+03  0.50400001928E-02 0. -1.
    10030    2    1    2    0    0  0.00000000000E+00  0.00000000000E+00  0.81480977327E+02  0.16913881163E+04  0.16894243429E+04 0.  0.
        2    1    3    3  502    0  0.36621254858E+03 -0.30652613567E+03  0.73830626762E+03  0.87929861106E+03  0.25500000920E-02 0.  1.
       -2    1    3    3    0  502 -0.36621254858E+03  0.30652613567E+03 -0.65682529030E+03  0.81208950527E+03  0.25500000920E-02 0. -1.
</event>
<event>
 5   0  0.1007187E-03  0.1714146E+04  0.7818609E-02  0.8753337E-01
       -2   -1    0    0    0  501  0.00000000000E+00  0.00000000000E+00  0.74388104804E+03  0.74388104804E+03  0.25500000920E-02 0.  1.
        2   -1    0    0  501    0  0.00000000000E+00  0.00000000000E+00 -0.98748894347E+03  0.98748894347E+03  0.25500000920E-02 0. -1.
    10030    2    1    2    0    0  0.00000000000E+00  0.00000000000E+00 -0.24360789543E+03  0.17313699915E+04  0.17141462134E+04 0.  0.
        5    1    3    3  502    0 -0.34036089313E+03 -0.40698187368E+03  0.55806599853E+03  0.77002566957E+03  0.46999998093E+01 0.  1.
       -5    1    3    3    0  502  0.34036089313E+03  0.40698187368E+03 -0.80167389396E+03  0.96134432194E+03  0.46999998093E+01 0. -1.
</event>
<event>
 5   0  0.5035495E-04  0.1444890E+04  0.7818609E-02  0.8921951E-01
        1   -1    0    0  501    0  0.00000000000E+00  0.00000000000E+00  0.90864204158E+03  0.90864204160E+03  0.50400001928E-02 0. -1.
       -1   -1    0    0    0  501  0.00000000000E+00  0.00000000000E+00 -0.57440317104E+03  0.57440317107E+03  0.50400001928E-02 0.  1.
    10030    2    1    2    0    0  0.00000000000E+00  0.00000000000E+00  0.33423887054E+03  0.14830452127E+04  0.14448901274E+04 0.  0.
        4    1    3    3  502    0 -0.16298177480E+03  0.27706759557E+03  0.83119419337E+03  0.89118736045E+03  0.12699999809E+01 0. -1.
       -4    1    3    3    0  502  0.16298177480E+03 -0.27706759557E+03 -0.49695532283E+03  0.59185785221E+03  0.12699999809E+01 0.  1.
</event>
<event>
 5   0  0.9625225E-04  0.1538515E+04  0.7818609E-02  0.8859238E-01
        2   -1    0    0  501    0  0.00000000000E+00  0.00000000000E+00  0.26527844348E+04  0.26527844348E+04  0.25500000920E-02 0.  1.
       -2   -1    0    0    0  501  0.00000000000E+00  0.00000000000E+00 -0.22307006030E+03  0.22307006032E+03  0.25500000920E-02 0. -1.
    10030    2    1    2    0    0  0.00000000000E+00  0.00000000000E+00  0.24297143745E+04  0.28758544951E+04  0.15385145873E+04 0.  0.
        1    1    3    3  502    0  0.19127000143E+03  0.62472692877E+03  0.19738906370E+04  0.20792095123E+04  0.50400001928E-02 0.  1.
       -1    1    3    3    0  502 -0.19127000143E+03 -0.62472692877E+03  0.45582373741E+03  0.79664498278E+03  0.50400001928E-02 0. -1.
</event>
<event>
 5   0  0.1007187E-03  0.1724221E+04  0.7818609E-02  0.8747669E-01
       -2   -1    0    0    0  501  0.00000000000E+00  0.00000000000E+00  0.45966801627E+03  0.45966801628E+03  0.25500000920E-02 0. -1.
        2   -1    0    0  501    0  0.00000000000E+00  0.00000000000E+00 -0.16168948515E+04  0.16168948515E+04  0.25500000920E-02 0.  1.
    10030    2    1    2    0    0  0.00000000000E+00  0.00000000000E+00 -0.11572268352E+04  0.20765628678E+04  0.17242213882E+04 0.  0.
        5    1    3    3  502    0  0.14302169329E+03 -0.17958473309E+03 -0.15793875243E+04  0.15959927704E+04  0.46999998093E+01 0.  1.
       -5    1    3    3    0  502 -0.14302169329E+03  0.17958473309E+03  0.42216068909E+03  0.48057009740E+03  0.46999998093E+01 0. -1.
</event>
<event>
 5   0  0.9610114E-04  0.1707007E+04  0.7818609E-02  0.8757378E-01
        2   -1    0    0  501    0  0.00000000000E+00  0.00000000000E+00  0.70841987992E+03  0.70841987992E+03  0.25500000920E-02 0.  1.
       -2   -1    0    0    0  501  0.00000000000E+00  0.00000000000E+00 -0.10283004774E+04  0.10283004774E+04  0.25500000920E-02 0. -1.
    10030    2    1    2    0    0  0.00000000000E+00  0.00000000000E+00 -0.31988059749E+03  0.17367203573E+04  0.17070073236E+04 0.  0.
        2    1    3    3  502    0  0.14598365131E+03  0.64121127887E+03 -0.71347430349E+03  0.97031371852E+03  0.25500000920E-02 0. -1.
       -2    1    3    3    0  502 -0.14598365131E+03 -0.64121127887E+03  0.39359370600E+03  0.76640663881E+03  0.25500000920E-02 0.  1.
</event>
<event>
 5   0  0.5074133E-04  0.1687963E+04  0.7818609E-02  0.8768259E-01
       -1   -1    0    0    0  501  0.00000000000E+00  0.00000000000E+00  0.40096659234E+03  0.40096659237E+03  0.50400001928E-02 0.  1.
        1   -1    0    0  501    0  0.00000000000E+00  0.00000000000E+00 -0.17764700536E+04  0.17764700536E+04  0.50400001928E-02 0. -1.
    10030    2    1    2    0    0  0.00000000000E+00  0.00000000000E+00 -0.13755034613E+04  0.21774366460E+04  0.16879634402E+04 0.  0.
        1    1    3    3  502    0  0.28646954732E+03  0.68370725313E+03 -0.12082140938E+04  0.14174983971E+04  0.50400001928E-02 0. -1.
       -1    1    3    3    0  502 -0.28646954732E+03 -0.68370725313E+03 -0.16728936751E+03  0.75993824883E+03  0.50400001928E-02 0.  1.
</event>
<event>
 5   0  0.5035495E-04  0.1690704E+04  0.7818609E-02  0.8766684E-01
        1   -1    0    0  501    0  0.00000000000E+00  0.00000000000E+00  0.58878190013E+03  0.58878190015E+03  0.50400001928E-02 0. -1.
       -1   -1    0    0    0  501  0.00000000000E+00  0.00000000000E+00 -0.12137266894E+04  0.12137266895E+04  0.50400001928E-02 0.  1.
    10030    2    1    2    0    0  0.00000000000E+00  0.00000000000E+00 -0.62494478932E+03  0.18025085896E+04  0.16907043579E+04 0.  0.
        4    1    3    3  502    0  0.37299405290E+02 -0.79115802339E+03 -0.62747047895E+03  0.10104667627E+04  0.12699999809E+01 0.  1.
       -4    1    3    3    0  502 -0.37299405290E+02  0.79115802339E+03  0.25256896240E+01  0.79204182694E+03  0.12699999809E+01 0. -1.
</event>
<event>
 5   0  0.9610114E-04  0.1693142E+04  0.7818609E-02  0.8765285E-01
       -2   -1    0    0    0  501  0.00000000000E+00  0.00000000000E+00  0.77158685774E+03  0.77158685775E+03  0.25500000920E-02 0.  1.
        2   -1    0    0  501    0  0.00000000000E+00  0.00000000000E+00 -0.92884256647E+03  0.92884256648E+03  0.25500000920E-02 0. -1.
    10030    2    1    2    0    0  0.00000000000E+00  0.00000000000E+00 -0.15725570873E+03  0.17004294242E+04  0.16931423061E+04 0.  0.
        2    1    3    3  502    0 -0.79707268287E+03 -0.19130282672E+03  0.13385086848E+03  0.83056468038E+03  0.25500000920E-02 0. -1.
       -2    1    3    3    0  502  0.79707268287E+03  0.19130282672E+03 -0.29110657721E+03  0.86986474385E+03  0.25500000920E-02 0.  1.
</event>
<event>
 5   0  0.1007187E-03  0.1628484E+04  0.7818609E-02  0.8803238E-01
        2   -1    0    0  501    0  0.00000000000E+00  0.00000000000E+00  0.11994470889E+04  0.11994470889E+04  0.25500000920E-02 0.  1.
       -2   -1    0    0    0  501  0.00000000000E+00  0.00000000000E+00 -0.55274618183E+03  0.55274618183E+03  0.25500000920E-02 0. -1.
    10030    2    1    2    0    0  0.00000000000E+00  0.00000000000E+00  0.64670090704E+03  0.17521932707E+04  0.16284837103E+04 0.  0.
        5    1    3    3  502    0 -0.67661284901E+03  0.34648675520E+03  0.94527828128E+01  0.76024302961E+03  0.46999998093E+01 0.  1.
       -5    1    3    3    0  502  0.67661284901E+03 -0.34648675520E+03  0.63724812423E+03  0.99195024109E+03  0.46999998093E+01 0. -1.
</event>
<event>
 5   0  0.5035495E-04  0.1718948E+04  0.7818609E-02  0.8750631E-01
       -1   -1    0    0    0  501  0.00000000000E+00  0.00000000000E+00  0.77176690492E+03  0.77176690494E+03  0.50400001928E-02 0. -1.
        1   -1    0    0  501    0  0.00000000000E+00  0.00000000000E+00 -0.95714804567E+03  0.95714804568E+03  0.50400001928E-02 0.  1.
    10030    2    1    2    0    0  0.00000000000E+00  0.00000000000E+00 -0.18538114074E+03  0.17289149506E+04  0.17189475673E+04 0.  0.
        4    1    3    3  502    0 -0.37585145302E+03  0.74945244973E+03 -0.28286439493E+03  0.88484866952E+03  0.12699999809E+01 0.  1.
       -4    1    3    3    0  502  0.37585145302E+03 -0.74945244973E+03  0.97483254189E+02  0.84406628110E+03  0.12699999809E+01 0. -1.
</event>
<event>
 5   0  0.4947006E-04  0.1672562E+04  0.7818609E-02  0.8777170E-01
       -1   -1    0    0    0  501  0.00000000000E+00  0.00000000000E+00  0.76628302431E+03  0.76628302432E+03  0.50400001928E-02 0.  1.
        1   -1    0    0  501    0  0.00000000000E+00  0.00000000000E+00 -0.91267266520E+03  0.91267266522E+03  0.50400001928E-02 0. -1.
    10030    2    1    2    0    0  0.00000000000E+00  0.00000000000E+00 -0.14638964089E+03  0.16789556895E+04  0.16725615924E+04 0.  0.
        2    1    3    3  502    0 -0.41847268917E+03  0.27828059830E+03  0.59779611834E+03  0.78097354761E+03  0.25500000920E-02 0.  1.
       -2    1    3    3    0  502  0.41847268917E+03 -0.27828059830E+03 -0.74418575923E+03  0.89798214193E+03  0.25500000920E-02 0. -1.
</event>
<event>
 5   0  0.9284971E-04  0.1786425E+04  0.7818609E-02  0.8713552E-01
        2   -1    0    0  501    0  0.00000000000E+00  0.00000000000E+00  0.22904281820E+04  0.22904281820E+04  0.25500000920E-02 0. -1.
       -2   -1    0    0    0  501  0.00000000000E+00  0.00000000000E+00 -0.34833146250E+03  0.34833146251E+03  0.25500000920E-02 0.  1.
    10030    2    1    2    0    0  0.00000000000E+00  0.00000000000E+00  0.19420967195E+04  0.26387596445E+04  0.17864245838E+04 0.  0.
        4    1    3    3  502    0 -0.61555908892E+03 -0.64463896305E+03  0.10565963241E+04  0.13823421391E+04  0.12699999809E+01 0.  1.
       -4    1    3    3    0  502  0.61555908892E+03  0.64463896305E+03  0.88550039538E+03  0.12564175054E+04  0.12699999809E+01 0. -1.
</event>
<event>
 5   0  0.3523125E-04  0.1723810E+04  0.7818609E-02  0.8747900E-01
        3   -1    0    0  501    0  0.00000000000E+00  0.00000000000E+00  0.80647202272E+03  0.80647202904E+03  0.10100000352E+00 0.  1.
       -3   -1    0    0    0  501  0.00000000000E+00  0.00000000000E+00 -0.92114839232E+03  0.92114839785E+03  0.10100000352E+00 0. -1.
    10030    2    1    2    0    0  0.00000000000E+00  0.00000000000E+00 -0.11467636960E+03  0.17276204269E+04  0.17238102186E+04 0.  0.
        2    1    3    3  502    0 -0.75578561407E+03  0.33005160573E+03  0.19368391807E+03  0.84714781296E+03  0.25500000920E-02 0.  1.
       -2    1    3    3    0  502  0.75578561407E+03 -0.33005160573E+03 -0.30836028767E+03  0.88047261394E+03  0.25500000920E-02 0. -1.
</event>
<event>
 5   0  0.9284971E-04  0.1927109E+04  0.7818609E-02  0.8641479E-01
       -2   -1    0    0    0  501  0.00000000000E+00  0.00000000000E+00  0.11739769061E+04  0.11739769061E+04  0.25500000920E-02 0.  1.
        2   -1    0    0  501    0  0.00000000000E+00  0.00000000000E+00 -0.79084816777E+03  0.79084816777E+03  0.25500000920E-02 0. -1.
    10030    2    1    2    0    0  0.00000000000E+00  0.00000000000E+00  0.38312873831E+03  0.19648250739E+04  0.19271092187E+04 0.  0.
        4    1    3    3  502    0  0.39008935992E+03 -0.88079448611E+03  0.16952566361E+03  0.97811512564E+03  0.12699999809E+01 0. -1.
       -4    1    3    3    0  502 -0.39008935992E+03  0.88079448611E+03  0.21360307470E+03  0.98670994821E+03  0.12699999809E+01 0.  1.
</event>
<event>
 5   0  0.9284971E-04  0.1521083E+04  0.7818609E-02  0.8870553E-01
       -2   -1    0    0    0  501  0.00000000000E+00  0.00000000000E+00  0.53578796870E+03  0.53578796871E+03  0.25500000920E-02 0. -1.
        2   -1    0    0  501    0  0.00000000000E+00  0.00000000000E+00 -0.10795756367E+04  0.10795756367E+04  0.25500000920E-02 0.  1.
    10030    2    1    2    0    0  0.00000000000E+00  0.00000000000E+00 -0.54378766803E+03  0.16153636054E+04  0.15210833475E+04 0.  0.
        4    1    3    3  502    0  0.19872671907E+03 -0.23863066566E+03  0.46538895849E+03  0.55948672821E+03  0.12699999809E+01 0. -1.
       -4    1    3    3    0  502 -0.19872671907E+03  0.23863066566E+03 -0.10091766265E+04  0.10558768772E+04  0.12699999809E+01 0.  1.
</event>
<event>
 5   0  0.9312096E-04  0.1620967E+04  0.7818609E-02  0.8807770E-01
        2   -1    0    0  501    0  0.00000000000E+00  0.00000000000E+00  0.11631067234E+04  0.11631067234E+04  0.25500000920E-02 0. -1.
       -2   -1    0    0    0  501  0.00000000000E+00  0.00000000000E+00 -0.56476623909E+03  0.56476623910E+03  0.25500000920E-02 0.  1.
    10030    2    1    2    0    0  0.00000000000E+00  0.00000000000E+00  0.59834048427E+03  0.17278729625E+04  0.16209668841E+04 0.  0.
        3    1    3    3  502    0  0.73955326879E+03 -0.30842827509E+03  0.16941991922E+03  0.81900559063E+03  0.10100000352E+00 0.  1.
       -3    1    3    3    0  502 -0.73955326879E+03  0.30842827509E+03  0.42892056505E+03  0.90886737183E+03  0.10100000352E+00 0. -1.
</event>
<event>
 5   0  0.4947006E-04  0.1746654E+04  0.7818609E-02  0.8735194E-01
        1   -1    0    0  501    0  0.00000000000E+00  0.00000000000E+00  0.90618800410E+03  0.90618800411E+03  0.50400001928E-02 0. -1.
       -1   -1    0    0    0  501  0.00000000000E+00  0.00000000000E+00 -0.84165735607E+03  0.84165735608E+03  0.50400001928E-02 0.  1.
    10030    2    1    2    0    0  0.00000000000E+00  0.00000000000E+00  0.64530648027E+02  0.17478453602E+04  0.17466537146E+04 0.  0.
        2    1    3    3  502    0  0.44901275110E+03  0.34782522477E+03 -0.63159135149E+03  0.84941301669E+03  0.25500000920E-02 0.  1.
       -2    1    3    3    0  502 -0.44901275110E+03 -0.34782522477E+03  0.69612199952E+03  0.89843234350E+03  0.25500000920E-02 0. -1.
</event>
<event>
 5   0  0.5074133E-04  0.1671318E+04  0.7818609E-02  0.8777894E-01
       -1   -1    0    0    0  501  0.00000000000E+00  0.00000000000E+00  0.73576006246E+03  0.73576006248E+03  0.50400001928E-02 0. -1.
        1   -1    0    0  501    0  0.00000000000E+00  0.00000000000E+00 -0.94912146043E+03  0.94912146045E+03  0.50400001928E-02 0.  1.
    10030    2    1    2    0    0  0.00000000000E+00  0.00000000000E+00 -0.21336139797E+03  0.16848815229E+04  0.16713176419E+04 0.  0.
        1    1    3    3  502    0 -0.83634036906E+01 -0.79992601050E+03  0.13688742719E+03  0.81159702842E+03  0.50400001928E-02 0. -1.
       -1    1    3    3    0  502  0.83634036906E+01  0.79992601050E+03 -0.35024882516E+03  0.87328449450E+03  0.50400001928E-02 0.  1.
</event>
<event>
 5   0  0.5059689E-04  0.1737825E+04  0.7818609E-02  0.8740080E-01
       -1   -1    0    0    0  501  0.00000000000E+00  0.00000000000E+00  0.53493790292E+03  0.53493790294E+03  0.50400001928E-02 0. -1.
        1   -1    0    0  501    0  0.00000000000E+00  0.00000000000E+00 -0.14113962293E+04  0.14113962293E+04  0.50400001928E-02 0.  1.
    10030    2    1    2    0    0  0.00000000000E+00  0.00000000000E+00 -0.87645832637E+03  0.19463341322E+04  0.17378254678E+04 0.  0.
        5    1    3    3  502    0  0.19373540771E+03 -0.55893055205E+03  0.27456775983E+03  0.65218579788E+03  0.46999998093E+01 0.  1.
       -5    1    3    3    0  502 -0.19373540771E+03  0.55893055205E+03 -0.11510260862E+04  0.12941483344E+04  0.46999998093E+01 0. -1.
</event>
<event>
 5   0  0.9625225E-04  0.1688843E+04  0.7818609E-02  0.8767753E-01
       -2   -1    0    0    0  501  0.00000000000E+00  0.00000000000E+00  0.90852061342E+03  0.90852061342E+03  0.25500000920E-02 0.  1.
        2   -1    0    0  501    0  0.00000000000E+00  0.00000000000E+00 -0.78484460046E+03  0.78484460047E+03  0.25500000920E-02 0. -1.
    10030    2    1    2    0    0  0.00000000000E+00  0.00000000000E+00  0.12367601296E+03  0.16933652139E+04  0.16888427965E+04 0.  0.
        1    1    3    3  502    0  0.62598841823E+03  0.66277885942E+02 -0.50251307416E+03  0.80546486432E+03  0.50400001928E-02 0. -1.
       -1    1    3    3    0  502 -0.62598841823E+03 -0.66277885942E+02  0.62618908712E+03  0.88790034957E+03  0.50400001928E-02 0.  1.
</event>
<event>
 5   0  0.1007187E-03  0.1713917E+04  0.7818609E-02  0.8753467E-01
        2   -1    0    0  501    0  0.00000000000E+00  0.00000000000E+00  0.10199292386E+04  0.10199292386E+04  0.25500000920E-02 0. -1.
       -2   -1    0    0    0  501  0.00000000000E+00  0.00000000000E+00 -0.72002797988E+03  0.72002797989E+03  0.25500000920E-02 0.  1.
    10030    2    1    2    0    0  0.00000000000E+00  0.00000000000E+00  0.29990125872E+03  0.17399572185E+04  0.17139166716E+04 0.  0.
        5    1    3    3  502    0 -0.11284250204E+03  0.63123736853E+03  0.72706068733E+03  0.96945003933E+03  0.46999998093E+01 0. -1.
       -5    1    3    3    0  502  0.11284250204E+03 -0.63123736853E+03 -0.42715942861E+03  0.77050717916E+03  0.46999998093E+01 0.  1.
</event>
<event>
 5   0  0.9284971E-04  0.1209073E+04  0.7818609E-02  0.9104952E-01
        2   -1    0    0  501    0  0.00000000000E+00  0.00000000000E+00  0.10810100366E+04  0.10810100366E+04  0.25500000920E-02 0. -1.
       -2   -1    0    0    0  501  0.00000000000E+00  0.00000000000E+00 -0.33807692586E+03  0.33807692587E+03  0.25500000920E-02 0.  1.
    10030    2    1    2    0    0  0.00000000000E+00  0.00000000000E+00  0.74293311073E+03  0.14190869625E+04  0.12090732815E+04 0.  0.
        4    1    3    3  502    0 -0.34007327095E+03 -0.36420731726E+02 -0.21360354711E+03  0.40324234345E+03  0.12699999809E+01 0.  1.
       -4    1    3    3    0  502  0.34007327095E+03  0.36420731726E+02  0.95653665784E+03  0.10158446190E+04  0.12699999809E+01 0. -1.
</event>
<event>
 5   0  0.5059689E-04  0.1334242E+04  0.7818609E-02  0.9002843E-01
       -1   -1    0    0    0  501  0.00000000000E+00  0.00000000000E+00  0.14834278663E+04  0.14834278663E+04  0.50400001928E-02 0.  1.
        1   -1    0    0  501    0  0.00000000000E+00  0.00000000000E+00 -0.30001503354E+03  0.30001503358E+03  0.50400001928E-02 0. -1.
    10030    2    1    2    0    0  0.00000000000E+00  0.00000000000E+00  0.11834128328E+04  0.17834428999E+04  0.13342423485E+04 0.  0.
        5    1    3    3  502    0 -0.24806717174E+03 -0.48694117722E+03  0.80301761972E+02  0.55237622572E+03  0.46999998093E+01 0. -1.
       -5    1    3    3    0  502  0.24806717174E+03  0.48694117722E+03  0.11031110708E+04  0.12310666742E+04  0.46999998093E+01 0.  1.
</event>
<event>
 5   0  0.5074133E-04  0.1426474E+04  0.7818609E-02  0.8934875E-01
       -1   -1    0    0    0  501  0.00000000000E+00  0.00000000000E+00  0.44459721600E+03  0.44459721603E+03  0.50400001928E-02 0.  1.
        1   -1    0    0  501    0  0.00000000000E+00  0.00000000000E+00 -0.11441982587E+04  0.11441982587E+04  0.50400001928E-02 0. -1.
    10030    2    1    2    0    0  0.00000000000E+00  0.00000000000E+00 -0.69960104271E+03  0.15887954747E+04  0.14264744798E+04 0.  0.
        1    1    3    3  502    0  0.67962055503E+03  0.21568176206E+03 -0.36924054532E+03  0.80295784549E+03  0.50400001928E-02 0. -1.
       -1    1    3    3    0  502 -0.67962055503E+03 -0.21568176206E+03 -0.33036049739E+03  0.78583762926E+03  0.50400001928E-02 0.  1.
</event>
<event>
 5   0  0.4947006E-04  0.1741803E+04  0.7818609E-02  0.8737875E-01
        1   -1    0    0  501    0  0.00000000000E+00  0.00000000000E+00  0.12275291679E+04  0.12275291679E+04  0.50400001928E-02 0. -1.
       -1   -1    0    0    0  501  0.00000000000E+00  0.00000000000E+00 -0.61788326680E+03  0.61788326682E+03  0.50400001928E-02 0.  1.
    10030    2    1    2    0    0  0.00000000000E+00  0.00000000000E+00  0.60964590111E+03  0.18454124347E+04  0.17418033556E+04 0.  0.
        2    1    3    3  502    0  0.15189341622E+03 -0.77744631933E+03 -0.78609700292E+02  0.79603635239E+03  0.25500000920E-02 0.  1.
       -2    1    3    3    0  502 -0.15189341622E+03  0.77744631933E+03  0.68825560140E+03  0.10493760823E+04  0.25500000920E-02 0. -1.
</event>
<event>
 5   0  0.4947006E-04  0.1592241E+04  0.7818609E-02  0.8825329E-01
        1   -1    0    0  501    0  0.00000000000E+00  0.00000000000E+00  0.15351365514E+04  0.15351365514E+04  0.50400001928E-02 0. -1.
       -1   -1    0    0    0  501  0.00000000000E+00  0.00000000000E+00 -0.41286738681E+03  0.41286738684E+03  0.50400001928E-02 0.  1.
    10030    2    1    2    0    0  0.00000000000E+00  0.00000000000E+00  0.11222691646E+04  0.19480039382E+04  0.15922409571E+04 0.  0.
        2    1    3    3  502    0  0.65337327305E+03 -0.44484089265E+03  0.44489043225E+03  0.90703227640E+03  0.25500000920E-02 0.  1.
       -2    1    3    3    0  502 -0.65337327305E+03  0.44484089265E+03  0.67737873230E+03  0.10409716618E+04  0.25500000920E-02 0. -1.
</event>
<event>
 5   0  0.5059689E-04  0.1682831E+04  0.7818609E-02  0.8771217E-01
       -1   -1    0    0    0  501  0.00000000000E+00  0.00000000000E+00  0.62153915349E+03  0.62153915352E+03  0.50400001928E-02 0.  1.
        1   -1    0    0  501    0  0.00000000000E+00  0.00000000000E+00 -0.11390755189E+04  0.11390755190E+04  0.50400001928E-02 0. -1.
    10030    2    1    2    0    0  0.00000000000E+00  0.00000000000E+00 -0.51753636545E+03  0.17606146725E+04  0.16828309884E+04 0.  0.
        5    1    3    3  502    0 -0.48687612752E+03 -0.68304671272E+03 -0.32782492074E+03  0.90060670881E+03  0.46999998093E+01 0. -1.
       -5    1    3    3    0  502  0.48687612752E+03  0.68304671272E+03 -0.18971144471E+03  0.86000796366E+03  0.46999998093E+01 0.  1.
</event>
<event>
 5   0  0.9625225E-04  0.1734728E+04  0.7818609E-02  0.8741802E-01
       -2   -1    0    0    0  501  0.00000000000E+00  0.00000000000E+00  0.11598752855E+04  0.11598752855E+04  0.25500000920E-02 0.  1.
        2   -1    0    0  501    0  0.00000000000E+00  0.00000000000E+00 -0.64862170410E+03  0.64862170410E+03  0.25500000920E-02 0. -1.
    10030    2    1    2    0    0  0.00000000000E+00  0.00000000000E+00  0.51125358141E+03  0.18084969896E+04  0.17347279720E+04 0.  0.
        1    1    3    3  502    0 -0.23231032887E+03  0.78514151678E+03 -0.42733897335E+02  0.81990333350E+03  0.50400001928E-02 0. -1.
       -1    1    3    3    0  502  0.23231032887E+03 -0.78514151678E+03  0.55398747874E+03  0.98859365611E+03  0.50400001928E-02 0.  1.
</event>
<event>
 5   0  0.4947006E-04  0.1664451E+04  0.7818609E-02  0.8781903E-01
        1   -1    0    0  501    0  0.00000000000E+00  0.00000000000E+00  0.23344463818E+04  0.23344463818E+04  0.50400001928E-02 0. -1.
       -1   -1    0    0    0  501  0.00000000000E+00  0.00000000000E+00 -0.29668674559E+03  0.29668674563E+03  0.50400001928E-02 0.  1.
    10030    2    1    2    0    0  0.00000000000E+00  0.00000000000E+00  0.20377596362E+04  0.26311331275E+04  0.16644510204E+04 0.  0.
        2    1    3    3  502    0  0.92531140635E+01 -0.64147254529E+03  0.18568827897E+04  0.19645829943E+04  0.25500000920E-02 0. -1.
       -2    1    3    3    0  502 -0.92531140635E+01  0.64147254529E+03  0.18087684650E+03  0.66655013322E+03  0.25500000920E-02 0.  1.
</event>
<event>
 5   0  0.5074133E-04  0.1681860E+04  0.7818609E-02  0.8771779E-01
        1   -1    0    0  501    0  0.00000000000E+00  0.00000000000E+00  0.60849355749E+03  0.60849355751E+03  0.50400001928E-02 0.  1.
       -1   -1    0    0    0  501  0.00000000000E+00  0.00000000000E+00 -0.11621534116E+04  0.11621534116E+04  0.50400001928E-02 0. -1.
    10030    2    1    2    0    0  0.00000000000E+00  0.00000000000E+00 -0.55365985413E+03  0.17706469691E+04  0.16818595230E+04 0.  0.
        1    1    3    3  502    0 -0.11618820402E+03  0.21968160814E+03 -0.11226106922E+04  0.11497888824E+04  0.50400001928E-02 0. -1.
       -1    1    3    3    0  502  0.11618820402E+03 -0.21968160814E+03  0.56895083809E+03  0.62085808676E+03  0.50400001928E-02 0.  1.
</event>
<event>
 5   0  0.9284971E-04  0.1774627E+04  0.7818609E-02  0.8719910E-01
       -2   -1    0    0    0  501  0.00000000000E+00  0.00000000000E+00  0.29393146643E+03  0.29393146644E+03  0.25500000920E-02 0. -1.
        2   -1    0    0  501    0  0.00000000000E+00  0.00000000000E+00 -0.26786005622E+04  0.26786005622E+04  0.25500000920E-02 0.  1.
    10030    2    1    2    0    0  0.00000000000E+00  0.00000000000E+00 -0.23846690957E+04  0.29725320286E+04  0.17746267114E+04 0.  0.
        4    1    3    3  502    0  0.18229704418E+03 -0.73098735511E+03 -0.40713030235E+03  0.85634772239E+03  0.12699999809E+01 0.  1.
       -4    1    3    3    0  502 -0.18229704418E+03  0.73098735511E+03 -0.19775387934E+04  0.21161843062E+04  0.12699999809E+01 0. -1.
</event>
<event>
 5   0  0.5059689E-04  0.1702835E+04  0.7818609E-02  0.8759749E-01
       -1   -1    0    0    0  501  0.00000000000E+00  0.00000000000E+00  0.43304169298E+03  0.43304169301E+03  0.50400001928E-02 0. -1.
        1   -1    0    0  501    0  0.00000000000E+00  0.00000000000E+00 -0.16740005394E+04  0.16740005394E+04  0.50400001928E-02 0.  1.
    10030    2    1    2    0    0  0.00000000000E+00  0.00000000000E+00 -0.12409588465E+04  0.21070422325E+04  0.17028353152E+04 0.  0.
        5    1    3    3  502    0 -0.69631429085E+03  0.19205639197E+03 -0.62767741678E+02  0.72505250068E+03  0.46999998093E+01 0. -1.
       -5    1    3    3    0  502  0.69631429085E+03 -0.19205639197E+03 -0.11781911048E+04  0.13819897318E+04  0.46999998093E+01 0.  1.
</event>
<event>
 5   0  0.5059689E-04  0.1932285E+04  0.7818609E-02  0.8638951E-01
       -1   -1    0    0    0  501  0.00000000000E+00  0.00000000000E+00  0.12846385863E+04  0.12846385863E+04  0.50400001928E-02 0. -1.
        1   -1    0    0  501    0  0.00000000000E+00  0.00000000000E+00 -0.72661041813E+03  0.72661041814E+03  0.50400001928E-02 0.  1.
    10030    2    1    2    0    0  0.00000000000E+00  0.00000000000E+00  0.55802816817E+03  0.20112490045E+04  0.19322854658E+04 0.  0.
        5    1    3    3  502    0 -0.31492022418E+03  0.76220265587E+03  0.80285180081E+03  0.11509651343E+04  0.46999998093E+01 0. -1.
       -5    1    3    3    0  502  0.31492022418E+03 -0.76220265587E+03 -0.24482363264E+03  0.86028387019E+03  0.46999998093E+01 0.  1.
</event>
<event>
 5   0  0.4947006E-04  0.1754486E+04  0.7818609E-02  0.8730885E-01
        1   -1    0    0  501    0  0.00000000000E+00  0.00000000000E+00  0.16225680002E+04  0.16225680002E+04  0.50400001928E-02 0. -1.
       -1   -1    0    0    0  501  0.00000000000E+00  0.00000000000E+00 -0.47428233823E+03  0.47428233826E+03  0.50400001928E-02 0.  1.
    10030    2    1    2    0    0  0.00000000000E+00  0.00000000000E+00  0.11482856620E+04  0.20968503385E+04  0.17544860730E+04 0.  0.
        2    1    3    3  502    0 -0.62661653389E+03  0.39116962633E+03  0.11396500366E+04  0.13581105121E+04  0.25500000920E-02 0. -1.
       -2    1    3    3    0  502  0.62661653389E+03 -0.39116962633E+03  0.86356254027E+01  0.73873982642E+03  0.25500000920E-02 0.  1.
</event>
<event>
 5   0  0.9625225E-04  0.1669792E+04  0.7818609E-02  0.8778783E-01
       -2   -1    0    0    0  501  0.00000000000E+00  0.00000000000E+00  0.43585723569E+03  0.43585723570E+03  0.25500000920E-02 0. -1.
        2   -1    0    0  501    0  0.00000000000E+00  0.00000000000E+00 -0.15992646167E+04  0.15992646167E+04  0.25500000920E-02 0.  1.
    10030    2    1    2    0    0  0.00000000000E+00  0.00000000000E+00 -0.11634073810E+04  0.20351218524E+04  0.16697916696E+04 0.  0.
        1    1    3    3  502    0 -0.21227411414E+03  0.16005628328E+03 -0.15462976823E+04  0.15689852885E+04  0.50400001928E-02 0.  1.
       -1    1    3    3    0  502  0.21227411414E+03 -0.16005628328E+03  0.38289030127E+03  0.46613656388E+03  0.50400001928E-02 0. -1.
</event>
<event>
 5   0  0.4947006E-04  0.1628543E+04  0.7818609E-02  0.8803202E-01
        1   -1    0    0  501    0  0.00000000000E+00  0.00000000000E+00  0.12245314056E+04  0.12245314056E+04  0.50400001928E-02 0.  1.
       -1   -1    0    0    0  501  0.00000000000E+00  0.00000000000E+00 -0.54146272566E+03  0.54146272569E+03  0.50400001928E-02 0. -1.
    10030    2    1    2    0    0  0.00000000000E+00  0.00000000000E+00  0.68306867991E+03  0.17659941313E+04  0.16285430452E+04 0.  0.
        2    1    3    3  502    0 -0.30074936092E+03  0.60992135355E+03 -0.14413202180E+03  0.69514622586E+03  0.25500000920E-02 0. -1.
       -2    1    3    3    0  502  0.30074936092E+03 -0.60992135355E+03  0.82720070171E+03  0.10708479054E+04  0.25500000920E-02 0.  1.
</event>
<event>
 5   0  0.9625225E-04  0.1701263E+04  0.7818609E-02  0.8760644E-01
       -2   -1    0    0    0  501  0.00000000000E+00  0.00000000000E+00  0.10928130864E+04  0.10928130864E+04  0.25500000920E-02 0. -1.
        2   -1    0    0  501    0  0.00000000000E+00  0.00000000000E+00 -0.66212077395E+03  0.66212077396E+03  0.25500000920E-02 0.  1.
    10030    2    1    2    0    0  0.00000000000E+00  0.00000000000E+00  0.43069231241E+03  0.17549338603E+04  0.17012633500E+04 0.  0.
        1    1    3    3  502    0  0.84160516045E+03 -0.93627743781E+02  0.13212357042E+03  0.85704261177E+03  0.50400001928E-02 0. -1.
       -1    1    3    3    0  502 -0.84160516045E+03  0.93627743781E+02  0.29856874199E+03  0.89789124855E+03  0.50400001928E-02 0.  1.
</event>
<event>
 5   0  0.9312096E-04  0.8631798E+03  0.7818609E-02  0.9472816E-01
        2   -1    0    0  501    0  0.00000000000E+00  0.00000000000E+00  0.15311479772E+04  0.15311479772E+04  0.25500000920E-02 0.  1.
       -2   -1    0    0    0  501  0.00000000000E+00  0.00000000000E+00 -0.12165370783E+03  0.12165370785E+03  0.25500000920E-02 0. -1.
    10030    2    1    2    0    0  0.00000000000E+00  0.00000000000E+00  0.14094942694E+04  0.16528016850E+04  0.86317976964E+03 0.  0.
        3    1    3    3  502    0 -0.91256140071E+02  0.24703090277E+03  0.13594736632E+04  0.13847456811E+04  0.10100000352E+00 0.  1.
       -3    1    3    3    0  502  0.91256140071E+02 -0.24703090277E+03  0.50020606130E+02  0.26805600397E+03  0.10100000352E+00 0. -1.
</event>
<event>
 5   0  0.9312096E-04  0.1627267E+04  0.7818609E-02  0.8803970E-01
        2   -1    0    0  501    0  0.00000000000E+00  0.00000000000E+00  0.21877094734E+04  0.21877094734E+04  0.25500000920E-02 0.  1.
       -2   -1    0    0    0  501  0.00000000000E+00  0.00000000000E+00 -0.30259941776E+03  0.30259941777E+03  0.25500000920E-02 0. -1.
    10030    2    1    2    0    0  0.00000000000E+00  0.00000000000E+00  0.18851100556E+04  0.24903088912E+04  0.16272671728E+04 0.  0.
        3    1    3    3  502    0 -0.58495110699E+03  0.54573663118E+03  0.71554836389E+03  0.10733153029E+04  0.10100000352E+00 0.  1.
       -3    1    3    3    0  502  0.58495110699E+03 -0.54573663118E+03  0.11695616917E+04  0.14169935883E+04  0.10100000352E+00 0. -1.
</event>
<event>
 5   0  0.5074133E-04  0.1703919E+04  0.7818609E-02  0.8759132E-01
       -1   -1    0    0    0  501  0.00000000000E+00  0.00000000000E+00  0.84554129268E+03  0.84554129269E+03  0.50400001928E-02 0. -1.
        1   -1    0    0  501    0  0.00000000000E+00  0.00000000000E+00 -0.85842677973E+03  0.85842677974E+03  0.50400001928E-02 0.  1.
    10030    2    1    2    0    0  0.00000000000E+00  0.00000000000E+00 -0.12885487048E+02  0.17039680724E+04  0.17039193514E+04 0.  0.
        1    1    3    3  502    0  0.46699268356E+03 -0.61029046737E+03  0.36139744647E+03  0.84920241133E+03  0.50400001928E-02 0. -1.
       -1    1    3    3    0  502 -0.46699268356E+03  0.61029046737E+03 -0.37428293352E+03  0.85476566111E+03  0.50400001928E-02 0.  1.
</event>
<event>
 5   0  0.5059689E-04  0.1618007E+04  0.7818609E-02  0.8809561E-01
       -1   -1    0    0    0  501  0.00000000000E+00  0.00000000000E+00  0.51405485225E+03  0.51405485228E+03  0.50400001928E-02 0.  1.
        1   -1    0    0  501    0  0.00000000000E+00  0.00000000000E+00 -0.12731842934E+04  0.12731842934E+04  0.50400001928E-02 0. -1.
    10030    2    1    2    0    0  0.00000000000E+00  0.00000000000E+00 -0.75912944112E+03  0.17872391457E+04  0.16180068774E+04 0.  0.
        5    1    3    3  502    0 -0.48839965579E+03  0.64492414991E+03 -0.37762272795E+03  0.89279471188E+03  0.46999998093E+01 0.  1.
       -5    1    3    3    0  502  0.48839965579E+03 -0.64492414991E+03 -0.38150671317E+03  0.89444443377E+03  0.46999998093E+01 0. -1.
</event>
<event>
 5   0  0.9312096E-04  0.1683493E+04  0.7818609E-02  0.8770835E-01
       -2   -1    0    0    0  501  0.00000000000E+00  0.00000000000E+00  0.37249644438E+03  0.37249644439E+03  0.25500000920E-02 0. -1.
        2   -1    0    0  501    0  0.00000000000E+00  0.00000000000E+00 -0.19021320999E+04  0.19021320999E+04  0.25500000920E-02 0.  1.
    10030    2    1    2    0    0  0.00000000000E+00  0.00000000000E+00 -0.15296356555E+04  0.22746285442E+04  0.16834933251E+04 0.  0.
        3    1    3    3  502    0  0.12051730979E+03  0.41558031567E+03 -0.17403586627E+04  0.17933431645E+04  0.10100000352E+00 0.  1.
       -3    1    3    3    0  502 -0.12051730979E+03 -0.41558031567E+03  0.21072300725E+03  0.48128537970E+03  0.10100000352E+00 0. -1.
</event>
<event>
 5   0  0.5059689E-04  0.1671291E+04  0.7818609E-02  0.8777910E-01
       -1   -1    0    0    0  501  0.00000000000E+00  0.00000000000E+00  0.10331071188E+04  0.10331071188E+04  0.50400001928E-02 0.  1.
        1   -1    0    0  501    0  0.00000000000E+00  0.00000000000E+00 -0.67592563844E+03  0.67592563846E+03  0.50400001928E-02 0. -1.
    10030    2    1    2    0    0  0.00000000000E+00  0.00000000000E+00  0.35718148037E+03  0.17090327573E+04  0.16712912240E+04 0.  0.
        5    1    3    3  502    0 -0.16799668003E+03 -0.42502211790E+03  0.89397076522E+03  0.10040281392E+04  0.46999998093E+01 0.  1.
       -5    1    3    3    0  502  0.16799668003E+03  0.42502211790E+03 -0.53678928486E+03  0.70500461810E+03  0.46999998093E+01 0. -1.
</event>
<event>
 5   0  0.9610114E-04  0.1782800E+04  0.7818609E-02  0.8715500E-01
        2   -1    0    0  501    0  0.00000000000E+00  0.00000000000E+00  0.10337605308E+04  0.10337605308E+04  0.25500000920E-02 0. -1.
       -2   -1    0    0    0  501  0.00000000000E+00  0.00000000000E+00 -0.76864397524E+03  0.76864397524E+03  0.25500000920E-02 0.  1.
    10030    2    1    2    0    0  0.00000000000E+00  0.00000000000E+00  0.26511655554E+03  0.18024045060E+04  0.17827998248E+04 0.  0.
        2    1    3    3  502    0  0.24031630102E+03 -0.47759117759E+03  0.85366786966E+03  0.10072706137E+04  0.25500000920E-02 0. -1.
       -2    1    3    3    0  502 -0.24031630102E+03  0.47759117759E+03 -0.58855131412E+03  0.79513389237E+03  0.25500000920E-02 0.  1.
</event>
<event>
 5   0  0.5009762E-04  0.1795204E+04  0.7818609E-02  0.8708854E-01
        1   -1    0    0  501    0  0.00000000000E+00  0.00000000000E+00  0.59451606541E+03  0.59451606543E+03  0.50400001928E-02 0. -1.
       -1   -1    0    0    0  501  0.00000000000E+00  0.00000000000E+00 -0.13552018222E+04  0.13552018222E+04  0.50400001928E-02 0.  1.
    10030    2    1    2    0    0  0.00000000000E+00  0.00000000000E+00 -0.76068575674E+03  0.19497178876E+04  0.17952038939E+04 0.  0.
        3    1    3    3  502    0  0.34867377299E+03  0.80613850227E+03 -0.58135852821E+03  0.10532855422E+04  0.10100000352E+00 0.  1.
       -3    1    3    3    0  502 -0.34867377299E+03 -0.80613850227E+03 -0.17932722853E+03  0.89643234542E+03  0.10100000352E+00 0. -1.
</event>
<event>
 5   0  0.5074133E-04  0.1681638E+04  0.7818609E-02  0.8771907E-01
       -1   -1    0    0    0  501  0.00000000000E+00  0.00000000000E+00  0.40562240721E+03  0.40562240724E+03  0.50400001928E-02 0. -1.
        1   -1    0    0  501    0  0.00000000000E+00  0.00000000000E+00 -0.17429428298E+04  0.17429428298E+04  0.50400001928E-02 0.  1.
    10030    2    1    2    0    0  0.00000000000E+00  0.00000000000E+00 -0.13373204226E+04  0.21485652370E+04  0.16816380898E+04 0.  0.
        1    1    3    3  502    0 -0.38891978129E+03 -0.62565052732E+03 -0.15080580149E+03  0.75195715862E+03  0.50400001928E-02 0. -1.
       -1    1    3    3    0  502  0.38891978129E+03  0.62565052732E+03 -0.11865146211E+04  0.13966080784E+04  0.50400001928E-02 0.  1.
</event>
<event>
 5   0  0.5035495E-04  0.1767881E+04  0.7818609E-02  0.8723569E-01
       -1   -1    0    0    0  501  0.00000000000E+00  0.00000000000E+00  0.87296936885E+03  0.87296936886E+03  0.50400001928E-02 0. -1.
        1   -1    0    0  501    0  0.00000000000E+00  0.00000000000E+00 -0.89504957836E+03  0.89504957837E+03  0.50400001928E-02 0.  1.
    10030    2    1    2    0    0  0.00000000000E+00  0.00000000000E+00 -0.22080209510E+02  0.17680189472E+04  0.17678810656E+04 0.  0.
        4    1    3    3  502    0  0.23077053775E+03  0.18744814588E+02 -0.86418508950E+03  0.89466412188E+03  0.12699999809E+01 0.  1.
       -4    1    3    3    0  502 -0.23077053775E+03 -0.18744814588E+02  0.84210487999E+03  0.87335482535E+03  0.12699999809E+01 0. -1.
</event>
<event>
 5   0  0.9284971E-04  0.1737511E+04  0.7818609E-02  0.8740255E-01
       -2   -1    0    0    0  501  0.00000000000E+00  0.00000000000E+00  0.14982937208E+04  0.14982937208E+04  0.25500000920E-02 0.  1.
        2   -1    0    0  501    0  0.00000000000E+00  0.00000000000E+00 -0.50373022579E+03  0.50373022579E+03  0.25500000920E-02 0. -1.
    10030    2    1    2    0    0  0.00000000000E+00  0.00000000000E+00  0.99456349497E+03  0.20020239465E+04  0.17375106725E+04 0.  0.
        4    1    3    3  502    0 -0.20154859945E+03 -0.80393116481E+02  0.14665652856E+04  0.14825316998E+04  0.12699999809E+01 0.  1.
       -4    1    3    3    0  502  0.20154859945E+03  0.80393116481E+02 -0.47200179065E+03  0.51949224672E+03  0.12699999809E+01 0. -1.
</event>
<event>
 5   0  0.5009762E-04  0.1246771E+04  0.7818609E-02  0.9072875E-01
       -1   -1    0    0    0  501  0.00000000000E+00  0.00000000000E+00  0.76150419961E+03  0.76150419962E+03  0.50400001928E-02 0. -1.
        1   -1    0    0  501    0  0.00000000000E+00  0.00000000000E+00 -0.51031816967E+03  0.51031816970E+03  0.50400001928E-02 0.  1.
    10030    2    1    2    0    0  0.00000000000E+00  0.00000000000E+00  0.25118602993E+03  0.12718223693E+04  0.12467709162E+04 0.  0.
        3    1    3    3  502    0  0.35871018543E+03  0.26569298873E+03  0.56947260656E+03  0.72357779210E+03  0.10100000352E+00 0. -1.
       -3    1    3    3    0  502 -0.35871018543E+03 -0.26569298873E+03 -0.31828657663E+03  0.54824457723E+03  0.10100000352E+00 0.  1.
</event>
<event>
 5   0  0.5059689E-04  0.1668834E+04  0.7818609E-02  0.8779342E-01
       -1   -1    0    0    0  501  0.00000000000E+00  0.00000000000E+00  0.49719271014E+03  0.49719271016E+03  0.50400001928E-02 0. -1.
        1   -1    0    0  501    0  0.00000000000E+00  0.00000000000E+00 -0.14003652449E+04  0.14003652449E+04  0.50400001928E-02 0.  1.
    10030    2    1    2    0    0  0.00000000000E+00  0.00000000000E+00 -0.90317253477E+03  0.18975579551E+04  0.16688335943E+04 0.  0.
        5    1    3    3  502    0  0.67184725899E+03  0.31324458445E+03 -0.16035187657E+02  0.74147159510E+03  0.46999998093E+01 0. -1.
       -5    1    3    3    0  502 -0.67184725899E+03 -0.31324458445E+03 -0.88713734711E+03  0.11560863600E+04  0.46999998093E+01 0.  1.
</event>
<event>
 5   0  0.5035495E-04  0.1669662E+04  0.7818609E-02  0.8778859E-01
        1   -1    0    0  501    0  0.00000000000E+00  0.00000000000E+00  0.30424700757E+03  0.30424700761E+03  0.50400001928E-02 0. -1.
       -1   -1    0    0    0  501  0.00000000000E+00  0.00000000000E+00 -0.22907134316E+04  0.22907134316E+04  0.50400001928E-02 0.  1.
    10030    2    1    2    0    0  0.00000000000E+00  0.00000000000E+00 -0.19864664240E+04  0.25949604392E+04  0.16696618901E+04 0.  0.
        4    1    3    3  502    0  0.62999225650E+03  0.21018550271E+03 -0.17793993915E+04  0.18992977640E+04  0.12699999809E+01 0.  1.
       -4    1    3    3    0  502 -0.62999225650E+03 -0.21018550271E+03 -0.20706703244E+03  0.69566267517E+03  0.12699999809E+01 0. -1.
</event>
<event>
 5   0  0.9610114E-04  0.1434601E+04  0.7818609E-02  0.8929147E-01
        2   -1    0    0  501    0  0.00000000000E+00  0.00000000000E+00  0.10347994856E+04  0.10347994856E+04  0.25500000920E-02 0. -1.
       -2   -1    0    0    0  501  0.00000000000E+00  0.00000000000E+00 -0.49721687327E+03  0.49721687327E+03  0.25500000920E-02 0.  1.
    10030    2    1    2    0    0  0.00000000000E+00  0.00000000000E+00  0.53758261234E+03  0.15320163589E+04  0.14346006618E+04 0.  0.
        2    1    3    3  502    0 -0.15380831591E+03  0.63509795416E+03 -0.47123181901E+02  0.65515418315E+03  0.25500000920E-02 0.  1.
       -2    1    3    3    0  502  0.15380831591E+03 -0.63509795416E+03  0.58470579424E+03  0.87686217574E+03  0.25500000920E-02 0. -1.
</event>
<event>
 5   0  0.9284971E-04  0.1821842E+04  0.7818609E-02  0.8694770E-01
        2   -1    0    0  501    0  0.00000000000E+00  0.00000000000E+00  0.12935236038E+04  0.12935236038E+04  0.25500000920E-02 0.  1.
       -2   -1    0    0    0  501  0.00000000000E+00  0.00000000000E+00 -0.64148560654E+03  0.64148560654E+03  0.25500000920E-02 0. -1.
    10030    2    1    2    0    0  0.00000000000E+00  0.00000000000E+00  0.65203799725E+03  0.19350092103E+04  0.18218416765E+04 0.  0.
        4    1    3    3  502    0  0.37547158713E+03  0.73248358792E+03 -0.88429986020E+02  0.82784817125E+03  0.12699999809E+01 0.  1.
       -4    1    3    3    0  502 -0.37547158713E+03 -0.73248358792E+03  0.74046798327E+03  0.11071610391E+04  0.12699999809E+01 0. -1.
</event>
<event>
 5   0  0.9284971E-04  0.1678202E+04  0.7818609E-02  0.8773895E-01
       -2   -1    0    0    0  501  0.00000000000E+00  0.00000000000E+00  0.37554424419E+03  0.37554424420E+03  0.25500000920E-02 0. -1.
        2   -1    0    0  501    0  0.00000000000E+00  0.00000000000E+00 -0.18748538444E+04  0.18748538444E+04  0.25500000920E-02 0.  1.
    10030    2    1    2    0    0  0.00000000000E+00  0.00000000000E+00 -0.14993096002E+04  0.22503980886E+04  0.16782020974E+04 0.  0.
        4    1    3    3  502    0 -0.29932973046E+03 -0.27611535075E+03 -0.17334563590E+04  0.17806489086E+04  0.12699999809E+01 0.  1.
       -4    1    3    3    0  502  0.29932973046E+03  0.27611535075E+03  0.23414675882E+03  0.46974917991E+03  0.12699999809E+01 0. -1.
</event>
<event>
 5   0  0.5035495E-04  0.1728101E+04  0.7818609E-02  0.8745498E-01
        1   -1    0    0  501    0  0.00000000000E+00  0.00000000000E+00  0.68820286159E+03  0.68820286161E+03  0.50400001928E-02 0. -1.
       -1   -1    0    0    0  501  0.00000000000E+00  0.00000000000E+00 -0.10848304452E+04  0.10848304453E+04  0.50400001928E-02 0.  1.
    10030    2    1    2    0    0  0.00000000000E+00  0.00000000000E+00 -0.39662758365E+03  0.17730333069E+04  0.17281011739E+04 0.  0.
        4    1    3    3  502    0 -0.37196576035E+03  0.73135803593E+03 -0.47616630756E+03  0.94867226636E+03  0.12699999809E+01 0. -1.
       -4    1    3    3    0  502  0.37196576035E+03 -0.73135803593E+03  0.79538723914E+02  0.82436104050E+03  0.12699999809E+01 0.  1.
</event>
<event>
 5   0  0.9610114E-04  0.1611992E+04  0.7818609E-02  0.8813214E-01
        2   -1    0    0  501    0  0.00000000000E+00  0.00000000000E+00  0.69085282962E+03  0.69085282962E+03  0.25500000920E-02 0.  1.
       -2   -1    0    0    0  501  0.00000000000E+00  0.00000000000E+00 -0.94033003553E+03  0.94033003554E+03  0.25500000920E-02 0. -1.
    10030    2    1    2    0    0  0.00000000000E+00  0.00000000000E+00 -0.24947720592E+03  0.16311828652E+04  0.16119921412E+04 0.  0.
        2    1    3    3  502    0 -0.16666509546E+03 -0.56403995868E+03  0.43292234442E+03  0.73030136610E+03  0.25500000920E-02 0.  1.
       -2    1    3    3    0  502  0.16666509546E+03  0.56403995868E+03 -0.68239955034E+03  0.90088149905E+03  0.25500000920E-02 0. -1.
</event>
<event>
 5   0  0.9284971E-04  0.1704927E+04  0.7818609E-02  0.8758559E-01
       -2   -1    0    0    0  501  0.00000000000E+00  0.00000000000E+00  0.64676232791E+03  0.64676232791E+03  0.25500000920E-02 0. -1.
        2   -1    0    0  501    0  0.00000000000E+00  0.00000000000E+00 -0.11235872626E+04  0.11235872626E+04  0.25500000920E-02 0.  1.
    10030    2    1    2    0    0  0.00000000000E+00  0.00000000000E+00 -0.47682493473E+03  0.17703495905E+04  0.17049268765E+04 0.  0.
        4    1    3    3  502    0 -0.50567915501E+03 -0.45535218104E+03 -0.77156938073E+03  0.10287749699E+04  0.12699999809E+01 0.  1.
       -4    1    3    3    0  502  0.50567915501E+03  0.45535218104E+03  0.29474444600E+03  0.74157462061E+03  0.12699999809E+01 0. -1.
</event>
<event>
 5   0  0.1007187E-03  0.1498897E+04  0.7818609E-02  0.8885187E-01
       -2   -1    0    0    0  501  0.00000000000E+00  0.00000000000E+00  0.13044376693E+04  0.13044376693E+04  0.25500000920E-02 0.  1.
        2   -1    0    0  501    0  0.00000000000E+00  0.00000000000E+00 -0.43058615590E+03  0.43058615590E+03  0.25500000920E-02 0. -1.
    10030    2    1    2    0    0  0.00000000000E+00  0.00000000000E+00  0.87385151343E+03  0.17350238252E+04  0.14988966631E+04 0.  0.
        5    1    3    3  502    0 -0.13860665862E+03 -0.63905477369E+03  0.86072849728E+03  0.10809618151E+04  0.46999998093E+01 0.  1.
       -5    1    3    3    0  502  0.13860665862E+03  0.63905477369E+03  0.13123016144E+02  0.65406201017E+03  0.46999998093E+01 0. -1.
</event>
<event>
 5   0  0.3523125E-04  0.1673373E+04  0.7818609E-02  0.8776698E-01
        4   -1    0    0  501    0  0.00000000000E+00  0.00000000000E+00  0.10033531623E+04  0.10033539661E+04  0.12699999809E+01 0. -1.
       -4   -1    0    0    0  501  0.00000000000E+00  0.00000000000E+00 -0.69770345883E+03  0.69770461469E+03  0.12699999809E+01 0.  1.
    10030    2    1    2    0    0  0.00000000000E+00  0.00000000000E+00  0.30564970348E+03  0.17010585808E+04  0.16733734054E+04 0.  0.
        3    1    3    3  502    0  0.29206300953E+03 -0.31756596946E+03  0.88155022552E+03  0.98146816393E+03  0.10100000352E+00 0. -1.
       -3    1    3    3    0  502 -0.29206300953E+03  0.31756596946E+03 -0.57590052204E+03  0.71959041682E+03  0.10100000352E+00 0.  1.
</event>
<event>
 5   0  0.1007187E-03  0.1714465E+04  0.7818609E-02  0.8753157E-01
        2   -1    0    0  501    0  0.00000000000E+00  0.00000000000E+00  0.20715654902E+04  0.20715654902E+04  0.25500000920E-02 0.  1.
       -2   -1    0    0    0  501  0.00000000000E+00  0.00000000000E+00 -0.35473037234E+03  0.35473037235E+03  0.25500000920E-02 0. -1.
    10030    2    1    2    0    0  0.00000000000E+00  0.00000000000E+00  0.17168351179E+04  0.24262958626E+04  0.17144645785E+04 0.  0.
        5    1    3    3  502    0  0.68033374920E+02 -0.62677750774E+03  0.36452492897E+02  0.63152945977E+03  0.46999998093E+01 0. -1.
       -5    1    3    3    0  502 -0.68033374920E+02  0.62677750774E+03  0.16803826250E+04  0.17947664028E+04  0.46999998093E+01 0.  1.
</event>
<event>
 5   0  0.5059689E-04  0.1663542E+04  0.7818609E-02  0.8782435E-01
        1   -1    0    0  501    0  0.00000000000E+00  0.00000000000E+00  0.19921219438E+04  0.19921219438E+04  0.50400001928E-02 0.  1.
       -1   -1    0    0    0  501  0.00000000000E+00  0.00000000000E+00 -0.34728966783E+03  0.34728966787E+03  0.50400001928E-02 0. -1.
    10030    2    1    2    0    0  0.00000000000E+00  0.00000000000E+00  0.16448322759E+04  0.23394116116E+04  0.16635424469E+04 0.  0.
        5    1    3    3  502    0 -0.41841532833E+03  0.34897155732E+03 -0.61384108867E+02  0.54830888523E+03  0.46999998093E+01 0. -1.
       -5    1    3    3    0  502  0.41841532833E+03 -0.34897155732E+03  0.17062163848E+04  0.17911027264E+04  0.46999998093E+01 0.  1.
</event>
<event>
 5   0  0.4947006E-04  0.1644028E+04  0.7818609E-02  0.8793947E-01
        1   -1    0    0  501    0  0.00000000000E+00  0.00000000000E+00  0.20657796743E+04  0.20657796743E+04  0.50400001928E-02 0.  1.
       -1   -1    0    0    0  501  0.00000000000E+00  0.00000000000E+00 -0.32709526560E+03  0.32709526564E+03  0.50400001928E-02 0. -1.
    10030    2    1    2    0    0  0.00000000000E+00  0.00000000000E+00  0.17386844087E+04  0.23928749399E+04  0.16440276777E+04 0.  0.
        2    1    3    3  502    0  0.70792366915E+03  0.39003578690E+03  0.65139218558E+03  0.10380730301E+04  0.25500000920E-02 0. -1.
       -2    1    3    3    0  502 -0.70792366915E+03 -0.39003578690E+03  0.10872922231E+04  0.13548019098E+04  0.25500000920E-02 0.  1.
</event>
<event>
 5   0  0.9625225E-04  0.1638260E+04  0.7818609E-02  0.8797382E-01
       -2   -1    0    0    0  501  0.00000000000E+00  0.00000000000E+00  0.58955905741E+03  0.58955905742E+03  0.25500000920E-02 0. -1.
        2   -1    0    0  501    0  0.00000000000E+00  0.00000000000E+00 -0.11380950001E+04  0.11380950001E+04  0.25500000920E-02 0.  1.
    10030    2    1    2    0    0  0.00000000000E+00  0.00000000000E+00 -0.54853594273E+03  0.17276540576E+04  0.16382603157E+04 0.  0.
        1    1    3    3  502    0 -0.52066863585E+03 -0.52080867548E+03 -0.65249828809E+03  0.98391641962E+03  0.50400001928E-02 0.  1.
       -1    1    3    3    0  502  0.52066863585E+03  0.52080867548E+03  0.10396234537E+03  0.74373763794E+03  0.50400001928E-02 0. -1.
</event>
<event>
 5   0  0.5035495E-04  0.1699905E+04  0.7818609E-02  0.8761418E-01
       -1   -1    0    0    0  501  0.00000000000E+00  0.00000000000E+00  0.66508900497E+03  0.66508900499E+03  0.50400001928E-02 0. -1.
        1   -1    0    0  501    0  0.00000000000E+00  0.00000000000E+00 -0.10861994539E+04  0.10861994539E+04  0.50400001928E-02 0.  1.
    10030    2    1    2    0    0  0.00000000000E+00  0.00000000000E+00 -0.42111044892E+03  0.17512884589E+04  0.16999050727E+04 0.  0.
        4    1    3    3  502    0  0.70159409082E+02  0.69558932865E+03 -0.70854071951E+03  0.99538857785E+03  0.12699999809E+01 0.  1.
       -4    1    3    3    0  502 -0.70159409082E+02 -0.69558932865E+03  0.28743027059E+03  0.75589988105E+03  0.12699999809E+01 0. -1.
</event>
<event>
 5   0  0.9312096E-04  0.1698933E+04  0.7818609E-02  0.8761973E-01
        2   -1    0    0  501    0  0.00000000000E+00  0.00000000000E+00  0.10482602708E+04  0.10482602708E+04  0.25500000920E-02 0. -1.
       -2   -1    0    0    0  501  0.00000000000E+00  0.00000000000E+00 -0.68837218083E+03  0.68837218083E+03  0.25500000920E-02 0.  1.
    10030    2    1    2    0    0  0.00000000000E+00  0.00000000000E+00  0.35988808999E+03  0.17366324517E+04  0.16989328518E+04 0.  0.
        3    1    3    3  502    0 -0.27971688814E+03  0.54950647916E+03 -0.41731099698E+03  0.74454508698E+03  0.10100000352E+00 0.  1.
       -3    1    3    3    0  502  0.27971688814E+03 -0.54950647916E+03  0.77719908697E+03  0.99208736467E+03  0.10100000352E+00 0. -1.
</event>
<event>
 5   0  0.5059689E-04  0.1541913E+04  0.7818609E-02  0.8857050E-01
       -1   -1    0    0    0  501  0.00000000000E+00  0.00000000000E+00  0.90355539778E+03  0.90355539779E+03  0.50400001928E-02 0.  1.
        1   -1    0    0  501    0  0.00000000000E+00  0.00000000000E+00 -0.65781704721E+03  0.65781704722E+03  0.50400001928E-02 0. -1.
    10030    2    1    2    0    0  0.00000000000E+00  0.00000000000E+00  0.24573835057E+03  0.15613724450E+04  0.15419132839E+04 0.  0.
        5    1    3    3  502    0  0.40184588623E+03 -0.40257476698E+03 -0.40408796859E+03  0.69775048237E+03  0.46999998093E+01 0. -1.
       -5    1    3    3    0  502 -0.40184588623E+03  0.40257476698E+03  0.64982631916E+03  0.86362196265E+03  0.46999998093E+01 0.  1.
</event>
<event>
 5   0  0.5009762E-04  0.1660371E+04  0.7818609E-02  0.8784295E-01
       -1   -1    0    0    0  501  0.00000000000E+00  0.00000000000E+00  0.15857328596E+04  0.15857328596E+04  0.50400001928E-02 0.  1.
        1   -1    0    0  501    0  0.00000000000E+00  0.00000000000E+00 -0.43463048230E+03  0.43463048233E+03  0.50400001928E-02 0. -1.
    10030    2    1    2    0    0  0.00000000000E+00  0.00000000000E+00  0.11511023773E+04  0.20203633419E+04  0.16603708473E+04 0.  0.
        3    1    3    3  502    0 -0.63506562362E+02  0.53710289264E+03  0.13419465507E+04  0.14468355663E+04  0.10100000352E+00 0.  1.
       -3    1    3    3    0  502  0.63506562362E+02 -0.53710289264E+03 -0.19084417338E+03  0.57352777567E+03  0.10100000352E+00 0. -1.
</event>
<event>
 5   0  0.3523125E-04  0.1006031E+04  0.7818609E-02  0.9301954E-01
        3   -1    0    0  501    0  0.00000000000E+00  0.00000000000E+00  0.58092167163E+03  0.58092168041E+03  0.10100000352E+00 0.  1.
       -3   -1    0    0    0  501  0.00000000000E+00  0.00000000000E+00 -0.43555739411E+03  0.43555740582E+03  0.10100000352E+00 0. -1.
    10030    2    1    2    0    0  0.00000000000E+00  0.00000000000E+00  0.14536427752E+03  0.10164790862E+04  0.10060312915E+04 0.  0.
        1    1    3    3  502    0  0.45981382189E+03 -0.18211271174E+03  0.16545590698E+03  0.52150690097E+03  0.50400001928E-02 0. -1.
       -1    1    3    3    0  502 -0.45981382189E+03  0.18211271174E+03 -0.20091629465E+02  0.49497218526E+03  0.50400001928E-02 0.  1.
</event>
<event>
 5   0  0.9610114E-04  0.1594059E+04  0.7818609E-02  0.8824206E-01
       -2   -1    0    0    0  501  0.00000000000E+00  0.00000000000E+00  0.69050581206E+03  0.69050581207E+03  0.25500000920E-02 0. -1.
        2   -1    0    0  501    0  0.00000000000E+00  0.00000000000E+00 -0.91998663271E+03  0.91998663271E+03  0.25500000920E-02 0.  1.
    10030    2    1    2    0    0  0.00000000000E+00  0.00000000000E+00 -0.22948082064E+03  0.16104924448E+04  0.15940591167E+04 0.  0.
        2    1    3    3  502    0  0.36113036447E+03  0.54181370520E+03 -0.57912983061E+03  0.87141757613E+03  0.25500000920E-02 0.  1.
       -2    1    3    3    0  502 -0.36113036447E+03 -0.54181370520E+03  0.34964900997E+03  0.73907486864E+03  0.25500000920E-02 0. -1.
</event>
<event>
 5   0  0.1007187E-03  0.1709224E+04  0.7818609E-02  0.8756121E-01
       -2   -1    0    0    0  501  0.00000000000E+00  0.00000000000E+00  0.81769943654E+03  0.81769943654E+03  0.25500000920E-02 0. -1.
        2   -1    0    0  501    0  0.00000000000E+00  0.00000000000E+00 -0.89319057255E+03  0.89319057256E+03  0.25500000920E-02 0.  1.
    10030    2    1    2    0    0  0.00000000000E+00  0.00000000000E+00 -0.75491136017E+02  0.17108900091E+04  0.17092237161E+04 0.  0.
        5    1    3    3  502    0 -0.40863373773E+03 -0.53048462314E+03  0.49375594976E+03  0.83199308586E+03  0.46999998093E+01 0. -1.
       -5    1    3    3    0  502  0.40863373773E+03  0.53048462314E+03 -0.56924708578E+03  0.87889692323E+03  0.46999998093E+01 0.  1.
</event>
<event>
 5   0  0.5035495E-04  0.1703900E+04  0.7818609E-02  0.8759143E-01
        1   -1    0    0  501    0  0.00000000000E+00  0.00000000000E+00  0.11323783938E+04  0.11323783938E+04  0.50400001928E-02 0. -1.
       -1   -1    0    0    0  501  0.00000000000E+00  0.00000000000E+00 -0.64096838580E+03  0.64096838582E+03  0.50400001928E-02 0.  1.
    10030    2    1    2    0    0  0.00000000000E+00  0.00000000000E+00  0.49141000796E+03  0.17733467796E+04  0.17038999398E+04 0.  0.
        4    1    3    3  502    0  0.38692199946E+03 -0.28190274936E+03 -0.48774437308E+03  0.68342810897E+03  0.12699999809E+01 0.  1.
       -4    1    3    3    0  502 -0.38692199946E+03  0.28190274936E+03  0.97915438105E+03  0.10899186706E+04  0.12699999809E+01 0. -1.
</event>
<event>
 5   0  0.9284971E-04  0.1704267E+04  0.7818609E-02  0.8758934E-01
        2   -1    0    0  501    0  0.00000000000E+00  0.00000000000E+00  0.49507325365E+03  0.49507325365E+03  0.25500000920E-02 0. -1.
       -2   -1    0    0    0  501  0.00000000000E+00  0.00000000000E+00 -0.14667160789E+04  0.14667160789E+04  0.25500000920E-02 0.  1.
    10030    2    1    2    0    0  0.00000000000E+00  0.00000000000E+00 -0.97164282525E+03  0.19617893326E+04  0.17042674689E+04 0.  0.
        4    1    3    3  502    0  0.57948673746E+03  0.84005636889E+02  0.22681196035E+03  0.62793877423E+03  0.12699999809E+01 0. -1.
       -4    1    3    3    0  502 -0.57948673746E+03 -0.84005636889E+02 -0.11984547856E+04  0.13338505583E+04  0.12699999809E+01 0.  1.
</event>
<event>
 5   0  0.5059689E-04  0.1661962E+04  0.7818609E-02  0.8783361E-01
        1   -1    0    0  501    0  0.00000000000E+00  0.00000000000E+00  0.10347106392E+04  0.10347106392E+04  0.50400001928E-02 0.  1.
       -1   -1    0    0    0  501  0.00000000000E+00  0.00000000000E+00 -0.66736436928E+03  0.66736436930E+03  0.50400001928E-02 0. -1.
    10030    2    1    2    0    0  0.00000000000E+00  0.00000000000E+00  0.36734626994E+03  0.17020750085E+04  0.16619615076E+04 0.  0.
        5    1    3    3  502    0 -0.64801706781E+03 -0.27190312676E+03  0.63782818656E+03  0.94905443263E+03  0.46999998093E+01 0.  1.
       -5    1    3    3    0  502  0.64801706781E+03  0.27190312676E+03 -0.27048191663E+03  0.75302057591E+03  0.46999998093E+01 0. -1.
</event>
<event>
 5   0  0.9610114E-04  0.1821131E+04  0.7818609E-02  0.8695142E-01
        2   -1    0    0  501    0  0.00000000000E+00  0.00000000000E+00  0.70274347347E+03  0.70274347348E+03  0.25500000920E-02 0.  1.
       -2   -1    0    0    0  501  0.00000000000E+00  0.00000000000E+00 -0.11798462202E+04  0.11798462202E+04  0.25500000920E-02 0. -1.
    10030    2    1    2    0    0  0.00000000000E+00  0.00000000000E+00 -0.47710274670E+03  0.18825896937E+04  0.18211306718E+04 0.  0.
        2    1    3    3  502    0  0.19508457683E+03  0.88838221723E+03 -0.19410893763E+03  0.93003184660E+03  0.25500000920E-02 0.  1.
       -2    1    3    3    0  502 -0.19508457683E+03 -0.88838221723E+03 -0.28299380908E+03  0.95255784706E+03  0.25500000920E-02 0. -1.
</event>
<event>
 5   0  0.9312096E-04  0.1712116E+04  0.7818609E-02  0.8754484E-01
        2   -1    0    0  501    0  0.00000000000E+00  0.00000000000E+00  0.11002128952E+04  0.11002128952E+04  0.25500000920E-02 0. -1.
       -2   -1    0    0    0  501  0.00000000000E+00  0.00000000000E+00 -0.66608524785E+03  0.66608524785E+03  0.25500000920E-02 0.  1.
    10030    2    1    2    0    0  0.00000000000E+00  0.00000000000E+00  0.43412764731E+03  0.17662981430E+04  0.17121163266E+04 0.  0.
        3    1    3    3  502    0 -0.56489733099E+03 -0.24811473595E+03  0.82927921162E+03  0.10336217576E+04  0.10100000352E+00 0. -1.
       -3    1    3    3    0  502  0.56489733099E+03  0.24811473595E+03 -0.39515156431E+03  0.73267638541E+03  0.10100000352E+00 0.  1.
</event>
<event>
 5   0  0.4947006E-04  0.1683926E+04  0.7818609E-02  0.8770586E-01
        1   -1    0    0  501    0  0.00000000000E+00  0.00000000000E+00  0.20411778580E+04  0.20411778580E+04  0.50400001928E-02 0.  1.
       -1   -1    0    0    0  501  0.00000000000E+00  0.00000000000E+00 -0.34730022447E+03  0.34730022450E+03  0.50400001928E-02 0. -1.
    10030    2    1    2    0    0  0.00000000000E+00  0.00000000000E+00  0.16938776335E+04  0.23884780825E+04  0.16839258039E+04 0.  0.
        2    1    3    3  502    0  0.18529065898E+03  0.44686078356E+02  0.20101745039E+04  0.20191906820E+04  0.25500000920E-02 0.  1.
       -2    1    3    3    0  502 -0.18529065898E+03 -0.44686078356E+02 -0.31629687044E+03  0.36928740049E+03  0.25500000920E-02 0. -1.
</event>
<event>
 5   0  0.5059689E-04  0.1758988E+04  0.7818609E-02  0.8728418E-01
       -1   -1    0    0    0  501  0.00000000000E+00  0.00000000000E+00  0.63769190070E+03  0.63769190072E+03  0.50400001928E-02 0. -1.
        1   -1    0    0  501    0  0.00000000000E+00  0.00000000000E+00 -0.12129840636E+04  0.12129840636E+04  0.50400001928E-02 0.  1.
    10030    2    1    2    0    0  0.00000000000E+00  0.00000000000E+00 -0.57529216289E+03  0.18506759643E+04  0.17589884742E+04 0.  0.
        5    1    3    3  502    0  0.40227709855E+03  0.20628954924E+03  0.50606764207E+03  0.67860797998E+03  0.46999998093E+01 0. -1.
       -5    1    3    3    0  502 -0.40227709855E+03 -0.20628954924E+03 -0.10813598050E+04  0.11720679843E+04  0.46999998093E+01 0.  1.
</event>
<event>
 5   0  0.9312096E-04  0.1615173E+04  0.7818609E-02  0.8811281E-01
        2   -1    0    0  501    0  0.00000000000E+00  0.00000000000E+00  0.13110364870E+04  0.13110364870E+04  0.25500000920E-02 0.  1.
       -2   -1    0    0    0  501  0.00000000000E+00  0.00000000000E+00 -0.49746588711E+03  0.49746588712E+03  0.25500000920E-02 0. -1.
    10030    2    1    2    0    0  0.00000000000E+00  0.00000000000E+00  0.81357059984E+03  0.18085023741E+04  0.16151729679E+04 0.  0.
        3    1    3    3  502    0  0.76109400881E+02  0.29163697193E+03 -0.43212853348E+03  0.52685846672E+03  0.10100000352E+00 0. -1.
       -3    1    3    3    0  502 -0.76109400881E+02 -0.29163697193E+03  0.12456991333E+04  0.12816439074E+04  0.10100000352E+00 0.  1.
</event>
<event>
 5   0  0.9312096E-04  0.1783281E+04  0.7818609E-02  0.8715241E-01
        2   -1    0    0  501    0  0.00000000000E+00  0.00000000000E+00  0.17536956442E+04  0.17536956442E+04  0.25500000920E-02 0. -1.
       -2   -1    0    0    0  501  0.00000000000E+00  0.00000000000E+00 -0.45334130298E+03  0.45334130299E+03  0.25500000920E-02 0.  1.
    10030    2    1    2    0    0  0.00000000000E+00  0.00000000000E+00  0.13003543412E+04  0.22070369472E+04  0.17832808734E+04 0.  0.
        3    1    3    3  502    0 -0.28539243874E+03 -0.58954751805E+03  0.13989237769E+04  0.15446691762E+04  0.10100000352E+00 0. -1.
       -3    1    3    3    0  502  0.28539243874E+03  0.58954751805E+03 -0.98569435723E+02  0.66236777095E+03  0.10100000352E+00 0.  1.
</event>
<event>
 5   0  0.9610114E-04  0.1747893E+04  0.7818609E-02  0.8734511E-01
       -2   -1    0    0    0  501  0.00000000000E+00  0.00000000000E+00  0.75100144784E+03  0.75100144784E+03  0.25500000920E-02 0. -1.
        2   -1    0    0  501    0  0.00000000000E+00  0.00000000000E+00 -0.10170184889E+04  0.10170184889E+04  0.25500000920E-02 0.  1.
    10030    2    1    2    0    0  0.00000000000E+00  0.00000000000E+00 -0.26601704108E+03  0.17680199368E+04  0.17478928545E+04 0.  0.
        2    1    3    3  502    0 -0.62921418561E+03 -0.43971548744E+03 -0.55557752303E+03  0.94758988247E+03  0.25500000920E-02 0.  1.
       -2    1    3    3    0  502  0.62921418561E+03  0.43971548744E+03  0.28956048195E+03  0.82043005429E+03  0.25500000920E-02 0. -1.
</event>
<event>
 5   0  0.5074133E-04  0.8613806E+03  0.7818609E-02  0.9475188E-01
       -1   -1    0    0    0  501  0.00000000000E+00  0.00000000000E+00  0.74410973972E+03  0.74410973974E+03  0.50400001928E-02 0. -1.
        1   -1    0    0  501    0  0.00000000000E+00  0.00000000000E+00 -0.24928332349E+03  0.24928332354E+03  0.50400001928E-02 0.  1.
    10030    2    1    2    0    0  0.00000000000E+00  0.00000000000E+00  0.49482641624E+03  0.99339306328E+03  0.86138063361E+03 0.  0.
        1    1    3    3  502    0 -0.33575431934E+03 -0.83377806606E+02  0.54326645845E+03  0.64406619729E+03  0.50400001928E-02 0. -1.
       -1    1    3    3    0  502  0.33575431934E+03  0.83377806606E+02 -0.48440042207E+02  0.34932686599E+03  0.50400001928E-02 0.  1.
</event>
<event>
 5   0  0.9284971E-04  0.1680780E+04  0.7818609E-02  0.8772403E-01
        2   -1    0    0  501    0  0.00000000000E+00  0.00000000000E+00  0.69549835815E+03  0.69549835816E+03  0.25500000920E-02 0. -1.
       -2   -1    0    0    0  501  0.00000000000E+00  0.00000000000E+00 -0.10154665094E+04  0.10154665094E+04  0.25500000920E-02 0.  1.
    10030    2    1    2    0    0  0.00000000000E+00  0.00000000000E+00 -0.31996815123E+03  0.17109648675E+04  0.16807799262E+04 0.  0.
        4    1    3    3  502    0 -0.53746485851E+03  0.57894848579E+03  0.13187710069E+03  0.80090137090E+03  0.12699999809E+01 0. -1.
       -4    1    3    3    0  502  0.53746485851E+03 -0.57894848579E+03 -0.45184525192E+03  0.91006349664E+03  0.12699999809E+01 0.  1.
</event>
<event>
 5   0  0.9312096E-04  0.1259526E+04  0.7818609E-02  0.9062292E-01
        2   -1    0    0  501    0  0.00000000000E+00  0.00000000000E+00  0.13322739769E+04  0.13322739769E+04  0.25500000920E-02 0. -1.
       -2   -1    0    0    0  501  0.00000000000E+00  0.00000000000E+00 -0.29768749507E+03  0.29768749508E+03  0.25500000920E-02 0.  1.
    10030    2    1    2    0    0  0.00000000000E+00  0.00000000000E+00  0.10345864818E+04  0.16299614719E+04  0.12595257884E+04 0.  0.
        3    1    3    3  502    0  0.14998702073E+03  0.52744224091E+03  0.91806944123E+03  0.10693656685E+04  0.10100000352E+00 0. -1.
       -3    1    3    3    0  502 -0.14998702073E+03 -0.52744224091E+03  0.11651704056E+03  0.56059580343E+03  0.10100000352E+00 0.  1.
</event>
<event>
 5   0  0.4947006E-04  0.1642427E+04  0.7818609E-02  0.8794899E-01
       -1   -1    0    0    0  501  0.00000000000E+00  0.00000000000E+00  0.70730882910E+03  0.70730882912E+03  0.50400001928E-02 0.  1.
        1   -1    0    0  501    0  0.00000000000E+00  0.00000000000E+00 -0.95346090363E+03  0.95346090364E+03  0.50400001928E-02 0. -1.
    10030    2    1    2    0    0  0.00000000000E+00  0.00000000000E+00 -0.24615207453E+03  0.16607697328E+04  0.16424266381E+04 0.  0.
        2    1    3    3  502    0  0.10736299486E+03 -0.66457011466E+03 -0.59865963164E+03  0.90087380055E+03  0.25500000920E-02 0. -1.
       -2    1    3    3    0  502 -0.10736299486E+03  0.66457011466E+03  0.35250755711E+03  0.75989593221E+03  0.25500000920E-02 0.  1.
</event>
<event>
 5   0  0.5074133E-04  0.1646865E+04  0.7818609E-02  0.8792263E-01
       -1   -1    0    0    0  501  0.00000000000E+00  0.00000000000E+00  0.11255963802E+04  0.11255963802E+04  0.50400001928E-02 0.  1.
        1   -1    0    0  501    0  0.00000000000E+00  0.00000000000E+00 -0.60238378837E+03  0.60238378839E+03  0.50400001928E-02 0. -1.
    10030    2    1    2    0    0  0.00000000000E+00  0.00000000000E+00  0.52321259179E+03  0.17279801686E+04  0.16468649145E+04 0.  0.
        1    1    3    3  502    0 -0.41430494315E+03  0.62775136740E+03 -0.90043665305E+02  0.75751450606E+03  0.50400001928E-02 0. -1.
       -1    1    3    3    0  502  0.41430494315E+03 -0.62775136740E+03  0.61325625710E+03  0.97046566250E+03  0.50400001928E-02 0.  1.
</event>
<event>
 5   0  0.9625225E-04  0.1610185E+04  0.7818609E-02  0.8814316E-01
       -2   -1    0    0    0  501  0.00000000000E+00  0.00000000000E+00  0.39365415929E+03  0.39365415929E+03  0.25500000920E-02 0. -1.
        2   -1    0    0  501    0  0.00000000000E+00  0.00000000000E+00 -0.16465561215E+04  0.16465561215E+04  0.25500000920E-02 0.  1.
    10030    2    1    2    0    0  0.00000000000E+00  0.00000000000E+00 -0.12529019622E+04  0.20402102808E+04  0.16101846674E+04 0.  0.
        1    1    3    3  502    0  0.29723575438E+02 -0.76828897877E+03 -0.32388415815E+03  0.83429754510E+03  0.50400001928E-02 0. -1.
       -1    1    3    3    0  502 -0.29723575438E+02  0.76828897877E+03 -0.92901780410E+03  0.12059127357E+04  0.50400001928E-02 0.  1.
</event>
<event>
 5   0  0.5059689E-04  0.1680371E+04  0.7818609E-02  0.8772639E-01
        1   -1    0    0  501    0  0.00000000000E+00  0.00000000000E+00  0.20716071089E+04  0.20716071089E+04  0.50400001928E-02 0.  1.
       -1   -1    0    0    0  501  0.00000000000E+00  0.00000000000E+00 -0.34075553951E+03  0.34075553955E+03  0.50400001928E-02 0. -1.
    10030    2    1    2    0    0  0.00000000000E+00  0.00000000000E+00  0.17308515694E+04  0.24123626485E+04  0.16803709092E+04 0.  0.
        5    1    3    3  502    0  0.25168890053E+03 -0.66237837905E+03  0.15135174387E+04  0.16711820807E+04  0.46999998093E+01 0.  1.
       -5    1    3    3    0  502 -0.25168890053E+03  0.66237837905E+03  0.21733413075E+03  0.74118056779E+03  0.46999998093E+01 0. -1.
</event>
<event>
 5   0  0.5074133E-04  0.1535828E+04  0.7818609E-02  0.8860971E-01
        1   -1    0    0  501    0  0.00000000000E+00  0.00000000000E+00  0.53432397813E+03  0.53432397816E+03  0.50400001928E-02 0. -1.
       -1   -1    0    0    0  501  0.00000000000E+00  0.00000000000E+00 -0.11036228278E+04  0.11036228278E+04  0.50400001928E-02 0.  1.
    10030    2    1    2    0    0  0.00000000000E+00  0.00000000000E+00 -0.56929884967E+03  0.16379468060E+04  0.15358282974E+04 0.  0.
        1    1    3    3  502    0  0.49056864881E+03  0.43367695487E+03 -0.71252209191E+03  0.96768849940E+03  0.50400001928E-02 0.  1.
       -1    1    3    3    0  502 -0.49056864881E+03 -0.43367695487E+03  0.14322324224E+03  0.67025830657E+03  0.50400001928E-02 0. -1.
</event>
<event>
 5   0  0.9312096E-04  0.1535608E+04  0.7818609E-02  0.8861113E-01
        2   -1    0    0  501    0  0.00000000000E+00  0.00000000000E+00  0.87772019315E+03  0.87772019316E+03  0.25500000920E-02 0. -1.
       -2   -1    0    0    0  501  0.00000000000E+00  0.00000000000E+00 -0.67165249792E+03  0.67165249793E+03  0.25500000920E-02 0.  1.
    10030    2    1    2    0    0  0.00000000000E+00  0.00000000000E+00  0.20606769523E+03  0.15493726911E+04  0.15356079711E+04 0.  0.
        3    1    3    3  502    0  0.23228043036E+03  0.68033544482E+03 -0.16903566650E+03  0.73850090221E+03  0.10100000352E+00 0.  1.
       -3    1    3    3    0  502 -0.23228043036E+03 -0.68033544482E+03  0.37510336173E+03  0.81087178888E+03  0.10100000352E+00 0. -1.
</event>
<event>
 5   0  0.5035495E-04  0.1663776E+04  0.7818609E-02  0.8782298E-01
       -1   -1    0    0    0  501  0.00000000000E+00  0.00000000000E+00  0.50445128735E+03  0.50445128738E+03  0.50400001928E-02 0.  1.
        1   -1    0    0  501    0  0.00000000000E+00  0.00000000000E+00 -0.13718629078E+04  0.13718629078E+04  0.50400001928E-02 0. -1.
    10030    2    1    2    0    0  0.00000000000E+00  0.00000000000E+00 -0.86741162044E+03  0.18763141952E+04  0.16637764392E+04 0.  0.
        4    1    3    3  502    0 -0.21224904138E+03 -0.33592146697E+03 -0.12579190225E+04  0.13191871617E+04  0.12699999809E+01 0. -1.
       -4    1    3    3    0  502  0.21224904138E+03  0.33592146697E+03  0.39050740202E+03  0.55712703351E+03  0.12699999809E+01 0.  1.
</event>
<event>
 5   0  0.5074133E-04  0.1701622E+04  0.7818609E-02  0.8760440E-01
        1   -1    0    0  501    0  0.00000000000E+00  0.00000000000E+00  0.91210183125E+03  0.91210183126E+03  0.50400001928E-02 0. -1.
       -1   -1    0    0    0  501  0.00000000000E+00  0.00000000000E+00 -0.79363878043E+03  0.79363878045E+03  0.50400001928E-02 0.  1.
    10030    2    1    2    0    0  0.00000000000E+00  0.00000000000E+00  0.11846305081E+03  0.17057406117E+04  0.17016220321E+04 0.  0.
        1    1    3    3  502    0 -0.24583402393E+03 -0.55325275223E+03 -0.54000831234E+03  0.81125332209E+03  0.50400001928E-02 0.  1.
       -1    1    3    3    0  502  0.24583402393E+03  0.55325275223E+03  0.65847136315E+03  0.89448728962E+03  0.50400001928E-02 0. -1.
</event>
<event>
 5   0  0.4947006E-04  0.1694255E+04  0.7818609E-02  0.8764648E-01
        1   -1    0    0  501    0  0.00000000000E+00  0.00000000000E+00  0.47820394503E+03  0.47820394506E+03  0.50400001928E-02 0.  1.
       -1   -1    0    0    0  501  0.00000000000E+00  0.00000000000E+00 -0.15006671097E+04  0.15006671098E+04  0.50400001928E-02 0. -1.
    10030    2    1    2    0    0  0.00000000000E+00  0.00000000000E+00 -0.10224631647E+04  0.19788710548E+04  0.16942549184E+04 0.  0.
        2    1    3    3  502    0  0.43695048930E+03 -0.38085727292E+02 -0.13577204005E+04  0.14268079544E+04  0.25500000920E-02 0. -1.
       -2    1    3    3    0  502 -0.43695048930E+03  0.38085727292E+02  0.33525723578E+03  0.55206310045E+03  0.25500000920E-02 0.  1.
</event>
<event>
 5   0  0.9625225E-04  0.1726467E+04  0.7818609E-02  0.8746411E-01
        2   -1    0    0  501    0  0.00000000000E+00  0.00000000000E+00  0.10155318204E+04  0.10155318204E+04  0.25500000920E-02 0.  1.
       -2   -1    0    0    0  501  0.00000000000E+00  0.00000000000E+00 -0.73377548052E+03  0.73377548052E+03  0.25500000920E-02 0. -1.
    10030    2    1    2    0    0  0.00000000000E+00  0.00000000000E+00  0.28175633986E+03  0.17493073009E+04  0.17264673174E+04 0.  0.
        1    1    3    3  502    0  0.10518780725E+03  0.68674098417E+02  0.10062209381E+04  0.10140321410E+04  0.50400001928E-02 0.  1.
       -1    1    3    3    0  502 -0.10518780725E+03 -0.68674098417E+02 -0.72446459828E+03  0.73527515991E+03  0.50400001928E-02 0. -1.
</event>
<event>
 5   0  0.3523125E-04  0.1716848E+04  0.7818609E-02  0.8751813E-01
       -3   -1    0    0    0  501  0.00000000000E+00  0.00000000000E+00  0.64036957647E+03  0.64036958444E+03  0.10100000352E+00 0. -1.
        3   -1    0    0  501    0  0.00000000000E+00  0.00000000000E+00 -0.11507288992E+04  0.11507289037E+04  0.10100000352E+00 0.  1.
    10030    2    1    2    0    0  0.00000000000E+00  0.00000000000E+00 -0.51035932277E+03  0.17910984881E+04  0.17168480293E+04 0.  0.
        1    1    3    3  502    0  0.50955217927E+03 -0.37539361438E+03  0.34983949435E+03  0.72315382938E+03  0.50400001928E-02 0. -1.
       -1    1    3    3    0  502 -0.50955217927E+03  0.37539361438E+03 -0.86019881711E+03  0.10679446587E+04  0.50400001928E-02 0.  1.
</event>
<event>
 5   0  0.9312096E-04  0.1618628E+04  0.7818609E-02  0.8809185E-01
       -2   -1    0    0    0  501  0.00000000000E+00  0.00000000000E+00  0.41246315743E+03  0.41246315744E+03  0.25500000920E-02 0.  1.
        2   -1    0    0  501    0  0.00000000000E+00  0.00000000000E+00 -0.15879941432E+04  0.15879941432E+04  0.25500000920E-02 0. -1.
    10030    2    1    2    0    0  0.00000000000E+00  0.00000000000E+00 -0.11755309858E+04  0.20004573006E+04  0.16186279107E+04 0.  0.
        3    1    3    3  502    0  0.52559980873E+03  0.56104994729E+03 -0.27521092701E+03  0.81656185732E+03  0.10100000352E+00 0. -1.
       -3    1    3    3    0  502 -0.52559980873E+03 -0.56104994729E+03 -0.90032005877E+03  0.11838954433E+04  0.10100000352E+00 0.  1.
</event>
<event>
 5   0  0.9610114E-04  0.1697172E+04  0.7818609E-02  0.8762979E-01
       -2   -1    0    0    0  501  0.00000000000E+00  0.00000000000E+00  0.30517668659E+03  0.30517668660E+03  0.25500000920E-02 0. -1.
        2   -1    0    0  501    0  0.00000000000E+00  0.00000000000E+00 -0.23596109189E+04  0.23596109189E+04  0.25500000920E-02 0.  1.
    10030    2    1    2    0    0  0.00000000000E+00  0.00000000000E+00 -0.20544342323E+04  0.26647876055E+04  0.16971720501E+04 0.  0.
        2    1    3    3  502    0 -0.34354306498E+03  0.22960082817E+03 -0.21909818494E+04  0.22296053109E+04  0.25500000920E-02 0.  1.
       -2    1    3    3    0  502  0.34354306498E+03 -0.22960082817E+03  0.13654761714E+03  0.43518229461E+03  0.25500000920E-02 0. -1.
</event>
<event>
 5   0  0.9284971E-04  0.1697761E+04  0.7818609E-02  0.8762642E-01
       -2   -1    0    0    0  501  0.00000000000E+00  0.00000000000E+00  0.10070389106E+04  0.10070389106E+04  0.25500000920E-02 0. -1.
        2   -1    0    0  501    0  0.00000000000E+00  0.00000000000E+00 -0.71556113700E+03  0.71556113701E+03  0.25500000920E-02 0.  1.
    10030    2    1    2    0    0  0.00000000000E+00  0.00000000000E+00  0.29147777361E+03  0.17226000476E+04  0.16977607698E+04 0.  0.
        4    1    3    3  502    0 -0.33573195879E+02 -0.10524920397E+02 -0.71482002966E+03  0.71568653832E+03  0.12699999809E+01 0.  1.
       -4    1    3    3    0  502  0.33573195879E+02  0.10524920397E+02  0.10062978033E+04  0.10069135093E+04  0.12699999809E+01 0. -1.
</event>
<event>
 5   0  0.9312096E-04  0.1514050E+04  0.7818609E-02  0.8875163E-01
       -2   -1    0    0    0  501  0.00000000000E+00  0.00000000000E+00  0.27048955105E+03  0.27048955106E+03  0.25500000920E-02 0. -1.
        2   -1    0    0  501    0  0.00000000000E+00  0.00000000000E+00 -0.21187016268E+04  0.21187016268E+04  0.25500000920E-02 0.  1.
    10030    2    1    2    0    0  0.00000000000E+00  0.00000000000E+00 -0.18482120758E+04  0.23891911779E+04  0.15140497375E+04 0.  0.
        3    1    3    3  502    0  0.44910244319E+03 -0.22090359321E+03 -0.27834226879E+02  0.50126455725E+03  0.10100000352E+00 0. -1.
       -3    1    3    3    0  502 -0.44910244319E+03  0.22090359321E+03 -0.18203778489E+04  0.18879266207E+04  0.10100000352E+00 0.  1.
</event>
<event>
 5   0  0.5074133E-04  0.1714054E+04  0.7818609E-02  0.8753389E-01
       -1   -1    0    0    0  501  0.00000000000E+00  0.00000000000E+00  0.35909888495E+03  0.35909888498E+03  0.50400001928E-02 0. -1.
        1   -1    0    0  501    0  0.00000000000E+00  0.00000000000E+00 -0.20453842856E+04  0.20453842856E+04  0.50400001928E-02 0.  1.
    10030    2    1    2    0    0  0.00000000000E+00  0.00000000000E+00 -0.16862854006E+04  0.24044831706E+04  0.17140539271E+04 0.  0.
        1    1    3    3  502    0 -0.68989732306E+03  0.49012776521E+03 -0.65331425959E+03  0.10691132140E+04  0.50400001928E-02 0. -1.
       -1    1    3    3    0  502  0.68989732306E+03 -0.49012776521E+03 -0.10329711410E+04  0.13353699565E+04  0.50400001928E-02 0.  1.
</event>
<event>
 5   0  0.3523125E-04  0.1673874E+04  0.7818609E-02  0.8776407E-01
        3   -1    0    0  501    0  0.00000000000E+00  0.00000000000E+00  0.15994018974E+04  0.15994019006E+04  0.10100000352E+00 0.  1.
       -3   -1    0    0    0  501  0.00000000000E+00  0.00000000000E+00 -0.43795366043E+03  0.43795367207E+03  0.10100000352E+00 0. -1.
    10030    2    1    2    0    0  0.00000000000E+00  0.00000000000E+00  0.11614482370E+04  0.20373555727E+04  0.16738744643E+04 0.  0.
        4    1    3    3  502    0 -0.12981871952E+02  0.19699825499E+03 -0.40920501126E+03  0.45434259718E+03  0.12699999809E+01 0. -1.
       -4    1    3    3    0  502  0.12981871952E+02 -0.19699825499E+03  0.15706532483E+04  0.15830129755E+04  0.12699999809E+01 0.  1.
</event>
<event>
 5   0  0.3523125E-04  0.1772856E+04  0.7818609E-02  0.8720869E-01
       -3   -1    0    0    0  501  0.00000000000E+00  0.00000000000E+00  0.68864197580E+03  0.68864198321E+03  0.10100000352E+00 0. -1.
        3   -1    0    0  501    0  0.00000000000E+00  0.00000000000E+00 -0.11410207423E+04  0.11410207467E+04  0.10100000352E+00 0.  1.
    10030    2    1    2    0    0  0.00000000000E+00  0.00000000000E+00 -0.45237876645E+03  0.18296627299E+04  0.17728562144E+04 0.  0.
        5    1    3    3  502    0 -0.54332052647E+03 -0.70009832909E+03 -0.20560448709E+03  0.90974180952E+03  0.46999998093E+01 0.  1.
       -5    1    3    3    0  502  0.54332052647E+03  0.70009832909E+03 -0.24677427936E+03  0.91992092042E+03  0.46999998093E+01 0. -1.
</event>
<event>
 5   0  0.9284971E-04  0.1669752E+04  0.7818609E-02  0.8778806E-01
       -2   -1    0    0    0  501  0.00000000000E+00  0.00000000000E+00  0.71993978845E+03  0.71993978845E+03  0.25500000920E-02 0.  1.
        2   -1    0    0  501    0  0.00000000000E+00  0.00000000000E+00 -0.96816188794E+03  0.96816188795E+03  0.25500000920E-02 0. -1.
    10030    2    1    2    0    0  0.00000000000E+00  0.00000000000E+00 -0.24822209950E+03  0.16881016764E+04  0.16697523946E+04 0.  0.
        4    1    3    3  502    0  0.28803979681E+03  0.74790380882E+03  0.11231698893E+03  0.80928595113E+03  0.12699999809E+01 0.  1.
       -4    1    3    3    0  502 -0.28803979681E+03 -0.74790380882E+03 -0.36053908843E+03  0.87881572527E+03  0.12699999809E+01 0. -1.
</event>
<event>
 5   0  0.9610114E-04  0.1697468E+04  0.7818609E-02  0.8762810E-01
       -2   -1    0    0    0  501  0.00000000000E+00  0.00000000000E+00  0.38232757948E+03  0.38232757949E+03  0.25500000920E-02 0.  1.
        2   -1    0    0  501    0  0.00000000000E+00  0.00000000000E+00 -0.18841157044E+04  0.18841157044E+04  0.25500000920E-02 0. -1.
    10030    2    1    2    0    0  0.00000000000E+00  0.00000000000E+00 -0.15017881250E+04  0.22664432839E+04  0.16974679929E+04 0.  0.
        2    1    3    3  502    0  0.80616339497E+03 -0.24623316064E+03 -0.88320065677E+03  0.12208904901E+04  0.25500000920E-02 0.  1.
       -2    1    3    3    0  502 -0.80616339497E+03  0.24623316064E+03 -0.61858746818E+03  0.10455527938E+04  0.25500000920E-02 0. -1.
</event>
<event>
 5   0  0.4947006E-04  0.1725153E+04  0.7818609E-02  0.8747147E-01
        1   -1    0    0  501    0  0.00000000000E+00  0.00000000000E+00  0.10617382743E+04  0.10617382744E+04  0.50400001928E-02 0. -1.
       -1   -1    0    0    0  501  0.00000000000E+00  0.00000000000E+00 -0.70077359328E+03  0.70077359330E+03  0.50400001928E-02 0.  1.
    10030    2    1    2    0    0  0.00000000000E+00  0.00000000000E+00  0.36096468106E+03  0.17625118676E+04  0.17251529157E+04 0.  0.
        2    1    3    3  502    0 -0.26648942581E+03  0.28963871105E+03  0.96465260947E+03  0.10418550062E+04  0.25500000920E-02 0. -1.
       -2    1    3    3    0  502  0.26648942581E+03 -0.28963871105E+03 -0.60368792841E+03  0.72065686143E+03  0.25500000920E-02 0.  1.
</event>
<event>
 5   0  0.3523125E-04  0.1703713E+04  0.7818609E-02  0.8759250E-01
        4   -1    0    0  501    0  0.00000000000E+00  0.00000000000E+00  0.10524097418E+04  0.10524105080E+04  0.12699999809E+01 0.  1.
       -4   -1    0    0    0  501  0.00000000000E+00  0.00000000000E+00 -0.68952000313E+03  0.68952117271E+03  0.12699999809E+01 0. -1.
    10030    2    1    2    0    0  0.00000000000E+00  0.00000000000E+00  0.36288973863E+03  0.17419316808E+04  0.17037127158E+04 0.  0.
        5    1    3    3  502    0 -0.31265376190E+03 -0.52296634012E+02  0.98984582685E+03  0.10393768151E+04  0.46999998093E+01 0.  1.
       -5    1    3    3    0  502  0.31265376190E+03  0.52296634012E+02 -0.62695608822E+03  0.70255486569E+03  0.46999998093E+01 0. -1.
</event>
<event>
 5   0  0.9625225E-04  0.1606740E+04  0.7818609E-02  0.8816418E-01
       -2   -1    0    0    0  501  0.00000000000E+00  0.00000000000E+00  0.37514880362E+03  0.37514880362E+03  0.25500000920E-02 0. -1.
        2   -1    0    0  501    0  0.00000000000E+00  0.00000000000E+00 -0.17203935910E+04  0.17203935910E+04  0.25500000920E-02 0.  1.
    10030    2    1    2    0    0  0.00000000000E+00  0.00000000000E+00 -0.13452447874E+04  0.20955423946E+04  0.16067402994E+04 0.  0.
        1    1    3    3  502    0 -0.44462356669E+03 -0.52542499534E+03 -0.12129567948E+04  0.13946417920E+04  0.50400001928E-02 0.  1.
       -1    1    3    3    0  502  0.44462356669E+03  0.52542499534E+03 -0.13228799255E+03  0.70090060264E+03  0.50400001928E-02 0. -1.
</event>
<event>
 5   0  0.5074133E-04  0.1688527E+04  0.7818609E-02  0.8767935E-01
        1   -1    0    0  501    0  0.00000000000E+00  0.00000000000E+00  0.16436193067E+04  0.16436193067E+04  0.50400001928E-02 0. -1.
       -1   -1    0    0    0  501  0.00000000000E+00  0.00000000000E+00 -0.43366524525E+03  0.43366524528E+03  0.50400001928E-02 0.  1.
    10030    2    1    2    0    0  0.00000000000E+00  0.00000000000E+00  0.12099540614E+04  0.20772845520E+04  0.16885266593E+04 0.  0.
        1    1    3    3  502    0  0.74668463824E+03 -0.26183603510E+03  0.96718568482E+03  0.12496176244E+04  0.50400001928E-02 0. -1.
       -1    1    3    3    0  502 -0.74668463824E+03  0.26183603510E+03  0.24276837660E+03  0.82766692755E+03  0.50400001928E-02 0.  1.
</event>
<event>
 5   0  0.5059689E-04  0.1717176E+04  0.7818609E-02  0.8751628E-01
        1   -1    0    0  501    0  0.00000000000E+00  0.00000000000E+00  0.61474919593E+03  0.61474919595E+03  0.50400001928E-02 0. -1.
       -1   -1    0    0    0  501  0.00000000000E+00  0.00000000000E+00 -0.11991449295E+04  0.11991449295E+04  0.50400001928E-02 0.  1.
    10030    2    1    2    0    0  0.00000000000E+00  0.00000000000E+00 -0.58439573355E+03  0.18138941254E+04  0.17171760320E+04 0.  0.
        5    1    3    3  502    0  0.33438216195E+03 -0.75999044776E+03 -0.61361769496E+02  0.83257688394E+03  0.46999998093E+01 0. -1.
       -5    1    3    3    0  502 -0.33438216195E+03  0.75999044776E+03 -0.52303396405E+03  0.98131724151E+03  0.46999998093E+01 0.  1.
</event>
<event>
 5   0  0.5074133E-04  0.1671179E+04  0.7818609E-02  0.8777975E-01
        1   -1    0    0  501    0  0.00000000000E+00  0.00000000000E+00  0.10919770901E+04  0.10919770902E+04  0.50400001928E-02 0.  1.
       -1   -1    0    0    0  501  0.00000000000E+00  0.00000000000E+00 -0.63939950721E+03  0.63939950723E+03  0.50400001928E-02 0. -1.
    10030    2    1    2    0    0  0.00000000000E+00  0.00000000000E+00  0.45257758293E+03  0.17313765974E+04  0.16711787617E+04 0.  0.
        1    1    3    3  502    0  0.76342485109E+03  0.13496701877E+03 -0.96670791474E+02  0.78126745828E+03  0.50400001928E-02 0. -1.
       -1    1    3    3    0  502 -0.76342485109E+03 -0.13496701877E+03  0.54924837440E+03  0.95010913911E+03  0.50400001928E-02 0.  1.
</event>
<event>
 5   0  0.5009762E-04  0.1669890E+04  0.7818609E-02  0.8778726E-01
        1   -1    0    0  501    0  0.00000000000E+00  0.00000000000E+00  0.15472089143E+04  0.15472089143E+04  0.50400001928E-02 0.  1.
       -1   -1    0    0    0  501  0.00000000000E+00  0.00000000000E+00 -0.45057478168E+03  0.45057478171E+03  0.50400001928E-02 0. -1.
    10030    2    1    2    0    0  0.00000000000E+00  0.00000000000E+00  0.10966341326E+04  0.19977836960E+04  0.16698901985E+04 0.  0.
        3    1    3    3  502    0 -0.69862894214E+03  0.44607105974E+03  0.66837975018E+03  0.10647972999E+04  0.10100000352E+00 0.  1.
       -3    1    3    3    0  502  0.69862894214E+03 -0.44607105974E+03  0.42825438242E+03  0.93298639615E+03  0.10100000352E+00 0. -1.
</event>
<event>
 5   0  0.9312096E-04  0.1983950E+04  0.7818609E-02  0.8614162E-01
        2   -1    0    0  501    0  0.00000000000E+00  0.00000000000E+00  0.16239231455E+04  0.16239231455E+04  0.25500000920E-02 0. -1.
       -2   -1    0    0    0  501  0.00000000000E+00  0.00000000000E+00 -0.60594859815E+03  0.60594859815E+03  0.25500000920E-02 0.  1.
    10030    2    1    2    0    0  0.00000000000E+00  0.00000000000E+00  0.10179745474E+04  0.22298717437E+04  0.19839495493E+04 0.  0.
        3    1    3    3  502    0 -0.88982137901E+03 -0.34780625654E+03  0.80902805600E+03  0.12519096150E+04  0.10100000352E+00 0. -1.
       -3    1    3    3    0  502  0.88982137901E+03  0.34780625654E+03  0.20894649139E+03  0.97796212866E+03  0.10100000352E+00 0.  1.
</event>
<event>
 5   0  0.9625225E-04  0.1684603E+04  0.7818609E-02  0.8770195E-01
        2   -1    0    0  501    0  0.00000000000E+00  0.00000000000E+00  0.17361996225E+04  0.17361996225E+04  0.25500000920E-02 0.  1.
       -2   -1    0    0    0  501  0.00000000000E+00  0.00000000000E+00 -0.40863512913E+03  0.40863512914E+03  0.25500000920E-02 0. -1.
    10030    2    1    2    0    0  0.00000000000E+00  0.00000000000E+00  0.13275644934E+04  0.21448347517E+04  0.16846034037E+04 0.  0.
        1    1    3    3  502    0  0.78703857445E+03  0.67575447405E+02  0.10360181453E+04  0.13028160869E+04  0.50400001928E-02 0. -1.
       -1    1    3    3    0  502 -0.78703857445E+03 -0.67575447405E+02  0.29154634811E+03  0.84201866481E+03  0.50400001928E-02 0.  1.
</event>
<event>
 5   0  0.3523125E-04  0.1663616E+04  0.7818609E-02  0.8782392E-01
       -3   -1    0    0    0  501  0.00000000000E+00  0.00000000000E+00  0.69634262803E+03  0.69634263536E+03  0.10100000352E+00 0.  1.
        3   -1    0    0  501    0  0.00000000000E+00  0.00000000000E+00 -0.99362664622E+03  0.99362665136E+03  0.10100000352E+00 0. -1.
    10030    2    1    2    0    0  0.00000000000E+00  0.00000000000E+00 -0.29728401819E+03  0.16899692867E+04  0.16636160622E+04 0.  0.
        3    1    3    3  502    0  0.11254811710E+03 -0.62610643289E+03  0.39578452113E+03  0.74921408245E+03  0.10100000352E+00 0.  1.
       -3    1    3    3    0  502 -0.11254811710E+03  0.62610643289E+03 -0.69306853932E+03  0.94075520427E+03  0.10100000352E+00 0. -1.
</event>
<event>
 5   0  0.9284971E-04  0.1679513E+04  0.7818609E-02  0.8773136E-01
        2   -1    0    0  501    0  0.00000000000E+00  0.00000000000E+00  0.16344741628E+04  0.16344741628E+04  0.25500000920E-02 0. -1.
       -2   -1    0    0    0  501  0.00000000000E+00  0.00000000000E+00 -0.43144800192E+03  0.43144800192E+03  0.25500000920E-02 0.  1.
    10030    2    1    2    0    0  0.00000000000E+00  0.00000000000E+00  0.12030261609E+04  0.20659221647E+04  0.16795125623E+04 0.  0.
        4    1    3    3  502    0  0.69150896421E+02  0.82785729259E+03  0.45056231042E+03  0.94505954936E+03  0.12699999809E+01 0.  1.
       -4    1    3    3    0  502 -0.69150896421E+02 -0.82785729259E+03  0.75246385046E+03  0.11208626154E+04  0.12699999809E+01 0. -1.
</event>
<event>
 5   0  0.4947006E-04  0.1779351E+04  0.7818609E-02  0.8717358E-01
        1   -1    0    0  501    0  0.00000000000E+00  0.00000000000E+00  0.11582303397E+04  0.11582303397E+04  0.50400001928E-02 0. -1.
       -1   -1    0    0    0  501  0.00000000000E+00  0.00000000000E+00 -0.68338943247E+03  0.68338943249E+03  0.50400001928E-02 0.  1.
    10030    2    1    2    0    0  0.00000000000E+00  0.00000000000E+00  0.47484090722E+03  0.18416197722E+04  0.17793508643E+04 0.  0.
        2    1    3    3  502    0  0.36267202221E+03 -0.40615015113E+03  0.96562878116E+03  0.11085701980E+04  0.25500000920E-02 0. -1.
       -2    1    3    3    0  502 -0.36267202221E+03  0.40615015113E+03 -0.49078787394E+03  0.73304957415E+03  0.25500000920E-02 0.  1.
</event>
<event>
 5   0  0.1007187E-03  0.1714649E+04  0.7818609E-02  0.8753053E-01
        2   -1    0    0  501    0  0.00000000000E+00  0.00000000000E+00  0.14795107242E+04  0.14795107242E+04  0.25500000920E-02 0.  1.
       -2   -1    0    0    0  501  0.00000000000E+00  0.00000000000E+00 -0.49678942900E+03  0.49678942900E+03  0.25500000920E-02 0. -1.
    10030    2    1    2    0    0  0.00000000000E+00  0.00000000000E+00  0.98272129522E+03  0.19763001532E+04  0.17146489879E+04 0.  0.
        5    1    3    3  502    0  0.17580417956E+03 -0.71694113178E+03  0.99386077950E+03  0.12380198040E+04  0.46999998093E+01 0.  1.
       -5    1    3    3    0  502 -0.17580417956E+03  0.71694113178E+03 -0.11139484281E+02  0.73828034925E+03  0.46999998093E+01 0. -1.
</event>
<event>
 5   0  0.1007187E-03  0.1644499E+04  0.7818609E-02  0.8793668E-01
       -2   -1    0    0    0  501  0.00000000000E+00  0.00000000000E+00  0.43551390952E+03  0.43551390953E+03  0.25500000920E-02 0. -1.
        2   -1    0    0  501    0  0.00000000000E+00  0.00000000000E+00 -0.15524047554E+04  0.15524047554E+04  0.25500000920E-02 0.  1.
    10030    2    1    2    0    0  0.00000000000E+00  0.00000000000E+00 -0.11168908458E+04  0.19879186649E+04  0.16444985426E+04 0.  0.
        5    1    3    3  502    0  0.42441346728E+02 -0.30293155434E+03  0.36415615717E+03  0.47560549969E+03  0.46999998093E+01 0. -1.
       -5    1    3    3    0  502 -0.42441346728E+02  0.30293155434E+03 -0.14810470030E+04  0.15123131652E+04  0.46999998093E+01 0.  1.
</event>
<event>
 5   0  0.9312096E-04  0.1742098E+04  0.7818609E-02  0.8737712E-01
       -2   -1    0    0    0  501  0.00000000000E+00  0.00000000000E+00  0.63955972979E+03  0.63955972979E+03  0.25500000920E-02 0. -1.
        2   -1    0    0  501    0  0.00000000000E+00  0.00000000000E+00 -0.11863253704E+04  0.11863253704E+04  0.25500000920E-02 0.  1.
    10030    2    1    2    0    0  0.00000000000E+00  0.00000000000E+00 -0.54676564060E+03  0.18258851002E+04  0.17420975097E+04 0.  0.
        3    1    3    3  502    0 -0.41180495580E+02  0.82186628434E+03  0.25950665067E+02  0.82330642520E+03  0.10100000352E+00 0.  1.
       -3    1    3    3    0  502  0.41180495580E+02 -0.82186628434E+03 -0.57271630567E+03  0.10025786750E+04  0.10100000352E+00 0. -1.
</event>
<event>
 5   0  0.1007187E-03  0.1706628E+04  0.7818609E-02  0.8757593E-01
        2   -1    0    0  501    0  0.00000000000E+00  0.00000000000E+00  0.73191624573E+03  0.73191624573E+03  0.25500000920E-02 0. -1.
       -2   -1    0    0    0  501  0.00000000000E+00  0.00000000000E+00 -0.99484701199E+03  0.99484701200E+03  0.25500000920E-02 0.  1.
    10030    2    1    2    0    0  0.00000000000E+00  0.00000000000E+00 -0.26293076627E+03  0.17267632577E+04  0.17066278916E+04 0.  0.
        5    1    3    3  502    0 -0.65113914565E+03  0.28148620844E+03 -0.61130313195E+03  0.93644555724E+03  0.46999998093E+01 0.  1.
       -5    1    3    3    0  502  0.65113914565E+03 -0.28148620844E+03  0.34837236568E+03  0.79031770049E+03  0.46999998093E+01 0. -1.
</event>
<event>
 5   0  0.9610114E-04  0.1679242E+04  0.7818609E-02  0.8773293E-01
        2   -1    0    0  501    0  0.00000000000E+00  0.00000000000E+00  0.17335495107E+04  0.17335495107E+04  0.25500000920E-02 0.  1.
       -2   -1    0    0    0  501  0.00000000000E+00  0.00000000000E+00 -0.40665878626E+03  0.40665878627E+03  0.25500000920E-02 0. -1.
    10030    2    1    2    0    0  0.00000000000E+00  0.00000000000E+00  0.13268907245E+04  0.21402082970E+04  0.16792416622E+04 0.  0.
        2    1    3    3  502    0 -0.42859022012E+03  0.45552284316E+03  0.13773665704E+04  0.15127224817E+04  0.25500000920E-02 0.  1.
       -2    1    3    3    0  502  0.42859022012E+03 -0.45552284316E+03 -0.50475845889E+02  0.62748581533E+03  0.25500000920E-02 0. -1.
</event>
<event>
 5   0  0.1007187E-03  0.1841916E+04  0.7818609E-02  0.8684321E-01
       -2   -1    0    0    0  501  0.00000000000E+00  0.00000000000E+00  0.44050030226E+03  0.44050030226E+03  0.25500000920E-02 0.  1.
        2   -1    0    0  501    0  0.00000000000E+00  0.00000000000E+00 -0.19254548250E+04  0.19254548250E+04  0.25500000920E-02 0. -1.
    10030    2    1    2    0    0  0.00000000000E+00  0.00000000000E+00 -0.14849545227E+04  0.23659551272E+04  0.18419157770E+04 0.  0.
        5    1    3    3  502    0 -0.61363318542E+03 -0.16143874971E+03 -0.15998640061E+04  0.17211028686E+04  0.46999998093E+01 0. -1.
       -5    1    3    3    0  502  0.61363318542E+03  0.16143874971E+03  0.11490948338E+03  0.64485225868E+03  0.46999998093E+01 0.  1.
</event>
<event>
 5   0  0.9610114E-04  0.1699359E+04  0.7818609E-02  0.8761730E-01
        2   -1    0    0  501    0  0.00000000000E+00  0.00000000000E+00  0.19436913802E+04  0.19436913802E+04  0.25500000920E-02 0. -1.
       -2   -1    0    0    0  501  0.00000000000E+00  0.00000000000E+00 -0.37143495574E+03  0.37143495575E+03  0.25500000920E-02 0.  1.
    10030    2    1    2    0    0  0.00000000000E+00  0.00000000000E+00  0.15722564244E+04  0.23151263359E+04  0.16993586105E+04 0.  0.
        2    1    3    3  502    0  0.50592783019E+03  0.36744303174E+03  0.15698987625E+04  0.16898400739E+04  0.25500000920E-02 0. -1.
       -2    1    3    3    0  502 -0.50592783019E+03 -0.36744303174E+03  0.23576619878E+01  0.62528626205E+03  0.25500000920E-02 0.  1.
</event>
<event>
 5   0  0.9284971E-04  0.1718702E+04  0.7818609E-02  0.8750769E-01
        2   -1    0    0  501    0  0.00000000000E+00  0.00000000000E+00  0.12797586896E+04  0.12797586896E+04  0.25500000920E-02 0. -1.
       -2   -1    0    0    0  501  0.00000000000E+00  0.00000000000E+00 -0.57704934919E+03  0.57704934919E+03  0.25500000920E-02 0.  1.
    10030    2    1    2    0    0  0.00000000000E+00  0.00000000000E+00  0.70270934042E+03  0.18568080388E+04  0.17187017414E+04 0.  0.
        4    1    3    3  502    0 -0.20217237523E+00 -0.59748018400E+03  0.10186430901E+04  0.11809394434E+04  0.12699999809E+01 0. -1.
       -4    1    3    3    0  502  0.20217237523E+00  0.59748018400E+03 -0.31593374966E+03  0.67586859538E+03  0.12699999809E+01 0.  1.
</event>
<event>
 5   0  0.9625225E-04  0.1621276E+04  0.7818609E-02  0.8807583E-01
        2   -1    0    0  501    0  0.00000000000E+00  0.00000000000E+00  0.13548607465E+04  0.13548607465E+04  0.25500000920E-02 0.  1.
       -2   -1    0    0    0  501  0.00000000000E+00  0.00000000000E+00 -0.48501963554E+03  0.48501963555E+03  0.25500000920E-02 0. -1.
    10030    2    1    2    0    0  0.00000000000E+00  0.00000000000E+00  0.86984111100E+03  0.18398803821E+04  0.16212761215E+04 0.  0.
        1    1    3    3  502    0 -0.57564696795E+03 -0.45822335882E+03  0.82109128908E+03  0.11025103098E+04  0.50400001928E-02 0. -1.
       -1    1    3    3    0  502  0.57564696795E+03  0.45822335882E+03  0.48749821920E+02  0.73737007225E+03  0.50400001928E-02 0.  1.
</event>
<event>
 5   0  0.5074133E-04  0.1615422E+04  0.7818609E-02  0.8811129E-01
        1   -1    0    0  501    0  0.00000000000E+00  0.00000000000E+00  0.24802283797E+04  0.24802283798E+04  0.50400001928E-02 0.  1.
       -1   -1    0    0    0  501  0.00000000000E+00  0.00000000000E+00 -0.26303910039E+03  0.26303910044E+03  0.50400001928E-02 0. -1.
    10030    2    1    2    0    0  0.00000000000E+00  0.00000000000E+00  0.22171892794E+04  0.27432674802E+04  0.16154219781E+04 0.  0.
        1    1    3    3  502    0  0.50967759455E+03 -0.58433214006E+03  0.14927790144E+04  0.16821428257E+04  0.50400001928E-02 0.  1.
       -1    1    3    3    0  502 -0.50967759455E+03  0.58433214006E+03  0.72441026498E+03  0.10611246545E+04  0.50400001928E-02 0. -1.
</event>
<event>
 5   0  0.5059689E-04  0.1719564E+04  0.7818609E-02  0.8750284E-01
        1   -1    0    0  501    0  0.00000000000E+00  0.00000000000E+00  0.24076041741E+04  0.24076041742E+04  0.50400001928E-02 0.  1.
       -1   -1    0    0    0  501  0.00000000000E+00  0.00000000000E+00 -0.30703765524E+03  0.30703765528E+03  0.50400001928E-02 0. -1.
    10030    2    1    2    0    0  0.00000000000E+00  0.00000000000E+00  0.21005665189E+04  0.27146418294E+04  0.17195640615E+04 0.  0.
        5    1    3    3  502    0 -0.61487555267E+03 -0.58693273771E+03  0.84663309938E+03  0.11997381710E+04  0.46999998093E+01 0. -1.
       -5    1    3    3    0  502  0.61487555267E+03  0.58693273771E+03  0.12539334195E+04  0.15149036585E+04  0.46999998093E+01 0.  1.
</event>
<event>
 5   0  0.4947006E-04  0.1821709E+04  0.7818609E-02  0.8694839E-01
       -1   -1    0    0    0  501  0.00000000000E+00  0.00000000000E+00  0.37521700334E+03  0.37521700338E+03  0.50400001928E-02 0.  1.
        1   -1    0    0  501    0  0.00000000000E+00  0.00000000000E+00 -0.22111360380E+04  0.22111360380E+04  0.50400001928E-02 0. -1.
    10030    2    1    2    0    0  0.00000000000E+00  0.00000000000E+00 -0.18359190346E+04  0.25863530414E+04  0.18217089100E+04 0.  0.
        2    1    3    3  502    0 -0.45705613909E+03 -0.14412549147E+03  0.18175112853E+03  0.51254847996E+03  0.25500000920E-02 0.  1.
       -2    1    3    3    0  502  0.45705613909E+03  0.14412549147E+03 -0.20176701632E+04  0.20738045614E+04  0.25500000920E-02 0. -1.
</event>
<event>
 5   0  0.5059689E-04  0.1639280E+04  0.7818609E-02  0.8796773E-01
        1   -1    0    0  501    0  0.00000000000E+00  0.00000000000E+00  0.16308639946E+04  0.16308639946E+04  0.50400001928E-02 0.  1.
       -1   -1    0    0    0  501  0.00000000000E+00  0.00000000000E+00 -0.41193509467E+03  0.41193509470E+03  0.50400001928E-02 0. -1.
    10030    2    1    2    0    0  0.00000000000E+00  0.00000000000E+00  0.12189288999E+04  0.20427990893E+04  0.16392804690E+04 0.  0.
        5    1    3    3  502    0  0.68523085426E+03  0.35392697962E+03  0.95521915281E+03  0.12277097989E+04  0.46999998093E+01 0.  1.
       -5    1    3    3    0  502 -0.68523085426E+03 -0.35392697962E+03  0.26370974712E+03  0.81508929036E+03  0.46999998093E+01 0. -1.
</event>
<event>
 5   0  0.9625225E-04  0.1682582E+04  0.7818609E-02  0.8771362E-01
        2   -1    0    0  501    0  0.00000000000E+00  0.00000000000E+00  0.23586636474E+04  0.23586636474E+04  0.25500000920E-02 0. -1.
       -2   -1    0    0    0  501  0.00000000000E+00  0.00000000000E+00 -0.30007255727E+03  0.30007255728E+03  0.25500000920E-02 0.  1.
    10030    2    1    2    0    0  0.00000000000E+00  0.00000000000E+00  0.20585910901E+04  0.26587362047E+04  0.16825816265E+04 0.  0.
        1    1    3    3  502    0  0.76134674205E+02  0.21954620291E+03  0.23069478036E+04  0.23186213991E+04  0.50400001928E-02 0. -1.
       -1    1    3    3    0  502 -0.76134674205E+02 -0.21954620291E+03 -0.24835671346E+03  0.34011480558E+03  0.50400001928E-02 0.  1.
</event>
<event>
 5   0  0.9284971E-04  0.1675249E+04  0.7818609E-02  0.8775608E-01
       -2   -1    0    0    0  501  0.00000000000E+00  0.00000000000E+00  0.39498111507E+03  0.39498111508E+03  0.25500000920E-02 0.  1.
        2   -1    0    0  501    0  0.00000000000E+00  0.00000000000E+00 -0.17763242036E+04  0.17763242036E+04  0.25500000920E-02 0. -1.
    10030    2    1    2    0    0  0.00000000000E+00  0.00000000000E+00 -0.13813430886E+04  0.21713053187E+04  0.16752486558E+04 0.  0.
        4    1    3    3  502    0  0.59049989179E+03 -0.40361999999E+03 -0.12556528098E+04  0.14450829797E+04  0.12699999809E+01 0. -1.
       -4    1    3    3    0  502 -0.59049989179E+03  0.40361999999E+03 -0.12569027876E+03  0.72622233900E+03  0.12699999809E+01 0.  1.
</event>
<event>
 5   0  0.5035495E-04  0.1663032E+04  0.7818609E-02  0.8782734E-01
       -1   -1    0    0    0  501  0.00000000000E+00  0.00000000000E+00  0.64029153494E+03  0.64029153496E+03  0.50400001928E-02 0.  1.
        1   -1    0    0  501    0  0.00000000000E+00  0.00000000000E+00 -0.10798506481E+04  0.10798506482E+04  0.50400001928E-02 0. -1.
    10030    2    1    2    0    0  0.00000000000E+00  0.00000000000E+00 -0.43955911320E+03  0.17201421831E+04  0.16630324459E+04 0.  0.
        4    1    3    3  502    0  0.44947667018E+03 -0.79933681089E+01 -0.94331878091E+03  0.10449617726E+04  0.12699999809E+01 0. -1.
       -4    1    3    3    0  502 -0.44947667018E+03  0.79933681089E+01  0.50375966771E+03  0.67518041047E+03  0.12699999809E+01 0.  1.
</event>
<event>
 5   0  0.4947006E-04  0.1668639E+04  0.7818609E-02  0.8779456E-01
       -1   -1    0    0    0  501  0.00000000000E+00  0.00000000000E+00  0.36668681540E+03  0.36668681543E+03  0.50400001928E-02 0.  1.
        1   -1    0    0  501    0  0.00000000000E+00  0.00000000000E+00 -0.18983196055E+04  0.18983196055E+04  0.50400001928E-02 0. -1.
    10030    2    1    2    0    0  0.00000000000E+00  0.00000000000E+00 -0.15316327901E+04  0.22650064209E+04  0.16686386916E+04 0.  0.
        2    1    3    3  502    0  0.15414082551E+03 -0.26048832008E+03  0.28953326838E+03  0.41885925141E+03  0.25500000920E-02 0.  1.
       -2    1    3    3    0  502 -0.15414082551E+03  0.26048832008E+03 -0.18211660584E+04  0.18461471695E+04  0.25500000920E-02 0. -1.
</event>
<event>
 5   0  0.4947006E-04  0.1637787E+04  0.7818609E-02  0.8797665E-01
        1   -1    0    0  501    0  0.00000000000E+00  0.00000000000E+00  0.52570262751E+03  0.52570262753E+03  0.50400001928E-02 0. -1.
       -1   -1    0    0    0  501  0.00000000000E+00  0.00000000000E+00 -0.12755999847E+04  0.12755999847E+04  0.50400001928E-02 0.  1.
    10030    2    1    2    0    0  0.00000000000E+00  0.00000000000E+00 -0.74989735723E+03  0.18013026123E+04  0.16377866328E+04 0.  0.
        2    1    3    3  502    0 -0.71717941217E+03  0.22622512152E+03 -0.73144290135E+03  0.10490628355E+04  0.25500000920E-02 0.  1.
       -2    1    3    3    0  502  0.71717941217E+03 -0.22622512152E+03 -0.18454455887E+02  0.75223977680E+03  0.25500000920E-02 0. -1.
</event>
<event>
 5   0  0.9610114E-04  0.1690425E+04  0.7818609E-02  0.8766844E-01
       -2   -1    0    0    0  501  0.00000000000E+00  0.00000000000E+00  0.59470598804E+03  0.59470598805E+03  0.25500000920E-02 0.  1.
        2   -1    0    0  501    0  0.00000000000E+00  0.00000000000E+00 -0.12012399237E+04  0.12012399237E+04  0.25500000920E-02 0. -1.
    10030    2    1    2    0    0  0.00000000000E+00  0.00000000000E+00 -0.60653393563E+03  0.17959459117E+04  0.16904254798E+04 0.  0.
        2    1    3    3  502    0 -0.10123182410E+03  0.70225937115E+03  0.18471749942E+03  0.73316891722E+03  0.25500000920E-02 0.  1.
       -2    1    3    3    0  502  0.10123182410E+03 -0.70225937115E+03 -0.79125143505E+03  0.10627769945E+04  0.25500000920E-02 0. -1.
</event>
<event>
 5   0  0.5074133E-04  0.1686648E+04  0.7818609E-02  0.8769016E-01
       -1   -1    0    0    0  501  0.00000000000E+00  0.00000000000E+00  0.39213794026E+03  0.39213794030E+03  0.50400001928E-02 0. -1.
        1   -1    0    0  501    0  0.00000000000E+00  0.00000000000E+00 -0.18136360781E+04  0.18136360781E+04  0.50400001928E-02 0.  1.
    10030    2    1    2    0    0  0.00000000000E+00  0.00000000000E+00 -0.14214981378E+04  0.22057740184E+04  0.16866481745E+04 0.  0.
        1    1    3    3  502    0 -0.16050171416E+03 -0.62457389507E+03 -0.27912194349E-01  0.64486692538E+03  0.50400001928E-02 0. -1.
       -1    1    3    3    0  502  0.16050171416E+03  0.62457389507E+03 -0.14214702257E+04  0.15609070930E+04  0.50400001928E-02 0.  1.
</event>
<event>
 5   0  0.4947006E-04  0.1672838E+04  0.7818609E-02  0.8777009E-01
       -1   -1    0    0    0  501  0.00000000000E+00  0.00000000000E+00  0.79909332094E+03  0.79909332096E+03  0.50400001928E-02 0. -1.
        1   -1    0    0  501    0  0.00000000000E+00  0.00000000000E+00 -0.87548817317E+03  0.87548817319E+03  0.50400001928E-02 0.  1.
    10030    2    1    2    0    0  0.00000000000E+00  0.00000000000E+00 -0.76394852233E+02  0.16745814941E+04  0.16728380098E+04 0.  0.
        2    1    3    3  502    0  0.57723190106E+03  0.59308056633E+03 -0.15938360859E+03  0.84281929288E+03  0.25500000920E-02 0.  1.
       -2    1    3    3    0  502 -0.57723190106E+03 -0.59308056633E+03  0.82988756361E+02  0.83176220126E+03  0.25500000920E-02 0. -1.
</event>
<event>
 5   0  0.5009762E-04  0.1854000E+04  0.7818609E-02  0.8678099E-01
        1   -1    0    0  501    0  0.00000000000E+00  0.00000000000E+00  0.14555383603E+04  0.14555383604E+04  0.50400001928E-02 0. -1.
       -1   -1    0    0    0  501  0.00000000000E+00  0.00000000000E+00 -0.59038563026E+03  0.59038563028E+03  0.50400001928E-02 0.  1.
    10030    2    1    2    0    0  0.00000000000E+00  0.00000000000E+00  0.86515273008E+03  0.20459239906E+04  0.18539999269E+04 0.  0.
        3    1    3    3  502    0  0.61852076502E+03  0.63348177169E+03  0.12943622325E+03  0.89477418264E+03  0.10100000352E+00 0.  1.
       -3    1    3    3    0  502 -0.61852076502E+03 -0.63348177169E+03  0.73571650684E+03  0.11511498080E+04  0.10100000352E+00 0. -1.
</event>
<event>
 5   0  0.5035495E-04  0.1691481E+04  0.7818609E-02  0.8766238E-01
       -1   -1    0    0    0  501  0.00000000000E+00  0.00000000000E+00  0.52991805476E+03  0.52991805479E+03  0.50400001928E-02 0.  1.
        1   -1    0    0  501    0  0.00000000000E+00  0.00000000000E+00 -0.13497876684E+04  0.13497876684E+04  0.50400001928E-02 0. -1.
    10030    2    1    2    0    0  0.00000000000E+00  0.00000000000E+00 -0.81986961362E+03  0.18797057232E+04  0.16914808371E+04 0.  0.
        4    1    3    3  502    0 -0.54146116927E+03  0.82437932819E+02  0.30621394809E+03  0.62749088081E+03  0.12699999809E+01 0.  1.
       -4    1    3    3    0  502  0.54146116927E+03 -0.82437932819E+02 -0.11260835617E+04  0.12522148424E+04  0.12699999809E+01 0. -1.
</event>
<event>
 5   0  0.9284971E-04  0.1471792E+04  0.7818609E-02  0.8903431E-01
       -2   -1    0    0    0  501  0.00000000000E+00  0.00000000000E+00  0.40467101976E+03  0.40467101976E+03  0.25500000920E-02 0.  1.
        2   -1    0    0  501    0  0.00000000000E+00  0.00000000000E+00 -0.13382298544E+04  0.13382298544E+04  0.25500000920E-02 0. -1.
    10030    2    1    2    0    0  0.00000000000E+00  0.00000000000E+00 -0.93355883460E+03  0.17429008741E+04  0.14717918872E+04 0.  0.
        4    1    3    3  502    0  0.32977934935E+03 -0.89765502410E+02 -0.12385393387E+04  0.12848321179E+04  0.12699999809E+01 0. -1.
       -4    1    3    3    0  502 -0.32977934935E+03  0.89765502410E+02  0.30498050410E+03  0.45806875626E+03  0.12699999809E+01 0.  1.
</event>
<event>
 5   0  0.9610114E-04  0.1654900E+04  0.7818609E-02  0.8787513E-01
       -2   -1    0    0    0  501  0.00000000000E+00  0.00000000000E+00  0.32759182818E+03  0.32759182819E+03  0.25500000920E-02 0.  1.
        2   -1    0    0  501    0  0.00000000000E+00  0.00000000000E+00 -0.20900189212E+04  0.20900189212E+04  0.25500000920E-02 0. -1.
    10030    2    1    2    0    0  0.00000000000E+00  0.00000000000E+00 -0.17624270930E+04  0.24176107494E+04  0.16548995369E+04 0.  0.
        2    1    3    3  502    0 -0.53041535491E+03 -0.22529419315E+03 -0.13771194623E+02  0.57644389840E+03  0.25500000920E-02 0.  1.
       -2    1    3    3    0  502  0.53041535491E+03  0.22529419315E+03 -0.17486558984E+04  0.18411668510E+04  0.25500000920E-02 0. -1.
</event>
<event>
 5   0  0.1007187E-03  0.1679048E+04  0.7818609E-02  0.8773405E-01
        2   -1    0    0  501    0  0.00000000000E+00  0.00000000000E+00  0.17610495827E+04  0.17610495827E+04  0.25500000920E-02 0.  1.
       -2   -1    0    0    0  501  0.00000000000E+00  0.00000000000E+00 -0.40021626296E+03  0.40021626297E+03  0.25500000920E-02 0. -1.
    10030    2    1    2    0    0  0.00000000000E+00  0.00000000000E+00  0.13608333198E+04  0.21612658457E+04  0.16790481624E+04 0.  0.
        5    1    3    3  502    0  0.19450902722E+03  0.10739251710E+03 -0.36166589225E+03  0.42448936619E+03  0.46999998093E+01 0. -1.
       -5    1    3    3    0  502 -0.19450902722E+03 -0.10739251710E+03  0.17224992120E+04  0.17367764795E+04  0.46999998093E+01 0.  1.
</event>
<event>
 5   0  0.9312096E-04  0.1733883E+04  0.7818609E-02  0.8742272E-01
       -2   -1    0    0    0  501  0.00000000000E+00  0.00000000000E+00  0.45616398685E+03  0.45616398686E+03  0.25500000920E-02 0.  1.
        2   -1    0    0  501    0  0.00000000000E+00  0.00000000000E+00 -0.16476263081E+04  0.16476263081E+04  0.25500000920E-02 0. -1.
    10030    2    1    2    0    0  0.00000000000E+00  0.00000000000E+00 -0.11914623213E+04  0.21037902950E+04  0.17338832551E+04 0.  0.
        3    1    3    3  502    0  0.40372368818E+03 -0.58953606107E+02  0.33239038656E+03  0.52626202917E+03  0.10100000352E+00 0.  1.
       -3    1    3    3    0  502 -0.40372368818E+03  0.58953606107E+02 -0.15238527078E+04  0.15775282658E+04  0.10100000352E+00 0. -1.
</event>
<event>
 5   0  0.9625225E-04  0.1695261E+04  0.7818609E-02  0.8764072E-01
       -2   -1    0    0    0  501  0.00000000000E+00  0.00000000000E+00  0.48771909287E+03  0.48771909288E+03  0.25500000920E-02 0. -1.
        2   -1    0    0  501    0  0.00000000000E+00  0.00000000000E+00 -0.14731374978E+04  0.14731374978E+04  0.25500000920E-02 0.  1.
    10030    2    1    2    0    0  0.00000000000E+00  0.00000000000E+00 -0.98541840491E+03  0.19608565907E+04  0.16952607871E+04 0.  0.
        1    1    3    3  502    0  0.33415989101E+03 -0.45053297574E+03 -0.12277492795E+04  0.13498189095E+04  0.50400001928E-02 0.  1.
       -1    1    3    3    0  502 -0.33415989101E+03  0.45053297574E+03  0.24233087463E+03  0.61103768117E+03  0.50400001928E-02 0. -1.
</event>
<event>
 5   0  0.5009762E-04  0.1691033E+04  0.7818609E-02  0.8766495E-01
        1   -1    0    0  501    0  0.00000000000E+00  0.00000000000E+00  0.13955029454E+04  0.13955029454E+04  0.50400001928E-02 0. -1.
       -1   -1    0    0    0  501  0.00000000000E+00  0.00000000000E+00 -0.51228684218E+03  0.51228684221E+03  0.50400001928E-02 0.  1.
    10030    2    1    2    0    0  0.00000000000E+00  0.00000000000E+00  0.88321610322E+03  0.19077897876E+04  0.16910325806E+04 0.  0.
        3    1    3    3  502    0  0.21914668144E+03  0.18716732494E+02  0.13626636679E+04  0.13802999189E+04  0.10100000352E+00 0. -1.
       -3    1    3    3    0  502 -0.21914668144E+03 -0.18716732494E+02 -0.47944756472E+03  0.52748986870E+03  0.10100000352E+00 0.  1.
</event>
<event>
 5   0  0.5009762E-04  0.1761428E+04  0.7818609E-02  0.8727085E-01
        1   -1    0    0  501    0  0.00000000000E+00  0.00000000000E+00  0.10276606359E+04  0.10276606359E+04  0.50400001928E-02 0.  1.
       -1   -1    0    0    0  501  0.00000000000E+00  0.00000000000E+00 -0.75477926233E+03  0.75477926235E+03  0.50400001928E-02 0. -1.
    10030    2    1    2    0    0  0.00000000000E+00  0.00000000000E+00  0.27288137360E+03  0.17824398983E+04  0.17614277581E+04 0.  0.
        3    1    3    3  502    0  0.55861416664E+03 -0.52096956626E+03  0.58007417493E+03  0.95913770375E+03  0.10100000352E+00 0.  1.
       -3    1    3    3    0  502 -0.55861416664E+03  0.52096956626E+03 -0.30719280133E+03  0.82330219454E+03  0.10100000352E+00 0. -1.
</event>
<event>
 5   0  0.1007187E-03  0.1584274E+04  0.7818609E-02  0.8830268E-01
        2   -1    0    0  501    0  0.00000000000E+00  0.00000000000E+00  0.13441135415E+04  0.13441135415E+04  0.25500000920E-02 0.  1.
       -2   -1    0    0    0  501  0.00000000000E+00  0.00000000000E+00 -0.46683618470E+03  0.46683618471E+03  0.25500000920E-02 0. -1.
    10030    2    1    2    0    0  0.00000000000E+00  0.00000000000E+00  0.87727735682E+03  0.18109497262E+04  0.15842737611E+04 0.  0.
        5    1    3    3  502    0 -0.75898368993E+03 -0.77650832822E+02  0.19515255570E+03  0.78752301770E+03  0.46999998093E+01 0. -1.
       -5    1    3    3    0  502  0.75898368993E+03  0.77650832822E+02  0.68212480113E+03  0.10234267085E+04  0.46999998093E+01 0.  1.
</event>
<event>
 5   0  0.5035495E-04  0.1609522E+04  0.7818609E-02  0.8814720E-01
       -1   -1    0    0    0  501  0.00000000000E+00  0.00000000000E+00  0.25799723192E+03  0.25799723197E+03  0.50400001928E-02 0. -1.
        1   -1    0    0  501    0  0.00000000000E+00  0.00000000000E+00 -0.25102607284E+04  0.25102607284E+04  0.50400001928E-02 0.  1.
    10030    2    1    2    0    0  0.00000000000E+00  0.00000000000E+00 -0.22522634965E+04  0.27682579603E+04  0.16095220649E+04 0.  0.
        4    1    3    3  502    0 -0.56757204329E+03 -0.20418114646E+02 -0.14549700721E+03  0.58628143049E+03  0.12699999809E+01 0. -1.
       -4    1    3    3    0  502  0.56757204329E+03  0.20418114646E+02 -0.21067664892E+04  0.21819765299E+04  0.12699999809E+01 0.  1.
</event>
<event>
 5   0  0.9625225E-04  0.1730639E+04  0.7818609E-02  0.8744080E-01
       -2   -1    0    0    0  501  0.00000000000E+00  0.00000000000E+00  0.31997152902E+03  0.31997152903E+03  0.25500000920E-02 0.  1.
        2   -1    0    0  501    0  0.00000000000E+00  0.00000000000E+00 -0.23401381124E+04  0.23401381124E+04  0.25500000920E-02 0. -1.
    10030    2    1    2    0    0  0.00000000000E+00  0.00000000000E+00 -0.20201665834E+04  0.26601096414E+04  0.17306386913E+04 0.  0.
        1    1    3    3  502    0 -0.32276300094E+03 -0.52354155877E+03 -0.19456842629E+04  0.20405780969E+04  0.50400001928E-02 0. -1.
       -1    1    3    3    0  502  0.32276300094E+03  0.52354155877E+03 -0.74482320416E+02  0.61953154449E+03  0.50400001928E-02 0.  1.
</event>
<event>
 5   0  0.9312096E-04  0.1731634E+04  0.7818609E-02  0.8743525E-01
        2   -1    0    0  501    0  0.00000000000E+00  0.00000000000E+00  0.16007165294E+04  0.16007165294E+04  0.25500000920E-02 0.  1.
       -2   -1    0    0    0  501  0.00000000000E+00  0.00000000000E+00 -0.46831457121E+03  0.46831457122E+03  0.25500000920E-02 0. -1.
    10030    2    1    2    0    0  0.00000000000E+00  0.00000000000E+00  0.11324019582E+04  0.20690311006E+04  0.17316337663E+04 0.  0.
        3    1    3    3  502    0 -0.92015836598E+02  0.58816874157E+03 -0.18496453214E+03  0.62339495595E+03  0.10100000352E+00 0. -1.
       -3    1    3    3    0  502  0.92015836598E+02 -0.58816874157E+03  0.13173664904E+04  0.14456361447E+04  0.10100000352E+00 0.  1.
</event>
<event>
 5   0  0.5009762E-04  0.1644212E+04  0.7818609E-02  0.8793838E-01
        1   -1    0    0  501    0  0.00000000000E+00  0.00000000000E+00  0.13660651252E+04  0.13660651252E+04  0.50400001928E-02 0.  1.
       -1   -1    0    0    0  501  0.00000000000E+00  0.00000000000E+00 -0.49474802130E+03  0.49474802133E+03  0.50400001928E-02 0. -1.
    10030    2    1    2    0    0  0.00000000000E+00  0.00000000000E+00  0.87131710388E+03  0.18608131465E+04  0.16442116867E+04 0.  0.
        3    1    3    3  502    0 -0.18277021524E+03 -0.57882846107E+02  0.13404121897E+04  0.13540532574E+04  0.10100000352E+00 0.  1.
       -3    1    3    3    0  502  0.18277021524E+03  0.57882846107E+02 -0.46909508582E+03  0.50675988909E+03  0.10100000352E+00 0. -1.
</event>
<event>
 5   0  0.9312096E-04  0.9058018E+03  0.7818609E-02  0.9418358E-01
        2   -1    0    0  501    0  0.00000000000E+00  0.00000000000E+00  0.26986231635E+03  0.26986231636E+03  0.25500000920E-02 0. -1.
       -2   -1    0    0    0  501  0.00000000000E+00  0.00000000000E+00 -0.76008849809E+03  0.76008849809E+03  0.25500000920E-02 0.  1.
    10030    2    1    2    0    0  0.00000000000E+00  0.00000000000E+00 -0.49022618174E+03  0.10299508145E+04  0.90580183867E+03 0.  0.
        3    1    3    3  502    0 -0.10938045078E+03 -0.22536536191E+03 -0.67414127546E+03  0.71918015744E+03  0.10100000352E+00 0.  1.
       -3    1    3    3    0  502  0.10938045078E+03  0.22536536191E+03  0.18391509373E+03  0.31077065702E+03  0.10100000352E+00 0. -1.
</event>
<event>
 5   0  0.9625225E-04  0.1620551E+04  0.7818609E-02  0.8808021E-01
       -2   -1    0    0    0  501  0.00000000000E+00  0.00000000000E+00  0.65734486332E+03  0.65734486332E+03  0.25500000920E-02 0. -1.
        2   -1    0    0  501    0  0.00000000000E+00  0.00000000000E+00 -0.99878502628E+03  0.99878502628E+03  0.25500000920E-02 0.  1.
    10030    2    1    2    0    0  0.00000000000E+00  0.00000000000E+00 -0.34144016296E+03  0.16561298896E+04  0.16205507787E+04 0.  0.
        1    1    3    3  502    0  0.58608752945E+03  0.49899621785E+03 -0.42935826246E+03  0.88138773260E+03  0.50400001928E-02 0.  1.
       -1    1    3    3    0  502 -0.58608752945E+03 -0.49899621785E+03  0.87918099500E+02  0.77474215701E+03  0.50400001928E-02 0. -1.
</event>
<event>
 5   0  0.4947006E-04  0.1862968E+04  0.7818609E-02  0.8673512E-01
        1   -1    0    0  501    0  0.00000000000E+00  0.00000000000E+00  0.11127238198E+04  0.11127238198E+04  0.50400001928E-02 0.  1.
       -1   -1    0    0    0  501  0.00000000000E+00  0.00000000000E+00 -0.77976460430E+03  0.77976460432E+03  0.50400001928E-02 0. -1.
    10030    2    1    2    0    0  0.00000000000E+00  0.00000000000E+00  0.33295921550E+03  0.18924884241E+04  0.18629682220E+04 0.  0.
        2    1    3    3  502    0  0.42048908371E+03 -0.78820101274E+03 -0.10150109502E+03  0.89909642325E+03  0.25500000920E-02 0. -1.
       -2    1    3    3    0  502 -0.42048908371E+03  0.78820101274E+03  0.43446031052E+03  0.99339200089E+03  0.25500000920E-02 0.  1.
</event>
<event>
 5   0  0.9284971E-04  0.1526717E+04  0.7818609E-02  0.8866878E-01
        2   -1    0    0  501    0  0.00000000000E+00  0.00000000000E+00  0.15063952930E+04  0.15063952930E+04  0.25500000920E-02 0. -1.
       -2   -1    0    0    0  501  0.00000000000E+00  0.00000000000E+00 -0.38682824440E+03  0.38682824441E+03  0.25500000920E-02 0.  1.
    10030    2    1    2    0    0  0.00000000000E+00  0.00000000000E+00  0.11195670486E+04  0.18932235374E+04  0.15267170616E+04 0.  0.
        4    1    3    3  502    0  0.38513444609E+03 -0.64323750434E+03  0.73790235874E+03  0.10519432173E+04  0.12699999809E+01 0.  1.
       -4    1    3    3    0  502 -0.38513444609E+03  0.64323750434E+03  0.38166468984E+03  0.84128032006E+03  0.12699999809E+01 0. -1.
</event>
<event>
 5   0  0.9610114E-04  0.1587684E+04  0.7818609E-02  0.8828150E-01
       -2   -1    0    0    0  501  0.00000000000E+00  0.00000000000E+00  0.36663122129E+03  0.36663122129E+03  0.25500000920E-02 0. -1.
        2   -1    0    0  501    0  0.00000000000E+00  0.00000000000E+00 -0.17188530656E+04  0.17188530656E+04  0.25500000920E-02 0.  1.
    10030    2    1    2    0    0  0.00000000000E+00  0.00000000000E+00 -0.13522218443E+04  0.20854842869E+04  0.15876840979E+04 0.  0.
        2    1    3    3  502    0 -0.49408112118E+03  0.62078500346E+03 -0.64148170513E+03  0.10202886615E+04  0.25500000920E-02 0.  1.
       -2    1    3    3    0  502  0.49408112118E+03 -0.62078500346E+03 -0.71074013918E+03  0.10651956254E+04  0.25500000920E-02 0. -1.
</event>
<event>
 5   0  0.5009762E-04  0.1704380E+04  0.7818609E-02  0.8758870E-01
        1   -1    0    0  501    0  0.00000000000E+00  0.00000000000E+00  0.96402643035E+03  0.96402643037E+03  0.50400001928E-02 0.  1.
       -1   -1    0    0    0  501  0.00000000000E+00  0.00000000000E+00 -0.75332804912E+03  0.75332804913E+03  0.50400001928E-02 0. -1.
    10030    2    1    2    0    0  0.00000000000E+00  0.00000000000E+00  0.21069838124E+03  0.17173544795E+04  0.17043804154E+04 0.  0.
        3    1    3    3  502    0 -0.12078719247E+02 -0.84507831312E+03  0.21538159093E+03  0.87217686892E+03  0.10100000352E+00 0.  1.
       -3    1    3    3    0  502  0.12078719247E+02  0.84507831312E+03 -0.46832096938E+01  0.84517761058E+03  0.10100000352E+00 0. -1.
</event>
<event>
 5   0  0.5035495E-04  0.1594416E+04  0.7818609E-02  0.8823986E-01
        1   -1    0    0  501    0  0.00000000000E+00  0.00000000000E+00  0.12945024398E+04  0.12945024398E+04  0.50400001928E-02 0. -1.
       -1   -1    0    0    0  501  0.00000000000E+00  0.00000000000E+00 -0.49095331361E+03  0.49095331363E+03  0.50400001928E-02 0.  1.
    10030    2    1    2    0    0  0.00000000000E+00  0.00000000000E+00  0.80354912616E+03  0.17854557534E+04  0.15944155823E+04 0.  0.
        4    1    3    3  502    0  0.46671483413E+03  0.20561327389E+03 -0.28437265828E+03  0.58392548880E+03  0.12699999809E+01 0.  1.
       -4    1    3    3    0  502 -0.46671483413E+03 -0.20561327389E+03  0.10879217844E+04  0.12015302646E+04  0.12699999809E+01 0. -1.
</event>
<event>
 5   0  0.5059689E-04  0.1699570E+04  0.7818609E-02  0.8761610E-01
       -1   -1    0    0    0  501  0.00000000000E+00  0.00000000000E+00  0.58298980359E+03  0.58298980361E+03  0.50400001928E-02 0. -1.
        1   -1    0    0  501    0  0.00000000000E+00  0.00000000000E+00 -0.12386745525E+04  0.12386745525E+04  0.50400001928E-02 0.  1.
    10030    2    1    2    0    0  0.00000000000E+00  0.00000000000E+00 -0.65568474894E+03  0.18216643562E+04  0.16995701034E+04 0.  0.
        5    1    3    3  502    0  0.46963692767E+03  0.65653816727E+03 -0.43226743878E+02  0.80838842786E+03  0.46999998093E+01 0.  1.
       -5    1    3    3    0  502 -0.46963692767E+03 -0.65653816727E+03 -0.61245800507E+03  0.10132759283E+04  0.46999998093E+01 0. -1.
</event>
<event>
 5   0  0.5035495E-04  0.1683392E+04  0.7818609E-02  0.8770893E-01
       -1   -1    0    0    0  501  0.00000000000E+00  0.00000000000E+00  0.48358508262E+03  0.48358508265E+03  0.50400001928E-02 0.  1.
        1   -1    0    0  501    0  0.00000000000E+00  0.00000000000E+00 -0.14650003825E+04  0.14650003825E+04  0.50400001928E-02 0. -1.
    10030    2    1    2    0    0  0.00000000000E+00  0.00000000000E+00 -0.98141529990E+03  0.19485854652E+04  0.16833922075E+04 0.  0.
        4    1    3    3  502    0  0.33876608143E+03 -0.23254492683E+03 -0.13410123714E+04  0.14025531698E+04  0.12699999809E+01 0. -1.
       -4    1    3    3    0  502 -0.33876608143E+03  0.23254492683E+03  0.35959707148E+03  0.54603229542E+03  0.12699999809E+01 0.  1.
</event>
<event>
 5   0  0.5074133E-04  0.1027258E+04  0.7818609E-02  0.9279143E-01
        1   -1    0    0  501    0  0.00000000000E+00  0.00000000000E+00  0.11581050623E+04  0.11581050624E+04  0.50400001928E-02 0. -1.
       -1   -1    0    0    0  501  0.00000000000E+00  0.00000000000E+00 -0.22779885242E+03  0.22779885248E+03  0.50400001928E-02 0.  1.
    10030    2    1    2    0    0  0.00000000000E+00  0.00000000000E+00  0.93030620992E+03  0.13859039148E+04  0.10272584957E+04 0.  0.
        1    1    3    3  502    0 -0.43053471503E+03  0.25381919182E+03  0.30534722360E+03  0.58568016013E+03  0.50400001928E-02 0. -1.
       -1    1    3    3    0  502  0.43053471503E+03 -0.25381919182E+03  0.62495898632E+03  0.80022375470E+03  0.50400001928E-02 0.  1.
</event>
<event>
 5   0  0.1007187E-03  0.1679231E+04  0.7818609E-02  0.8773299E-01
       -2   -1    0    0    0  501  0.00000000000E+00  0.00000000000E+00  0.54344100835E+03  0.54344100835E+03  0.25500000920E-02 0.  1.
        2   -1    0    0  501    0  0.00000000000E+00  0.00000000000E+00 -0.12972049686E+04  0.12972049686E+04  0.25500000920E-02 0. -1.
    10030    2    1    2    0    0  0.00000000000E+00  0.00000000000E+00 -0.75376396024E+03  0.18406459769E+04  0.16792312243E+04 0.  0.
        5    1    3    3  502    0  0.59805308623E+03 -0.29133072499E+03  0.18459815847E+03  0.69039094387E+03  0.46999998093E+01 0.  1.
       -5    1    3    3    0  502 -0.59805308623E+03  0.29133072499E+03 -0.93836211871E+03  0.11502550331E+04  0.46999998093E+01 0. -1.
</event>
<event>
 5   0  0.5035495E-04  0.1684420E+04  0.7818609E-02  0.8770300E-01
       -1   -1    0    0    0  501  0.00000000000E+00  0.00000000000E+00  0.55850392291E+03  0.55850392293E+03  0.50400001928E-02 0.  1.
        1   -1    0    0  501    0  0.00000000000E+00  0.00000000000E+00 -0.12700321148E+04  0.12700321148E+04  0.50400001928E-02 0. -1.
    10030    2    1    2    0    0  0.00000000000E+00  0.00000000000E+00 -0.71152819187E+03  0.18285360377E+04  0.16844202781E+04 0.  0.
        4    1    3    3  502    0 -0.81202792927E+03 -0.20407751819E+03 -0.45453982476E+03  0.95270407606E+03  0.12699999809E+01 0. -1.
       -4    1    3    3    0  502  0.81202792927E+03  0.20407751819E+03 -0.25698836711E+03  0.87583196166E+03  0.12699999809E+01 0.  1.
</event>
<event>
 5   0  0.3523125E-04  0.1712029E+04  0.7818609E-02  0.8754533E-01
       -4   -1    0    0    0  501  0.00000000000E+00  0.00000000000E+00  0.77618243849E+03  0.77618347749E+03  0.12699999809E+01 0. -1.
        4   -1    0    0  501    0  0.00000000000E+00  0.00000000000E+00 -0.94405571328E+03  0.94405656752E+03  0.12699999809E+01 0.  1.
    10030    2    1    2    0    0  0.00000000000E+00  0.00000000000E+00 -0.16787327478E+03  0.17202400450E+04  0.17120293152E+04 0.  0.
        4    1    3    3  502    0 -0.28904798943E+03  0.20599813111E+03  0.69875713573E+03  0.78373918994E+03  0.12699999809E+01 0. -1.
       -4    1    3    3    0  502  0.28904798943E+03 -0.20599813111E+03 -0.86663041051E+03  0.93650085506E+03  0.12699999809E+01 0.  1.
</event>
<event>
 5   0  0.9312096E-04  0.1613248E+04  0.7818609E-02  0.8812450E-01
        2   -1    0    0  501    0  0.00000000000E+00  0.00000000000E+00  0.11839998104E+04  0.11839998104E+04  0.25500000920E-02 0. -1.
       -2   -1    0    0    0  501  0.00000000000E+00  0.00000000000E+00 -0.54952927411E+03  0.54952927411E+03  0.25500000920E-02 0.  1.
    10030    2    1    2    0    0  0.00000000000E+00  0.00000000000E+00  0.63447053625E+03  0.17335290845E+04  0.16132483458E+04 0.  0.
        3    1    3    3  502    0  0.35361763834E+03  0.72466436662E+03  0.34024857367E+03  0.87518739735E+03  0.10100000352E+00 0.  1.
       -3    1    3    3    0  502 -0.35361763834E+03 -0.72466436662E+03  0.29422196259E+03  0.85834168713E+03  0.10100000352E+00 0. -1.
</event>
<event>
 5   0  0.9312096E-04  0.1640701E+04  0.7818609E-02  0.8795927E-01
       -2   -1    0    0    0  501  0.00000000000E+00  0.00000000000E+00  0.17704101712E+04  0.17704101712E+04  0.25500000920E-02 0. -1.
        2   -1    0    0  501    0  0.00000000000E+00  0.00000000000E+00 -0.38012384823E+03  0.38012384824E+03  0.25500000920E-02 0.  1.
    10030    2    1    2    0    0  0.00000000000E+00  0.00000000000E+00  0.13902863230E+04  0.21505340195E+04  0.16407012248E+04 0.  0.
        3    1    3    3  502    0 -0.23391502831E+03 -0.73299412349E+03  0.32214932454E+03  0.83413237741E+03  0.10100000352E+00 0.  1.
       -3    1    3    3    0  502  0.23391502831E+03  0.73299412349E+03  0.10681369985E+04  0.13164016421E+04  0.10100000352E+00 0. -1.
</event>
<event>
 5   0  0.5059689E-04  0.1719731E+04  0.7818609E-02  0.8750190E-01
       -1   -1    0    0    0  501  0.00000000000E+00  0.00000000000E+00  0.33865780536E+03  0.33865780539E+03  0.50400001928E-02 0.  1.
        1   -1    0    0  501    0  0.00000000000E+00  0.00000000000E+00 -0.21832328622E+04  0.21832328622E+04  0.50400001928E-02 0. -1.
    10030    2    1    2    0    0  0.00000000000E+00  0.00000000000E+00 -0.18445750569E+04  0.25218906676E+04  0.17197311997E+04 0.  0.
        5    1    3    3  502    0 -0.76652143543E+03  0.20926449877E+03 -0.14042104675E+04  0.16134360441E+04  0.46999998093E+01 0. -1.
       -5    1    3    3    0  502  0.76652143543E+03 -0.20926449877E+03 -0.44036458939E+03  0.90845462353E+03  0.46999998093E+01 0.  1.
</event>
<event>
 5   0  0.1007187E-03  0.1670712E+04  0.7818609E-02  0.8778247E-01
       -2   -1    0    0    0  501  0.00000000000E+00  0.00000000000E+00  0.81718649081E+03  0.81718649082E+03  0.25500000920E-02 0. -1.
        2   -1    0    0  501    0  0.00000000000E+00  0.00000000000E+00 -0.85392999811E+03  0.85392999811E+03  0.25500000920E-02 0.  1.
    10030    2    1    2    0    0  0.00000000000E+00  0.00000000000E+00 -0.36743507298E+02  0.16711164889E+04  0.16707124930E+04 0.  0.
        5    1    3    3  502    0 -0.13745077355E+03  0.69403697057E+03  0.42582789425E+03  0.82579144897E+03  0.46999998093E+01 0. -1.
       -5    1    3    3    0  502  0.13745077355E+03 -0.69403697057E+03 -0.46257140155E+03  0.84532503997E+03  0.46999998093E+01 0.  1.
</event>
<event>
 5   0  0.9312096E-04  0.1676604E+04  0.7818609E-02  0.8774821E-01
        2   -1    0    0  501    0  0.00000000000E+00  0.00000000000E+00  0.27206634749E+04  0.27206634749E+04  0.25500000920E-02 0. -1.
       -2   -1    0    0    0  501  0.00000000000E+00  0.00000000000E+00 -0.25830118287E+03  0.25830118289E+03  0.25500000920E-02 0.  1.
    10030    2    1    2    0    0  0.00000000000E+00  0.00000000000E+00  0.24623622920E+04  0.29789646578E+04  0.16766044182E+04 0.  0.
        3    1    3    3  502    0  0.13886904114E+03  0.82465337688E+03  0.13349791386E+04  0.15752800110E+04  0.10100000352E+00 0. -1.
       -3    1    3    3    0  502 -0.13886904114E+03 -0.82465337688E+03  0.11273831534E+04  0.14036846467E+04  0.10100000352E+00 0.  1.
</event>
<event>
 5   0  0.5009762E-04  0.1682861E+04  0.7818609E-02  0.8771200E-01
       -1   -1    0    0    0  501  0.00000000000E+00  0.00000000000E+00  0.34664038499E+03  0.34664038502E+03  0.50400001928E-02 0.  1.
        1   -1    0    0  501    0  0.00000000000E+00  0.00000000000E+00 -0.20424781666E+04  0.20424781666E+04  0.50400001928E-02 0. -1.
    10030    2    1    2    0    0  0.00000000000E+00  0.00000000000E+00 -0.16958377816E+04  0.23891185516E+04  0.16828611565E+04 0.  0.
        3    1    3    3  502    0 -0.10808925456E+02 -0.49155661428E+03 -0.18173206557E+04  0.18826574605E+04  0.10100000352E+00 0. -1.
       -3    1    3    3    0  502  0.10808925456E+02  0.49155661428E+03  0.12148287406E+03  0.50646109111E+03  0.10100000352E+00 0.  1.
</event>
<event>
 5   0  0.5009762E-04  0.1704690E+04  0.7818609E-02  0.8758694E-01
        1   -1    0    0  501    0  0.00000000000E+00  0.00000000000E+00  0.78676977950E+03  0.78676977951E+03  0.50400001928E-02 0. -1.
       -1   -1    0    0    0  501  0.00000000000E+00  0.00000000000E+00 -0.92338600578E+03  0.92338600580E+03  0.50400001928E-02 0.  1.
    10030    2    1    2    0    0  0.00000000000E+00  0.00000000000E+00 -0.13661622629E+03  0.17101557853E+04  0.17046902407E+04 0.  0.
        3    1    3    3  502    0  0.42910170987E+03 -0.68091702625E+03 -0.34977122618E+03  0.87756264444E+03  0.10100000352E+00 0.  1.
       -3    1    3    3    0  502 -0.42910170987E+03  0.68091702625E+03  0.21315499989E+03  0.83259314087E+03  0.10100000352E+00 0. -1.
</event>
<event>
 5   0  0.5035495E-04  0.1547350E+04  0.7818609E-02  0.8853562E-01
        1   -1    0    0  501    0  0.00000000000E+00  0.00000000000E+00  0.88333505904E+03  0.88333505905E+03  0.50400001928E-02 0. -1.
       -1   -1    0    0    0  501  0.00000000000E+00  0.00000000000E+00 -0.67762893001E+03  0.67762893003E+03  0.50400001928E-02 0.  1.
    10030    2    1    2    0    0  0.00000000000E+00  0.00000000000E+00  0.20570612903E+03  0.15609639891E+04  0.15473504980E+04 0.  0.
        4    1    3    3  502    0  0.33254953057E+03 -0.55199891971E+02 -0.59964672891E+03  0.68790553912E+03  0.12699999809E+01 0.  1.
       -4    1    3    3    0  502 -0.33254953057E+03  0.55199891971E+02  0.80535285794E+03  0.87305844996E+03  0.12699999809E+01 0. -1.
</event>
<event>
 5   0  0.9625225E-04  0.1494502E+04  0.7818609E-02  0.8888118E-01
        2   -1    0    0  501    0  0.00000000000E+00  0.00000000000E+00  0.15083155458E+04  0.15083155458E+04  0.25500000920E-02 0.  1.
       -2   -1    0    0    0  501  0.00000000000E+00  0.00000000000E+00 -0.37020355610E+03  0.37020355611E+03  0.25500000920E-02 0. -1.
    10030    2    1    2    0    0  0.00000000000E+00  0.00000000000E+00  0.11381119897E+04  0.18785191019E+04  0.14945016277E+04 0.  0.
        1    1    3    3  502    0  0.28036643504E+03 -0.52906710032E+03  0.71170052206E+01  0.59880546618E+03  0.50400001928E-02 0. -1.
       -1    1    3    3    0  502 -0.28036643504E+03  0.52906710032E+03  0.11309949845E+04  0.12797136357E+04  0.50400001928E-02 0.  1.
</event>
<event>
 5   0  0.3523125E-04  0.1696605E+04  0.7818609E-02  0.8763303E-01
        4   -1    0    0  501    0  0.00000000000E+00  0.00000000000E+00  0.65782495796E+03  0.65782618389E+03  0.12699999809E+01 0.  1.
       -4   -1    0    0    0  501  0.00000000000E+00  0.00000000000E+00 -0.10939318256E+04  0.10939325628E+04  0.12699999809E+01 0. -1.
    10030    2    1    2    0    0  0.00000000000E+00  0.00000000000E+00 -0.43610686767E+03  0.17517587467E+04  0.16966052890E+04 0.  0.
        2    1    3    3  502    0 -0.11767365933E+02  0.84434287359E+03 -0.13440104525E+03  0.85505379951E+03  0.25500000920E-02 0.  1.
       -2    1    3    3    0  502  0.11767365933E+02 -0.84434287359E+03 -0.30170582242E+03  0.89670494722E+03  0.25500000920E-02 0. -1.
</event>
<event>
 5   0  0.9610114E-04  0.1706228E+04  0.7818609E-02  0.8757820E-01
       -2   -1    0    0    0  501  0.00000000000E+00  0.00000000000E+00  0.64907816386E+03  0.64907816386E+03  0.25500000920E-02 0. -1.
        2   -1    0    0  501    0  0.00000000000E+00  0.00000000000E+00 -0.11212876853E+04  0.11212876853E+04  0.25500000920E-02 0.  1.
    10030    2    1    2    0    0  0.00000000000E+00  0.00000000000E+00 -0.47220952146E+03  0.17703658492E+04  0.17062278300E+04 0.  0.
        2    1    3    3  502    0 -0.70227155853E+03 -0.43226912186E+03 -0.93457256015E+01  0.82469950784E+03  0.25500000920E-02 0.  1.
       -2    1    3    3    0  502  0.70227155853E+03  0.43226912186E+03 -0.46286379586E+03  0.94566634135E+03  0.25500000920E-02 0. -1.
</event>
<event>
 5   0  0.9312096E-04  0.1713028E+04  0.7818609E-02  0.8753969E-01
        2   -1    0    0  501    0  0.00000000000E+00  0.00000000000E+00  0.19073796160E+04  0.19073796160E+04  0.25500000920E-02 0. -1.
       -2   -1    0    0    0  501  0.00000000000E+00  0.00000000000E+00 -0.38462005795E+03  0.38462005795E+03  0.25500000920E-02 0.  1.
    10030    2    1    2    0    0  0.00000000000E+00  0.00000000000E+00  0.15227595580E+04  0.22919996739E+04  0.17130282641E+04 0.  0.
        3    1    3    3  502    0  0.70579545072E+03 -0.25865642629E+03  0.21204749816E+03  0.78103426096E+03  0.10100000352E+00 0.  1.
       -3    1    3    3    0  502 -0.70579545072E+03  0.25865642629E+03  0.13107120598E+04  0.15109654130E+04  0.10100000352E+00 0. -1.
</event>
<event>
 5   0  0.4947006E-04  0.1690322E+04  0.7818609E-02  0.8766904E-01
        1   -1    0    0  501    0  0.00000000000E+00  0.00000000000E+00  0.12631320216E+04  0.12631320216E+04  0.50400001928E-02 0. -1.
       -1   -1    0    0    0  501  0.00000000000E+00  0.00000000000E+00 -0.56549653512E+03  0.56549653514E+03  0.50400001928E-02 0.  1.
    10030    2    1    2    0    0  0.00000000000E+00  0.00000000000E+00  0.69763548651E+03  0.18286285568E+04  0.16903216045E+04 0.  0.
        2    1    3    3  502    0 -0.39039532011E+02  0.83976583021E+03  0.44291797059E+03  0.95021421971E+03  0.25500000920E-02 0. -1.
       -2    1    3    3    0  502  0.39039532011E+02 -0.83976583021E+03  0.25471751591E+03  0.87841433707E+03  0.25500000920E-02 0.  1.
</event>
<event>
 5   0  0.5074133E-04  0.1637611E+04  0.7818609E-02  0.8797770E-01
        1   -1    0    0  501    0  0.00000000000E+00  0.00000000000E+00  0.16787717822E+04  0.16787717822E+04  0.50400001928E-02 0. -1.
       -1   -1    0    0    0  501  0.00000000000E+00  0.00000000000E+00 -0.39936485160E+03  0.39936485163E+03  0.50400001928E-02 0.  1.
    10030    2    1    2    0    0  0.00000000000E+00  0.00000000000E+00  0.12794069306E+04  0.20781366338E+04  0.16376109962E+04 0.  0.
        1    1    3    3  502    0  0.72581655892E+03  0.17339407647E+03  0.10673548945E+04  0.13023523539E+04  0.50400001928E-02 0. -1.
       -1    1    3    3    0  502 -0.72581655892E+03 -0.17339407647E+03  0.21205203615E+03  0.77578427995E+03  0.50400001928E-02 0.  1.
</event>
<event>
 5   0  0.9312096E-04  0.1678269E+04  0.7818609E-02  0.8773856E-01
       -2   -1    0    0    0  501  0.00000000000E+00  0.00000000000E+00  0.81797145548E+03  0.81797145549E+03  0.25500000920E-02 0. -1.
        2   -1    0    0  501    0  0.00000000000E+00  0.00000000000E+00 -0.86084538890E+03  0.86084538890E+03  0.25500000920E-02 0.  1.
    10030    2    1    2    0    0  0.00000000000E+00  0.00000000000E+00 -0.42873933416E+02  0.16788168444E+04  0.16782692939E+04 0.  0.
        3    1    3    3  502    0  0.63445939040E+03  0.11425784154E+03  0.51590993250E+03  0.82568555823E+03  0.10100000352E+00 0. -1.
       -3    1    3    3    0  502 -0.63445939040E+03 -0.11425784154E+03 -0.55878386591E+03  0.85313128616E+03  0.10100000352E+00 0.  1.
</event>
<event>
 5   0  0.1007187E-03  0.1739498E+04  0.7818609E-02  0.8739152E-01
        2   -1    0    0  501    0  0.00000000000E+00  0.00000000000E+00  0.14084832182E+04  0.14084832182E+04  0.25500000920E-02 0.  1.
       -2   -1    0    0    0  501  0.00000000000E+00  0.00000000000E+00 -0.53707658451E+03  0.53707658452E+03  0.25500000920E-02 0. -1.
    10030    2    1    2    0    0  0.00000000000E+00  0.00000000000E+00  0.87140663369E+03  0.19455598027E+04  0.17394980381E+04 0.  0.
        5    1    3    3  502    0  0.18189306112E+03  0.79090168904E+03  0.78553425860E+03  0.11294674536E+04  0.46999998093E+01 0.  1.
       -5    1    3    3    0  502 -0.18189306112E+03 -0.79090168904E+03  0.85872375083E+02  0.81609234907E+03  0.46999998093E+01 0. -1.
</event>
<event>
 5   0  0.5009762E-04  0.1698454E+04  0.7818609E-02  0.8762246E-01
       -1   -1    0    0    0  501  0.00000000000E+00  0.00000000000E+00  0.50702291775E+03  0.50702291778E+03  0.50400001928E-02 0.  1.
        1   -1    0    0  501    0  0.00000000000E+00  0.00000000000E+00 -0.14223950422E+04  0.14223950423E+04  0.50400001928E-02 0. -1.
    10030    2    1    2    0    0  0.00000000000E+00  0.00000000000E+00 -0.91537212450E+03  0.19294179600E+04  0.16984544557E+04 0.  0.
        3    1    3    3  502    0  0.11224980401E+03 -0.40117173656E+03 -0.12983515167E+04  0.13635451777E+04  0.10100000352E+00 0. -1.
       -3    1    3    3    0  502 -0.11224980401E+03  0.40117173656E+03  0.38297939216E+03  0.56587278230E+03  0.10100000352E+00 0.  1.
</event>
<event>
 5   0  0.4947006E-04  0.1679624E+04  0.7818609E-02  0.8773071E-01
        1   -1    0    0  501    0  0.00000000000E+00  0.00000000000E+00  0.42022058874E+03  0.42022058877E+03  0.50400001928E-02 0.  1.
       -1   -1    0    0    0  501  0.00000000000E+00  0.00000000000E+00 -0.16783674676E+04  0.16783674676E+04  0.50400001928E-02 0. -1.
    10030    2    1    2    0    0  0.00000000000E+00  0.00000000000E+00 -0.12581468789E+04  0.20985880564E+04  0.16796244407E+04 0.  0.
        2    1    3    3  502    0  0.68132537662E+03  0.13980177128E+03 -0.40992731806E+02  0.69672749921E+03  0.25500000920E-02 0. -1.
       -2    1    3    3    0  502 -0.68132537662E+03 -0.13980177128E+03 -0.12171541471E+04  0.14018605572E+04  0.25500000920E-02 0.  1.
</event>
<event>
 5   0  0.4947006E-04  0.1705494E+04  0.7818609E-02  0.8758237E-01
       -1   -1    0    0    0  501  0.00000000000E+00  0.00000000000E+00  0.11140355070E+04  0.11140355070E+04  0.50400001928E-02 0. -1.
        1   -1    0    0  501    0  0.00000000000E+00  0.00000000000E+00 -0.65274187246E+03  0.65274187248E+03  0.50400001928E-02 0.  1.
    10030    2    1    2    0    0  0.00000000000E+00  0.00000000000E+00  0.46129363454E+03  0.17667773795E+04  0.17054942074E+04 0.  0.
        2    1    3    3  502    0 -0.60140980211E+03  0.48294440411E+03 -0.14608047372E+03  0.78502773985E+03  0.25500000920E-02 0.  1.
       -2    1    3    3    0  502  0.60140980211E+03 -0.48294440411E+03  0.60737410826E+03  0.98174963963E+03  0.25500000920E-02 0. -1.
</event>
<event>
 5   0  0.9284971E-04  0.1706097E+04  0.7818609E-02  0.8757895E-01
       -2   -1    0    0    0  501  0.00000000000E+00  0.00000000000E+00  0.47171616488E+03  0.47171616488E+03  0.25500000920E-02 0. -1.
        2   -1    0    0  501    0  0.00000000000E+00  0.00000000000E+00 -0.15426471972E+04  0.15426471972E+04  0.25500000920E-02 0.  1.
    10030    2    1    2    0    0  0.00000000000E+00  0.00000000000E+00 -0.10709310323E+04  0.20143633621E+04  0.17060968550E+04 0.  0.
        4    1    3    3  502    0  0.14813175249E+03 -0.19651181471E+02 -0.15270730055E+04  0.15343672188E+04  0.12699999809E+01 0.  1.
       -4    1    3    3    0  502 -0.14813175249E+03  0.19651181471E+02  0.45614197316E+03  0.47999614333E+03  0.12699999809E+01 0. -1.
</event>
<event>
 5   0  0.5059689E-04  0.1557406E+04  0.7818609E-02  0.8847151E-01
        1   -1    0    0  501    0  0.00000000000E+00  0.00000000000E+00  0.87401279853E+03  0.87401279855E+03  0.50400001928E-02 0.  1.
       -1   -1    0    0    0  501  0.00000000000E+00  0.00000000000E+00 -0.69378620309E+03  0.69378620311E+03  0.50400001928E-02 0. -1.
    10030    2    1    2    0    0  0.00000000000E+00  0.00000000000E+00  0.18022659544E+03  0.15677990017E+04  0.15574055618E+04 0.  0.
        5    1    3    3  502    0 -0.56759400460E+03 -0.52353198058E+03 -0.11092408364E+02  0.77226538202E+03  0.46999998093E+01 0. -1.
       -5    1    3    3    0  502  0.56759400460E+03  0.52353198058E+03  0.19131900380E+03  0.79553361963E+03  0.46999998093E+01 0.  1.
</event>
<event>
 5   0  0.1007187E-03  0.1701156E+04  0.7818609E-02  0.8760705E-01
       -2   -1    0    0    0  501  0.00000000000E+00  0.00000000000E+00  0.11476585072E+04  0.11476585072E+04  0.25500000920E-02 0. -1.
        2   -1    0    0  501    0  0.00000000000E+00  0.00000000000E+00 -0.63039911748E+03  0.63039911748E+03  0.25500000920E-02 0.  1.
    10030    2    1    2    0    0  0.00000000000E+00  0.00000000000E+00  0.51725938967E+03  0.17780576246E+04  0.17011559718E+04 0.  0.
        5    1    3    3  502    0  0.38966649870E+03  0.42211001306E+02  0.10476311597E+04  0.11185592901E+04  0.46999998093E+01 0. -1.
       -5    1    3    3    0  502 -0.38966649870E+03 -0.42211001306E+02 -0.53037176998E+03  0.65949833452E+03  0.46999998093E+01 0.  1.
</event>
<event>
 5   0  0.4947006E-04  0.1532215E+04  0.7818609E-02  0.8863308E-01
        1   -1    0    0  501    0  0.00000000000E+00  0.00000000000E+00  0.14505781364E+04  0.14505781364E+04  0.50400001928E-02 0.  1.
       -1   -1    0    0    0  501  0.00000000000E+00  0.00000000000E+00 -0.40461171886E+03  0.40461171889E+03  0.50400001928E-02 0. -1.
    10030    2    1    2    0    0  0.00000000000E+00  0.00000000000E+00  0.10459664175E+04  0.18551898553E+04  0.15322152762E+04 0.  0.
        2    1    3    3  502    0 -0.39858200245E+03  0.47661373343E+03  0.10656716807E+04  0.12335657237E+04  0.25500000920E-02 0.  1.
       -2    1    3    3    0  502  0.39858200245E+03 -0.47661373343E+03 -0.19705263195E+02  0.62162413159E+03  0.25500000920E-02 0. -1.
</event>
<event>
 5   0  0.9625225E-04  0.1620091E+04  0.7818609E-02  0.8808300E-01
        2   -1    0    0  501    0  0.00000000000E+00  0.00000000000E+00  0.55021276610E+03  0.55021276610E+03  0.25500000920E-02 0. -1.
       -2   -1    0    0    0  501  0.00000000000E+00  0.00000000000E+00 -0.11925813096E+04  0.11925813096E+04  0.25500000920E-02 0.  1.
    10030    2    1    2    0    0  0.00000000000E+00  0.00000000000E+00 -0.64236854353E+03  0.17427940757E+04  0.16200906903E+04 0.  0.
        1    1    3    3  502    0 -0.69343461264E+03  0.39049976471E+03 -0.15863795342E+03  0.81148482952E+03  0.50400001928E-02 0. -1.
       -1    1    3    3    0  502  0.69343461264E+03 -0.39049976471E+03 -0.48373059011E+03  0.93130924621E+03  0.50400001928E-02 0.  1.
</event>
<event>
 5   0  0.5059689E-04  0.1688363E+04  0.7818609E-02  0.8768029E-01
        1   -1    0    0  501    0  0.00000000000E+00  0.00000000000E+00  0.92280429402E+03  0.92280429403E+03  0.50400001928E-02 0.  1.
       -1   -1    0    0    0  501  0.00000000000E+00  0.00000000000E+00 -0.77225774973E+03  0.77225774975E+03  0.50400001928E-02 0. -1.
    10030    2    1    2    0    0  0.00000000000E+00  0.00000000000E+00  0.15054654429E+03  0.16950620438E+04  0.16883634296E+04 0.  0.
        5    1    3    3  502    0 -0.55712457569E+03 -0.94336996780E+02  0.70492454311E+03  0.90345335423E+03  0.46999998093E+01 0.  1.
       -5    1    3    3    0  502  0.55712457569E+03  0.94336996780E+02 -0.55437799882E+03  0.79160868955E+03  0.46999998093E+01 0. -1.
</event>
<event>
 5   0  0.4947006E-04  0.1604689E+04  0.7818609E-02  0.8817672E-01
        1   -1    0    0  501    0  0.00000000000E+00  0.00000000000E+00  0.59326570797E+03  0.59326570799E+03  0.50400001928E-02 0. -1.
       -1   -1    0    0    0  501  0.00000000000E+00  0.00000000000E+00 -0.10851070815E+04  0.10851070815E+04  0.50400001928E-02 0.  1.
    10030    2    1    2    0    0  0.00000000000E+00  0.00000000000E+00 -0.49184137351E+03  0.16783727895E+04  0.16046891549E+04 0.  0.
        2    1    3    3  502    0  0.35105424093E+03 -0.72145021846E+03 -0.24045351395E+03  0.83758425855E+03  0.25500000920E-02 0.  1.
       -2    1    3    3    0  502 -0.35105424093E+03  0.72145021846E+03 -0.25138785956E+03  0.84078853092E+03  0.25500000920E-02 0. -1.
</event>
<event>
 5   0  0.9610114E-04  0.1535436E+04  0.7818609E-02  0.8861225E-01
        2   -1    0    0  501    0  0.00000000000E+00  0.00000000000E+00  0.52691568901E+03  0.52691568901E+03  0.25500000920E-02 0. -1.
       -2   -1    0    0    0  501  0.00000000000E+00  0.00000000000E+00 -0.11185674011E+04  0.11185674011E+04  0.25500000920E-02 0.  1.
    10030    2    1    2    0    0  0.00000000000E+00  0.00000000000E+00 -0.59165171212E+03  0.16454830901E+04  0.15354357204E+04 0.  0.
        2    1    3    3  502    0 -0.48707318270E+03 -0.11457779310E+03  0.32816173502E+03  0.59837987960E+03  0.25500000920E-02 0.  1.
       -2    1    3    3    0  502  0.48707318270E+03  0.11457779310E+03 -0.91981344713E+03  0.10471032105E+04  0.25500000920E-02 0. -1.
</event>
<event>
 5   0  0.9610114E-04  0.1729357E+04  0.7818609E-02  0.8744796E-01
        2   -1    0    0  501    0  0.00000000000E+00  0.00000000000E+00  0.11017836909E+04  0.11017836909E+04  0.25500000920E-02 0.  1.
       -2   -1    0    0    0  501  0.00000000000E+00  0.00000000000E+00 -0.67859828683E+03  0.67859828683E+03  0.25500000920E-02 0. -1.
    10030    2    1    2    0    0  0.00000000000E+00  0.00000000000E+00  0.42318540407E+03  0.17803819777E+04  0.17293565568E+04 0.  0.
        2    1    3    3  502    0 -0.38355916093E+03  0.47057657112E+03 -0.42229226841E+03  0.73952058740E+03  0.25500000920E-02 0. -1.
       -2    1    3    3    0  502  0.38355916093E+03 -0.47057657112E+03  0.84547767248E+03  0.10408613903E+04  0.25500000920E-02 0.  1.
</event>
<event>
 5   0  0.9284971E-04  0.1433934E+04  0.7818609E-02  0.8929615E-01
       -2   -1    0    0    0  501  0.00000000000E+00  0.00000000000E+00  0.46077670526E+03  0.46077670527E+03  0.25500000920E-02 0. -1.
        2   -1    0    0  501    0  0.00000000000E+00  0.00000000000E+00 -0.11155975700E+04  0.11155975700E+04  0.25500000920E-02 0.  1.
    10030    2    1    2    0    0  0.00000000000E+00  0.00000000000E+00 -0.65482086473E+03  0.15763742753E+04  0.14339335727E+04 0.  0.
        4    1    3    3  502    0 -0.58182285275E+03  0.21599244843E+03 -0.72205384274E+03  0.95212075625E+03  0.12699999809E+01 0.  1.
       -4    1    3    3    0  502  0.58182285275E+03 -0.21599244843E+03  0.67232978011E+02  0.62425351901E+03  0.12699999809E+01 0. -1.
</event>
<event>
 5   0  0.9610114E-04  0.1364014E+04  0.7818609E-02  0.8980287E-01
       -2   -1    0    0    0  501  0.00000000000E+00  0.00000000000E+00  0.55743095557E+03  0.55743095558E+03  0.25500000920E-02 0.  1.
        2   -1    0    0  501    0  0.00000000000E+00  0.00000000000E+00 -0.83442358866E+03  0.83442358867E+03  0.25500000920E-02 0. -1.
    10030    2    1    2    0    0  0.00000000000E+00  0.00000000000E+00 -0.27699263309E+03  0.13918545442E+04  0.13640139858E+04 0.  0.
        2    1    3    3  502    0  0.59038483709E+03 -0.17571738756E+03  0.16022914130E+03  0.63647799168E+03  0.25500000920E-02 0.  1.
       -2    1    3    3    0  502 -0.59038483709E+03  0.17571738756E+03 -0.43722177439E+03  0.75537655257E+03  0.25500000920E-02 0. -1.
</event>
<event>
 5   0  0.9610114E-04  0.1752189E+04  0.7818609E-02  0.8732147E-01
        2   -1    0    0  501    0  0.00000000000E+00  0.00000000000E+00  0.84091848371E+03  0.84091848372E+03  0.25500000920E-02 0. -1.
       -2   -1    0    0    0  501  0.00000000000E+00  0.00000000000E+00 -0.91274145575E+03  0.91274145575E+03  0.25500000920E-02 0.  1.
    10030    2    1    2    0    0  0.00000000000E+00  0.00000000000E+00 -0.71822972036E+02  0.17536599395E+04  0.17521885298E+04 0.  0.
        2    1    3    3  502    0  0.84515674829E+02 -0.23079053262E+03 -0.87753024145E+03  0.91129934374E+03  0.25500000920E-02 0.  1.
       -2    1    3    3    0  502 -0.84515674829E+02  0.23079053262E+03  0.80570726942E+03  0.84236059573E+03  0.25500000920E-02 0. -1.
</event>
<event>
 5   0  0.9312096E-04  0.1809625E+04  0.7818609E-02  0.8701198E-01
        2   -1    0    0  501    0  0.00000000000E+00  0.00000000000E+00  0.14335051604E+04  0.14335051604E+04  0.25500000920E-02 0.  1.
       -2   -1    0    0    0  501  0.00000000000E+00  0.00000000000E+00 -0.57110747196E+03  0.57110747197E+03  0.25500000920E-02 0. -1.
    10030    2    1    2    0    0  0.00000000000E+00  0.00000000000E+00  0.86239768842E+03  0.20046126324E+04  0.18096248321E+04 0.  0.
        3    1    3    3  502    0 -0.83723568412E+03 -0.20960193726E+03  0.13028820918E+03  0.87285255944E+03  0.10100000352E+00 0. -1.
       -3    1    3    3    0  502  0.83723568412E+03  0.20960193726E+03  0.73210947924E+03  0.11317600729E+04  0.10100000352E+00 0.  1.
</event>
<event>
 5   0  0.5035495E-04  0.1719906E+04  0.7818609E-02  0.8750092E-01
       -1   -1    0    0    0  501  0.00000000000E+00  0.00000000000E+00  0.83355185312E+03  0.83355185314E+03  0.50400001928E-02 0. -1.
        1   -1    0    0  501    0  0.00000000000E+00  0.00000000000E+00 -0.88719035683E+03  0.88719035684E+03  0.50400001928E-02 0.  1.
    10030    2    1    2    0    0  0.00000000000E+00  0.00000000000E+00 -0.53638503705E+02  0.17207422100E+04  0.17199060044E+04 0.  0.
        4    1    3    3  502    0 -0.50372302928E+03 -0.66214690225E+03  0.19086903155E+03  0.85358538559E+03  0.12699999809E+01 0.  1.
       -4    1    3    3    0  502  0.50372302928E+03  0.66214690225E+03 -0.24450753526E+03  0.86715682439E+03  0.12699999809E+01 0. -1.
</event>
<event>
 5   0  0.5074133E-04  0.1062800E+04  0.7818609E-02  0.9242228E-01
       -1   -1    0    0    0  501  0.00000000000E+00  0.00000000000E+00  0.88588995275E+03  0.88588995277E+03  0.50400001928E-02 0.  1.
        1   -1    0    0  501    0  0.00000000000E+00  0.00000000000E+00 -0.31875972778E+03  0.31875972782E+03  0.50400001928E-02 0. -1.
    10030    2    1    2    0    0  0.00000000000E+00  0.00000000000E+00  0.56713022497E+03  0.12046496806E+04  0.10628001510E+04 0.  0.
        1    1    3    3  502    0 -0.19757494755E+03 -0.64760538925E+01  0.84266264027E+03  0.86553921027E+03  0.50400001928E-02 0.  1.
       -1    1    3    3    0  502  0.19757494755E+03  0.64760538925E+01 -0.27553241530E+03  0.33911047032E+03  0.50400001928E-02 0. -1.
</event>
<event>
 5   0  0.5009762E-04  0.1690591E+04  0.7818609E-02  0.8766749E-01
       -1   -1    0    0    0  501  0.00000000000E+00  0.00000000000E+00  0.54033020831E+03  0.54033020834E+03  0.50400001928E-02 0. -1.
        1   -1    0    0  501    0  0.00000000000E+00  0.00000000000E+00 -0.13223843029E+04  0.13223843029E+04  0.50400001928E-02 0.  1.
    10030    2    1    2    0    0  0.00000000000E+00  0.00000000000E+00 -0.78205409459E+03  0.18627145113E+04  0.16905906493E+04 0.  0.
        3    1    3    3  502    0  0.34748368684E+03 -0.76961619380E+03 -0.34878035683E+03  0.91362013216E+03  0.10100000352E+00 0.  1.
       -3    1    3    3    0  502 -0.34748368684E+03  0.76961619380E+03 -0.43327373776E+03  0.94909437909E+03  0.10100000352E+00 0. -1.
</event>
<event>
 5   0  0.4947006E-04  0.1690435E+04  0.7818609E-02  0.8766838E-01
       -1   -1    0    0    0  501  0.00000000000E+00  0.00000000000E+00  0.34545699500E+03  0.34545699503E+03  0.50400001928E-02 0.  1.
        1   -1    0    0  501    0  0.00000000000E+00  0.00000000000E+00 -0.20679650140E+04  0.20679650140E+04  0.50400001928E-02 0. -1.
    10030    2    1    2    0    0  0.00000000000E+00  0.00000000000E+00 -0.17225080190E+04  0.24134220091E+04  0.16904354227E+04 0.  0.
        2    1    3    3  502    0 -0.12745358957E+03 -0.62345927926E+03 -0.16554503566E+04  0.17735449736E+04  0.25500000920E-02 0. -1.
       -2    1    3    3    0  502  0.12745358957E+03  0.62345927926E+03 -0.67057662465E+02  0.63987703545E+03  0.25500000920E-02 0.  1.
</event>
<event>
 5   0  0.5009762E-04  0.1679689E+04  0.7818609E-02  0.8773034E-01
       -1   -1    0    0    0  501  0.00000000000E+00  0.00000000000E+00  0.89991824700E+03  0.89991824702E+03  0.50400001928E-02 0.  1.
        1   -1    0    0  501    0  0.00000000000E+00  0.00000000000E+00 -0.78378072065E+03  0.78378072066E+03  0.50400001928E-02 0. -1.
    10030    2    1    2    0    0  0.00000000000E+00  0.00000000000E+00  0.11613752636E+03  0.16836989677E+04  0.16796887476E+04 0.  0.
        3    1    3    3  502    0 -0.58051170524E+03  0.40659428588E+03 -0.39359084909E+03  0.81069508443E+03  0.10100000352E+00 0. -1.
       -3    1    3    3    0  502  0.58051170524E+03 -0.40659428588E+03  0.50972837544E+03  0.87300388325E+03  0.10100000352E+00 0.  1.
</event>
<event>
 5   0  0.9284971E-04  0.1687635E+04  0.7818609E-02  0.8768448E-01
        2   -1    0    0  501    0  0.00000000000E+00  0.00000000000E+00  0.10022480060E+04  0.10022480060E+04  0.25500000920E-02 0. -1.
       -2   -1    0    0    0  501  0.00000000000E+00  0.00000000000E+00 -0.71043087135E+03  0.71043087135E+03  0.25500000920E-02 0.  1.
    10030    2    1    2    0    0  0.00000000000E+00  0.00000000000E+00  0.29181713467E+03  0.17126788774E+04  0.16876349418E+04 0.  0.
        4    1    3    3  502    0 -0.23337566327E+02 -0.23769189824E+03  0.96722943062E+03  0.99628131812E+03  0.12699999809E+01 0. -1.
       -4    1    3    3    0  502  0.23337566327E+02  0.23769189824E+03 -0.67541229594E+03  0.71639755925E+03  0.12699999809E+01 0.  1.
</event>
<event>
 5   0  0.9284971E-04  0.1663351E+04  0.7818609E-02  0.8782547E-01
        2   -1    0    0  501    0  0.00000000000E+00  0.00000000000E+00  0.16609559439E+04  0.16609559439E+04  0.25500000920E-02 0.  1.
       -2   -1    0    0    0  501  0.00000000000E+00  0.00000000000E+00 -0.41643748376E+03  0.41643748376E+03  0.25500000920E-02 0. -1.
    10030    2    1    2    0    0  0.00000000000E+00  0.00000000000E+00  0.12445184601E+04  0.20773934276E+04  0.16633512123E+04 0.  0.
        4    1    3    3  502    0  0.69471475093E+03  0.12096013992E+03  0.71567763628E+02  0.70879016522E+03  0.12699999809E+01 0. -1.
       -4    1    3    3    0  502 -0.69471475093E+03 -0.12096013992E+03  0.11729506965E+04  0.13686032624E+04  0.12699999809E+01 0.  1.
</event>
<event>
 5   0  0.9610114E-04  0.1732797E+04  0.7818609E-02  0.8742877E-01
        2   -1    0    0  501    0  0.00000000000E+00  0.00000000000E+00  0.16872797702E+04  0.16872797702E+04  0.25500000920E-02 0. -1.
       -2   -1    0    0    0  501  0.00000000000E+00  0.00000000000E+00 -0.44488574345E+03  0.44488574346E+03  0.25500000920E-02 0.  1.
    10030    2    1    2    0    0  0.00000000000E+00  0.00000000000E+00  0.12423940267E+04  0.21321655136E+04  0.17327974088E+04 0.  0.
        2    1    3    3  502    0 -0.69077716751E+03  0.20304175489E+02  0.12641855784E+04  0.14407465188E+04  0.25500000920E-02 0. -1.
       -2    1    3    3    0  502  0.69077716751E+03 -0.20304175489E+02 -0.21791551695E+02  0.69141899485E+03  0.25500000920E-02 0.  1.
</event>
<event>
 5   0  0.3523125E-04  0.1709431E+04  0.7818609E-02  0.8756004E-01
        3   -1    0    0  501    0  0.00000000000E+00  0.00000000000E+00  0.98830233926E+03  0.98830234442E+03  0.10100000352E+00 0. -1.
       -3   -1    0    0    0  501  0.00000000000E+00  0.00000000000E+00 -0.73918489541E+03  0.73918490231E+03  0.10100000352E+00 0.  1.
    10030    2    1    2    0    0  0.00000000000E+00  0.00000000000E+00  0.24911744385E+03  0.17274872467E+04  0.17094305153E+04 0.  0.
        4    1    3    3  502    0 -0.29238597053E+03 -0.75382188377E+02 -0.68349022142E+03  0.74721651867E+03  0.12699999809E+01 0.  1.
       -4    1    3    3    0  502  0.29238597053E+03  0.75382188377E+02  0.93260766527E+03  0.98027072807E+03  0.12699999809E+01 0. -1.
</event>
<event>
 5   0  0.5035495E-04  0.1703858E+04  0.7818609E-02  0.8759167E-01
        1   -1    0    0  501    0  0.00000000000E+00  0.00000000000E+00  0.24927675471E+04  0.24927675471E+04  0.50400001928E-02 0. -1.
       -1   -1    0    0    0  501  0.00000000000E+00  0.00000000000E+00 -0.29115564125E+03  0.29115564129E+03  0.50400001928E-02 0.  1.
    10030    2    1    2    0    0  0.00000000000E+00  0.00000000000E+00  0.22016119059E+04  0.27839231884E+04  0.17038583670E+04 0.  0.
        4    1    3    3  502    0 -0.44569649308E+03 -0.11643875558E+02 -0.85316111891E+02  0.45393985905E+03  0.12699999809E+01 0.  1.
       -4    1    3    3    0  502  0.44569649308E+03  0.11643875558E+02  0.22869280178E+04  0.23299833294E+04  0.12699999809E+01 0. -1.
</event>
<event>
 5   0  0.5009762E-04  0.1680840E+04  0.7818609E-02  0.8772368E-01
        1   -1    0    0  501    0  0.00000000000E+00  0.00000000000E+00  0.95434580230E+03  0.95434580231E+03  0.50400001928E-02 0.  1.
       -1   -1    0    0    0  501  0.00000000000E+00  0.00000000000E+00 -0.74009458809E+03  0.74009458811E+03  0.50400001928E-02 0. -1.
    10030    2    1    2    0    0  0.00000000000E+00  0.00000000000E+00  0.21425121421E+03  0.16944403904E+04  0.16808404606E+04 0.  0.
        3    1    3    3  502    0 -0.34097674573E+02  0.75945452248E+03 -0.25406422310E+03  0.80155003761E+03  0.10100000352E+00 0. -1.
       -3    1    3    3    0  502  0.34097674573E+02 -0.75945452248E+03  0.46831543731E+03  0.89289035282E+03  0.10100000352E+00 0.  1.
</event>
<event>
 5   0  0.5035495E-04  0.1547248E+04  0.7818609E-02  0.8853627E-01
       -1   -1    0    0    0  501  0.00000000000E+00  0.00000000000E+00  0.43361053610E+03  0.43361053613E+03  0.50400001928E-02 0.  1.
        1   -1    0    0  501    0  0.00000000000E+00  0.00000000000E+00 -0.13802577390E+04  0.13802577390E+04  0.50400001928E-02 0. -1.
    10030    2    1    2    0    0  0.00000000000E+00  0.00000000000E+00 -0.94664720288E+03  0.18138682751E+04  0.15472482647E+04 0.  0.
        4    1    3    3  502    0 -0.48720161447E+03 -0.25226315571E+03 -0.11127379009E+04  0.12406407062E+04  0.12699999809E+01 0.  1.
       -4    1    3    3    0  502  0.48720161447E+03  0.25226315571E+03  0.16609069804E+03  0.57322756890E+03  0.12699999809E+01 0. -1.
</event>
<event>
 5   0  0.5035495E-04  0.1644605E+04  0.7818609E-02  0.8793605E-01
        1   -1    0    0  501    0  0.00000000000E+00  0.00000000000E+00  0.15468254774E+04  0.15468254775E+04  0.50400001928E-02 0. -1.
       -1   -1    0    0    0  501  0.00000000000E+00  0.00000000000E+00 -0.43714119973E+03  0.43714119976E+03  0.50400001928E-02 0.  1.
    10030    2    1    2    0    0  0.00000000000E+00  0.00000000000E+00  0.11096842777E+04  0.19839666772E+04  0.16446046881E+04 0.  0.
        4    1    3    3  502    0  0.57687931362E+03 -0.45442676037E+03  0.10011685010E+04  0.12416253071E+04  0.12699999809E+01 0. -1.
       -4    1    3    3    0  502 -0.57687931362E+03  0.45442676037E+03  0.10851577670E+03  0.74234137007E+03  0.12699999809E+01 0.  1.
</event>
<event>
 5   0  0.9625225E-04  0.1712875E+04  0.7818609E-02  0.8754055E-01
        2   -1    0    0  501    0  0.00000000000E+00  0.00000000000E+00  0.57272221609E+03  0.57272221609E+03  0.25500000920E-02 0. -1.
       -2   -1    0    0    0  501  0.00000000000E+00  0.00000000000E+00 -0.12806995731E+04  0.12806995731E+04  0.25500000920E-02 0.  1.
    10030    2    1    2    0    0  0.00000000000E+00  0.00000000000E+00 -0.70797735705E+03  0.18534217892E+04  0.17128748906E+04 0.  0.
        1    1    3    3  502    0  0.81861718588E+02  0.44536561612E+03  0.43259273341E+03  0.62624942796E+03  0.50400001928E-02 0. -1.
       -1    1    3    3    0  502 -0.81861718588E+02 -0.44536561612E+03 -0.11405700905E+04  0.12271723613E+04  0.50400001928E-02 0.  1.
</event>
<event>
 5   0  0.9610114E-04  0.1676877E+04  0.7818609E-02  0.8774663E-01
        2   -1    0    0  501    0  0.00000000000E+00  0.00000000000E+00  0.14521564229E+04  0.14521564229E+04  0.25500000920E-02 0. -1.
       -2   -1    0    0    0  501  0.00000000000E+00  0.00000000000E+00 -0.48409339100E+03  0.48409339101E+03  0.25500000920E-02 0.  1.
    10030    2    1    2    0    0  0.00000000000E+00  0.00000000000E+00  0.96806303190E+03  0.19362498139E+04  0.16768772490E+04 0.  0.
        2    1    3    3  502    0 -0.82677614533E+03 -0.12946239236E+03  0.54358438514E+03  0.99789943847E+03  0.25500000920E-02 0. -1.
       -2    1    3    3    0  502  0.82677614533E+03  0.12946239236E+03  0.42447864676E+03  0.93835037544E+03  0.25500000920E-02 0.  1.
</event>
<event>
 5   0  0.9312096E-04  0.8808194E+03  0.7818609E-02  0.9449881E-01
        2   -1    0    0  501    0  0.00000000000E+00  0.00000000000E+00  0.93034078341E+03  0.93034078342E+03  0.25500000920E-02 0. -1.
       -2   -1    0    0    0  501  0.00000000000E+00  0.00000000000E+00 -0.20848349365E+03  0.20848349366E+03  0.25500000920E-02 0.  1.
    10030    2    1    2    0    0  0.00000000000E+00  0.00000000000E+00  0.72185728977E+03  0.11388242771E+04  0.88081938402E+03 0.  0.
        3    1    3    3  502    0 -0.19881227498E+02  0.42034026325E+03  0.19295178107E+03  0.46293800895E+03  0.10100000352E+00 0.  1.
       -3    1    3    3    0  502  0.19881227498E+02 -0.42034026325E+03  0.52890550869E+03  0.67588626812E+03  0.10100000352E+00 0. -1.
</event>
<event>
 5   0  0.1007187E-03  0.1485173E+04  0.7818609E-02  0.8894373E-01
       -2   -1    0    0    0  501  0.00000000000E+00  0.00000000000E+00  0.12354565876E+04  0.12354565876E+04  0.25500000920E-02 0.  1.
        2   -1    0    0  501    0  0.00000000000E+00  0.00000000000E+00 -0.44634108209E+03  0.44634108209E+03  0.25500000920E-02 0. -1.
    10030    2    1    2    0    0  0.00000000000E+00  0.00000000000E+00  0.78911550553E+03  0.16817976697E+04  0.14851734312E+04 0.  0.
        5    1    3    3  502    0  0.12118967746E+03  0.43759888672E+03 -0.27079638547E+03  0.52870832787E+03  0.46999998093E+01 0. -1.
       -5    1    3    3    0  502 -0.12118967746E+03 -0.43759888672E+03  0.10599118910E+04  0.11530893418E+04  0.46999998093E+01 0.  1.
</event>
<event>
 5   0  0.5059689E-04  0.1497280E+04  0.7818609E-02  0.8886264E-01
       -1   -1    0    0    0  501  0.00000000000E+00  0.00000000000E+00  0.83151456526E+03  0.83151456528E+03  0.50400001928E-02 0.  1.
        1   -1    0    0  501    0  0.00000000000E+00  0.00000000000E+00 -0.67402507612E+03  0.67402507613E+03  0.50400001928E-02 0. -1.
    10030    2    1    2    0    0  0.00000000000E+00  0.00000000000E+00  0.15748948915E+03  0.15055396414E+04  0.14972797577E+04 0.  0.
        5    1    3    3  502    0 -0.46378261036E+03 -0.44506566277E+03  0.46460880504E+03  0.79313377533E+03  0.46999998093E+01 0. -1.
       -5    1    3    3    0  502  0.46378261036E+03  0.44506566277E+03 -0.30711931589E+03  0.71240586609E+03  0.46999998093E+01 0.  1.
</event>
<event>
 5   0  0.4947006E-04  0.1681769E+04  0.7818609E-02  0.8771831E-01
        1   -1    0    0  501    0  0.00000000000E+00  0.00000000000E+00  0.15001372417E+04  0.15001372417E+04  0.50400001928E-02 0.  1.
       -1   -1    0    0    0  501  0.00000000000E+00  0.00000000000E+00 -0.47134828721E+03  0.47134828724E+03  0.50400001928E-02 0. -1.
    10030    2    1    2    0    0  0.00000000000E+00  0.00000000000E+00  0.10287889544E+04  0.19714855289E+04  0.16817694485E+04 0.  0.
        2    1    3    3  502    0 -0.44199887089E+03 -0.65605397104E+02  0.13494415281E+04  0.14214990354E+04  0.25500000920E-02 0.  1.
       -2    1    3    3    0  502  0.44199887089E+03  0.65605397104E+02 -0.32065257365E+03  0.54998649346E+03  0.25500000920E-02 0. -1.
</event>
<event>
 5   0  0.5059689E-04  0.1695774E+04  0.7818609E-02  0.8763778E-01
       -1   -1    0    0    0  501  0.00000000000E+00  0.00000000000E+00  0.85389559914E+03  0.85389559915E+03  0.50400001928E-02 0.  1.
        1   -1    0    0  501    0  0.00000000000E+00  0.00000000000E+00 -0.84192102566E+03  0.84192102568E+03  0.50400001928E-02 0. -1.
    10030    2    1    2    0    0  0.00000000000E+00  0.00000000000E+00  0.11974573479E+02  0.16958166248E+04  0.16957743466E+04 0.  0.
        5    1    3    3  502    0  0.65547926903E+03  0.26160424908E+03  0.47589336600E+03  0.85122643349E+03  0.46999998093E+01 0.  1.
       -5    1    3    3    0  502 -0.65547926903E+03 -0.26160424908E+03 -0.46391879252E+03  0.84459019134E+03  0.46999998093E+01 0. -1.
</event>
<event>
 5   0  0.9610114E-04  0.1706157E+04  0.7818609E-02  0.8757861E-01
       -2   -1    0    0    0  501  0.00000000000E+00  0.00000000000E+00  0.28987698253E+03  0.28987698255E+03  0.25500000920E-02 0.  1.
        2   -1    0    0  501    0  0.00000000000E+00  0.00000000000E+00 -0.25105230862E+04  0.25105230862E+04  0.25500000920E-02 0. -1.
    10030    2    1    2    0    0  0.00000000000E+00  0.00000000000E+00 -0.22206461037E+04  0.28004000688E+04  0.17061569176E+04 0.  0.
        2    1    3    3  502    0 -0.67276771522E+03 -0.20059812698E+03 -0.31484086337E+03  0.76940287005E+03  0.25500000920E-02 0.  1.
       -2    1    3    3    0  502  0.67276771522E+03  0.20059812698E+03 -0.19058052403E+04  0.20309971987E+04  0.25500000920E-02 0. -1.
</event>
<event>
 5   0  0.9625225E-04  0.1752835E+04  0.7818609E-02  0.8731792E-01
       -2   -1    0    0    0  501  0.00000000000E+00  0.00000000000E+00  0.41058780318E+03  0.41058780318E+03  0.25500000920E-02 0.  1.
        2   -1    0    0  501    0  0.00000000000E+00  0.00000000000E+00 -0.18707502384E+04  0.18707502384E+04  0.25500000920E-02 0. -1.
    10030    2    1    2    0    0  0.00000000000E+00  0.00000000000E+00 -0.14601624352E+04  0.22813380416E+04  0.17528345395E+04 0.  0.
        1    1    3    3  502    0  0.86621114322E+03  0.50537190710E+02 -0.89070866176E+03  0.12434780547E+04  0.50400001928E-02 0. -1.
       -1    1    3    3    0  502 -0.86621114322E+03 -0.50537190710E+02 -0.56945377344E+03  0.10378599869E+04  0.50400001928E-02 0.  1.
</event>
<event>
 5   0  0.9625225E-04  0.1736853E+04  0.7818609E-02  0.8740621E-01
       -2   -1    0    0    0  501  0.00000000000E+00  0.00000000000E+00  0.13091674055E+04  0.13091674055E+04  0.25500000920E-02 0.  1.
        2   -1    0    0  501    0  0.00000000000E+00  0.00000000000E+00 -0.57606420796E+03  0.57606420797E+03  0.25500000920E-02 0. -1.
    10030    2    1    2    0    0  0.00000000000E+00  0.00000000000E+00  0.73310319755E+03  0.18852316135E+04  0.17368528833E+04 0.  0.
        1    1    3    3  502    0 -0.47862504834E+03  0.40383978728E+03  0.10196122996E+04  0.11965691590E+04  0.50400001928E-02 0.  1.
       -1    1    3    3    0  502  0.47862504834E+03 -0.40383978728E+03 -0.28650910204E+03  0.68866245452E+03  0.50400001928E-02 0. -1.
</event>
<event>
 5   0  0.9312096E-04  0.1724174E+04  0.7818609E-02  0.8747696E-01
        2   -1    0    0  501    0  0.00000000000E+00  0.00000000000E+00  0.14286130336E+04  0.14286130336E+04  0.25500000920E-02 0. -1.
       -2   -1    0    0    0  501  0.00000000000E+00  0.00000000000E+00 -0.52022077173E+03  0.52022077173E+03  0.25500000920E-02 0.  1.
    10030    2    1    2    0    0  0.00000000000E+00  0.00000000000E+00  0.90839226184E+03  0.19488338053E+04  0.17241742079E+04 0.  0.
        3    1    3    3  502    0  0.45119373569E+03  0.58719131568E+03 -0.44706401996E+02  0.74186798079E+03  0.10100000352E+00 0.  1.
       -3    1    3    3    0  502 -0.45119373569E+03 -0.58719131568E+03  0.95309866384E+03  0.12069658245E+04  0.10100000352E+00 0. -1.
</event>
<event>
 5   0  0.5035495E-04  0.1668313E+04  0.7818609E-02  0.8779646E-01
       -1   -1    0    0    0  501  0.00000000000E+00  0.00000000000E+00  0.13519969814E+04  0.13519969814E+04  0.50400001928E-02 0. -1.
        1   -1    0    0  501    0  0.00000000000E+00  0.00000000000E+00 -0.51465856855E+03  0.51465856858E+03  0.50400001928E-02 0.  1.
    10030    2    1    2    0    0  0.00000000000E+00  0.00000000000E+00  0.83733841287E+03  0.18666555500E+04  0.16683127179E+04 0.  0.
        4    1    3    3  502    0  0.23723438598E+03  0.49181826168E+03 -0.28689597898E+03  0.61682758699E+03  0.12699999809E+01 0.  1.
       -4    1    3    3    0  502 -0.23723438598E+03 -0.49181826168E+03  0.11242343918E+04  0.12498279630E+04  0.12699999809E+01 0. -1.
</event>
<event>
 5   0  0.9312096E-04  0.1692312E+04  0.7818609E-02  0.8765762E-01
        2   -1    0    0  501    0  0.00000000000E+00  0.00000000000E+00  0.24372430201E+04  0.24372430201E+04  0.25500000920E-02 0.  1.
       -2   -1    0    0    0  501  0.00000000000E+00  0.00000000000E+00 -0.29376619074E+03  0.29376619075E+03  0.25500000920E-02 0. -1.
    10030    2    1    2    0    0  0.00000000000E+00  0.00000000000E+00  0.21434768294E+04  0.27310092108E+04  0.16923115528E+04 0.  0.
        3    1    3    3  502    0 -0.42572846504E+03 -0.35542594622E+03  0.21030492288E+04  0.21749456081E+04  0.10100000352E+00 0.  1.
       -3    1    3    3    0  502  0.42572846504E+03  0.35542594622E+03  0.40427600523E+02  0.55606360272E+03  0.10100000352E+00 0. -1.
</event>
<event>
 5   0  0.4947006E-04  0.1674427E+04  0.7818609E-02  0.8776086E-01
        1   -1    0    0  501    0  0.00000000000E+00  0.00000000000E+00  0.18770494930E+04  0.18770494930E+04  0.50400001928E-02 0. -1.
       -1   -1    0    0    0  501  0.00000000000E+00  0.00000000000E+00 -0.37341910234E+03  0.37341910238E+03  0.50400001928E-02 0.  1.
    10030    2    1    2    0    0  0.00000000000E+00  0.00000000000E+00  0.15036303907E+04  0.22504685954E+04  0.16744266324E+04 0.  0.
        2    1    3    3  502    0 -0.81880636254E+03  0.17420228123E+03  0.76747999782E+03  0.11357005949E+04  0.25500000920E-02 0.  1.
       -2    1    3    3    0  502  0.81880636254E+03 -0.17420228123E+03  0.73615039288E+03  0.11147680006E+04  0.25500000920E-02 0. -1.
</event>
<event>
 5   0  0.1007187E-03  0.1715612E+04  0.7818609E-02  0.8752510E-01
       -2   -1    0    0    0  501  0.00000000000E+00  0.00000000000E+00  0.60365417882E+03  0.60365417882E+03  0.25500000920E-02 0. -1.
        2   -1    0    0  501    0  0.00000000000E+00  0.00000000000E+00 -0.12189613873E+04  0.12189613873E+04  0.25500000920E-02 0.  1.
    10030    2    1    2    0    0  0.00000000000E+00  0.00000000000E+00 -0.61530720851E+03  0.18226155662E+04  0.17156120019E+04 0.  0.
        5    1    3    3  502    0  0.82847871583E+03  0.10937093157E+03 -0.10200858024E+03  0.84188290379E+03  0.46999998093E+01 0.  1.
       -5    1    3    3    0  502 -0.82847871583E+03 -0.10937093157E+03 -0.51329862827E+03  0.98073266237E+03  0.46999998093E+01 0. -1.
</event>
<event>
 5   0  0.9312096E-04  0.1718454E+04  0.7818609E-02  0.8750909E-01
       -2   -1    0    0    0  501  0.00000000000E+00  0.00000000000E+00  0.51481730441E+03  0.51481730442E+03  0.25500000920E-02 0. -1.
        2   -1    0    0  501    0  0.00000000000E+00  0.00000000000E+00 -0.14340452476E+04  0.14340452476E+04  0.25500000920E-02 0.  1.
    10030    2    1    2    0    0  0.00000000000E+00  0.00000000000E+00 -0.91922794318E+03  0.19488625520E+04  0.17184543157E+04 0.  0.
        3    1    3    3  502    0 -0.53048178447E+03 -0.47603344266E+03 -0.10037975485E+04  0.12311085618E+04  0.10100000352E+00 0.  1.
       -3    1    3    3    0  502  0.53048178447E+03  0.47603344266E+03  0.84569605357E+02  0.71775399026E+03  0.10100000352E+00 0. -1.
</event>
<event>
 5   0  0.4947006E-04  0.1655437E+04  0.7818609E-02  0.8787197E-01
        1   -1    0    0  501    0  0.00000000000E+00  0.00000000000E+00  0.12290529548E+04  0.12290529548E+04  0.50400001928E-02 0.  1.
       -1   -1    0    0    0  501  0.00000000000E+00  0.00000000000E+00 -0.55743545659E+03  0.55743545661E+03  0.50400001928E-02 0. -1.
    10030    2    1    2    0    0  0.00000000000E+00  0.00000000000E+00  0.67161749818E+03  0.17864884114E+04  0.16554367340E+04 0.  0.
        2    1    3    3  502    0  0.46013620005E+03 -0.12271609946E+03  0.10664063495E+04  0.11679071307E+04  0.25500000920E-02 0.  1.
       -2    1    3    3    0  502 -0.46013620005E+03  0.12271609946E+03 -0.39478885134E+03  0.61858128068E+03  0.25500000920E-02 0. -1.
</event>
<event>
 5   0  0.4947006E-04  0.1703595E+04  0.7818609E-02  0.8759317E-01
       -1   -1    0    0    0  501  0.00000000000E+00  0.00000000000E+00  0.55883853811E+03  0.55883853813E+03  0.50400001928E-02 0. -1.
        1   -1    0    0  501    0  0.00000000000E+00  0.00000000000E+00 -0.12983335357E+04  0.12983335358E+04  0.50400001928E-02 0.  1.
    10030    2    1    2    0    0  0.00000000000E+00  0.00000000000E+00 -0.73949499763E+03  0.18571720739E+04  0.17035948053E+04 0.  0.
        2    1    3    3  502    0  0.25897814521E+03 -0.50626330555E+03 -0.10611001559E+04  0.12038711539E+04  0.25500000920E-02 0.  1.
       -2    1    3    3    0  502 -0.25897814521E+03  0.50626330555E+03  0.32160515829E+03  0.65330092001E+03  0.25500000920E-02 0. -1.
</event>
<event>
 5   0  0.5059689E-04  0.1800148E+04  0.7818609E-02  0.8706221E-01
       -1   -1    0    0    0  501  0.00000000000E+00  0.00000000000E+00  0.36129959874E+03  0.36129959878E+03  0.50400001928E-02 0.  1.
        1   -1    0    0  501    0  0.00000000000E+00  0.00000000000E+00 -0.22422753649E+04  0.22422753649E+04  0.50400001928E-02 0. -1.
    10030    2    1    2    0    0  0.00000000000E+00  0.00000000000E+00 -0.18809757662E+04  0.26035749637E+04  0.18001479824E+04 0.  0.
        5    1    3    3  502    0 -0.88436073374E+03 -0.50649310491E+02 -0.11712271283E+04  0.14684870909E+04  0.46999998093E+01 0. -1.
       -5    1    3    3    0  502  0.88436073374E+03  0.50649310491E+02 -0.70974863786E+03  0.11350878728E+04  0.46999998093E+01 0.  1.
</event>
<event>
 5   0  0.9610114E-04  0.1228923E+04  0.7818609E-02  0.9087911E-01
        2   -1    0    0  501    0  0.00000000000E+00  0.00000000000E+00  0.10545983228E+04  0.10545983228E+04  0.25500000920E-02 0.  1.
       -2   -1    0    0    0  501  0.00000000000E+00  0.00000000000E+00 -0.35801564183E+03  0.35801564184E+03  0.25500000920E-02 0. -1.
    10030    2    1    2    0    0  0.00000000000E+00  0.00000000000E+00  0.69658268096E+03  0.14126139646E+04  0.12289226101E+04 0.  0.
        2    1    3    3  502    0  0.37348631545E+03 -0.37912166123E+03  0.70134522091E+03  0.88040353290E+03  0.25500000920E-02 0.  1.
       -2    1    3    3    0  502 -0.37348631545E+03  0.37912166123E+03 -0.47625399531E+01  0.53221043172E+03  0.25500000920E-02 0. -1.
</event>
<event>
 5   0  0.9610114E-04  0.1684326E+04  0.7818609E-02  0.8770355E-01
        2   -1    0    0  501    0  0.00000000000E+00  0.00000000000E+00  0.10282878818E+04  0.10282878818E+04  0.25500000920E-02 0. -1.
       -2   -1    0    0    0  501  0.00000000000E+00  0.00000000000E+00 -0.68972772727E+03  0.68972772727E+03  0.25500000920E-02 0.  1.
    10030    2    1    2    0    0  0.00000000000E+00  0.00000000000E+00  0.33856015450E+03  0.17180156090E+04  0.16843261723E+04 0.  0.
        2    1    3    3  502    0  0.32448868340E+03  0.65854177094E+03 -0.25160938792E+03  0.77606536698E+03  0.25500000920E-02 0.  1.
       -2    1    3    3    0  502 -0.32448868340E+03 -0.65854177094E+03  0.59016954242E+03  0.94195024207E+03  0.25500000920E-02 0. -1.
</event>
<event>
 5   0  0.5009762E-04  0.1622475E+04  0.7818609E-02  0.8806859E-01
       -1   -1    0    0    0  501  0.00000000000E+00  0.00000000000E+00  0.11323077582E+04  0.11323077582E+04  0.50400001928E-02 0.  1.
        1   -1    0    0  501    0  0.00000000000E+00  0.00000000000E+00 -0.58120762177E+03  0.58120762179E+03  0.50400001928E-02 0. -1.
    10030    2    1    2    0    0  0.00000000000E+00  0.00000000000E+00  0.55110013647E+03  0.17135153800E+04  0.16224745290E+04 0.  0.
        3    1    3    3  502    0 -0.62287168269E+03  0.28621605182E+03 -0.18263368986E+03  0.70939681159E+03  0.10100000352E+00 0. -1.
       -3    1    3    3    0  502  0.62287168269E+03 -0.28621605182E+03  0.73373382632E+03  0.10041185685E+04  0.10100000352E+00 0.  1.
</event>
<event>
 5   0  0.9284971E-04  0.1615504E+04  0.7818609E-02  0.8811079E-01
       -2   -1    0    0    0  501  0.00000000000E+00  0.00000000000E+00  0.47916596315E+03  0.47916596316E+03  0.25500000920E-02 0.  1.
        2   -1    0    0  501    0  0.00000000000E+00  0.00000000000E+00 -0.13616649414E+04  0.13616649414E+04  0.25500000920E-02 0. -1.
    10030    2    1    2    0    0  0.00000000000E+00  0.00000000000E+00 -0.88249897827E+03  0.18408309046E+04  0.16155042472E+04 0.  0.
        4    1    3    3  502    0 -0.18034367127E+03 -0.33308811507E+03 -0.12541933696E+04  0.13101427988E+04  0.12699999809E+01 0. -1.
       -4    1    3    3    0  502  0.18034367127E+03  0.33308811507E+03  0.37169439129E+03  0.53068810575E+03  0.12699999809E+01 0.  1.
</event>
<event>
 5   0  0.5074133E-04  0.1465835E+04  0.7818609E-02  0.8907495E-01
       -1   -1    0    0    0  501  0.00000000000E+00  0.00000000000E+00  0.12469545154E+04  0.12469545154E+04  0.50400001928E-02 0.  1.
        1   -1    0    0  501    0  0.00000000000E+00  0.00000000000E+00 -0.43078413191E+03  0.43078413194E+03  0.50400001928E-02 0. -1.
    10030    2    1    2    0    0  0.00000000000E+00  0.00000000000E+00  0.81617038347E+03  0.16777386473E+04  0.14658352138E+04 0.  0.
        1    1    3    3  502    0  0.20798532065E+03  0.27378348951E+03  0.11489206695E+04  0.11992639399E+04  0.50400001928E-02 0.  1.
       -1    1    3    3    0  502 -0.20798532065E+03 -0.27378348951E+03 -0.33275028606E+03  0.47847470741E+03  0.50400001928E-02 0. -1.
</event>
<event>
 5   0  0.9610114E-04  0.1704540E+04  0.7818609E-02  0.8758779E-01
       -2   -1    0    0    0  501  0.00000000000E+00  0.00000000000E+00  0.57726533967E+03  0.57726533968E+03  0.25500000920E-02 0. -1.
        2   -1    0    0  501    0  0.00000000000E+00  0.00000000000E+00 -0.12582846467E+04  0.12582846467E+04  0.25500000920E-02 0.  1.
    10030    2    1    2    0    0  0.00000000000E+00  0.00000000000E+00 -0.68101930703E+03  0.18355499864E+04  0.17045399543E+04 0.  0.
        2    1    3    3  502    0 -0.21910975490E+03  0.36298058721E+03 -0.11366578080E+04  0.12131590843E+04  0.25500000920E-02 0.  1.
       -2    1    3    3    0  502  0.21910975490E+03 -0.36298058721E+03  0.45563850097E+03  0.62239090206E+03  0.25500000920E-02 0. -1.
</event>
<event>
 5   0  0.5059689E-04  0.1687912E+04  0.7818609E-02  0.8768289E-01
       -1   -1    0    0    0  501  0.00000000000E+00  0.00000000000E+00  0.10587908484E+04  0.10587908484E+04  0.50400001928E-02 0. -1.
        1   -1    0    0  501    0  0.00000000000E+00  0.00000000000E+00 -0.67271264768E+03  0.67271264770E+03  0.50400001928E-02 0.  1.
    10030    2    1    2    0    0  0.00000000000E+00  0.00000000000E+00  0.38607820067E+03  0.17315034961E+04  0.16879123140E+04 0.  0.
        5    1    3    3  502    0  0.59073367304E+03 -0.51914650148E+03 -0.12107219011E+03  0.79571347084E+03  0.46999998093E+01 0.  1.
       -5    1    3    3    0  502 -0.59073367304E+03  0.51914650148E+03  0.50715039077E+03  0.93579002523E+03  0.46999998093E+01 0. -1.
</event>
<event>
 5   0  0.9625225E-04  0.1685763E+04  0.7818609E-02  0.8769526E-01
        2   -1    0    0  501    0  0.00000000000E+00  0.00000000000E+00  0.87752705641E+03  0.87752705642E+03  0.25500000920E-02 0. -1.
       -2   -1    0    0    0  501  0.00000000000E+00  0.00000000000E+00 -0.80960367558E+03  0.80960367558E+03  0.25500000920E-02 0.  1.
    10030    2    1    2    0    0  0.00000000000E+00  0.00000000000E+00  0.67923380836E+02  0.16871307320E+04  0.16857628900E+04 0.  0.
        1    1    3    3  502    0  0.65243412507E+03 -0.19882150817E+03 -0.46166620023E+03  0.82361153472E+03  0.50400001928E-02 0.  1.
       -1    1    3    3    0  502 -0.65243412507E+03  0.19882150817E+03  0.52958958106E+03  0.86351919728E+03  0.50400001928E-02 0. -1.
</event>
<event>
 5   0  0.1007187E-03  0.1578219E+04  0.7818609E-02  0.8834042E-01
       -2   -1    0    0    0  501  0.00000000000E+00  0.00000000000E+00  0.23284803347E+03  0.23284803349E+03  0.25500000920E-02 0.  1.
        2   -1    0    0  501    0  0.00000000000E+00  0.00000000000E+00 -0.26742501318E+04  0.26742501318E+04  0.25500000920E-02 0. -1.
    10030    2    1    2    0    0  0.00000000000E+00  0.00000000000E+00 -0.24414020983E+04  0.29070981652E+04  0.15782191029E+04 0.  0.
        5    1    3    3  502    0 -0.74272649164E+03 -0.26607168542E+03 -0.12489392192E+04  0.14772637024E+04  0.46999998093E+01 0. -1.
       -5    1    3    3    0  502  0.74272649164E+03  0.26607168542E+03 -0.11924628791E+04  0.14298344628E+04  0.46999998093E+01 0.  1.
</event>
<event>
 5   0  0.5074133E-04  0.1664400E+04  0.7818609E-02  0.8781933E-01
        1   -1    0    0  501    0  0.00000000000E+00  0.00000000000E+00  0.10720181888E+04  0.10720181889E+04  0.50400001928E-02 0. -1.
       -1   -1    0    0    0  501  0.00000000000E+00  0.00000000000E+00 -0.64603120403E+03  0.64603120405E+03  0.50400001928E-02 0.  1.
    10030    2    1    2    0    0  0.00000000000E+00  0.00000000000E+00  0.42598698482E+03  0.17180493929E+04  0.16644004342E+04 0.  0.
        1    1    3    3  502    0  0.13239408401E+03  0.63204411025E+03  0.75484145164E+03  0.99337483757E+03  0.50400001928E-02 0. -1.
       -1    1    3    3    0  502 -0.13239408401E+03 -0.63204411025E+03 -0.32885446682E+03  0.72467455534E+03  0.50400001928E-02 0.  1.
</event>
<event>
 5   0  0.5035495E-04  0.1629947E+04  0.7818609E-02  0.8802359E-01
       -1   -1    0    0    0  501  0.00000000000E+00  0.00000000000E+00  0.58784913134E+03  0.58784913136E+03  0.50400001928E-02 0.  1.
        1   -1    0    0  501    0  0.00000000000E+00  0.00000000000E+00 -0.11298508184E+04  0.11298508184E+04  0.50400001928E-02 0. -1.
    10030    2    1    2    0    0  0.00000000000E+00  0.00000000000E+00 -0.54200168708E+03  0.17176999498E+04  0.16299470202E+04 0.  0.
        4    1    3    3  502    0  0.27345779141E+03 -0.32938207444E+03 -0.10018117816E+04  0.10894494818E+04  0.12699999809E+01 0. -1.
       -4    1    3    3    0  502 -0.27345779141E+03  0.32938207444E+03  0.45981009454E+03  0.62825046803E+03  0.12699999809E+01 0.  1.
</event>
<event>
 5   0  0.5035495E-04  0.1706565E+04  0.7818609E-02  0.8757629E-01
        1   -1    0    0  501    0  0.00000000000E+00  0.00000000000E+00  0.12785839343E+04  0.12785839344E+04  0.50400001928E-02 0.  1.
       -1   -1    0    0    0  501  0.00000000000E+00  0.00000000000E+00 -0.56945130026E+03  0.56945130028E+03  0.50400001928E-02 0. -1.
    10030    2    1    2    0    0  0.00000000000E+00  0.00000000000E+00  0.70913263409E+03  0.18480352346E+04  0.17065653037E+04 0.  0.
        4    1    3    3  502    0  0.50717596986E+03  0.49702835096E+03  0.86688672530E+03  0.11206064668E+04  0.12699999809E+01 0.  1.
       -4    1    3    3    0  502 -0.50717596986E+03 -0.49702835096E+03 -0.15775409121E+03  0.72742876782E+03  0.12699999809E+01 0. -1.
</event>
<event>
 5   0  0.9610114E-04  0.1682452E+04  0.7818609E-02  0.8771436E-01
        2   -1    0    0  501    0  0.00000000000E+00  0.00000000000E+00  0.10041868478E+04  0.10041868478E+04  0.25500000920E-02 0. -1.
       -2   -1    0    0    0  501  0.00000000000E+00  0.00000000000E+00 -0.70471085280E+03  0.70471085280E+03  0.25500000920E-02 0.  1.
    10030    2    1    2    0    0  0.00000000000E+00  0.00000000000E+00  0.29947599496E+03  0.17088977006E+04  0.16824522220E+04 0.  0.
        2    1    3    3  502    0  0.16594496433E+02  0.18291776286E+03 -0.68409634994E+03  0.70832344398E+03  0.25500000920E-02 0.  1.
       -2    1    3    3    0  502 -0.16594496433E+02 -0.18291776286E+03  0.98357234490E+03  0.10005742566E+04  0.25500000920E-02 0. -1.
</event>
<event>
 5   0  0.9610114E-04  0.1743199E+04  0.7818609E-02  0.8737103E-01
        2   -1    0    0  501    0  0.00000000000E+00  0.00000000000E+00  0.17366061380E+04  0.17366061380E+04  0.25500000920E-02 0.  1.
       -2   -1    0    0    0  501  0.00000000000E+00  0.00000000000E+00 -0.43745423089E+03  0.43745423090E+03  0.25500000920E-02 0. -1.
    10030    2    1    2    0    0  0.00000000000E+00  0.00000000000E+00  0.12991519071E+04  0.21740603689E+04  0.17431990161E+04 0.  0.
        2    1    3    3  502    0  0.46713640323E+03 -0.20767856456E+03 -0.23083820988E+03  0.56092163851E+03  0.25500000920E-02 0. -1.
       -2    1    3    3    0  502 -0.46713640323E+03  0.20767856456E+03  0.15299901169E+04  0.16131387303E+04  0.25500000920E-02 0.  1.
</event>
<event>
 5   0  0.9284971E-04  0.1699655E+04  0.7818609E-02  0.8761561E-01
       -2   -1    0    0    0  501  0.00000000000E+00  0.00000000000E+00  0.56386321305E+03  0.56386321305E+03  0.25500000920E-02 0. -1.
        2   -1    0    0  501    0  0.00000000000E+00  0.00000000000E+00 -0.12808183979E+04  0.12808183979E+04  0.25500000920E-02 0.  1.
    10030    2    1    2    0    0  0.00000000000E+00  0.00000000000E+00 -0.71695518487E+03  0.18446816110E+04  0.16996545263E+04 0.  0.
        4    1    3    3  502    0 -0.65749337741E+03 -0.49184603107E+03 -0.59624779354E+03  0.10147527304E+04  0.12699999809E+01 0.  1.
       -4    1    3    3    0  502  0.65749337741E+03  0.49184603107E+03 -0.12070739133E+03  0.82992888059E+03  0.12699999809E+01 0. -1.
</event>
<event>
 5   0  0.1007187E-03  0.1745661E+04  0.7818609E-02  0.8735743E-01
       -2   -1    0    0    0  501  0.00000000000E+00  0.00000000000E+00  0.77700202830E+03  0.77700202830E+03  0.25500000920E-02 0.  1.
        2   -1    0    0  501    0  0.00000000000E+00  0.00000000000E+00 -0.98047719362E+03  0.98047719363E+03  0.25500000920E-02 0. -1.
    10030    2    1    2    0    0  0.00000000000E+00  0.00000000000E+00 -0.20347516533E+03  0.17574792219E+04  0.17456606407E+04 0.  0.
        5    1    3    3  502    0 -0.17020330561E+03 -0.79272905616E+03  0.22359436113E+03  0.84107374828E+03  0.46999998093E+01 0.  1.
       -5    1    3    3    0  502  0.17020330561E+03  0.79272905616E+03 -0.42706952645E+03  0.91640547365E+03  0.46999998093E+01 0. -1.
</event>
<event>
 5   0  0.9610114E-04  0.1686990E+04  0.7818609E-02  0.8768820E-01
        2   -1    0    0  501    0  0.00000000000E+00  0.00000000000E+00  0.12839963356E+04  0.12839963356E+04  0.25500000920E-02 0.  1.
       -2   -1    0    0    0  501  0.00000000000E+00  0.00000000000E+00 -0.55411641155E+03  0.55411641156E+03  0.25500000920E-02 0. -1.
    10030    2    1    2    0    0  0.00000000000E+00  0.00000000000E+00  0.72987992401E+03  0.18381127471E+04  0.16869895577E+04 0.  0.
        2    1    3    3  502    0 -0.14042383564E+03  0.75932850135E+03  0.73473183956E+03  0.10658937577E+04  0.25500000920E-02 0.  1.
       -2    1    3    3    0  502  0.14042383564E+03 -0.75932850135E+03 -0.48519155521E+01  0.77221898945E+03  0.25500000920E-02 0. -1.
</event>
<event>
 5   0  0.9625225E-04  0.1726440E+04  0.7818609E-02  0.8746427E-01
       -2   -1    0    0    0  501  0.00000000000E+00  0.00000000000E+00  0.43431802184E+03  0.43431802184E+03  0.25500000920E-02 0.  1.
        2   -1    0    0  501    0  0.00000000000E+00  0.00000000000E+00 -0.17156756149E+04  0.17156756149E+04  0.25500000920E-02 0. -1.
    10030    2    1    2    0    0  0.00000000000E+00  0.00000000000E+00 -0.12813575930E+04  0.21499936367E+04  0.17264400820E+04 0.  0.
        1    1    3    3  502    0  0.47205914079E+03 -0.16808089713E+03  0.23465672481E+03  0.55331256890E+03  0.50400001928E-02 0.  1.
       -1    1    3    3    0  502 -0.47205914079E+03  0.16808089713E+03 -0.15160143178E+04  0.15966810678E+04  0.50400001928E-02 0. -1.
</event>
<event>
 5   0  0.9284971E-04  0.1648240E+04  0.7818609E-02  0.8791448E-01
       -2   -1    0    0    0  501  0.00000000000E+00  0.00000000000E+00  0.70122995271E+03  0.70122995271E+03  0.25500000920E-02 0. -1.
        2   -1    0    0  501    0  0.00000000000E+00  0.00000000000E+00 -0.96854688998E+03  0.96854688998E+03  0.25500000920E-02 0.  1.
    10030    2    1    2    0    0  0.00000000000E+00  0.00000000000E+00 -0.26731693727E+03  0.16697768427E+04  0.16482403828E+04 0.  0.
        4    1    3    3  502    0 -0.57790608852E+03 -0.13952459660E+03 -0.71184331825E+03  0.92745085198E+03  0.12699999809E+01 0.  1.
       -4    1    3    3    0  502  0.57790608852E+03  0.13952459660E+03  0.44452638098E+03  0.74232599071E+03  0.12699999809E+01 0. -1.
</event>
<event>
 5   0  0.9284971E-04  0.1675026E+04  0.7818609E-02  0.8775737E-01
       -2   -1    0    0    0  501  0.00000000000E+00  0.00000000000E+00  0.38689969427E+03  0.38689969428E+03  0.25500000920E-02 0. -1.
        2   -1    0    0  501    0  0.00000000000E+00  0.00000000000E+00 -0.18129458772E+04  0.18129458772E+04  0.25500000920E-02 0.  1.
    10030    2    1    2    0    0  0.00000000000E+00  0.00000000000E+00 -0.14260461829E+04  0.21998455715E+04  0.16750262155E+04 0.  0.
        4    1    3    3  502    0  0.43898376388E+03 -0.14075813067E+03  0.20527506443E+03  0.50463755437E+03  0.12699999809E+01 0. -1.
       -4    1    3    3    0  502 -0.43898376388E+03  0.14075813067E+03 -0.16313212473E+04  0.16952080171E+04  0.12699999809E+01 0.  1.
</event>
<event>
 5   0  0.1007187E-03  0.1666708E+04  0.7818609E-02  0.8780583E-01
       -2   -1    0    0    0  501  0.00000000000E+00  0.00000000000E+00  0.61842665608E+03  0.61842665609E+03  0.25500000920E-02 0. -1.
        2   -1    0    0  501    0  0.00000000000E+00  0.00000000000E+00 -0.11229772184E+04  0.11229772184E+04  0.25500000920E-02 0.  1.
    10030    2    1    2    0    0  0.00000000000E+00  0.00000000000E+00 -0.50455056233E+03  0.17414038745E+04  0.16667081881E+04 0.  0.
        5    1    3    3  502    0  0.81255054809E+03 -0.93220891369E+02 -0.85338522868E+02  0.82233404483E+03  0.46999998093E+01 0. -1.
       -5    1    3    3    0  502 -0.81255054809E+03  0.93220891369E+02 -0.41921203946E+03  0.91906982968E+03  0.46999998093E+01 0.  1.
</event>
<event>
 5   0  0.5035495E-04  0.1707934E+04  0.7818609E-02  0.8756852E-01
        1   -1    0    0  501    0  0.00000000000E+00  0.00000000000E+00  0.68970435992E+03  0.68970435993E+03  0.50400001928E-02 0.  1.
       -1   -1    0    0    0  501  0.00000000000E+00  0.00000000000E+00 -0.10573515327E+04  0.10573515328E+04  0.50400001928E-02 0. -1.
    10030    2    1    2    0    0  0.00000000000E+00  0.00000000000E+00 -0.36764717283E+03  0.17470558927E+04  0.17079343806E+04 0.  0.
        4    1    3    3  502    0 -0.76118879497E+03  0.11672415054E+03 -0.56136511391E+03  0.95297707890E+03  0.12699999809E+01 0. -1.
       -4    1    3    3    0  502  0.76118879497E+03 -0.11672415054E+03  0.19371794108E+03  0.79407881378E+03  0.12699999809E+01 0.  1.
</event>
<event>
 5   0  0.1007187E-03  0.1840766E+04  0.7818609E-02  0.8684916E-01
        2   -1    0    0  501    0  0.00000000000E+00  0.00000000000E+00  0.11138824284E+04  0.11138824284E+04  0.25500000920E-02 0.  1.
       -2   -1    0    0    0  501  0.00000000000E+00  0.00000000000E+00 -0.76049748383E+03  0.76049748383E+03  0.25500000920E-02 0. -1.
    10030    2    1    2    0    0  0.00000000000E+00  0.00000000000E+00  0.35338494461E+03  0.18743799123E+04  0.18407659103E+04 0.  0.
        5    1    3    3  502    0  0.31869013176E+03  0.43199443471E+03  0.93794045187E+03  0.10807113273E+04  0.46999998093E+01 0.  1.
       -5    1    3    3    0  502 -0.31869013176E+03 -0.43199443471E+03 -0.58455550726E+03  0.79366858497E+03  0.46999998093E+01 0. -1.
</event>
<event>
 5   0  0.9312096E-04  0.1122899E+04  0.7818609E-02  0.9183156E-01
       -2   -1    0    0    0  501  0.00000000000E+00  0.00000000000E+00  0.42083921759E+03  0.42083921760E+03  0.25500000920E-02 0.  1.
        2   -1    0    0  501    0  0.00000000000E+00  0.00000000000E+00 -0.74903996410E+03  0.74903996411E+03  0.25500000920E-02 0. -1.
    10030    2    1    2    0    0  0.00000000000E+00  0.00000000000E+00 -0.32820074651E+03  0.11698791817E+04  0.11228987353E+04 0.  0.
        3    1    3    3  502    0 -0.33401697529E+03 -0.44572369804E+03 -0.90516566569E+02  0.56429621104E+03  0.10100000352E+00 0.  1.
       -3    1    3    3    0  502  0.33401697529E+03  0.44572369804E+03 -0.23768417994E+03  0.60558297067E+03  0.10100000352E+00 0. -1.
</event>
<event>
 5   0  0.3523125E-04  0.1715509E+04  0.7818609E-02  0.8752568E-01
       -4   -1    0    0    0  501  0.00000000000E+00  0.00000000000E+00  0.10054472453E+04  0.10054480474E+04  0.12699999809E+01 0. -1.
        4   -1    0    0  501    0  0.00000000000E+00  0.00000000000E+00 -0.73175524147E+03  0.73175634355E+03  0.12699999809E+01 0.  1.
    10030    2    1    2    0    0  0.00000000000E+00  0.00000000000E+00  0.27369200380E+03  0.17372043909E+04  0.17155091905E+04 0.  0.
        4    1    3    3  502    0  0.64651124637E+03  0.47336182521E+03 -0.17311833465E+03  0.81976812571E+03  0.12699999809E+01 0.  1.
       -4    1    3    3    0  502 -0.64651124637E+03 -0.47336182521E+03  0.44681033846E+03  0.91743626519E+03  0.12699999809E+01 0. -1.
</event>
<event>
 5   0  0.5074133E-04  0.1680749E+04  0.7818609E-02  0.8772421E-01
       -1   -1    0    0    0  501  0.00000000000E+00  0.00000000000E+00  0.10798913769E+04  0.10798913769E+04  0.50400001928E-02 0. -1.
        1   -1    0    0  501    0  0.00000000000E+00  0.00000000000E+00 -0.65398175053E+03  0.65398175055E+03  0.50400001928E-02 0.  1.
    10030    2    1    2    0    0  0.00000000000E+00  0.00000000000E+00  0.42590962635E+03  0.17338731274E+04  0.16807489438E+04 0.  0.
        1    1    3    3  502    0  0.52725061804E+03  0.65376161212E+03  0.18320240080E+03  0.85962816345E+03  0.50400001928E-02 0. -1.
       -1    1    3    3    0  502 -0.52725061804E+03 -0.65376161212E+03  0.24270722555E+03  0.87424496399E+03  0.50400001928E-02 0.  1.
</event>
<event>
 5   0  0.5059689E-04  0.1669016E+04  0.7818609E-02  0.8779236E-01
        1   -1    0    0  501    0  0.00000000000E+00  0.00000000000E+00  0.97132173143E+03  0.97132173144E+03  0.50400001928E-02 0.  1.
       -1   -1    0    0    0  501  0.00000000000E+00  0.00000000000E+00 -0.71696456500E+03  0.71696456502E+03  0.50400001928E-02 0. -1.
    10030    2    1    2    0    0  0.00000000000E+00  0.00000000000E+00  0.25435716643E+03  0.16882862965E+04  0.16690155933E+04 0.  0.
        5    1    3    3  502    0  0.50139972976E+03  0.61818736723E+03  0.38071947801E+03  0.88234161238E+03  0.46999998093E+01 0. -1.
       -5    1    3    3    0  502 -0.50139972976E+03 -0.61818736723E+03 -0.12636231158E+03  0.80594468408E+03  0.46999998093E+01 0.  1.
</event>
<event>
 5   0  0.5059689E-04  0.1118558E+04  0.7818609E-02  0.9187291E-01
       -1   -1    0    0    0  501  0.00000000000E+00  0.00000000000E+00  0.96018716754E+02  0.96018716887E+02  0.50400001928E-02 0.  1.
        1   -1    0    0  501    0  0.00000000000E+00  0.00000000000E+00 -0.32576235226E+04  0.32576235226E+04  0.50400001928E-02 0. -1.
    10030    2    1    2    0    0  0.00000000000E+00  0.00000000000E+00 -0.31616048058E+04  0.33536422395E+04  0.11185576973E+04 0.  0.
        5    1    3    3  502    0 -0.20766859371E+03 -0.26338315173E+03 -0.29225487495E+04  0.29417359182E+04  0.46999998093E+01 0. -1.
       -5    1    3    3    0  502  0.20766859371E+03  0.26338315173E+03 -0.23905605638E+03  0.41190632129E+03  0.46999998093E+01 0.  1.
</event>
<event>
 5   0  0.9625225E-04  0.1100458E+04  0.7818609E-02  0.9204746E-01
       -2   -1    0    0    0  501  0.00000000000E+00  0.00000000000E+00  0.22005549849E+03  0.22005549850E+03  0.25500000920E-02 0.  1.
        2   -1    0    0  501    0  0.00000000000E+00  0.00000000000E+00 -0.13757971416E+04  0.13757971416E+04  0.25500000920E-02 0. -1.
    10030    2    1    2    0    0  0.00000000000E+00  0.00000000000E+00 -0.11557416431E+04  0.15958526401E+04  0.11004575882E+04 0.  0.
        1    1    3    3  502    0  0.35676856111E+03 -0.27540720516E+03 -0.10355805152E+04  0.11294068967E+04  0.50400001928E-02 0. -1.
       -1    1    3    3    0  502 -0.35676856111E+03  0.27540720516E+03 -0.12016112792E+03  0.46644574340E+03  0.50400001928E-02 0.  1.
</event>
<event>
 5   0  0.9625225E-04  0.1713841E+04  0.7818609E-02  0.8753509E-01
       -2   -1    0    0    0  501  0.00000000000E+00  0.00000000000E+00  0.32450237456E+03  0.32450237457E+03  0.25500000920E-02 0.  1.
        2   -1    0    0  501    0  0.00000000000E+00  0.00000000000E+00 -0.22628893378E+04  0.22628893378E+04  0.25500000920E-02 0. -1.
    10030    2    1    2    0    0  0.00000000000E+00  0.00000000000E+00 -0.19383869632E+04  0.25873917123E+04  0.17138412569E+04 0.  0.
        1    1    3    3  502    0 -0.21552886131E+03  0.20573428067E+03 -0.21821662255E+04  0.22024142935E+04  0.50400001928E-02 0. -1.
       -1    1    3    3    0  502  0.21552886131E+03 -0.20573428067E+03  0.24377926229E+03  0.38497741888E+03  0.50400001928E-02 0.  1.
</event>
<event>
 5   0  0.5035495E-04  0.1712785E+04  0.7818609E-02  0.8754106E-01
       -1   -1    0    0    0  501  0.00000000000E+00  0.00000000000E+00  0.51138217928E+03  0.51138217930E+03  0.50400001928E-02 0.  1.
        1   -1    0    0  501    0  0.00000000000E+00  0.00000000000E+00 -0.14341679127E+04  0.14341679127E+04  0.50400001928E-02 0. -1.
    10030    2    1    2    0    0  0.00000000000E+00  0.00000000000E+00 -0.92278573338E+03  0.19455500920E+04  0.17127847648E+04 0.  0.
        4    1    3    3  502    0  0.39590457963E+03  0.26174896734E+02  0.40067926511E+03  0.56388921588E+03  0.12699999809E+01 0.  1.
       -4    1    3    3    0  502 -0.39590457963E+03 -0.26174896734E+02 -0.13234649985E+04  0.13816608761E+04  0.12699999809E+01 0. -1.
</event>
<event>
 5   0  0.9610114E-04  0.1664120E+04  0.7818609E-02  0.8782097E-01
        2   -1    0    0  501    0  0.00000000000E+00  0.00000000000E+00  0.11773731682E+04  0.11773731682E+04  0.25500000920E-02 0.  1.
       -2   -1    0    0    0  501  0.00000000000E+00  0.00000000000E+00 -0.58802409371E+03  0.58802409371E+03  0.25500000920E-02 0. -1.
    10030    2    1    2    0    0  0.00000000000E+00  0.00000000000E+00  0.58934907447E+03  0.17653972619E+04  0.16641199358E+04 0.  0.
        2    1    3    3  502    0  0.69689534811E+03  0.39943042044E+03  0.64402052883E+02  0.80582591880E+03  0.25500000920E-02 0. -1.
       -2    1    3    3    0  502 -0.69689534811E+03 -0.39943042044E+03  0.52494702159E+03  0.95957134309E+03  0.25500000920E-02 0.  1.
</event>
<event>
 5   0  0.3523125E-04  0.1655090E+04  0.7818609E-02  0.8787401E-01
       -3   -1    0    0    0  501  0.00000000000E+00  0.00000000000E+00  0.81342360590E+03  0.81342361217E+03  0.10100000352E+00 0.  1.
        3   -1    0    0  501    0  0.00000000000E+00  0.00000000000E+00 -0.84191145664E+03  0.84191146270E+03  0.10100000352E+00 0. -1.
    10030    2    1    2    0    0  0.00000000000E+00  0.00000000000E+00 -0.28487850744E+02  0.16553350749E+04  0.16550899228E+04 0.  0.
        3    1    3    3  502    0  0.73011337637E+03  0.34828190837E+03 -0.18881152958E+03  0.83067179677E+03  0.10100000352E+00 0.  1.
       -3    1    3    3    0  502 -0.73011337637E+03 -0.34828190837E+03  0.16032367884E+03  0.82466327810E+03  0.10100000352E+00 0. -1.
</event>
<event>
 5   0  0.1007187E-03  0.1714275E+04  0.7818609E-02  0.8753265E-01
        2   -1    0    0  501    0  0.00000000000E+00  0.00000000000E+00  0.17850805390E+04  0.17850805390E+04  0.25500000920E-02 0.  1.
       -2   -1    0    0    0  501  0.00000000000E+00  0.00000000000E+00 -0.41156934713E+03  0.41156934713E+03  0.25500000920E-02 0. -1.
    10030    2    1    2    0    0  0.00000000000E+00  0.00000000000E+00  0.13735111919E+04  0.21966498862E+04  0.17142746945E+04 0.  0.
        5    1    3    3  502    0  0.57251483690E+03 -0.30487711381E+03  0.14047203046E+04  0.15472506317E+04  0.46999998093E+01 0.  1.
       -5    1    3    3    0  502 -0.57251483690E+03  0.30487711381E+03 -0.31209112737E+02  0.64939925448E+03  0.46999998093E+01 0. -1.
</event>
<event>
 5   0  0.1007187E-03  0.1792202E+04  0.7818609E-02  0.8710458E-01
        2   -1    0    0  501    0  0.00000000000E+00  0.00000000000E+00  0.22079478916E+04  0.22079478916E+04  0.25500000920E-02 0. -1.
       -2   -1    0    0    0  501  0.00000000000E+00  0.00000000000E+00 -0.36368461943E+03  0.36368461943E+03  0.25500000920E-02 0.  1.
    10030    2    1    2    0    0  0.00000000000E+00  0.00000000000E+00  0.18442632722E+04  0.25716325110E+04  0.17922016501E+04 0.  0.
        5    1    3    3  502    0 -0.16385540887E+03  0.16657024997E+03 -0.31918685322E+03  0.39559648691E+03  0.46999998093E+01 0.  1.
       -5    1    3    3    0  502  0.16385540887E+03 -0.16657024997E+03  0.21634501254E+04  0.21760360241E+04  0.46999998093E+01 0. -1.
</event>
<event>
 5   0  0.5074133E-04  0.1654026E+04  0.7818609E-02  0.8788028E-01
       -1   -1    0    0    0  501  0.00000000000E+00  0.00000000000E+00  0.41883059809E+03  0.41883059812E+03  0.50400001928E-02 0. -1.
        1   -1    0    0  501    0  0.00000000000E+00  0.00000000000E+00 -0.16329997247E+04  0.16329997247E+04  0.50400001928E-02 0.  1.
    10030    2    1    2    0    0  0.00000000000E+00  0.00000000000E+00 -0.12141691266E+04  0.20518303228E+04  0.16540256968E+04 0.  0.
        1    1    3    3  502    0 -0.72172302280E+03  0.40253026827E+03 -0.64700331422E+03  0.10495370537E+04  0.50400001928E-02 0. -1.
       -1    1    3    3    0  502  0.72172302280E+03 -0.40253026827E+03 -0.56716581240E+03  0.10022932691E+04  0.50400001928E-02 0.  1.
</event>
<event>
 5   0  0.5035495E-04  0.1472061E+04  0.7818609E-02  0.8903248E-01
       -1   -1    0    0    0  501  0.00000000000E+00  0.00000000000E+00  0.10455867132E+04  0.10455867132E+04  0.50400001928E-02 0.  1.
        1   -1    0    0  501    0  0.00000000000E+00  0.00000000000E+00 -0.51812115217E+03  0.51812115220E+03  0.50400001928E-02 0. -1.
    10030    2    1    2    0    0  0.00000000000E+00  0.00000000000E+00  0.52746556098E+03  0.15637078654E+04  0.14720605865E+04 0.  0.
        4    1    3    3  502    0 -0.32403183395E+03 -0.26099736728E+03 -0.38120970670E+03  0.56430373783E+03  0.12699999809E+01 0. -1.
       -4    1    3    3    0  502  0.32403183395E+03  0.26099736728E+03  0.90867526768E+03  0.99940412754E+03  0.12699999809E+01 0.  1.
</event>
<event>
 5   0  0.9312096E-04  0.1617609E+04  0.7818609E-02  0.8809803E-01
        2   -1    0    0  501    0  0.00000000000E+00  0.00000000000E+00  0.15432267395E+04  0.15432267395E+04  0.25500000920E-02 0. -1.
       -2   -1    0    0    0  501  0.00000000000E+00  0.00000000000E+00 -0.42389385159E+03  0.42389385159E+03  0.25500000920E-02 0.  1.
    10030    2    1    2    0    0  0.00000000000E+00  0.00000000000E+00  0.11193328879E+04  0.19671205911E+04  0.16176085144E+04 0.  0.
        3    1    3    3  502    0  0.16795994190E+03  0.41547000541E+03 -0.25911659439E+03  0.51765556808E+03  0.10100000352E+00 0.  1.
       -3    1    3    3    0  502 -0.16795994190E+03 -0.41547000541E+03  0.13784494823E+04  0.14494650230E+04  0.10100000352E+00 0. -1.
</event>
<event>
 5   0  0.9625225E-04  0.1697778E+04  0.7818609E-02  0.8762632E-01
       -2   -1    0    0    0  501  0.00000000000E+00  0.00000000000E+00  0.61896180809E+03  0.61896180810E+03  0.25500000920E-02 0. -1.
        2   -1    0    0  501    0  0.00000000000E+00  0.00000000000E+00 -0.11642284019E+04  0.11642284019E+04  0.25500000920E-02 0.  1.
    10030    2    1    2    0    0  0.00000000000E+00  0.00000000000E+00 -0.54526659382E+03  0.17831902100E+04  0.16977784504E+04 0.  0.
        1    1    3    3  502    0 -0.76063508968E+03  0.26710882807E+03 -0.55190473263E+03  0.97699114613E+03  0.50400001928E-02 0.  1.
       -1    1    3    3    0  502  0.76063508968E+03 -0.26710882807E+03  0.66381388147E+01  0.80619906388E+03  0.50400001928E-02 0. -1.
</event>
<event>
 5   0  0.1007187E-03  0.1701997E+04  0.7818609E-02  0.8760226E-01
       -2   -1    0    0    0  501  0.00000000000E+00  0.00000000000E+00  0.63582258095E+03  0.63582258095E+03  0.25500000920E-02 0. -1.
        2   -1    0    0  501    0  0.00000000000E+00  0.00000000000E+00 -0.11389947466E+04  0.11389947466E+04  0.25500000920E-02 0.  1.
    10030    2    1    2    0    0  0.00000000000E+00  0.00000000000E+00 -0.50317216564E+03  0.17748173275E+04  0.17019971557E+04 0.  0.
        5    1    3    3  502    0  0.58078226241E+03 -0.37579960199E+03 -0.76841538175E+03  0.10339331052E+04  0.46999998093E+01 0.  1.
       -5    1    3    3    0  502 -0.58078226241E+03  0.37579960199E+03  0.26524321610E+03  0.74088422232E+03  0.46999998093E+01 0. -1.
</event>
<event>
 5   0  0.3523125E-04  0.1674423E+04  0.7818609E-02  0.8776088E-01
       -4   -1    0    0    0  501  0.00000000000E+00  0.00000000000E+00  0.11484438493E+04  0.11484445515E+04  0.12699999809E+01 0.  1.
        4   -1    0    0  501    0  0.00000000000E+00  0.00000000000E+00 -0.61032285638E+03  0.61032417773E+03  0.12699999809E+01 0. -1.
    10030    2    1    2    0    0  0.00000000000E+00  0.00000000000E+00  0.53812099289E+03  0.17587687292E+04  0.16744232559E+04 0.  0.
        1    1    3    3  502    0 -0.59972176453E+03 -0.45306300470E+03 -0.11828509534E+03  0.76087032068E+03  0.50400001928E-02 0. -1.
       -1    1    3    3    0  502  0.59972176453E+03  0.45306300470E+03  0.65640608823E+03  0.99789840854E+03  0.50400001928E-02 0.  1.
</event>
<event>
 5   0  0.9312096E-04  0.1708890E+04  0.7818609E-02  0.8756310E-01
        2   -1    0    0  501    0  0.00000000000E+00  0.00000000000E+00  0.73226418968E+03  0.73226418969E+03  0.25500000920E-02 0. -1.
       -2   -1    0    0    0  501  0.00000000000E+00  0.00000000000E+00 -0.99701208037E+03  0.99701208037E+03  0.25500000920E-02 0.  1.
    10030    2    1    2    0    0  0.00000000000E+00  0.00000000000E+00 -0.26474789068E+03  0.17292762701E+04  0.17088899826E+04 0.  0.
        3    1    3    3  502    0 -0.59766237386E+03 -0.18828507536E+03  0.45543837043E+03  0.77464553326E+03  0.10100000352E+00 0. -1.
       -3    1    3    3    0  502  0.59766237386E+03  0.18828507536E+03 -0.72018626112E+03  0.95463073680E+03  0.10100000352E+00 0.  1.
</event>
<event>
 5   0  0.9284971E-04  0.1715887E+04  0.7818609E-02  0.8752355E-01
       -2   -1    0    0    0  501  0.00000000000E+00  0.00000000000E+00  0.59367268345E+03  0.59367268346E+03  0.25500000920E-02 0.  1.
        2   -1    0    0  501    0  0.00000000000E+00  0.00000000000E+00 -0.12398528837E+04  0.12398528837E+04  0.25500000920E-02 0. -1.
    10030    2    1    2    0    0  0.00000000000E+00  0.00000000000E+00 -0.64618020021E+03  0.18335255671E+04  0.17158866962E+04 0.  0.
        4    1    3    3  502    0 -0.33892300137E+03 -0.18050915013E+03 -0.11429001202E+04  0.12056843085E+04  0.12699999809E+01 0. -1.
       -4    1    3    3    0  502  0.33892300137E+03  0.18050915013E+03  0.49671992002E+03  0.62784125859E+03  0.12699999809E+01 0.  1.
</event>
<event>
 5   0  0.3523125E-04  0.1723604E+04  0.7818609E-02  0.8748015E-01
        3   -1    0    0  501    0  0.00000000000E+00  0.00000000000E+00  0.78248501229E+03  0.78248501881E+03  0.10100000352E+00 0.  1.
       -3   -1    0    0    0  501  0.00000000000E+00  0.00000000000E+00 -0.94915949031E+03  0.94915949568E+03  0.10100000352E+00 0. -1.
    10030    2    1    2    0    0  0.00000000000E+00  0.00000000000E+00 -0.16667447802E+03  0.17316445145E+04  0.17236044624E+04 0.  0.
        4    1    3    3  502    0  0.40187626113E+03  0.60988191676E+03 -0.54289966776E+03  0.91005612124E+03  0.12699999809E+01 0. -1.
       -4    1    3    3    0  502 -0.40187626113E+03 -0.60988191676E+03  0.37622518974E+03  0.82158839326E+03  0.12699999809E+01 0.  1.
</event>
<event>
 5   0  0.9312096E-04  0.1699734E+04  0.7818609E-02  0.8761516E-01
        2   -1    0    0  501    0  0.00000000000E+00  0.00000000000E+00  0.12676214891E+04  0.12676214891E+04  0.25500000920E-02 0.  1.
       -2   -1    0    0    0  501  0.00000000000E+00  0.00000000000E+00 -0.56978670585E+03  0.56978670586E+03  0.25500000920E-02 0. -1.
    10030    2    1    2    0    0  0.00000000000E+00  0.00000000000E+00  0.69783478322E+03  0.18374081949E+04  0.16997339469E+04 0.  0.
        3    1    3    3  502    0 -0.71759732035E+03  0.22848238099E+03 -0.76841618966E+02  0.75700380263E+03  0.10100000352E+00 0. -1.
       -3    1    3    3    0  502  0.71759732035E+03 -0.22848238099E+03  0.77467640218E+03  0.10804043923E+04  0.10100000352E+00 0.  1.
</event>
<event>
 5   0  0.9284971E-04  0.1494443E+04  0.7818609E-02  0.8888157E-01
        2   -1    0    0  501    0  0.00000000000E+00  0.00000000000E+00  0.60586432116E+03  0.60586432116E+03  0.25500000920E-02 0. -1.
       -2   -1    0    0    0  501  0.00000000000E+00  0.00000000000E+00 -0.92155974933E+03  0.92155974933E+03  0.25500000920E-02 0.  1.
    10030    2    1    2    0    0  0.00000000000E+00  0.00000000000E+00 -0.31569542817E+03  0.15274240705E+04  0.14944432702E+04 0.  0.
        4    1    3    3  502    0  0.21701016815E+03  0.29504819551E+03 -0.82352123841E+03  0.90129667355E+03  0.12699999809E+01 0.  1.
       -4    1    3    3    0  502 -0.21701016815E+03 -0.29504819551E+03  0.50782581024E+03  0.62612739694E+03  0.12699999809E+01 0. -1.
</event>
<event>
 5   0  0.9625225E-04  0.1401799E+04  0.7818609E-02  0.8952517E-01
        2   -1    0    0  501    0  0.00000000000E+00  0.00000000000E+00  0.15750155977E+04  0.15750155977E+04  0.25500000920E-02 0.  1.
       -2   -1    0    0    0  501  0.00000000000E+00  0.00000000000E+00 -0.31190805642E+03  0.31190805643E+03  0.25500000920E-02 0. -1.
    10030    2    1    2    0    0  0.00000000000E+00  0.00000000000E+00  0.12631075413E+04  0.18869236541E+04  0.14017989213E+04 0.  0.
        1    1    3    3  502    0  0.27636547961E+03 -0.53410391669E+03  0.11161684263E+04  0.12678630951E+04  0.50400001928E-02 0.  1.
       -1    1    3    3    0  502 -0.27636547961E+03  0.53410391669E+03  0.14693911498E+03  0.61906055897E+03  0.50400001928E-02 0. -1.
</event>
<event>
 5   0  0.5035495E-04  0.1780407E+04  0.7818609E-02  0.8716789E-01
        1   -1    0    0  501    0  0.00000000000E+00  0.00000000000E+00  0.11318322724E+04  0.11318322724E+04  0.50400001928E-02 0. -1.
       -1   -1    0    0    0  501  0.00000000000E+00  0.00000000000E+00 -0.70015907493E+03  0.70015907494E+03  0.50400001928E-02 0.  1.
    10030    2    1    2    0    0  0.00000000000E+00  0.00000000000E+00  0.43167319750E+03  0.18319913474E+04  0.17804074105E+04 0.  0.
        4    1    3    3  502    0 -0.42268435107E+03 -0.78156617787E+03  0.15991805956E+03  0.90281955545E+03  0.12699999809E+01 0.  1.
       -4    1    3    3    0  502  0.42268435107E+03  0.78156617787E+03  0.27175513794E+03  0.92917179193E+03  0.12699999809E+01 0. -1.
</event>
<event>
 5   0  0.9312096E-04  0.1637555E+04  0.7818609E-02  0.8797803E-01
        2   -1    0    0  501    0  0.00000000000E+00  0.00000000000E+00  0.15054639496E+04  0.15054639496E+04  0.25500000920E-02 0. -1.
       -2   -1    0    0    0  501  0.00000000000E+00  0.00000000000E+00 -0.44530901429E+03  0.44530901430E+03  0.25500000920E-02 0.  1.
    10030    2    1    2    0    0  0.00000000000E+00  0.00000000000E+00  0.10601549353E+04  0.19507729639E+04  0.16375550891E+04 0.  0.
        3    1    3    3  502    0 -0.60319134613E+03  0.55244368819E+03  0.48609987736E+03  0.95148669440E+03  0.10100000352E+00 0.  1.
       -3    1    3    3    0  502  0.60319134613E+03 -0.55244368819E+03  0.57405505798E+03  0.99928626952E+03  0.10100000352E+00 0. -1.
</event>
<event>
 5   0  0.1007187E-03  0.1700598E+04  0.7818609E-02  0.8761023E-01
       -2   -1    0    0    0  501  0.00000000000E+00  0.00000000000E+00  0.44120696384E+03  0.44120696384E+03  0.25500000920E-02 0. -1.
        2   -1    0    0  501    0  0.00000000000E+00  0.00000000000E+00 -0.16387063262E+04  0.16387063262E+04  0.25500000920E-02 0.  1.
    10030    2    1    2    0    0  0.00000000000E+00  0.00000000000E+00 -0.11974993624E+04  0.20799132901E+04  0.17005982980E+04 0.  0.
        5    1    3    3  502    0  0.59692126523E+03  0.51053750194E+03 -0.99698847607E+03  0.12692405797E+04  0.46999998093E+01 0. -1.
       -5    1    3    3    0  502 -0.59692126523E+03 -0.51053750194E+03 -0.20051088630E+03  0.81067271035E+03  0.46999998093E+01 0.  1.
</event>
<event>
 5   0  0.5009762E-04  0.1726839E+04  0.7818609E-02  0.8746204E-01
       -1   -1    0    0    0  501  0.00000000000E+00  0.00000000000E+00  0.45715917213E+03  0.45715917216E+03  0.50400001928E-02 0. -1.
        1   -1    0    0  501    0  0.00000000000E+00  0.00000000000E+00 -0.16307077864E+04  0.16307077864E+04  0.50400001928E-02 0.  1.
    10030    2    1    2    0    0  0.00000000000E+00  0.00000000000E+00 -0.11735486143E+04  0.20878669586E+04  0.17268387553E+04 0.  0.
        3    1    3    3  502    0  0.13063840988E+03 -0.63075182988E+03 -0.12819402684E+04  0.14346724807E+04  0.10100000352E+00 0.  1.
       -3    1    3    3    0  502 -0.13063840988E+03  0.63075182988E+03  0.10839165410E+03  0.65319447786E+03  0.10100000352E+00 0. -1.
</event>
<event>
 5   0  0.5035495E-04  0.1708147E+04  0.7818609E-02  0.8756732E-01
        1   -1    0    0  501    0  0.00000000000E+00  0.00000000000E+00  0.12280506742E+04  0.12280506742E+04  0.50400001928E-02 0. -1.
       -1   -1    0    0    0  501  0.00000000000E+00  0.00000000000E+00 -0.59398296223E+03  0.59398296225E+03  0.50400001928E-02 0.  1.
    10030    2    1    2    0    0  0.00000000000E+00  0.00000000000E+00  0.63406771195E+03  0.18220336364E+04  0.17081465713E+04 0.  0.
        4    1    3    3  502    0 -0.64977902919E+03  0.40477866627E+01  0.90825398051E+03  0.11167614237E+04  0.12699999809E+01 0. -1.
       -4    1    3    3    0  502  0.64977902919E+03 -0.40477866627E+01 -0.27418626856E+03  0.70527221278E+03  0.12699999809E+01 0.  1.
</event>
<event>
 5   0  0.9284971E-04  0.1669314E+04  0.7818609E-02  0.8779062E-01
        2   -1    0    0  501    0  0.00000000000E+00  0.00000000000E+00  0.18790296386E+04  0.18790296386E+04  0.25500000920E-02 0.  1.
       -2   -1    0    0    0  501  0.00000000000E+00  0.00000000000E+00 -0.37075131300E+03  0.37075131301E+03  0.25500000920E-02 0. -1.
    10030    2    1    2    0    0  0.00000000000E+00  0.00000000000E+00  0.15082783256E+04  0.22497809516E+04  0.16693144769E+04 0.  0.
        4    1    3    3  502    0 -0.31734167537E+03 -0.92608877198E+02  0.17870374753E+04  0.18173570629E+04  0.12699999809E+01 0.  1.
       -4    1    3    3    0  502  0.31734167537E+03  0.92608877198E+02 -0.27875914971E+03  0.43242388869E+03  0.12699999809E+01 0. -1.
</event>
<event>
 5   0  0.5009762E-04  0.1668856E+04  0.7818609E-02  0.8779329E-01
        1   -1    0    0  501    0  0.00000000000E+00  0.00000000000E+00  0.10606808454E+04  0.10606808454E+04  0.50400001928E-02 0.  1.
       -1   -1    0    0    0  501  0.00000000000E+00  0.00000000000E+00 -0.65643682585E+03  0.65643682587E+03  0.50400001928E-02 0. -1.
    10030    2    1    2    0    0  0.00000000000E+00  0.00000000000E+00  0.40424401951E+03  0.17171176712E+04  0.16688558564E+04 0.  0.
        3    1    3    3  502    0 -0.67536854753E+03  0.15166939875E+03 -0.27734068624E+03  0.74568367821E+03  0.10100000352E+00 0. -1.
       -3    1    3    3    0  502  0.67536854753E+03 -0.15166939875E+03  0.68158470575E+03  0.97143399303E+03  0.10100000352E+00 0.  1.
</event>
<event>
 5   0  0.1007187E-03  0.1712148E+04  0.7818609E-02  0.8754466E-01
        2   -1    0    0  501    0  0.00000000000E+00  0.00000000000E+00  0.70951232717E+03  0.70951232717E+03  0.25500000920E-02 0. -1.
       -2   -1    0    0    0  501  0.00000000000E+00  0.00000000000E+00 -0.10329107090E+04  0.10329107091E+04  0.25500000920E-02 0.  1.
    10030    2    1    2    0    0  0.00000000000E+00  0.00000000000E+00 -0.32339838188E+03  0.17424230362E+04  0.17121482190E+04 0.  0.
        5    1    3    3  502    0  0.79210513670E+02  0.19349572101E+03 -0.10065140218E+04  0.10280114132E+04  0.46999998093E+01 0.  1.
       -5    1    3    3    0  502 -0.79210513670E+02 -0.19349572101E+03  0.68311563997E+03  0.71441162301E+03  0.46999998093E+01 0. -1.
</event>
<event>
 5   0  0.9610114E-04  0.1712131E+04  0.7818609E-02  0.8754476E-01
        2   -1    0    0  501    0  0.00000000000E+00  0.00000000000E+00  0.14044755554E+04  0.14044755554E+04  0.25500000920E-02 0.  1.
       -2   -1    0    0    0  501  0.00000000000E+00  0.00000000000E+00 -0.52179459716E+03  0.52179459717E+03  0.25500000920E-02 0. -1.
    10030    2    1    2    0    0  0.00000000000E+00  0.00000000000E+00  0.88268095826E+03  0.19262701526E+04  0.17121305519E+04 0.  0.
        2    1    3    3  502    0  0.12369666267E+03 -0.54769561496E+03 -0.28568276158E+03  0.62998888186E+03  0.25500000920E-02 0. -1.
       -2    1    3    3    0  502 -0.12369666267E+03  0.54769561496E+03  0.11683637198E+04  0.12962812707E+04  0.25500000920E-02 0.  1.
</event>
<event>
 5   0  0.1007187E-03  0.1679715E+04  0.7818609E-02  0.8773019E-01
        2   -1    0    0  501    0  0.00000000000E+00  0.00000000000E+00  0.13836877174E+04  0.13836877174E+04  0.25500000920E-02 0.  1.
       -2   -1    0    0    0  501  0.00000000000E+00  0.00000000000E+00 -0.50976893342E+03  0.50976893343E+03  0.25500000920E-02 0. -1.
    10030    2    1    2    0    0  0.00000000000E+00  0.00000000000E+00  0.87391878402E+03  0.18934566509E+04  0.16797154663E+04 0.  0.
        5    1    3    3  502    0  0.54443151333E+03 -0.62526556120E+03  0.28582304542E+03  0.87697183422E+03  0.46999998093E+01 0. -1.
       -5    1    3    3    0  502 -0.54443151333E+03  0.62526556120E+03  0.58809573859E+03  0.10164848166E+04  0.46999998093E+01 0.  1.
</event>
<event>
 5   0  0.5059689E-04  0.1948396E+04  0.7818609E-02  0.8631135E-01
        1   -1    0    0  501    0  0.00000000000E+00  0.00000000000E+00  0.11347233348E+04  0.11347233348E+04  0.50400001928E-02 0.  1.
       -1   -1    0    0    0  501  0.00000000000E+00  0.00000000000E+00 -0.83638122431E+03  0.83638122432E+03  0.50400001928E-02 0. -1.
    10030    2    1    2    0    0  0.00000000000E+00  0.00000000000E+00  0.29834211047E+03  0.19711045591E+04  0.19483955369E+04 0.  0.
        5    1    3    3  502    0 -0.71188679909E+03  0.27114523460E+03  0.76348544542E+03  0.10785335731E+04  0.46999998093E+01 0.  1.
       -5    1    3    3    0  502  0.71188679909E+03 -0.27114523460E+03 -0.46514333496E+03  0.89257098599E+03  0.46999998093E+01 0. -1.
</event>
<event>
 5   0  0.5035495E-04  0.1668479E+04  0.7818609E-02  0.8779549E-01
        1   -1    0    0  501    0  0.00000000000E+00  0.00000000000E+00  0.11515209249E+04  0.11515209249E+04  0.50400001928E-02 0. -1.
       -1   -1    0    0    0  501  0.00000000000E+00  0.00000000000E+00 -0.60437969745E+03  0.60437969748E+03  0.50400001928E-02 0.  1.
    10030    2    1    2    0    0  0.00000000000E+00  0.00000000000E+00  0.54714122746E+03  0.17559006224E+04  0.16684793894E+04 0.  0.
        4    1    3    3  502    0 -0.70677868115E+03  0.44079139642E+03  0.22510215009E+03  0.86284746634E+03  0.12699999809E+01 0.  1.
       -4    1    3    3    0  502  0.70677868115E+03 -0.44079139642E+03  0.32203907736E+03  0.89305315606E+03  0.12699999809E+01 0. -1.
</event>
<event>
 5   0  0.9312096E-04  0.1684997E+04  0.7818609E-02  0.8769968E-01
       -2   -1    0    0    0  501  0.00000000000E+00  0.00000000000E+00  0.52461834749E+03  0.52461834750E+03  0.25500000920E-02 0.  1.
        2   -1    0    0  501    0  0.00000000000E+00  0.00000000000E+00 -0.13529904892E+04  0.13529904893E+04  0.25500000920E-02 0. -1.
    10030    2    1    2    0    0  0.00000000000E+00  0.00000000000E+00 -0.82837214175E+03  0.18776088368E+04  0.16849968957E+04 0.  0.
        3    1    3    3  502    0 -0.75865371947E+02 -0.83600597712E+03 -0.49409131111E+03  0.97405738145E+03  0.10100000352E+00 0.  1.
       -3    1    3    3    0  502  0.75865371947E+02  0.83600597712E+03 -0.33428083064E+03  0.90355145530E+03  0.10100000352E+00 0. -1.
</event>
<event>
 5   0  0.4947006E-04  0.1704778E+04  0.7818609E-02  0.8758644E-01
        1   -1    0    0  501    0  0.00000000000E+00  0.00000000000E+00  0.19152424442E+04  0.19152424442E+04  0.50400001928E-02 0.  1.
       -1   -1    0    0    0  501  0.00000000000E+00  0.00000000000E+00 -0.37936041431E+03  0.37936041434E+03  0.50400001928E-02 0. -1.
    10030    2    1    2    0    0  0.00000000000E+00  0.00000000000E+00  0.15358820299E+04  0.22946028586E+04  0.17047781876E+04 0.  0.
        2    1    3    3  502    0 -0.63512068803E+03  0.98619462512E+02  0.14354967671E+02  0.64289202193E+03  0.25500000920E-02 0. -1.
       -2    1    3    3    0  502  0.63512068803E+03 -0.98619462512E+02  0.15215270623E+04  0.16517108367E+04  0.25500000920E-02 0.  1.
</event>
<event>
 5   0  0.9284971E-04  0.1704103E+04  0.7818609E-02  0.8759028E-01
       -2   -1    0    0    0  501  0.00000000000E+00  0.00000000000E+00  0.10009851066E+04  0.10009851066E+04  0.25500000920E-02 0. -1.
        2   -1    0    0  501    0  0.00000000000E+00  0.00000000000E+00 -0.72527729173E+03  0.72527729173E+03  0.25500000920E-02 0.  1.
    10030    2    1    2    0    0  0.00000000000E+00  0.00000000000E+00  0.27570781488E+03  0.17262623983E+04  0.17041030100E+04 0.  0.
        4    1    3    3  502    0  0.27517649623E+02 -0.32019039598E+03 -0.66152788327E+03  0.73545894785E+03  0.12699999809E+01 0.  1.
       -4    1    3    3    0  502 -0.27517649623E+02  0.32019039598E+03  0.93723569815E+03  0.99080345049E+03  0.12699999809E+01 0. -1.
</event>
<event>
 5   0  0.5035495E-04  0.1680062E+04  0.7818609E-02  0.8772818E-01
       -1   -1    0    0    0  501  0.00000000000E+00  0.00000000000E+00  0.49769551411E+03  0.49769551414E+03  0.50400001928E-02 0. -1.
        1   -1    0    0  501    0  0.00000000000E+00  0.00000000000E+00 -0.14178385258E+04  0.14178385258E+04  0.50400001928E-02 0.  1.
    10030    2    1    2    0    0  0.00000000000E+00  0.00000000000E+00 -0.92014301166E+03  0.19155340399E+04  0.16800617537E+04 0.  0.
        4    1    3    3  502    0 -0.67257561867E+03 -0.19828152288E+03  0.67337945196E+02  0.70442141997E+03  0.12699999809E+01 0. -1.
       -4    1    3    3    0  502  0.67257561867E+03  0.19828152288E+03 -0.98748095685E+03  0.12111126199E+04  0.12699999809E+01 0.  1.
</event>
<event>
 5   0  0.5074133E-04  0.1763112E+04  0.7818609E-02  0.8726166E-01
        1   -1    0    0  501    0  0.00000000000E+00  0.00000000000E+00  0.84634871235E+03  0.84634871236E+03  0.50400001928E-02 0.  1.
       -1   -1    0    0    0  501  0.00000000000E+00  0.00000000000E+00 -0.91822839471E+03  0.91822839473E+03  0.50400001928E-02 0. -1.
    10030    2    1    2    0    0  0.00000000000E+00  0.00000000000E+00 -0.71879682366E+02  0.17645771071E+04  0.17631124973E+04 0.  0.
        1    1    3    3  502    0  0.10283664141E+03  0.76150559029E+03  0.39647841714E+03  0.86467408550E+03  0.50400001928E-02 0.  1.
       -1    1    3    3    0  502 -0.10283664141E+03 -0.76150559029E+03 -0.46835809951E+03  0.89990302158E+03  0.50400001928E-02 0. -1.
</event>
<event>
 5   0  0.5059689E-04  0.1736395E+04  0.7818609E-02  0.8740875E-01
       -1   -1    0    0    0  501  0.00000000000E+00  0.00000000000E+00  0.36244794939E+03  0.36244794942E+03  0.50400001928E-02 0.  1.
        1   -1    0    0  501    0  0.00000000000E+00  0.00000000000E+00 -0.20796548669E+04  0.20796548669E+04  0.50400001928E-02 0. -1.
    10030    2    1    2    0    0  0.00000000000E+00  0.00000000000E+00 -0.17172069175E+04  0.24421028163E+04  0.17363947040E+04 0.  0.
        5    1    3    3  502    0 -0.63506487677E+03  0.18208572560E+03 -0.16508095366E+04  0.17781048409E+04  0.46999998093E+01 0. -1.
       -5    1    3    3    0  502  0.63506487677E+03 -0.18208572560E+03 -0.66397380936E+02  0.66399797543E+03  0.46999998093E+01 0.  1.
</event>
<event>
 5   0  0.5009762E-04  0.1039777E+04  0.7818609E-02  0.9265963E-01
        1   -1    0    0  501    0  0.00000000000E+00  0.00000000000E+00  0.91723175283E+03  0.91723175285E+03  0.50400001928E-02 0. -1.
       -1   -1    0    0    0  501  0.00000000000E+00  0.00000000000E+00 -0.29467355807E+03  0.29467355812E+03  0.50400001928E-02 0.  1.
    10030    2    1    2    0    0  0.00000000000E+00  0.00000000000E+00  0.62255819476E+03  0.12119053110E+04  0.10397767919E+04 0.  0.
        3    1    3    3  502    0 -0.44212299527E+03 -0.22524911261E+03  0.13043557691E+03  0.51305297543E+03  0.10100000352E+00 0. -1.
       -3    1    3    3    0  502  0.44212299527E+03  0.22524911261E+03  0.49212261784E+03  0.69885233553E+03  0.10100000352E+00 0.  1.
</event>
<event>
 5   0  0.9610114E-04  0.1710359E+04  0.7818609E-02  0.8755478E-01
        2   -1    0    0  501    0  0.00000000000E+00  0.00000000000E+00  0.14805223580E+04  0.14805223580E+04  0.25500000920E-02 0.  1.
       -2   -1    0    0    0  501  0.00000000000E+00  0.00000000000E+00 -0.49396861681E+03  0.49396861681E+03  0.25500000920E-02 0. -1.
    10030    2    1    2    0    0  0.00000000000E+00  0.00000000000E+00  0.98655374124E+03  0.19744909749E+04  0.17103585371E+04 0.  0.
        2    1    3    3  502    0  0.47316311563E+03 -0.22249044459E+03  0.12745002765E+04  0.13775834954E+04  0.25500000920E-02 0.  1.
       -2    1    3    3    0  502 -0.47316311563E+03  0.22249044459E+03 -0.28794653524E+03  0.59690747951E+03  0.25500000920E-02 0. -1.
</event>
<event>
 5   0  0.5035495E-04  0.1722107E+04  0.7818609E-02  0.8748855E-01
       -1   -1    0    0    0  501  0.00000000000E+00  0.00000000000E+00  0.71307826683E+03  0.71307826684E+03  0.50400001928E-02 0. -1.
        1   -1    0    0  501    0  0.00000000000E+00  0.00000000000E+00 -0.10397362730E+04  0.10397362730E+04  0.50400001928E-02 0.  1.
    10030    2    1    2    0    0  0.00000000000E+00  0.00000000000E+00 -0.32665800620E+03  0.17528145399E+04  0.17221072435E+04 0.  0.
        4    1    3    3  502    0 -0.43737928000E+03 -0.66515157766E+03 -0.49733349901E+03  0.93865301255E+03  0.12699999809E+01 0. -1.
       -4    1    3    3    0  502  0.43737928000E+03  0.66515157766E+03  0.17067549281E+03  0.81416152733E+03  0.12699999809E+01 0.  1.
</event>
<event>
 5   0  0.9312096E-04  0.1696109E+04  0.7818609E-02  0.8763587E-01
        2   -1    0    0  501    0  0.00000000000E+00  0.00000000000E+00  0.68081761024E+03  0.68081761024E+03  0.25500000920E-02 0.  1.
       -2   -1    0    0    0  501  0.00000000000E+00  0.00000000000E+00 -0.10563713296E+04  0.10563713296E+04  0.25500000920E-02 0. -1.
    10030    2    1    2    0    0  0.00000000000E+00  0.00000000000E+00 -0.37555371938E+03  0.17371889399E+04  0.16961087278E+04 0.  0.
        3    1    3    3  502    0  0.79010720195E+03  0.35819238156E+02  0.12564757241E+03  0.80083689416E+03  0.10100000352E+00 0.  1.
       -3    1    3    3    0  502 -0.79010720195E+03 -0.35819238156E+02 -0.50120129179E+03  0.93635204570E+03  0.10100000352E+00 0. -1.
</event>
<event>
 5   0  0.9284971E-04  0.1546933E+04  0.7818609E-02  0.8853829E-01
       -2   -1    0    0    0  501  0.00000000000E+00  0.00000000000E+00  0.58481955644E+03  0.58481955645E+03  0.25500000920E-02 0.  1.
        2   -1    0    0  501    0  0.00000000000E+00  0.00000000000E+00 -0.10229663786E+04  0.10229663786E+04  0.25500000920E-02 0. -1.
    10030    2    1    2    0    0  0.00000000000E+00  0.00000000000E+00 -0.43814682214E+03  0.16077859350E+04  0.15469334101E+04 0.  0.
        4    1    3    3  502    0 -0.73179416627E+03  0.52086738971E+02  0.35539677092E+02  0.73450691741E+03  0.12699999809E+01 0. -1.
       -4    1    3    3    0  502  0.73179416627E+03 -0.52086738971E+02 -0.47368649923E+03  0.87327901763E+03  0.12699999809E+01 0.  1.
</event>
<event>
 5   0  0.5074133E-04  0.1710598E+04  0.7818609E-02  0.8755343E-01
       -1   -1    0    0    0  501  0.00000000000E+00  0.00000000000E+00  0.87772280770E+03  0.87772280771E+03  0.50400001928E-02 0.  1.
        1   -1    0    0  501    0  0.00000000000E+00  0.00000000000E+00 -0.83344761990E+03  0.83344761992E+03  0.50400001928E-02 0. -1.
    10030    2    1    2    0    0  0.00000000000E+00  0.00000000000E+00  0.44275187795E+02  0.17111704276E+04  0.17105975389E+04 0.  0.
        1    1    3    3  502    0 -0.29425430707E+03  0.20946720721E+03  0.79768678662E+03  0.87565193867E+03  0.50400001928E-02 0.  1.
       -1    1    3    3    0  502  0.29425430707E+03 -0.20946720721E+03 -0.75341159882E+03  0.83551848896E+03  0.50400001928E-02 0. -1.
</event>
<event>
 5   0  0.1007187E-03  0.1813234E+04  0.7818609E-02  0.8699293E-01
       -2   -1    0    0    0  501  0.00000000000E+00  0.00000000000E+00  0.53503001093E+03  0.53503001094E+03  0.25500000920E-02 0. -1.
        2   -1    0    0  501    0  0.00000000000E+00  0.00000000000E+00 -0.15362768249E+04  0.15362768249E+04  0.25500000920E-02 0.  1.
    10030    2    1    2    0    0  0.00000000000E+00  0.00000000000E+00 -0.10012468140E+04  0.20713068359E+04  0.18132338034E+04 0.  0.
        5    1    3    3  502    0  0.41752715618E+03 -0.59953698739E+03  0.11258262408E+03  0.73923640510E+03  0.46999998093E+01 0. -1.
       -5    1    3    3    0  502 -0.41752715618E+03  0.59953698739E+03 -0.11138294381E+04  0.13320704308E+04  0.46999998093E+01 0.  1.
</event>
<event>
 5   0  0.9625225E-04  0.1747486E+04  0.7818609E-02  0.8734735E-01
       -2   -1    0    0    0  501  0.00000000000E+00  0.00000000000E+00  0.49405498194E+03  0.49405498195E+03  0.25500000920E-02 0.  1.
        2   -1    0    0  501    0  0.00000000000E+00  0.00000000000E+00 -0.15452267555E+04  0.15452267555E+04  0.25500000920E-02 0. -1.
    10030    2    1    2    0    0  0.00000000000E+00  0.00000000000E+00 -0.10511717736E+04  0.20392817375E+04  0.17474861680E+04 0.  0.
        1    1    3    3  502    0  0.38976774264E+03 -0.75896291748E+03 -0.30576146763E+03  0.90632978458E+03  0.50400001928E-02 0. -1.
       -1    1    3    3    0  502 -0.38976774264E+03  0.75896291748E+03 -0.74541030595E+03  0.11329519529E+04  0.50400001928E-02 0.  1.
</event>
<event>
 5   0  0.9312096E-04  0.1709510E+04  0.7818609E-02  0.8755959E-01
       -2   -1    0    0    0  501  0.00000000000E+00  0.00000000000E+00  0.71800655391E+03  0.71800655391E+03  0.25500000920E-02 0. -1.
        2   -1    0    0  501    0  0.00000000000E+00  0.00000000000E+00 -0.10175480147E+04  0.10175480147E+04  0.25500000920E-02 0.  1.
    10030    2    1    2    0    0  0.00000000000E+00  0.00000000000E+00 -0.29954146077E+03  0.17355545686E+04  0.17095100391E+04 0.  0.
        3    1    3    3  502    0 -0.64393129056E+03 -0.48185314488E+03 -0.44362152974E+03  0.91849334894E+03  0.10100000352E+00 0.  1.
       -3    1    3    3    0  502  0.64393129056E+03  0.48185314488E+03  0.14408006897E+03  0.81706121966E+03  0.10100000352E+00 0. -1.
</event>
<event>
 5   0  0.5074133E-04  0.1741994E+04  0.7818609E-02  0.8737770E-01
       -1   -1    0    0    0  501  0.00000000000E+00  0.00000000000E+00  0.71315110722E+03  0.71315110723E+03  0.50400001928E-02 0.  1.
        1   -1    0    0  501    0  0.00000000000E+00  0.00000000000E+00 -0.10637796090E+04  0.10637796091E+04  0.50400001928E-02 0. -1.
    10030    2    1    2    0    0  0.00000000000E+00  0.00000000000E+00 -0.35062850183E+03  0.17769307163E+04  0.17419938072E+04 0.  0.
        1    1    3    3  502    0  0.81399805861E+03  0.28581044895E+03 -0.29753018014E+03  0.91258131707E+03  0.50400001928E-02 0. -1.
       -1    1    3    3    0  502 -0.81399805861E+03 -0.28581044895E+03 -0.53098321688E+02  0.86434939922E+03  0.50400001928E-02 0.  1.
</event>
<event>
 5   0  0.4947006E-04  0.1670546E+04  0.7818609E-02  0.8778343E-01
       -1   -1    0    0    0  501  0.00000000000E+00  0.00000000000E+00  0.11541234967E+04  0.11541234967E+04  0.50400001928E-02 0. -1.
        1   -1    0    0  501    0  0.00000000000E+00  0.00000000000E+00 -0.60451173143E+03  0.60451173145E+03  0.50400001928E-02 0.  1.
    10030    2    1    2    0    0  0.00000000000E+00  0.00000000000E+00  0.54961176530E+03  0.17586352282E+04  0.16705462500E+04 0.  0.
        2    1    3    3  502    0 -0.58678250537E+03  0.46774033149E+03 -0.11139917868E+03  0.75862013112E+03  0.25500000920E-02 0.  1.
       -2    1    3    3    0  502  0.58678250537E+03 -0.46774033149E+03  0.66101094399E+03  0.10000150971E+04  0.25500000920E-02 0. -1.
</event>
<event>
 5   0  0.9625225E-04  0.1687234E+04  0.7818609E-02  0.8768679E-01
        2   -1    0    0  501    0  0.00000000000E+00  0.00000000000E+00  0.83217308254E+03  0.83217308254E+03  0.25500000920E-02 0. -1.
       -2   -1    0    0    0  501  0.00000000000E+00  0.00000000000E+00 -0.85521784587E+03  0.85521784588E+03  0.25500000920E-02 0.  1.
    10030    2    1    2    0    0  0.00000000000E+00  0.00000000000E+00 -0.23044763338E+02  0.16873909284E+04  0.16872335595E+04 0.  0.
        1    1    3    3  502    0  0.27039855627E+03  0.79540100496E+03  0.65368682967E+02  0.84264535996E+03  0.50400001928E-02 0. -1.
       -1    1    3    3    0  502 -0.27039855627E+03 -0.79540100496E+03 -0.88413446304E+02  0.84474556846E+03  0.50400001928E-02 0.  1.
</event>
<event>
 5   0  0.9312096E-04  0.1521994E+04  0.7818609E-02  0.8869957E-01
       -2   -1    0    0    0  501  0.00000000000E+00  0.00000000000E+00  0.65771379280E+03  0.65771379280E+03  0.25500000920E-02 0.  1.
        2   -1    0    0  501    0  0.00000000000E+00  0.00000000000E+00 -0.88049935089E+03  0.88049935090E+03  0.25500000920E-02 0. -1.
    10030    2    1    2    0    0  0.00000000000E+00  0.00000000000E+00 -0.22278555810E+03  0.15382131437E+04  0.15219941756E+04 0.  0.
        3    1    3    3  502    0  0.68748482783E+03  0.38443740319E+02 -0.43888794475E+03  0.81653900575E+03  0.10100000352E+00 0. -1.
       -3    1    3    3    0  502 -0.68748482783E+03 -0.38443740319E+02  0.21610238665E+03  0.72167413795E+03  0.10100000352E+00 0.  1.
</event>
<event>
 5   0  0.5059689E-04  0.1686916E+04  0.7818609E-02  0.8768862E-01
        1   -1    0    0  501    0  0.00000000000E+00  0.00000000000E+00  0.17686098433E+04  0.17686098433E+04  0.50400001928E-02 0. -1.
       -1   -1    0    0    0  501  0.00000000000E+00  0.00000000000E+00 -0.40224869797E+03  0.40224869800E+03  0.50400001928E-02 0.  1.
    10030    2    1    2    0    0  0.00000000000E+00  0.00000000000E+00  0.13663611453E+04  0.21708585413E+04  0.16869155364E+04 0.  0.
        5    1    3    3  502    0 -0.83563094937E+03  0.73600785925E+02  0.79612408754E+03  0.11565171041E+04  0.46999998093E+01 0. -1.
       -5    1    3    3    0  502  0.83563094937E+03 -0.73600785925E+02  0.57023705778E+03  0.10143414372E+04  0.46999998093E+01 0.  1.
</event>
<event>
 5   0  0.9312096E-04  0.1717033E+04  0.7818609E-02  0.8751709E-01
        2   -1    0    0  501    0  0.00000000000E+00  0.00000000000E+00  0.16305453780E+04  0.16305453780E+04  0.25500000920E-02 0.  1.
       -2   -1    0    0    0  501  0.00000000000E+00  0.00000000000E+00 -0.45202714327E+03  0.45202714328E+03  0.25500000920E-02 0. -1.
    10030    2    1    2    0    0  0.00000000000E+00  0.00000000000E+00  0.11785182347E+04  0.20825725213E+04  0.17170332195E+04 0.  0.
        3    1    3    3  502    0 -0.36227176454E+03 -0.32722495048E+03  0.14458152317E+04  0.15260074358E+04  0.10100000352E+00 0.  1.
       -3    1    3    3    0  502  0.36227176454E+03  0.32722495048E+03 -0.26729699699E+03  0.55656508550E+03  0.10100000352E+00 0. -1.
</event>
<event>
 5   0  0.5035495E-04  0.1730615E+04  0.7818609E-02  0.8744094E-01
        1   -1    0    0  501    0  0.00000000000E+00  0.00000000000E+00  0.64421610363E+03  0.64421610365E+03  0.50400001928E-02 0.  1.
       -1   -1    0    0    0  501  0.00000000000E+00  0.00000000000E+00 -0.11622758390E+04  0.11622758390E+04  0.50400001928E-02 0. -1.
    10030    2    1    2    0    0  0.00000000000E+00  0.00000000000E+00 -0.51805973532E+03  0.18064919426E+04  0.17306147028E+04 0.  0.
        4    1    3    3  502    0 -0.49801595326E+03 -0.46272315618E+02 -0.99610073030E+03  0.11146206954E+04  0.12699999809E+01 0. -1.
       -4    1    3    3    0  502  0.49801595326E+03  0.46272315618E+02  0.47804099498E+03  0.69187124718E+03  0.12699999809E+01 0.  1.
</event>
<event>
 5   0  0.5035495E-04  0.1689365E+04  0.7818609E-02  0.8767453E-01
       -1   -1    0    0    0  501  0.00000000000E+00  0.00000000000E+00  0.60614905081E+03  0.60614905083E+03  0.50400001928E-02 0. -1.
        1   -1    0    0  501    0  0.00000000000E+00  0.00000000000E+00 -0.11770845297E+04  0.11770845298E+04  0.50400001928E-02 0.  1.
    10030    2    1    2    0    0  0.00000000000E+00  0.00000000000E+00 -0.57093547894E+03  0.17832335806E+04  0.16893651712E+04 0.  0.
        4    1    3    3  502    0  0.18524083954E+02 -0.98888993377E+01  0.60587249304E+03  0.60623759595E+03  0.12699999809E+01 0. -1.
       -4    1    3    3    0  502 -0.18524083954E+02  0.98888993377E+01 -0.11768079720E+04  0.11769959846E+04  0.12699999809E+01 0.  1.
</event>
<event>
 5   0  0.9312096E-04  0.1728205E+04  0.7818609E-02  0.8745440E-01
       -2   -1    0    0    0  501  0.00000000000E+00  0.00000000000E+00  0.71283932738E+03  0.71283932738E+03  0.25500000920E-02 0. -1.
        2   -1    0    0  501    0  0.00000000000E+00  0.00000000000E+00 -0.10474633070E+04  0.10474633070E+04  0.25500000920E-02 0.  1.
    10030    2    1    2    0    0  0.00000000000E+00  0.00000000000E+00 -0.33462397965E+03  0.17603026344E+04  0.17282048944E+04 0.  0.
        3    1    3    3  502    0  0.65109677909E+03 -0.23559793100E+03  0.35924155109E+03  0.78005634608E+03  0.10100000352E+00 0. -1.
       -3    1    3    3    0  502 -0.65109677909E+03  0.23559793100E+03 -0.69386553074E+03  0.98024628833E+03  0.10100000352E+00 0.  1.
</event>
<event>
 5   0  0.5009762E-04  0.1685232E+04  0.7818609E-02  0.8769832E-01
       -1   -1    0    0    0  501  0.00000000000E+00  0.00000000000E+00  0.50245026861E+03  0.50245026863E+03  0.50400001928E-02 0. -1.
        1   -1    0    0  501    0  0.00000000000E+00  0.00000000000E+00 -0.14130777976E+04  0.14130777976E+04  0.50400001928E-02 0.  1.
    10030    2    1    2    0    0  0.00000000000E+00  0.00000000000E+00 -0.91062752901E+03  0.19155280663E+04  0.16852315200E+04 0.  0.
        3    1    3    3  502    0  0.27960205035E+03  0.20286024752E+03 -0.13288924642E+04  0.13730567280E+04  0.10100000352E+00 0.  1.
       -3    1    3    3    0  502 -0.27960205035E+03 -0.20286024752E+03  0.41826493523E+03  0.54247133826E+03  0.10100000352E+00 0. -1.
</event>
<event>
 5   0  0.5074133E-04  0.1689973E+04  0.7818609E-02  0.8767104E-01
        1   -1    0    0  501    0  0.00000000000E+00  0.00000000000E+00  0.58145538071E+03  0.58145538074E+03  0.50400001928E-02 0.  1.
       -1   -1    0    0    0  501  0.00000000000E+00  0.00000000000E+00 -0.12279569704E+04  0.12279569704E+04  0.50400001928E-02 0. -1.
    10030    2    1    2    0    0  0.00000000000E+00  0.00000000000E+00 -0.64650158967E+03  0.18094123511E+04  0.16899730030E+04 0.  0.
        1    1    3    3  502    0 -0.48522921819E+03  0.46684148570E+03 -0.86983427970E+03  0.11000000187E+04  0.50400001928E-02 0. -1.
       -1    1    3    3    0  502  0.48522921819E+03 -0.46684148570E+03  0.22333269003E+03  0.70941233244E+03  0.50400001928E-02 0.  1.
</event>
<event>
 5   0  0.5035495E-04  0.1815352E+04  0.7818609E-02  0.8698178E-01
       -1   -1    0    0    0  501  0.00000000000E+00  0.00000000000E+00  0.43988493507E+03  0.43988493510E+03  0.50400001928E-02 0. -1.
        1   -1    0    0  501    0  0.00000000000E+00  0.00000000000E+00 -0.18729353539E+04  0.18729353539E+04  0.50400001928E-02 0.  1.
    10030    2    1    2    0    0  0.00000000000E+00  0.00000000000E+00 -0.14330504189E+04  0.23128202890E+04  0.18153523587E+04 0.  0.
        4    1    3    3  502    0 -0.17921173795E+03 -0.66352326810E+03 -0.14718612310E+04  0.16244251508E+04  0.12699999809E+01 0.  1.
       -4    1    3    3    0  502  0.17921173795E+03  0.66352326810E+03  0.38810812119E+02  0.68839513825E+03  0.12699999809E+01 0. -1.
</event>
<event>
 5   0  0.9610114E-04  0.1700561E+04  0.7818609E-02  0.8761045E-01
        2   -1    0    0  501    0  0.00000000000E+00  0.00000000000E+00  0.12621566010E+04  0.12621566010E+04  0.25500000920E-02 0.  1.
       -2   -1    0    0    0  501  0.00000000000E+00  0.00000000000E+00 -0.57281054036E+03  0.57281054037E+03  0.25500000920E-02 0. -1.
    10030    2    1    2    0    0  0.00000000000E+00  0.00000000000E+00  0.68934606060E+03  0.18349671413E+04  0.17005606189E+04 0.  0.
        2    1    3    3  502    0  0.38274948948E+03 -0.72336599367E+02  0.11602183187E+04  0.12238612268E+04  0.25500000920E-02 0.  1.
       -2    1    3    3    0  502 -0.38274948948E+03  0.72336599367E+02 -0.47087225813E+03  0.61110591454E+03  0.25500000920E-02 0. -1.
</event>
<event>
 5   0  0.9610114E-04  0.1671016E+04  0.7818609E-02  0.8778070E-01
       -2   -1    0    0    0  501  0.00000000000E+00  0.00000000000E+00  0.66093257944E+03  0.66093257944E+03  0.25500000920E-02 0.  1.
        2   -1    0    0  501    0  0.00000000000E+00  0.00000000000E+00 -0.10561949043E+04  0.10561949043E+04  0.25500000920E-02 0. -1.
    10030    2    1    2    0    0  0.00000000000E+00  0.00000000000E+00 -0.39526232488E+03  0.17171274838E+04  0.16710160053E+04 0.  0.
        2    1    3    3  502    0  0.22684656057E+03 -0.33643228909E+03 -0.94814665406E+03  0.10313234821E+04  0.25500000920E-02 0. -1.
       -2    1    3    3    0  502 -0.22684656057E+03  0.33643228909E+03  0.55288432918E+03  0.68580400163E+03  0.25500000920E-02 0.  1.
</event>
<event>
 5   0  0.9610114E-04  0.1733269E+04  0.7818609E-02  0.8742614E-01
        2   -1    0    0  501    0  0.00000000000E+00  0.00000000000E+00  0.19141990970E+04  0.19141990970E+04  0.25500000920E-02 0.  1.
       -2   -1    0    0    0  501  0.00000000000E+00  0.00000000000E+00 -0.39236011405E+03  0.39236011406E+03  0.25500000920E-02 0. -1.
    10030    2    1    2    0    0  0.00000000000E+00  0.00000000000E+00  0.15218389830E+04  0.23065592111E+04  0.17332690224E+04 0.  0.
        2    1    3    3  502    0 -0.12319224629E+03  0.82835370497E+03  0.10576190896E+04  0.13490382978E+04  0.25500000920E-02 0. -1.
       -2    1    3    3    0  502  0.12319224629E+03 -0.82835370497E+03  0.46421989337E+03  0.95752091335E+03  0.25500000920E-02 0.  1.
</event>
<event>
 5   0  0.4947006E-04  0.1733712E+04  0.7818609E-02  0.8742367E-01
       -1   -1    0    0    0  501  0.00000000000E+00  0.00000000000E+00  0.60262922052E+03  0.60262922054E+03  0.50400001928E-02 0.  1.
        1   -1    0    0  501    0  0.00000000000E+00  0.00000000000E+00 -0.12469352862E+04  0.12469352862E+04  0.50400001928E-02 0. -1.
    10030    2    1    2    0    0  0.00000000000E+00  0.00000000000E+00 -0.64430606563E+03  0.18495645067E+04  0.17337123632E+04 0.  0.
        2    1    3    3  502    0 -0.49336575298E+03  0.41168582524E+03  0.29857365351E+03  0.70854866558E+03  0.25500000920E-02 0.  1.
       -2    1    3    3    0  502  0.49336575298E+03 -0.41168582524E+03 -0.94287971915E+03  0.11410158411E+04  0.25500000920E-02 0. -1.
</event>
<event>
 5   0  0.5035495E-04  0.1692017E+04  0.7818609E-02  0.8765931E-01
        1   -1    0    0  501    0  0.00000000000E+00  0.00000000000E+00  0.71447452366E+03  0.71447452368E+03  0.50400001928E-02 0.  1.
       -1   -1    0    0    0  501  0.00000000000E+00  0.00000000000E+00 -0.10017576144E+04  0.10017576144E+04  0.50400001928E-02 0. -1.
    10030    2    1    2    0    0  0.00000000000E+00  0.00000000000E+00 -0.28728309077E+03  0.17162321381E+04  0.16920168964E+04 0.  0.
        4    1    3    3  502    0 -0.54289650992E+03 -0.35822190621E+03 -0.69237291791E+03  0.94996917051E+03  0.12699999809E+01 0. -1.
       -4    1    3    3    0  502  0.54289650992E+03  0.35822190621E+03  0.40508982714E+03  0.76626296761E+03  0.12699999809E+01 0.  1.
</event>
<event>
 5   0  0.5009762E-04  0.1677045E+04  0.7818609E-02  0.8774566E-01
        1   -1    0    0  501    0  0.00000000000E+00  0.00000000000E+00  0.45204896926E+03  0.45204896929E+03  0.50400001928E-02 0.  1.
       -1   -1    0    0    0  501  0.00000000000E+00  0.00000000000E+00 -0.15554057480E+04  0.15554057480E+04  0.50400001928E-02 0. -1.
    10030    2    1    2    0    0  0.00000000000E+00  0.00000000000E+00 -0.11033567788E+04  0.20074547173E+04  0.16770445018E+04 0.  0.
        3    1    3    3  502    0  0.65082321637E+03 -0.12622330626E+03 -0.11662710373E+04  0.13415257450E+04  0.10100000352E+00 0.  1.
       -3    1    3    3    0  502 -0.65082321637E+03  0.12622330626E+03  0.62914258505E+02  0.66592897229E+03  0.10100000352E+00 0. -1.
</event>
<event>
 5   0  0.1007187E-03  0.1670271E+04  0.7818609E-02  0.8778504E-01
       -2   -1    0    0    0  501  0.00000000000E+00  0.00000000000E+00  0.79364822940E+03  0.79364822940E+03  0.25500000920E-02 0. -1.
        2   -1    0    0  501    0  0.00000000000E+00  0.00000000000E+00 -0.87879131722E+03  0.87879131722E+03  0.25500000920E-02 0.  1.
    10030    2    1    2    0    0  0.00000000000E+00  0.00000000000E+00 -0.85143087825E+02  0.16724395466E+04  0.16702708438E+04 0.  0.
        5    1    3    3  502    0  0.16378042221E+03  0.50413651691E+03  0.60359684223E+03  0.80332365353E+03  0.46999998093E+01 0. -1.
       -5    1    3    3    0  502 -0.16378042221E+03 -0.50413651691E+03 -0.68873993005E+03  0.86911589309E+03  0.46999998093E+01 0.  1.
</event>
<event>
 5   0  0.5035495E-04  0.1665401E+04  0.7818609E-02  0.8781347E-01
        1   -1    0    0  501    0  0.00000000000E+00  0.00000000000E+00  0.11323932973E+04  0.11323932974E+04  0.50400001928E-02 0. -1.
       -1   -1    0    0    0  501  0.00000000000E+00  0.00000000000E+00 -0.61232278806E+03  0.61232278808E+03  0.50400001928E-02 0.  1.
    10030    2    1    2    0    0  0.00000000000E+00  0.00000000000E+00  0.52007050928E+03  0.17447160854E+04  0.16654011181E+04 0.  0.
        4    1    3    3  502    0 -0.18925208633E+03 -0.31149034106E+02 -0.58886567992E+03  0.61931495734E+03  0.12699999809E+01 0.  1.
       -4    1    3    3    0  502  0.18925208633E+03  0.31149034106E+02  0.11089361892E+04  0.11254011281E+04  0.12699999809E+01 0. -1.
</event>
<event>
 5   0  0.1007187E-03  0.1724461E+04  0.7818609E-02  0.8747535E-01
       -2   -1    0    0    0  501  0.00000000000E+00  0.00000000000E+00  0.10955200080E+04  0.10955200080E+04  0.25500000920E-02 0.  1.
        2   -1    0    0  501    0  0.00000000000E+00  0.00000000000E+00 -0.67861960893E+03  0.67861960893E+03  0.25500000920E-02 0. -1.
    10030    2    1    2    0    0  0.00000000000E+00  0.00000000000E+00  0.41690039905E+03  0.17741396169E+04  0.17244609122E+04 0.  0.
        5    1    3    3  502    0 -0.10703160555E+02 -0.32679224749E+03  0.10292506377E+04  0.10799475431E+04  0.46999998093E+01 0.  1.
       -5    1    3    3    0  502  0.10703160555E+02  0.32679224749E+03 -0.61235023861E+03  0.69419207384E+03  0.46999998093E+01 0. -1.
</event>
<event>
 5   0  0.5035495E-04  0.1145429E+04  0.7818609E-02  0.9162010E-01
       -1   -1    0    0    0  501  0.00000000000E+00  0.00000000000E+00  0.38394808136E+03  0.38394808140E+03  0.50400001928E-02 0.  1.
        1   -1    0    0  501    0  0.00000000000E+00  0.00000000000E+00 -0.85428769839E+03  0.85428769840E+03  0.50400001928E-02 0. -1.
    10030    2    1    2    0    0  0.00000000000E+00  0.00000000000E+00 -0.47033961703E+03  0.12382357798E+04  0.11454293916E+04 0.  0.
        4    1    3    3  502    0  0.16150146000E+03 -0.15803763952E+03  0.33372157287E+03  0.40302644850E+03  0.12699999809E+01 0.  1.
       -4    1    3    3    0  502 -0.16150146000E+03  0.15803763952E+03 -0.80406118990E+03  0.83520933130E+03  0.12699999809E+01 0. -1.
</event>
<event>
 5   0  0.5059689E-04  0.1702533E+04  0.7818609E-02  0.8759921E-01
        1   -1    0    0  501    0  0.00000000000E+00  0.00000000000E+00  0.13709201289E+04  0.13709201289E+04  0.50400001928E-02 0. -1.
       -1   -1    0    0    0  501  0.00000000000E+00  0.00000000000E+00 -0.52858994775E+03  0.52858994777E+03  0.50400001928E-02 0.  1.
    10030    2    1    2    0    0  0.00000000000E+00  0.00000000000E+00  0.84233018110E+03  0.18995100766E+04  0.17025329357E+04 0.  0.
        5    1    3    3  502    0 -0.22835628140E+03  0.24954590613E+03  0.12927038813E+04  0.13362354453E+04  0.46999998093E+01 0. -1.
       -5    1    3    3    0  502  0.22835628140E+03 -0.24954590613E+03 -0.45037370018E+03  0.56327463136E+03  0.46999998093E+01 0.  1.
</event>
<event>
 5   0  0.5009762E-04  0.1685890E+04  0.7818609E-02  0.8769453E-01
        1   -1    0    0  501    0  0.00000000000E+00  0.00000000000E+00  0.11915823103E+04  0.11915823103E+04  0.50400001928E-02 0.  1.
       -1   -1    0    0    0  501  0.00000000000E+00  0.00000000000E+00 -0.59631317949E+03  0.59631317951E+03  0.50400001928E-02 0. -1.
    10030    2    1    2    0    0  0.00000000000E+00  0.00000000000E+00  0.59526913082E+03  0.17878954898E+04  0.16858899562E+04 0.  0.
        3    1    3    3  502    0  0.74191295753E+02 -0.66801945912E+03  0.83714098749E+03  0.10735731877E+04  0.10100000352E+00 0.  1.
       -3    1    3    3    0  502 -0.74191295753E+02  0.66801945912E+03 -0.24187185667E+03  0.71432230217E+03  0.10100000352E+00 0. -1.
</event>
<event>
 5   0  0.5009762E-04  0.1584753E+04  0.7818609E-02  0.8829970E-01
       -1   -1    0    0    0  501  0.00000000000E+00  0.00000000000E+00  0.65689393897E+03  0.65689393899E+03  0.50400001928E-02 0.  1.
        1   -1    0    0  501    0  0.00000000000E+00  0.00000000000E+00 -0.95580230138E+03  0.95580230140E+03  0.50400001928E-02 0. -1.
    10030    2    1    2    0    0  0.00000000000E+00  0.00000000000E+00 -0.29890836242E+03  0.16126962404E+04  0.15847532788E+04 0.  0.
        3    1    3    3  502    0 -0.78558323454E+03 -0.83982256487E+02 -0.21107508314E+03  0.81776936768E+03  0.10100000352E+00 0. -1.
       -3    1    3    3    0  502  0.78558323454E+03  0.83982256487E+02 -0.87833279279E+02  0.79492687270E+03  0.10100000352E+00 0.  1.
</event>
<event>
 5   0  0.9284971E-04  0.1519028E+04  0.7818609E-02  0.8871898E-01
       -2   -1    0    0    0  501  0.00000000000E+00  0.00000000000E+00  0.25715063442E+03  0.25715063443E+03  0.25500000920E-02 0. -1.
        2   -1    0    0  501    0  0.00000000000E+00  0.00000000000E+00 -0.22432811600E+04  0.22432811600E+04  0.25500000920E-02 0.  1.
    10030    2    1    2    0    0  0.00000000000E+00  0.00000000000E+00 -0.19861305256E+04  0.25004317944E+04  0.15190275488E+04 0.  0.
        4    1    3    3  502    0 -0.38125704213E+03  0.64175462588E+03 -0.76229984080E+03  0.10669154569E+04  0.12699999809E+01 0. -1.
       -4    1    3    3    0  502  0.38125704213E+03 -0.64175462588E+03 -0.12238306848E+04  0.14335163375E+04  0.12699999809E+01 0.  1.
</event>
<event>
 5   0  0.9610114E-04  0.1611304E+04  0.7818609E-02  0.8813633E-01
        2   -1    0    0  501    0  0.00000000000E+00  0.00000000000E+00  0.12998876278E+04  0.12998876278E+04  0.25500000920E-02 0.  1.
       -2   -1    0    0    0  501  0.00000000000E+00  0.00000000000E+00 -0.49933191816E+03  0.49933191817E+03  0.25500000920E-02 0. -1.
    10030    2    1    2    0    0  0.00000000000E+00  0.00000000000E+00  0.80055570967E+03  0.17992195460E+04  0.16113042948E+04 0.  0.
        2    1    3    3  502    0 -0.42845706772E+03 -0.60364141740E+02  0.11591348381E+04  0.12372602238E+04  0.25500000920E-02 0.  1.
       -2    1    3    3    0  502  0.42845706772E+03  0.60364141740E+02 -0.35857912841E+03  0.56195932222E+03  0.25500000920E-02 0. -1.
</event>
<event>
 5   0  0.5009762E-04  0.1658091E+04  0.7818609E-02  0.8785635E-01
        1   -1    0    0  501    0  0.00000000000E+00  0.00000000000E+00  0.60267242368E+03  0.60267242370E+03  0.50400001928E-02 0.  1.
       -1   -1    0    0    0  501  0.00000000000E+00  0.00000000000E+00 -0.11404471514E+04  0.11404471514E+04  0.50400001928E-02 0. -1.
    10030    2    1    2    0    0  0.00000000000E+00  0.00000000000E+00 -0.53777472775E+03  0.17431195751E+04  0.16580905269E+04 0.  0.
        3    1    3    3  502    0  0.80250903677E+03 -0.88536037958E+02 -0.46684297656E+03  0.93263163096E+03  0.10100000352E+00 0. -1.
       -3    1    3    3    0  502 -0.80250903677E+03  0.88536037958E+02 -0.70931751191E+02  0.81048794417E+03  0.10100000352E+00 0.  1.
</event>
<event>
 5   0  0.9312096E-04  0.1672175E+04  0.7818609E-02  0.8777395E-01
        2   -1    0    0  501    0  0.00000000000E+00  0.00000000000E+00  0.13645202038E+04  0.13645202038E+04  0.25500000920E-02 0. -1.
       -2   -1    0    0    0  501  0.00000000000E+00  0.00000000000E+00 -0.51229868622E+03  0.51229868623E+03  0.25500000920E-02 0.  1.
    10030    2    1    2    0    0  0.00000000000E+00  0.00000000000E+00  0.85222151757E+03  0.18768188900E+04  0.16721745217E+04 0.  0.
        3    1    3    3  502    0  0.78667384054E+03  0.22849358238E+03  0.23837795644E+03  0.85316417465E+03  0.10100000352E+00 0.  1.
       -3    1    3    3    0  502 -0.78667384054E+03 -0.22849358238E+03  0.61384356113E+03  0.10236547154E+04  0.10100000352E+00 0. -1.
</event>
<event>
 5   0  0.5074133E-04  0.1707024E+04  0.7818609E-02  0.8757368E-01
       -1   -1    0    0    0  501  0.00000000000E+00  0.00000000000E+00  0.64702556749E+03  0.64702556751E+03  0.50400001928E-02 0. -1.
        1   -1    0    0  501    0  0.00000000000E+00  0.00000000000E+00 -0.11258949110E+04  0.11258949110E+04  0.50400001928E-02 0.  1.
    10030    2    1    2    0    0  0.00000000000E+00  0.00000000000E+00 -0.47886934353E+03  0.17729204785E+04  0.17070240698E+04 0.  0.
        1    1    3    3  502    0 -0.56869664235E+03 -0.23786547683E+03 -0.85255097369E+03  0.10520641705E+04  0.50400001928E-02 0.  1.
       -1    1    3    3    0  502  0.56869664235E+03  0.23786547683E+03  0.37368163016E+03  0.72085630803E+03  0.50400001928E-02 0. -1.
</event>
<event>
 5   0  0.5035495E-04  0.1643624E+04  0.7818609E-02  0.8794187E-01
       -1   -1    0    0    0  501  0.00000000000E+00  0.00000000000E+00  0.38317856976E+03  0.38317856979E+03  0.50400001928E-02 0.  1.
        1   -1    0    0  501    0  0.00000000000E+00  0.00000000000E+00 -0.17625590234E+04  0.17625590234E+04  0.50400001928E-02 0. -1.
    10030    2    1    2    0    0  0.00000000000E+00  0.00000000000E+00 -0.13793804536E+04  0.21457375932E+04  0.16436238569E+04 0.  0.
        4    1    3    3  502    0 -0.50007254647E+03 -0.62425495791E+01 -0.15410288077E+04  0.16201490426E+04  0.12699999809E+01 0. -1.
       -4    1    3    3    0  502  0.50007254647E+03  0.62425495791E+01  0.16164835414E+03  0.52558855053E+03  0.12699999809E+01 0.  1.
</event>
<event>
 5   0  0.5059689E-04  0.1664756E+04  0.7818609E-02  0.8781724E-01
       -1   -1    0    0    0  501  0.00000000000E+00  0.00000000000E+00  0.47249651030E+03  0.47249651033E+03  0.50400001928E-02 0. -1.
        1   -1    0    0  501    0  0.00000000000E+00  0.00000000000E+00 -0.14663673757E+04  0.14663673757E+04  0.50400001928E-02 0.  1.
    10030    2    1    2    0    0  0.00000000000E+00  0.00000000000E+00 -0.99387086539E+03  0.19388638860E+04  0.16647564001E+04 0.  0.
        5    1    3    3  502    0 -0.65540636612E+03 -0.51293252599E+03 -0.48156832406E+03  0.96155468992E+03  0.46999998093E+01 0.  1.
       -5    1    3    3    0  502  0.65540636612E+03  0.51293252599E+03 -0.51230254133E+03  0.97730919612E+03  0.46999998093E+01 0. -1.
</event>
<event>
 5   0  0.9312096E-04  0.1727240E+04  0.7818609E-02  0.8745979E-01
        2   -1    0    0  501    0  0.00000000000E+00  0.00000000000E+00  0.91352808491E+03  0.91352808492E+03  0.25500000920E-02 0.  1.
       -2   -1    0    0    0  501  0.00000000000E+00  0.00000000000E+00 -0.81643852483E+03  0.81643852484E+03  0.25500000920E-02 0. -1.
    10030    2    1    2    0    0  0.00000000000E+00  0.00000000000E+00  0.97089560082E+02  0.17299666098E+04  0.17272400204E+04 0.  0.
        3    1    3    3  502    0  0.53074692782E+03  0.67394497975E+03  0.14842870607E+03  0.87058901217E+03  0.10100000352E+00 0.  1.
       -3    1    3    3    0  502 -0.53074692782E+03 -0.67394497975E+03 -0.51339145986E+02  0.85937759759E+03  0.10100000352E+00 0. -1.
</event>
<event>
 5   0  0.5074133E-04  0.1688323E+04  0.7818609E-02  0.8768052E-01
        1   -1    0    0  501    0  0.00000000000E+00  0.00000000000E+00  0.11897301698E+04  0.11897301698E+04  0.50400001928E-02 0.  1.
       -1   -1    0    0    0  501  0.00000000000E+00  0.00000000000E+00 -0.59896683020E+03  0.59896683022E+03  0.50400001928E-02 0. -1.
    10030    2    1    2    0    0  0.00000000000E+00  0.00000000000E+00  0.59076333958E+03  0.17886970000E+04  0.16883233205E+04 0.  0.
        1    1    3    3  502    0 -0.76490947650E+03 -0.68131761443E+02 -0.76001810157E+02  0.77168952262E+03  0.50400001928E-02 0. -1.
       -1    1    3    3    0  502  0.76490947650E+03  0.68131761443E+02  0.66676514974E+03  0.10170074774E+04  0.50400001928E-02 0.  1.
</event>
<event>
 5   0  0.9625225E-04  0.1690277E+04  0.7818609E-02  0.8766929E-01
        2   -1    0    0  501    0  0.00000000000E+00  0.00000000000E+00  0.16104650918E+04  0.16104650918E+04  0.25500000920E-02 0.  1.
       -2   -1    0    0    0  501  0.00000000000E+00  0.00000000000E+00 -0.44351129238E+03  0.44351129239E+03  0.25500000920E-02 0. -1.
    10030    2    1    2    0    0  0.00000000000E+00  0.00000000000E+00  0.11669537994E+04  0.20539763842E+04  0.16902774378E+04 0.  0.
        1    1    3    3  502    0  0.63896183380E+03 -0.34918026139E+03  0.62141036168E+02  0.73079449123E+03  0.50400001928E-02 0. -1.
       -1    1    3    3    0  502 -0.63896183380E+03  0.34918026139E+03  0.11048127633E+04  0.13231818930E+04  0.50400001928E-02 0.  1.
</event>
<event>
 5   0  0.5035495E-04  0.1698036E+04  0.7818609E-02  0.8762485E-01
        1   -1    0    0  501    0  0.00000000000E+00  0.00000000000E+00  0.13836363306E+04  0.13836363306E+04  0.50400001928E-02 0. -1.
       -1   -1    0    0    0  501  0.00000000000E+00  0.00000000000E+00 -0.52096904125E+03  0.52096904127E+03  0.50400001928E-02 0.  1.
    10030    2    1    2    0    0  0.00000000000E+00  0.00000000000E+00  0.86266728934E+03  0.19046053719E+04  0.16980361511E+04 0.  0.
        4    1    3    3  502    0 -0.38600932268E+03 -0.48364828647E+03  0.10833513325E+04  0.12476259795E+04  0.12699999809E+01 0. -1.
       -4    1    3    3    0  502  0.38600932268E+03  0.48364828647E+03 -0.22068404316E+03  0.65697939237E+03  0.12699999809E+01 0.  1.
</event>
<event>
 5   0  0.5059689E-04  0.1718021E+04  0.7818609E-02  0.8751152E-01
       -1   -1    0    0    0  501  0.00000000000E+00  0.00000000000E+00  0.34760771879E+03  0.34760771883E+03  0.50400001928E-02 0. -1.
        1   -1    0    0  501    0  0.00000000000E+00  0.00000000000E+00 -0.21227930203E+04  0.21227930203E+04  0.50400001928E-02 0.  1.
    10030    2    1    2    0    0  0.00000000000E+00  0.00000000000E+00 -0.17751853015E+04  0.24704007391E+04  0.17180212330E+04 0.  0.
        5    1    3    3  502    0  0.30880301819E+03  0.65797449632E+03 -0.22929625937E+03  0.76216048600E+03  0.46999998093E+01 0. -1.
       -5    1    3    3    0  502 -0.30880301819E+03 -0.65797449632E+03 -0.15458890421E+04  0.17082402531E+04  0.46999998093E+01 0.  1.
</event>
<event>
 5   0  0.4947006E-04  0.1262662E+04  0.7818609E-02  0.9059710E-01
        1   -1    0    0  501    0  0.00000000000E+00  0.00000000000E+00  0.55307671119E+03  0.55307671121E+03  0.50400001928E-02 0.  1.
       -1   -1    0    0    0  501  0.00000000000E+00  0.00000000000E+00 -0.72065707029E+03  0.72065707031E+03  0.50400001928E-02 0. -1.
    10030    2    1    2    0    0  0.00000000000E+00  0.00000000000E+00 -0.16758035910E+03  0.12737337815E+04  0.12626617003E+04 0.  0.
        2    1    3    3  502    0 -0.37072054047E+03 -0.27416397451E+03  0.35124427931E+03  0.57963104454E+03  0.25500000920E-02 0.  1.
       -2    1    3    3    0  502  0.37072054047E+03  0.27416397451E+03 -0.51882463841E+03  0.69410273697E+03  0.25500000920E-02 0. -1.
</event>
<event>
 5   0  0.4947006E-04  0.1122200E+04  0.7818609E-02  0.9183821E-01
       -1   -1    0    0    0  501  0.00000000000E+00  0.00000000000E+00  0.70905364182E+03  0.70905364184E+03  0.50400001928E-02 0.  1.
        1   -1    0    0  501    0  0.00000000000E+00  0.00000000000E+00 -0.44401863788E+03  0.44401863791E+03  0.50400001928E-02 0. -1.
    10030    2    1    2    0    0  0.00000000000E+00  0.00000000000E+00  0.26503500394E+03  0.11530722797E+04  0.11221996832E+04 0.  0.
        2    1    3    3  502    0  0.36513958158E+03  0.26514862325E+03  0.47516165493E+03  0.65529329675E+03  0.25500000920E-02 0.  1.
       -2    1    3    3    0  502 -0.36513958158E+03 -0.26514862325E+03 -0.21012665099E+03  0.49777898300E+03  0.25500000920E-02 0. -1.
</event>
<event>
 5   0  0.5059689E-04  0.1524147E+04  0.7818609E-02  0.8868553E-01
        1   -1    0    0  501    0  0.00000000000E+00  0.00000000000E+00  0.13441244305E+04  0.13441244305E+04  0.50400001928E-02 0. -1.
       -1   -1    0    0    0  501  0.00000000000E+00  0.00000000000E+00 -0.43206986997E+03  0.43206987000E+03  0.50400001928E-02 0.  1.
    10030    2    1    2    0    0  0.00000000000E+00  0.00000000000E+00  0.91205456049E+03  0.17761943005E+04  0.15241465388E+04 0.  0.
        5    1    3    3  502    0  0.33970615959E+03  0.38567181364E+03  0.11117386666E+04  0.12247971161E+04  0.46999998093E+01 0. -1.
       -5    1    3    3    0  502 -0.33970615959E+03 -0.38567181364E+03 -0.19968410614E+03  0.55139718438E+03  0.46999998093E+01 0.  1.
</event>
<event>
 5   0  0.9610114E-04  0.1740821E+04  0.7818609E-02  0.8738419E-01
        2   -1    0    0  501    0  0.00000000000E+00  0.00000000000E+00  0.81184258838E+03  0.81184258839E+03  0.25500000920E-02 0. -1.
       -2   -1    0    0    0  501  0.00000000000E+00  0.00000000000E+00 -0.93320340211E+03  0.93320340211E+03  0.25500000920E-02 0.  1.
    10030    2    1    2    0    0  0.00000000000E+00  0.00000000000E+00 -0.12136081372E+03  0.17450459905E+04  0.17408208012E+04 0.  0.
        2    1    3    3  502    0  0.25016360792E+03 -0.73414172543E+03 -0.45669413878E+03  0.90006413113E+03  0.25500000920E-02 0.  1.
       -2    1    3    3    0  502 -0.25016360792E+03  0.73414172543E+03  0.33533332506E+03  0.84498185936E+03  0.25500000920E-02 0. -1.
</event>
<event>
 5   0  0.5074133E-04  0.1727752E+04  0.7818609E-02  0.8745693E-01
        1   -1    0    0  501    0  0.00000000000E+00  0.00000000000E+00  0.18321443046E+04  0.18321443046E+04  0.50400001928E-02 0. -1.
       -1   -1    0    0    0  501  0.00000000000E+00  0.00000000000E+00 -0.40732688201E+03  0.40732688204E+03  0.50400001928E-02 0.  1.
    10030    2    1    2    0    0  0.00000000000E+00  0.00000000000E+00  0.14248174226E+04  0.22394711866E+04  0.17277518653E+04 0.  0.
        1    1    3    3  502    0  0.31052309804E+03  0.18439139665E+03  0.17296031923E+04  0.17669046336E+04  0.50400001928E-02 0. -1.
       -1    1    3    3    0  502 -0.31052309804E+03 -0.18439139665E+03 -0.30478576970E+03  0.47256655300E+03  0.50400001928E-02 0.  1.
</event>
<event>
 5   0  0.5074133E-04  0.1678655E+04  0.7818609E-02  0.8773633E-01
       -1   -1    0    0    0  501  0.00000000000E+00  0.00000000000E+00  0.65391209970E+03  0.65391209972E+03  0.50400001928E-02 0. -1.
        1   -1    0    0  501    0  0.00000000000E+00  0.00000000000E+00 -0.10773168861E+04  0.10773168861E+04  0.50400001928E-02 0.  1.
    10030    2    1    2    0    0  0.00000000000E+00  0.00000000000E+00 -0.42340478637E+03  0.17312289858E+04  0.16786548746E+04 0.  0.
        1    1    3    3  502    0  0.25570615873E+03 -0.79910520491E+03 -0.18828034467E+03  0.85988618802E+03  0.50400001928E-02 0. -1.
       -1    1    3    3    0  502 -0.25570615873E+03  0.79910520491E+03 -0.23512444169E+03  0.87134279778E+03  0.50400001928E-02 0.  1.
</event>
<event>
 5   0  0.5074133E-04  0.1656729E+04  0.7818609E-02  0.8786436E-01
       -1   -1    0    0    0  501  0.00000000000E+00  0.00000000000E+00  0.58343473397E+03  0.58343473399E+03  0.50400001928E-02 0. -1.
        1   -1    0    0  501    0  0.00000000000E+00  0.00000000000E+00 -0.11761169182E+04  0.11761169182E+04  0.50400001928E-02 0.  1.
    10030    2    1    2    0    0  0.00000000000E+00  0.00000000000E+00 -0.59268218420E+03  0.17595516522E+04  0.16567286577E+04 0.  0.
        1    1    3    3  502    0 -0.76626560858E+02 -0.82341184823E+03 -0.24530939676E+03  0.86258646047E+03  0.50400001928E-02 0. -1.
       -1    1    3    3    0  502  0.76626560858E+02  0.82341184823E+03 -0.34737278745E+03  0.89696519170E+03  0.50400001928E-02 0.  1.
</event>
<event>
 5   0  0.9284971E-04  0.1692252E+04  0.7818609E-02  0.8765796E-01
        2   -1    0    0  501    0  0.00000000000E+00  0.00000000000E+00  0.19547513063E+04  0.19547513063E+04  0.25500000920E-02 0.  1.
       -2   -1    0    0    0  501  0.00000000000E+00  0.00000000000E+00 -0.36625092948E+03  0.36625092949E+03  0.25500000920E-02 0. -1.
    10030    2    1    2    0    0  0.00000000000E+00  0.00000000000E+00  0.15885003768E+04  0.23210022358E+04  0.16922523250E+04 0.  0.
        4    1    3    3  502    0 -0.64985576738E+03 -0.48218525554E+03  0.11333099754E+04  0.13925545779E+04  0.12699999809E+01 0.  1.
       -4    1    3    3    0  502  0.64985576738E+03  0.48218525554E+03  0.45519040139E+03  0.92844765791E+03  0.12699999809E+01 0. -1.
</event>
<event>
 5   0  0.5009762E-04  0.1693121E+04  0.7818609E-02  0.8765298E-01
        1   -1    0    0  501    0  0.00000000000E+00  0.00000000000E+00  0.30953234757E+03  0.30953234761E+03  0.50400001928E-02 0. -1.
       -1   -1    0    0    0  501  0.00000000000E+00  0.00000000000E+00 -0.23153132389E+04  0.23153132389E+04  0.50400001928E-02 0.  1.
    10030    2    1    2    0    0  0.00000000000E+00  0.00000000000E+00 -0.20057808913E+04  0.26248455865E+04  0.16931206009E+04 0.  0.
        3    1    3    3  502    0 -0.16882980686E+03  0.43125428695E+03 -0.21015061883E+04  0.21519321628E+04  0.10100000352E+00 0.  1.
       -3    1    3    3    0  502  0.16882980686E+03 -0.43125428695E+03  0.95725296917E+02  0.47291342375E+03  0.10100000352E+00 0. -1.
</event>
<event>
 5   0  0.9284971E-04  0.1636337E+04  0.7818609E-02  0.8798531E-01
        2   -1    0    0  501    0  0.00000000000E+00  0.00000000000E+00  0.96704557402E+03  0.96704557403E+03  0.25500000920E-02 0.  1.
       -2   -1    0    0    0  501  0.00000000000E+00  0.00000000000E+00 -0.69221099653E+03  0.69221099653E+03  0.25500000920E-02 0. -1.
    10030    2    1    2    0    0  0.00000000000E+00  0.00000000000E+00  0.27483457750E+03  0.16592565706E+04  0.16363368608E+04 0.  0.
        4    1    3    3  502    0 -0.23696886268E+03  0.21195576554E+03  0.90184552634E+03  0.95624602206E+03  0.12699999809E+01 0.  1.
       -4    1    3    3    0  502  0.23696886268E+03 -0.21195576554E+03 -0.62701094884E+03  0.70301054850E+03  0.12699999809E+01 0. -1.
</event>
<event>
 5   0  0.9312096E-04  0.1734444E+04  0.7818609E-02  0.8741960E-01
        2   -1    0    0  501    0  0.00000000000E+00  0.00000000000E+00  0.12002512383E+04  0.12002512383E+04  0.25500000920E-02 0. -1.
       -2   -1    0    0    0  501  0.00000000000E+00  0.00000000000E+00 -0.62659722852E+03  0.62659722853E+03  0.25500000920E-02 0.  1.
    10030    2    1    2    0    0  0.00000000000E+00  0.00000000000E+00  0.57365400981E+03  0.18268484669E+04  0.17344441178E+04 0.  0.
        3    1    3    3  502    0  0.27768250861E+02  0.12227354809E+03  0.11906533694E+04  0.11972373835E+04  0.10100000352E+00 0. -1.
       -3    1    3    3    0  502 -0.27768250861E+02 -0.12227354809E+03 -0.61699935958E+03  0.62961108332E+03  0.10100000352E+00 0.  1.
</event>
<event>
 5   0  0.9625225E-04  0.1754518E+04  0.7818609E-02  0.8730868E-01
       -2   -1    0    0    0  501  0.00000000000E+00  0.00000000000E+00  0.31574238546E+03  0.31574238547E+03  0.25500000920E-02 0. -1.
        2   -1    0    0  501    0  0.00000000000E+00  0.00000000000E+00 -0.24373764312E+04  0.24373764312E+04  0.25500000920E-02 0.  1.
    10030    2    1    2    0    0  0.00000000000E+00  0.00000000000E+00 -0.21216340458E+04  0.27531188167E+04  0.17545176530E+04 0.  0.
        1    1    3    3  502    0  0.21367690915E+03 -0.36712123309E+02 -0.23946744572E+04  0.24044690386E+04  0.50400001928E-02 0.  1.
       -1    1    3    3    0  502 -0.21367690915E+03  0.36712123309E+02  0.27304041141E+03  0.34864977814E+03  0.50400001928E-02 0. -1.
</event>
<event>
 5   0  0.9284971E-04  0.1663519E+04  0.7818609E-02  0.8782449E-01
       -2   -1    0    0    0  501  0.00000000000E+00  0.00000000000E+00  0.82889595997E+03  0.82889595998E+03  0.25500000920E-02 0.  1.
        2   -1    0    0  501    0  0.00000000000E+00  0.00000000000E+00 -0.83463321901E+03  0.83463321901E+03  0.25500000920E-02 0. -1.
    10030    2    1    2    0    0  0.00000000000E+00  0.00000000000E+00 -0.57372590335E+01  0.16635291790E+04  0.16635192855E+04 0.  0.
        4    1    3    3  502    0 -0.76735406882E+03  0.16307829144E+03  0.27353072473E+03  0.83081133018E+03  0.12699999809E+01 0.  1.
       -4    1    3    3    0  502  0.76735406882E+03 -0.16307829144E+03 -0.27926798377E+03  0.83271784881E+03  0.12699999809E+01 0. -1.
</event>
<event>
 5   0  0.5009762E-04  0.1722384E+04  0.7818609E-02  0.8748700E-01
       -1   -1    0    0    0  501  0.00000000000E+00  0.00000000000E+00  0.74187713005E+03  0.74187713007E+03  0.50400001928E-02 0. -1.
        1   -1    0    0  501    0  0.00000000000E+00  0.00000000000E+00 -0.99969647833E+03  0.99969647834E+03  0.50400001928E-02 0.  1.
    10030    2    1    2    0    0  0.00000000000E+00  0.00000000000E+00 -0.25781934828E+03  0.17415736084E+04  0.17223843407E+04 0.  0.
        3    1    3    3  502    0  0.56951371473E+03 -0.41602801109E+03  0.37078922940E+03  0.79681229918E+03  0.10100000352E+00 0. -1.
       -3    1    3    3    0  502 -0.56951371473E+03  0.41602801109E+03 -0.62860857768E+03  0.94476130923E+03  0.10100000352E+00 0.  1.
</event>
<event>
 5   0  0.9312096E-04  0.1668680E+04  0.7818609E-02  0.8779432E-01
        2   -1    0    0  501    0  0.00000000000E+00  0.00000000000E+00  0.16377588565E+04  0.16377588565E+04  0.25500000920E-02 0.  1.
       -2   -1    0    0    0  501  0.00000000000E+00  0.00000000000E+00 -0.42504634733E+03  0.42504634734E+03  0.25500000920E-02 0. -1.
    10030    2    1    2    0    0  0.00000000000E+00  0.00000000000E+00  0.12127125092E+04  0.20628052039E+04  0.16686802208E+04 0.  0.
        3    1    3    3  502    0  0.17425756024E+03 -0.15164669970E+03 -0.38472635548E+03  0.44875026199E+03  0.10100000352E+00 0. -1.
       -3    1    3    3    0  502 -0.17425756024E+03  0.15164669970E+03  0.15974388647E+04  0.16140549419E+04  0.10100000352E+00 0.  1.
</event>
<event>
 5   0  0.5009762E-04  0.1741956E+04  0.7818609E-02  0.8737791E-01
       -1   -1    0    0    0  501  0.00000000000E+00  0.00000000000E+00  0.10545803571E+04  0.10545803571E+04  0.50400001928E-02 0.  1.
        1   -1    0    0  501    0  0.00000000000E+00  0.00000000000E+00 -0.71934085982E+03  0.71934085984E+03  0.50400001928E-02 0. -1.
    10030    2    1    2    0    0  0.00000000000E+00  0.00000000000E+00  0.33523949727E+03  0.17739212169E+04  0.17419560739E+04 0.  0.
        3    1    3    3  502    0  0.35539822860E+03  0.47493944947E+03  0.81707437793E+03  0.10096959596E+04  0.10100000352E+00 0.  1.
       -3    1    3    3    0  502 -0.35539822860E+03 -0.47493944947E+03 -0.48183488066E+03  0.76422525735E+03  0.10100000352E+00 0. -1.
</event>
<event>
 5   0  0.9284971E-04  0.1008969E+04  0.7818609E-02  0.9298762E-01
        2   -1    0    0  501    0  0.00000000000E+00  0.00000000000E+00  0.45518499169E+03  0.45518499169E+03  0.25500000920E-02 0. -1.
       -2   -1    0    0    0  501  0.00000000000E+00  0.00000000000E+00 -0.55912370767E+03  0.55912370768E+03  0.25500000920E-02 0.  1.
    10030    2    1    2    0    0  0.00000000000E+00  0.00000000000E+00 -0.10393871599E+03  0.10143086994E+04  0.10089692170E+04 0.  0.
        4    1    3    3  502    0  0.26156160994E+03 -0.42949971007E+03 -0.11524240116E+02  0.50300983863E+03  0.12699999809E+01 0. -1.
       -4    1    3    3    0  502 -0.26156160994E+03  0.42949971007E+03 -0.92414475872E+02  0.51129886074E+03  0.12699999809E+01 0.  1.
</event>
<event>
 5   0  0.9610114E-04  0.1679869E+04  0.7818609E-02  0.8772930E-01
       -2   -1    0    0    0  501  0.00000000000E+00  0.00000000000E+00  0.67810641095E+03  0.67810641096E+03  0.25500000920E-02 0.  1.
        2   -1    0    0  501    0  0.00000000000E+00  0.00000000000E+00 -0.10403818536E+04  0.10403818536E+04  0.25500000920E-02 0. -1.
    10030    2    1    2    0    0  0.00000000000E+00  0.00000000000E+00 -0.36227544267E+03  0.17184882646E+04  0.16798685720E+04 0.  0.
        2    1    3    3  502    0 -0.59489077341E+03  0.50277910833E+03 -0.50270122364E+03  0.92703310854E+03  0.25500000920E-02 0. -1.
       -2    1    3    3    0  502  0.59489077341E+03 -0.50277910833E+03  0.14042578097E+03  0.79145515605E+03  0.25500000920E-02 0.  1.
</event>
<event>
 5   0  0.9625225E-04  0.1683162E+04  0.7818609E-02  0.8771026E-01
       -2   -1    0    0    0  501  0.00000000000E+00  0.00000000000E+00  0.32742298136E+03  0.32742298137E+03  0.25500000920E-02 0. -1.
        2   -1    0    0  501    0  0.00000000000E+00  0.00000000000E+00 -0.21631302739E+04  0.21631302739E+04  0.25500000920E-02 0.  1.
    10030    2    1    2    0    0  0.00000000000E+00  0.00000000000E+00 -0.18357072925E+04  0.24905532553E+04  0.16831619808E+04 0.  0.
        1    1    3    3  502    0  0.82330568458E+03 -0.13534576205E+03 -0.10806719466E+04  0.13652847988E+04  0.50400001928E-02 0.  1.
       -1    1    3    3    0  502 -0.82330568458E+03  0.13534576205E+03 -0.75503534592E+03  0.11252684565E+04  0.50400001928E-02 0. -1.
</event>
<event>
 5   0  0.9312096E-04  0.1619300E+04  0.7818609E-02  0.8808778E-01
        2   -1    0    0  501    0  0.00000000000E+00  0.00000000000E+00  0.12304774014E+04  0.12304774014E+04  0.25500000920E-02 0. -1.
       -2   -1    0    0    0  501  0.00000000000E+00  0.00000000000E+00 -0.53274725317E+03  0.53274725317E+03  0.25500000920E-02 0.  1.
    10030    2    1    2    0    0  0.00000000000E+00  0.00000000000E+00  0.69773014822E+03  0.17632246546E+04  0.16193004115E+04 0.  0.
        3    1    3    3  502    0 -0.98089849513E+02 -0.37194089722E+03  0.11246278997E+04  0.11885914237E+04  0.10100000352E+00 0. -1.
       -3    1    3    3    0  502  0.98089849513E+02  0.37194089722E+03 -0.42689775145E+03  0.57463323085E+03  0.10100000352E+00 0.  1.
</event>
<event>
 5   0  0.9610114E-04  0.1734458E+04  0.7818609E-02  0.8741952E-01
        2   -1    0    0  501    0  0.00000000000E+00  0.00000000000E+00  0.14023148828E+04  0.14023148828E+04  0.25500000920E-02 0.  1.
       -2   -1    0    0    0  501  0.00000000000E+00  0.00000000000E+00 -0.53631771365E+03  0.53631771365E+03  0.25500000920E-02 0. -1.
    10030    2    1    2    0    0  0.00000000000E+00  0.00000000000E+00  0.86599716920E+03  0.19386325965E+04  0.17344581999E+04 0.  0.
        2    1    3    3  502    0 -0.48442526505E+03 -0.20823119798E+03 -0.33657034265E+03  0.62554589343E+03  0.25500000920E-02 0. -1.
       -2    1    3    3    0  502  0.48442526505E+03  0.20823119798E+03  0.12025675118E+04  0.13130867031E+04  0.25500000920E-02 0.  1.
</event>
<event>
 5   0  0.4947006E-04  0.1656989E+04  0.7818609E-02  0.8786283E-01
        1   -1    0    0  501    0  0.00000000000E+00  0.00000000000E+00  0.10334519783E+04  0.10334519783E+04  0.50400001928E-02 0.  1.
       -1   -1    0    0    0  501  0.00000000000E+00  0.00000000000E+00 -0.66418480113E+03  0.66418480115E+03  0.50400001928E-02 0. -1.
    10030    2    1    2    0    0  0.00000000000E+00  0.00000000000E+00  0.36926717712E+03  0.16976367794E+04  0.16569889519E+04 0.  0.
        2    1    3    3  502    0  0.21844251643E+03 -0.28533982101E+03 -0.58018226990E+03  0.68245689443E+03  0.25500000920E-02 0. -1.
       -2    1    3    3    0  502 -0.21844251643E+03  0.28533982101E+03  0.94944944702E+03  0.10151798850E+04  0.25500000920E-02 0.  1.
</event>
<event>
 5   0  0.4947006E-04  0.8721057E+03  0.7818609E-02  0.9461138E-01
       -1   -1    0    0    0  501  0.00000000000E+00  0.00000000000E+00  0.23707308217E+03  0.23707308222E+03  0.50400001928E-02 0. -1.
        1   -1    0    0  501    0  0.00000000000E+00  0.00000000000E+00 -0.80203999444E+03  0.80203999446E+03  0.50400001928E-02 0.  1.
    10030    2    1    2    0    0  0.00000000000E+00  0.00000000000E+00 -0.56496691227E+03  0.10391130767E+04  0.87210571273E+03 0.  0.
        2    1    3    3  502    0  0.22186200391E+03  0.10463198568E+02  0.16462225957E+03  0.27646467343E+03  0.25500000920E-02 0. -1.
       -2    1    3    3    0  502 -0.22186200391E+03 -0.10463198568E+02 -0.72958917184E+03  0.76264840325E+03  0.25500000920E-02 0.  1.
</event>
<event>
 5   0  0.5035495E-04  0.1251308E+04  0.7818609E-02  0.9069095E-01
        1   -1    0    0  501    0  0.00000000000E+00  0.00000000000E+00  0.12754157803E+04  0.12754157803E+04  0.50400001928E-02 0.  1.
       -1   -1    0    0    0  501  0.00000000000E+00  0.00000000000E+00 -0.30691404833E+03  0.30691404837E+03  0.50400001928E-02 0. -1.
    10030    2    1    2    0    0  0.00000000000E+00  0.00000000000E+00  0.96850173199E+03  0.15823298287E+04  0.12513081483E+04 0.  0.
        4    1    3    3  502    0  0.41104451411E+03  0.42546669386E+03  0.22676263639E+03  0.63356326150E+03  0.12699999809E+01 0. -1.
       -4    1    3    3    0  502 -0.41104451411E+03 -0.42546669386E+03  0.74173909560E+03  0.94876656719E+03  0.12699999809E+01 0.  1.
</event>
<event>
 5   0  0.5059689E-04  0.1493754E+04  0.7818609E-02  0.8888617E-01
       -1   -1    0    0    0  501  0.00000000000E+00  0.00000000000E+00  0.70742766787E+03  0.70742766788E+03  0.50400001928E-02 0.  1.
        1   -1    0    0  501    0  0.00000000000E+00  0.00000000000E+00 -0.78852605371E+03  0.78852605373E+03  0.50400001928E-02 0. -1.
    10030    2    1    2    0    0  0.00000000000E+00  0.00000000000E+00 -0.81098385849E+02  0.14959537216E+04  0.14937538582E+04 0.  0.
        5    1    3    3  502    0 -0.31938992575E+03 -0.62114373011E+03 -0.30546399483E+03  0.76233837648E+03  0.46999998093E+01 0. -1.
       -5    1    3    3    0  502  0.31938992575E+03  0.62114373011E+03  0.22436560898E+03  0.73361534513E+03  0.46999998093E+01 0.  1.
</event>
<event>
 5   0  0.5059689E-04  0.1700377E+04  0.7818609E-02  0.8761149E-01
       -1   -1    0    0    0  501  0.00000000000E+00  0.00000000000E+00  0.11254590284E+04  0.11254590284E+04  0.50400001928E-02 0.  1.
        1   -1    0    0  501    0  0.00000000000E+00  0.00000000000E+00 -0.64224517855E+03  0.64224517857E+03  0.50400001928E-02 0. -1.
    10030    2    1    2    0    0  0.00000000000E+00  0.00000000000E+00  0.48321384986E+03  0.17677042070E+04  0.17003771754E+04 0.  0.
        5    1    3    3  502    0 -0.78172461455E+02  0.27008007079E+03  0.10757125490E+04  0.11118604933E+04  0.46999998093E+01 0.  1.
       -5    1    3    3    0  502  0.78172461455E+02 -0.27008007079E+03 -0.59249869915E+03  0.65584371375E+03  0.46999998093E+01 0. -1.
</event>
<event>
 5   0  0.9312096E-04  0.1682374E+04  0.7818609E-02  0.8771481E-01
        2   -1    0    0  501    0  0.00000000000E+00  0.00000000000E+00  0.81352086162E+03  0.81352086163E+03  0.25500000920E-02 0. -1.
       -2   -1    0    0    0  501  0.00000000000E+00  0.00000000000E+00 -0.86979417151E+03  0.86979417151E+03  0.25500000920E-02 0.  1.
    10030    2    1    2    0    0  0.00000000000E+00  0.00000000000E+00 -0.56273309885E+02  0.16833150331E+04  0.16823741603E+04 0.  0.
        3    1    3    3  502    0 -0.46545088546E+02 -0.68734783274E+02 -0.86568590102E+03  0.86965683181E+03  0.10100000352E+00 0.  1.
       -3    1    3    3    0  502  0.46545088546E+02  0.68734783274E+02  0.80941259113E+03  0.81365820132E+03  0.10100000352E+00 0. -1.
</event>
<event>
 5   0  0.9312096E-04  0.1818501E+04  0.7818609E-02  0.8696522E-01
       -2   -1    0    0    0  501  0.00000000000E+00  0.00000000000E+00  0.60788834122E+03  0.60788834122E+03  0.25500000920E-02 0. -1.
        2   -1    0    0  501    0  0.00000000000E+00  0.00000000000E+00 -0.13600133208E+04  0.13600133208E+04  0.25500000920E-02 0.  1.
    10030    2    1    2    0    0  0.00000000000E+00  0.00000000000E+00 -0.75212497960E+03  0.19679016620E+04  0.18185007469E+04 0.  0.
        3    1    3    3  502    0  0.88808996465E+03 -0.19460836807E+03 -0.38975205072E+03  0.98918293227E+03  0.10100000352E+00 0. -1.
       -3    1    3    3    0  502 -0.88808996465E+03  0.19460836807E+03 -0.36237292887E+03  0.97871872978E+03  0.10100000352E+00 0.  1.
</event>
<event>
 5   0  0.5059689E-04  0.1404366E+04  0.7818609E-02  0.8950664E-01
       -1   -1    0    0    0  501  0.00000000000E+00  0.00000000000E+00  0.55979157912E+03  0.55979157914E+03  0.50400001928E-02 0.  1.
        1   -1    0    0  501    0  0.00000000000E+00  0.00000000000E+00 -0.88079392239E+03  0.88079392241E+03  0.50400001928E-02 0. -1.
    10030    2    1    2    0    0  0.00000000000E+00  0.00000000000E+00 -0.32100234327E+03  0.14405855016E+04  0.14043660787E+04 0.  0.
        5    1    3    3  502    0 -0.20050641773E+03 -0.65034315035E+03 -0.33784696680E+03  0.75981030510E+03  0.46999998093E+01 0. -1.
       -5    1    3    3    0  502  0.20050641773E+03  0.65034315035E+03  0.16844623526E+02  0.68077519645E+03  0.46999998093E+01 0.  1.
</event>
<event>
 5   0  0.9625225E-04  0.1726146E+04  0.7818609E-02  0.8746591E-01
       -2   -1    0    0    0  501  0.00000000000E+00  0.00000000000E+00  0.11749782762E+04  0.11749782762E+04  0.25500000920E-02 0.  1.
        2   -1    0    0  501    0  0.00000000000E+00  0.00000000000E+00 -0.63396495763E+03  0.63396495763E+03  0.25500000920E-02 0. -1.
    10030    2    1    2    0    0  0.00000000000E+00  0.00000000000E+00  0.54101331857E+03  0.18089432338E+04  0.17261460577E+04 0.  0.
        1    1    3    3  502    0 -0.43607160501E+03 -0.66813303327E+02 -0.50687866635E+03  0.67197354458E+03  0.50400001928E-02 0. -1.
       -1    1    3    3    0  502  0.43607160501E+03  0.66813303327E+02  0.10478919849E+04  0.11369696893E+04  0.50400001928E-02 0.  1.
</event>
<event>
 5   0  0.4947006E-04  0.1736576E+04  0.7818609E-02  0.8740774E-01
       -1   -1    0    0    0  501  0.00000000000E+00  0.00000000000E+00  0.14214128073E+04  0.14214128073E+04  0.50400001928E-02 0. -1.
        1   -1    0    0  501    0  0.00000000000E+00  0.00000000000E+00 -0.53040466098E+03  0.53040466100E+03  0.50400001928E-02 0.  1.
    10030    2    1    2    0    0  0.00000000000E+00  0.00000000000E+00  0.89100814633E+03  0.19518174683E+04  0.17365759162E+04 0.  0.
        2    1    3    3  502    0  0.46194092582E+02  0.80991850113E+03  0.97584964882E+02  0.81708304232E+03  0.25500000920E-02 0.  1.
       -2    1    3    3    0  502 -0.46194092582E+02 -0.80991850113E+03  0.79342318144E+03  0.11347344260E+04  0.25500000920E-02 0. -1.
</event>
<event>
 5   0  0.9312096E-04  0.1705102E+04  0.7818609E-02  0.8758460E-01
       -2   -1    0    0    0  501  0.00000000000E+00  0.00000000000E+00  0.46843794043E+03  0.46843794043E+03  0.25500000920E-02 0. -1.
        2   -1    0    0  501    0  0.00000000000E+00  0.00000000000E+00 -0.15516309969E+04  0.15516309969E+04  0.25500000920E-02 0.  1.
    10030    2    1    2    0    0  0.00000000000E+00  0.00000000000E+00 -0.10831930565E+04  0.20200689374E+04  0.17051015553E+04 0.  0.
        3    1    3    3  502    0 -0.14710935947E+03  0.11598296986E+03 -0.15269462539E+04  0.15383946456E+04  0.10100000352E+00 0.  1.
       -3    1    3    3    0  502  0.14710935947E+03 -0.11598296986E+03  0.44375319743E+03  0.48167429179E+03  0.10100000352E+00 0. -1.
</event>
<event>
 5   0  0.9284971E-04  0.1800469E+04  0.7818609E-02  0.8706050E-01
        2   -1    0    0  501    0  0.00000000000E+00  0.00000000000E+00  0.16882443281E+04  0.16882443281E+04  0.25500000920E-02 0. -1.
       -2   -1    0    0    0  501  0.00000000000E+00  0.00000000000E+00 -0.48003861462E+03  0.48003861463E+03  0.25500000920E-02 0.  1.
    10030    2    1    2    0    0  0.00000000000E+00  0.00000000000E+00  0.12082057134E+04  0.21682829427E+04  0.18004693481E+04 0.  0.
        4    1    3    3  502    0  0.38031951452E+03 -0.81387238296E+03  0.53398821572E+03  0.10450723498E+04  0.12699999809E+01 0. -1.
       -4    1    3    3    0  502 -0.38031951452E+03  0.81387238296E+03  0.67421749771E+03  0.11232105929E+04  0.12699999809E+01 0.  1.
</event>
<event>
 5   0  0.1007187E-03  0.1614863E+04  0.7818609E-02  0.8811469E-01
        2   -1    0    0  501    0  0.00000000000E+00  0.00000000000E+00  0.10002634367E+04  0.10002634367E+04  0.25500000920E-02 0. -1.
       -2   -1    0    0    0  501  0.00000000000E+00  0.00000000000E+00 -0.65177361947E+03  0.65177361947E+03  0.25500000920E-02 0.  1.
    10030    2    1    2    0    0  0.00000000000E+00  0.00000000000E+00  0.34848981720E+03  0.16520370561E+04  0.16148626202E+04 0.  0.
        5    1    3    3  502    0  0.76257238871E+03 -0.17952634672E+03  0.37413183096E+03  0.86818377901E+03  0.46999998093E+01 0. -1.
       -5    1    3    3    0  502 -0.76257238871E+03  0.17952634672E+03 -0.25642013763E+02  0.78385327713E+03  0.46999998093E+01 0.  1.
</event>
<event>
 5   0  0.5074133E-04  0.1632745E+04  0.7818609E-02  0.8800680E-01
       -1   -1    0    0    0  501  0.00000000000E+00  0.00000000000E+00  0.49625314948E+03  0.49625314951E+03  0.50400001928E-02 0.  1.
        1   -1    0    0  501    0  0.00000000000E+00  0.00000000000E+00 -0.13429923333E+04  0.13429923333E+04  0.50400001928E-02 0. -1.
    10030    2    1    2    0    0  0.00000000000E+00  0.00000000000E+00 -0.84673918385E+03  0.18392454829E+04  0.16327451426E+04 0.  0.
        1    1    3    3  502    0  0.25825429892E+03  0.77411381527E+03 -0.44897535323E+03  0.93141094568E+03  0.50400001928E-02 0.  1.
       -1    1    3    3    0  502 -0.25825429892E+03 -0.77411381527E+03 -0.39776383062E+03  0.90783453717E+03  0.50400001928E-02 0. -1.
</event>
<event>
 5   0  0.5009762E-04  0.1728140E+04  0.7818609E-02  0.8745476E-01
        1   -1    0    0  501    0  0.00000000000E+00  0.00000000000E+00  0.11713053750E+04  0.11713053750E+04  0.50400001928E-02 0. -1.
       -1   -1    0    0    0  501  0.00000000000E+00  0.00000000000E+00 -0.63742272810E+03  0.63742272812E+03  0.50400001928E-02 0.  1.
    10030    2    1    2    0    0  0.00000000000E+00  0.00000000000E+00  0.53388264686E+03  0.18087281031E+04  0.17281396559E+04 0.  0.
        3    1    3    3  502    0  0.84507377368E+03  0.16931519580E+03  0.20242814098E+03  0.88532168218E+03  0.10100000352E+00 0.  1.
       -3    1    3    3    0  502 -0.84507377368E+03 -0.16931519580E+03  0.33145450587E+03  0.92340642089E+03  0.10100000352E+00 0. -1.
</event>
<event>
 5   0  0.5035495E-04  0.1291312E+04  0.7818609E-02  0.9036483E-01
       -1   -1    0    0    0  501  0.00000000000E+00  0.00000000000E+00  0.49174450037E+03  0.49174450039E+03  0.50400001928E-02 0.  1.
        1   -1    0    0  501    0  0.00000000000E+00  0.00000000000E+00 -0.84774025922E+03  0.84774025924E+03  0.50400001928E-02 0. -1.
    10030    2    1    2    0    0  0.00000000000E+00  0.00000000000E+00 -0.35599575885E+03  0.13394847596E+04  0.12913119069E+04 0.  0.
        4    1    3    3  502    0 -0.41865739783E+02 -0.22417822609E+03 -0.80456928207E+03  0.83626667982E+03  0.12699999809E+01 0. -1.
       -4    1    3    3    0  502  0.41865739783E+02  0.22417822609E+03  0.44857352322E+03  0.50321807981E+03  0.12699999809E+01 0.  1.
</event>
<event>
 5   0  0.5059689E-04  0.1711173E+04  0.7818609E-02  0.8755018E-01
        1   -1    0    0  501    0  0.00000000000E+00  0.00000000000E+00  0.11355333343E+04  0.11355333343E+04  0.50400001928E-02 0.  1.
       -1   -1    0    0    0  501  0.00000000000E+00  0.00000000000E+00 -0.64465582977E+03  0.64465582979E+03  0.50400001928E-02 0. -1.
    10030    2    1    2    0    0  0.00000000000E+00  0.00000000000E+00  0.49087750452E+03  0.17801891641E+04  0.17111729122E+04 0.  0.
        5    1    3    3  502    0 -0.31390971330E+03  0.79463446657E+03  0.29222886905E+03  0.90299670291E+03  0.46999998093E+01 0. -1.
       -5    1    3    3    0  502  0.31390971330E+03 -0.79463446657E+03  0.19864863547E+03  0.87719246117E+03  0.46999998093E+01 0.  1.
</event>
<event>
 5   0  0.9312096E-04  0.1729245E+04  0.7818609E-02  0.8744858E-01
       -2   -1    0    0    0  501  0.00000000000E+00  0.00000000000E+00  0.78088339121E+03  0.78088339122E+03  0.25500000920E-02 0.  1.
        2   -1    0    0  501    0  0.00000000000E+00  0.00000000000E+00 -0.95734166891E+03  0.95734166892E+03  0.25500000920E-02 0. -1.
    10030    2    1    2    0    0  0.00000000000E+00  0.00000000000E+00 -0.17645827770E+03  0.17382250601E+04  0.17292451636E+04 0.  0.
        3    1    3    3  502    0  0.32868863820E+03  0.36956945100E+03 -0.80110472646E+03  0.94148106352E+03  0.10100000352E+00 0. -1.
       -3    1    3    3    0  502 -0.32868863820E+03 -0.36956945100E+03  0.62464644876E+03  0.79674399662E+03  0.10100000352E+00 0.  1.
</event>
<event>
 5   0  0.4947006E-04  0.1735389E+04  0.7818609E-02  0.8741434E-01
        1   -1    0    0  501    0  0.00000000000E+00  0.00000000000E+00  0.10937409952E+04  0.10937409952E+04  0.50400001928E-02 0. -1.
       -1   -1    0    0    0  501  0.00000000000E+00  0.00000000000E+00 -0.68836553469E+03  0.68836553470E+03  0.50400001928E-02 0.  1.
    10030    2    1    2    0    0  0.00000000000E+00  0.00000000000E+00  0.40537546051E+03  0.17821065299E+04  0.17353888383E+04 0.  0.
        2    1    3    3  502    0 -0.16158390858E+03  0.65636969692E+03  0.76135807767E+03  0.10181339111E+04  0.25500000920E-02 0. -1.
       -2    1    3    3    0  502  0.16158390858E+03 -0.65636969692E+03 -0.35598261715E+03  0.76397261879E+03  0.25500000920E-02 0.  1.
</event>
<event>
 5   0  0.5035495E-04  0.1358023E+04  0.7818609E-02  0.8984777E-01
        1   -1    0    0  501    0  0.00000000000E+00  0.00000000000E+00  0.75593702085E+03  0.75593702087E+03  0.50400001928E-02 0.  1.
       -1   -1    0    0    0  501  0.00000000000E+00  0.00000000000E+00 -0.60991416995E+03  0.60991416997E+03  0.50400001928E-02 0. -1.
    10030    2    1    2    0    0  0.00000000000E+00  0.00000000000E+00  0.14602285090E+03  0.13658511908E+04  0.13580231230E+04 0.  0.
        4    1    3    3  502    0  0.54391407447E+03 -0.39998392133E+03  0.14571524679E+03  0.69069834499E+03  0.12699999809E+01 0.  1.
       -4    1    3    3    0  502 -0.54391407447E+03  0.39998392133E+03  0.30760411610E+00  0.67515284584E+03  0.12699999809E+01 0. -1.
</event>
<event>
 5   0  0.5009762E-04  0.1134311E+04  0.7818609E-02  0.9172380E-01
       -1   -1    0    0    0  501  0.00000000000E+00  0.00000000000E+00  0.49316872684E+03  0.49316872686E+03  0.50400001928E-02 0. -1.
        1   -1    0    0  501    0  0.00000000000E+00  0.00000000000E+00 -0.65224235362E+03  0.65224235364E+03  0.50400001928E-02 0.  1.
    10030    2    1    2    0    0  0.00000000000E+00  0.00000000000E+00 -0.15907362678E+03  0.11454110805E+04  0.11343112997E+04 0.  0.
        3    1    3    3  502    0  0.77931483476E+02 -0.25344804232E+02 -0.64623238858E+03  0.65140769528E+03  0.10100000352E+00 0.  1.
       -3    1    3    3    0  502 -0.77931483476E+02  0.25344804232E+02  0.48715876180E+03  0.49400338523E+03  0.10100000352E+00 0. -1.
</event>
<event>
 5   0  0.5035495E-04  0.1671981E+04  0.7818609E-02  0.8777508E-01
        1   -1    0    0  501    0  0.00000000000E+00  0.00000000000E+00  0.14231335383E+04  0.14231335383E+04  0.50400001928E-02 0. -1.
       -1   -1    0    0    0  501  0.00000000000E+00  0.00000000000E+00 -0.49108550273E+03  0.49108550275E+03  0.50400001928E-02 0.  1.
    10030    2    1    2    0    0  0.00000000000E+00  0.00000000000E+00  0.93204803559E+03  0.19142190411E+04  0.16719811592E+04 0.  0.
        4    1    3    3  502    0 -0.54062623539E+03  0.32916581081E+03  0.10912712443E+04  0.12615472242E+04  0.12699999809E+01 0. -1.
       -4    1    3    3    0  502  0.54062623539E+03 -0.32916581081E+03 -0.15922320874E+03  0.65267181684E+03  0.12699999809E+01 0.  1.
</event>
<event>
 5   0  0.9610114E-04  0.1704918E+04  0.7818609E-02  0.8758564E-01
        2   -1    0    0  501    0  0.00000000000E+00  0.00000000000E+00  0.63949589006E+03  0.63949589007E+03  0.25500000920E-02 0.  1.
       -2   -1    0    0    0  501  0.00000000000E+00  0.00000000000E+00 -0.11363430065E+04  0.11363430065E+04  0.25500000920E-02 0. -1.
    10030    2    1    2    0    0  0.00000000000E+00  0.00000000000E+00 -0.49684711642E+03  0.17758388966E+04  0.17049183938E+04 0.  0.
        2    1    3    3  502    0 -0.50707836586E+02  0.68355692947E+03  0.27947771086E+03  0.74022236618E+03  0.25500000920E-02 0.  1.
       -2    1    3    3    0  502  0.50707836586E+02 -0.68355692947E+03 -0.77632482728E+03  0.10356165304E+04  0.25500000920E-02 0. -1.
</event>
<event>
 5   0  0.1007187E-03  0.1699470E+04  0.7818609E-02  0.8761667E-01
       -2   -1    0    0    0  501  0.00000000000E+00  0.00000000000E+00  0.79816219250E+03  0.79816219250E+03  0.25500000920E-02 0. -1.
        2   -1    0    0  501    0  0.00000000000E+00  0.00000000000E+00 -0.90464046111E+03  0.90464046111E+03  0.25500000920E-02 0.  1.
    10030    2    1    2    0    0  0.00000000000E+00  0.00000000000E+00 -0.10647826861E+03  0.17028026536E+04  0.16994702867E+04 0.  0.
        5    1    3    3  502    0 -0.23967480783E+03  0.32435365826E+03 -0.80262171606E+03  0.89826110804E+03  0.46999998093E+01 0.  1.
       -5    1    3    3    0  502  0.23967480783E+03 -0.32435365826E+03  0.69614344744E+03  0.80454154557E+03  0.46999998093E+01 0. -1.
</event>
<event>
 5   0  0.9312096E-04  0.1657409E+04  0.7818609E-02  0.8786035E-01
       -2   -1    0    0    0  501  0.00000000000E+00  0.00000000000E+00  0.13390097790E+04  0.13390097790E+04  0.25500000920E-02 0.  1.
        2   -1    0    0  501    0  0.00000000000E+00  0.00000000000E+00 -0.51287992860E+03  0.51287992860E+03  0.25500000920E-02 0. -1.
    10030    2    1    2    0    0  0.00000000000E+00  0.00000000000E+00  0.82612985041E+03  0.18518897076E+04  0.16574091105E+04 0.  0.
        3    1    3    3  502    0  0.63521639831E+03 -0.94646198578E+02  0.99824983437E+03  0.11869964270E+04  0.10100000352E+00 0. -1.
       -3    1    3    3    0  502 -0.63521639831E+03  0.94646198578E+02 -0.17211998396E+03  0.66489328066E+03  0.10100000352E+00 0.  1.
</event>
<event>
 5   0  0.1007187E-03  0.1722056E+04  0.7818609E-02  0.8748884E-01
        2   -1    0    0  501    0  0.00000000000E+00  0.00000000000E+00  0.19926347551E+04  0.19926347551E+04  0.25500000920E-02 0. -1.
       -2   -1    0    0    0  501  0.00000000000E+00  0.00000000000E+00 -0.37205482499E+03  0.37205482500E+03  0.25500000920E-02 0.  1.
    10030    2    1    2    0    0  0.00000000000E+00  0.00000000000E+00  0.16205799301E+04  0.23646895801E+04  0.17220561838E+04 0.  0.
        5    1    3    3  502    0  0.20190155634E+03  0.60061750117E+03  0.16107969610E+04  0.17309519233E+04  0.46999998093E+01 0. -1.
       -5    1    3    3    0  502 -0.20190155634E+03 -0.60061750117E+03  0.97829691103E+01  0.63373765680E+03  0.46999998093E+01 0.  1.
</event>
<event>
 5   0  0.5035495E-04  0.1478007E+04  0.7818609E-02  0.8899211E-01
       -1   -1    0    0    0  501  0.00000000000E+00  0.00000000000E+00  0.99303530165E+03  0.99303530167E+03  0.50400001928E-02 0. -1.
        1   -1    0    0  501    0  0.00000000000E+00  0.00000000000E+00 -0.54995643508E+03  0.54995643510E+03  0.50400001928E-02 0.  1.
    10030    2    1    2    0    0  0.00000000000E+00  0.00000000000E+00  0.44307886658E+03  0.15429917368E+04  0.14780069749E+04 0.  0.
        4    1    3    3  502    0 -0.30508502316E+03  0.29963230523E+03 -0.40767804655E+03  0.59081248483E+03  0.12699999809E+01 0.  1.
       -4    1    3    3    0  502  0.30508502316E+03 -0.29963230523E+03  0.85075691313E+03  0.95217925194E+03  0.12699999809E+01 0. -1.
</event>
<event>
 5   0  0.5059689E-04  0.1697365E+04  0.7818609E-02  0.8762868E-01
       -1   -1    0    0    0  501  0.00000000000E+00  0.00000000000E+00  0.26736965996E+03  0.26736966001E+03  0.50400001928E-02 0.  1.
        1   -1    0    0  501    0  0.00000000000E+00  0.00000000000E+00 -0.26938814774E+04  0.26938814774E+04  0.50400001928E-02 0. -1.
    10030    2    1    2    0    0  0.00000000000E+00  0.00000000000E+00 -0.24265118174E+04  0.29612511374E+04  0.16973652225E+04 0.  0.
        5    1    3    3  502    0 -0.49800475419E+01  0.64332681445E+03 -0.21788752866E+04  0.22718745114E+04  0.46999998093E+01 0. -1.
       -5    1    3    3    0  502  0.49800475419E+01 -0.64332681445E+03 -0.24763653083E+03  0.68937662599E+03  0.46999998093E+01 0.  1.
</event>
<event>
 5   0  0.5009762E-04  0.1703310E+04  0.7818609E-02  0.8759479E-01
        1   -1    0    0  501    0  0.00000000000E+00  0.00000000000E+00  0.11052719717E+04  0.11052719717E+04  0.50400001928E-02 0. -1.
       -1   -1    0    0    0  501  0.00000000000E+00  0.00000000000E+00 -0.65623293513E+03  0.65623293515E+03  0.50400001928E-02 0.  1.
    10030    2    1    2    0    0  0.00000000000E+00  0.00000000000E+00  0.44903903659E+03  0.17615049069E+04  0.17033095669E+04 0.  0.
        3    1    3    3  502    0 -0.39327382078E+03  0.19926622531E+03 -0.52903529530E+03  0.68865788352E+03  0.10100000352E+00 0.  1.
       -3    1    3    3    0  502  0.39327382078E+03 -0.19926622531E+03  0.97807433189E+03  0.10728470234E+04  0.10100000352E+00 0. -1.
</event>
<event>
 5   0  0.5059689E-04  0.9355814E+03  0.7818609E-02  0.9382164E-01
        1   -1    0    0  501    0  0.00000000000E+00  0.00000000000E+00  0.47824896474E+03  0.47824896477E+03  0.50400001928E-02 0. -1.
       -1   -1    0    0    0  501  0.00000000000E+00  0.00000000000E+00 -0.45756110055E+03  0.45756110058E+03  0.50400001928E-02 0.  1.
    10030    2    1    2    0    0  0.00000000000E+00  0.00000000000E+00  0.20687864190E+02  0.93581006535E+03  0.93558136508E+03 0.  0.
        5    1    3    3  502    0 -0.15594980873E+03  0.17227400667E+03  0.41640789221E+03  0.47688185005E+03  0.46999998093E+01 0. -1.
       -5    1    3    3    0  502  0.15594980873E+03 -0.17227400667E+03 -0.39572002802E+03  0.45892821529E+03  0.46999998093E+01 0.  1.
</event>
<event>
 5   0  0.9610114E-04  0.1683355E+04  0.7818609E-02  0.8770915E-01
       -2   -1    0    0    0  501  0.00000000000E+00  0.00000000000E+00  0.86069723157E+03  0.86069723158E+03  0.25500000920E-02 0.  1.
        2   -1    0    0  501    0  0.00000000000E+00  0.00000000000E+00 -0.82307800881E+03  0.82307800881E+03  0.25500000920E-02 0. -1.
    10030    2    1    2    0    0  0.00000000000E+00  0.00000000000E+00  0.37619222765E+02  0.16837752404E+04  0.16833549401E+04 0.  0.
        2    1    3    3  502    0  0.48281355572E+03 -0.84682618524E+02  0.70318866443E+03  0.85717814558E+03  0.25500000920E-02 0.  1.
       -2    1    3    3    0  502 -0.48281355572E+03  0.84682618524E+02 -0.66556944166E+03  0.82659709481E+03  0.25500000920E-02 0. -1.
</event>
<event>
 5   0  0.9312096E-04  0.1681766E+04  0.7818609E-02  0.8771833E-01
       -2   -1    0    0    0  501  0.00000000000E+00  0.00000000000E+00  0.38288143631E+03  0.38288143632E+03  0.25500000920E-02 0. -1.
        2   -1    0    0  501    0  0.00000000000E+00  0.00000000000E+00 -0.18467437342E+04  0.18467437342E+04  0.25500000920E-02 0.  1.
    10030    2    1    2    0    0  0.00000000000E+00  0.00000000000E+00 -0.14638622979E+04  0.22296251705E+04  0.16817656120E+04 0.  0.
        3    1    3    3  502    0 -0.33774189927E+03 -0.68731773848E+03 -0.11923526147E+04  0.14171026894E+04  0.10100000352E+00 0.  1.
       -3    1    3    3    0  502  0.33774189927E+03  0.68731773848E+03 -0.27150968317E+03  0.81252248117E+03  0.10100000352E+00 0. -1.
</event>
<event>
 5   0  0.9312096E-04  0.1121482E+04  0.7818609E-02  0.9184503E-01
        2   -1    0    0  501    0  0.00000000000E+00  0.00000000000E+00  0.80218676845E+03  0.80218676846E+03  0.25500000920E-02 0.  1.
       -2   -1    0    0    0  501  0.00000000000E+00  0.00000000000E+00 -0.39196680094E+03  0.39196680095E+03  0.25500000920E-02 0. -1.
    10030    2    1    2    0    0  0.00000000000E+00  0.00000000000E+00  0.41021996751E+03  0.11941535694E+04  0.11214822003E+04 0.  0.
        3    1    3    3  502    0 -0.39094715247E+03 -0.26856852061E+01 -0.22291246420E+03  0.45004096017E+03  0.10100000352E+00 0. -1.
       -3    1    3    3    0  502  0.39094715247E+03  0.26856852061E+01  0.63313243171E+03  0.74411260923E+03  0.10100000352E+00 0.  1.
</event>
<event>
 5   0  0.4947006E-04  0.1729557E+04  0.7818609E-02  0.8744684E-01
        1   -1    0    0  501    0  0.00000000000E+00  0.00000000000E+00  0.14672478917E+04  0.14672478917E+04  0.50400001928E-02 0.  1.
       -1   -1    0    0    0  501  0.00000000000E+00  0.00000000000E+00 -0.50968995849E+03  0.50968995851E+03  0.50400001928E-02 0. -1.
    10030    2    1    2    0    0  0.00000000000E+00  0.00000000000E+00  0.95755793318E+03  0.19769378502E+04  0.17295566103E+04 0.  0.
        2    1    3    3  502    0  0.28057743932E+02 -0.48297552027E+03 -0.34053546557E+03  0.59162234026E+03  0.25500000920E-02 0. -1.
       -2    1    3    3    0  502 -0.28057743932E+02  0.48297552027E+03  0.12980933988E+04  0.13853155099E+04  0.25500000920E-02 0.  1.
</event>
<event>
 5   0  0.9284971E-04  0.1709573E+04  0.7818609E-02  0.8755923E-01
        2   -1    0    0  501    0  0.00000000000E+00  0.00000000000E+00  0.13905188445E+04  0.13905188445E+04  0.25500000920E-02 0.  1.
       -2   -1    0    0    0  501  0.00000000000E+00  0.00000000000E+00 -0.52545859512E+03  0.52545859513E+03  0.25500000920E-02 0. -1.
    10030    2    1    2    0    0  0.00000000000E+00  0.00000000000E+00  0.86506024934E+03  0.19159774396E+04  0.17095731380E+04 0.  0.
        4    1    3    3  502    0  0.49740922292E+03  0.85296894000E+02 -0.34066857285E+03  0.60889094639E+03  0.12699999809E+01 0. -1.
       -4    1    3    3    0  502 -0.49740922292E+03 -0.85296894000E+02  0.12057288222E+04  0.13070864932E+04  0.12699999809E+01 0.  1.
</event>
<event>
 5   0  0.9312096E-04  0.1689724E+04  0.7818609E-02  0.8767247E-01
       -2   -1    0    0    0  501  0.00000000000E+00  0.00000000000E+00  0.56495334302E+03  0.56495334302E+03  0.25500000920E-02 0. -1.
        2   -1    0    0  501    0  0.00000000000E+00  0.00000000000E+00 -0.12634523087E+04  0.12634523087E+04  0.25500000920E-02 0.  1.
    10030    2    1    2    0    0  0.00000000000E+00  0.00000000000E+00 -0.69849896572E+03  0.18284056518E+04  0.16897237710E+04 0.  0.
        3    1    3    3  502    0 -0.42471886078E+03  0.21696392735E+03  0.40536185583E+03  0.62592148137E+03  0.10100000352E+00 0. -1.
       -3    1    3    3    0  502  0.42471886078E+03 -0.21696392735E+03 -0.11038608216E+04  0.12024841704E+04  0.10100000352E+00 0.  1.
</event>
<event>
 5   0  0.9312096E-04  0.1259424E+04  0.7818609E-02  0.9062376E-01
        2   -1    0    0  501    0  0.00000000000E+00  0.00000000000E+00  0.76234974493E+03  0.76234974494E+03  0.25500000920E-02 0. -1.
       -2   -1    0    0    0  501  0.00000000000E+00  0.00000000000E+00 -0.52015101726E+03  0.52015101727E+03  0.25500000920E-02 0.  1.
    10030    2    1    2    0    0  0.00000000000E+00  0.00000000000E+00  0.24219872767E+03  0.12825007622E+04  0.12594236703E+04 0.  0.
        3    1    3    3  502    0  0.18340352225E+03 -0.12829902085E+03 -0.47827681481E+03  0.52805891008E+03  0.10100000352E+00 0.  1.
       -3    1    3    3    0  502 -0.18340352225E+03  0.12829902085E+03  0.72047554248E+03  0.75444185213E+03  0.10100000352E+00 0. -1.
</event>
<event>
 5   0  0.9312096E-04  0.1698562E+04  0.7818609E-02  0.8762185E-01
       -2   -1    0    0    0  501  0.00000000000E+00  0.00000000000E+00  0.10718468095E+04  0.10718468095E+04  0.25500000920E-02 0. -1.
        2   -1    0    0  501    0  0.00000000000E+00  0.00000000000E+00 -0.67293071531E+03  0.67293071531E+03  0.25500000920E-02 0.  1.
    10030    2    1    2    0    0  0.00000000000E+00  0.00000000000E+00  0.39891609417E+03  0.17447775248E+04  0.16985624984E+04 0.  0.
        3    1    3    3  502    0  0.82406052438E+02 -0.16340668119E+03  0.10513514076E+04  0.10671608564E+04  0.10100000352E+00 0. -1.
       -3    1    3    3    0  502 -0.82406052438E+02  0.16340668119E+03 -0.65243531341E+03  0.67761666842E+03  0.10100000352E+00 0.  1.
</event>
<event>
 5   0  0.1007187E-03  0.1663731E+04  0.7818609E-02  0.8782325E-01
       -2   -1    0    0    0  501  0.00000000000E+00  0.00000000000E+00  0.10972689452E+04  0.10972689452E+04  0.25500000920E-02 0. -1.
        2   -1    0    0  501    0  0.00000000000E+00  0.00000000000E+00 -0.63065675480E+03  0.63065675480E+03  0.25500000920E-02 0.  1.
    10030    2    1    2    0    0  0.00000000000E+00  0.00000000000E+00  0.46661219042E+03  0.17279257000E+04  0.16637308342E+04 0.  0.
        5    1    3    3  502    0 -0.10188983739E+03 -0.65291484539E+03 -0.29146058976E+03  0.72225390250E+03  0.46999998093E+01 0.  1.
       -5    1    3    3    0  502  0.10188983739E+03  0.65291484539E+03  0.75807278018E+03  0.10056717975E+04  0.46999998093E+01 0. -1.
</event>
<event>
 5   0  0.5009762E-04  0.9101571E+03  0.7818609E-02  0.9412973E-01
        1   -1    0    0  501    0  0.00000000000E+00  0.00000000000E+00  0.17381509672E+03  0.17381509679E+03  0.50400001928E-02 0.  1.
       -1   -1    0    0    0  501  0.00000000000E+00  0.00000000000E+00 -0.11914758822E+04  0.11914758822E+04  0.50400001928E-02 0. -1.
    10030    2    1    2    0    0  0.00000000000E+00  0.00000000000E+00 -0.10176607855E+04  0.13652909790E+04  0.91015711997E+03 0.  0.
        3    1    3    3  502    0  0.39217583982E+03 -0.21416624579E+03 -0.37955147545E+03  0.58628355162E+03  0.10100000352E+00 0. -1.
       -3    1    3    3    0  502 -0.39217583982E+03  0.21416624579E+03 -0.63810931001E+03  0.77900742737E+03  0.10100000352E+00 0.  1.
</event>
<event>
 5   0  0.4947006E-04  0.1550905E+04  0.7818609E-02  0.8851290E-01
        1   -1    0    0  501    0  0.00000000000E+00  0.00000000000E+00  0.93413887967E+03  0.93413887968E+03  0.50400001928E-02 0. -1.
       -1   -1    0    0    0  501  0.00000000000E+00  0.00000000000E+00 -0.64372252154E+03  0.64372252156E+03  0.50400001928E-02 0.  1.
    10030    2    1    2    0    0  0.00000000000E+00  0.00000000000E+00  0.29041635813E+03  0.15778614012E+04  0.15509045556E+04 0.  0.
        2    1    3    3  502    0 -0.57363894976E+03 -0.48251294679E+03 -0.56853715834E+02  0.75173980439E+03  0.25500000920E-02 0. -1.
       -2    1    3    3    0  502  0.57363894976E+03  0.48251294679E+03  0.34727007397E+03  0.82612159685E+03  0.25500000920E-02 0.  1.
</event>
<event>
 5   0  0.5035495E-04  0.1687355E+04  0.7818609E-02  0.8768609E-01
       -1   -1    0    0    0  501  0.00000000000E+00  0.00000000000E+00  0.84623206087E+03  0.84623206088E+03  0.50400001928E-02 0.  1.
        1   -1    0    0  501    0  0.00000000000E+00  0.00000000000E+00 -0.84113038668E+03  0.84113038670E+03  0.50400001928E-02 0. -1.
    10030    2    1    2    0    0  0.00000000000E+00  0.00000000000E+00  0.51016741859E+01  0.16873624476E+04  0.16873547352E+04 0.  0.
        4    1    3    3  502    0 -0.19004850918E+03  0.58786515042E+03 -0.57198291669E+03  0.84194414352E+03  0.12699999809E+01 0. -1.
       -4    1    3    3    0  502  0.19004850918E+03 -0.58786515042E+03  0.57708459088E+03  0.84541830406E+03  0.12699999809E+01 0.  1.
</event>
<event>
 5   0  0.9312096E-04  0.1698918E+04  0.7818609E-02  0.8761982E-01
        2   -1    0    0  501    0  0.00000000000E+00  0.00000000000E+00  0.11463274410E+04  0.11463274410E+04  0.25500000920E-02 0. -1.
       -2   -1    0    0    0  501  0.00000000000E+00  0.00000000000E+00 -0.62947153865E+03  0.62947153865E+03  0.25500000920E-02 0.  1.
    10030    2    1    2    0    0  0.00000000000E+00  0.00000000000E+00  0.51685590234E+03  0.17757989796E+04  0.16989178886E+04 0.  0.
        3    1    3    3  502    0 -0.22596195514E+03  0.78867091140E+03  0.48866820481E+03  0.95491216154E+03  0.10100000352E+00 0. -1.
       -3    1    3    3    0  502  0.22596195514E+03 -0.78867091140E+03  0.28187697532E+02  0.82088681811E+03  0.10100000352E+00 0.  1.
</event>
<event>
 5   0  0.9312096E-04  0.1745610E+04  0.7818609E-02  0.8735770E-01
        2   -1    0    0  501    0  0.00000000000E+00  0.00000000000E+00  0.22960431367E+04  0.22960431367E+04  0.25500000920E-02 0.  1.
       -2   -1    0    0    0  501  0.00000000000E+00  0.00000000000E+00 -0.33178328764E+03  0.33178328765E+03  0.25500000920E-02 0. -1.
    10030    2    1    2    0    0  0.00000000000E+00  0.00000000000E+00  0.19642598490E+04  0.26278264243E+04  0.17456101976E+04 0.  0.
        3    1    3    3  502    0  0.24751862380E+03  0.41201922963E+03  0.20788603584E+04  0.21337023492E+04  0.10100000352E+00 0.  1.
       -3    1    3    3    0  502 -0.24751862380E+03 -0.41201922963E+03 -0.11460050939E+03  0.49412407518E+03  0.10100000352E+00 0. -1.
</event>
<event>
 5   0  0.9625225E-04  0.1774513E+04  0.7818609E-02  0.8719972E-01
       -2   -1    0    0    0  501  0.00000000000E+00  0.00000000000E+00  0.36530331992E+03  0.36530331992E+03  0.25500000920E-02 0. -1.
        2   -1    0    0  501    0  0.00000000000E+00  0.00000000000E+00 -0.21549863340E+04  0.21549863340E+04  0.25500000920E-02 0.  1.
    10030    2    1    2    0    0  0.00000000000E+00  0.00000000000E+00 -0.17896830141E+04  0.25202896539E+04  0.17745125102E+04 0.  0.
        1    1    3    3  502    0 -0.71171511357E+03  0.49671856613E+03 -0.11565568455E+04  0.14459915193E+04  0.50400001928E-02 0. -1.
       -1    1    3    3    0  502  0.71171511357E+03 -0.49671856613E+03 -0.63312616859E+03  0.10742981347E+04  0.50400001928E-02 0.  1.
</event>
<event>
 5   0  0.5074133E-04  0.1683310E+04  0.7818609E-02  0.8770941E-01
        1   -1    0    0  501    0  0.00000000000E+00  0.00000000000E+00  0.19972326778E+04  0.19972326778E+04  0.50400001928E-02 0.  1.
       -1   -1    0    0    0  501  0.00000000000E+00  0.00000000000E+00 -0.35468212197E+03  0.35468212201E+03  0.50400001928E-02 0. -1.
    10030    2    1    2    0    0  0.00000000000E+00  0.00000000000E+00  0.16425505558E+04  0.23519147998E+04  0.16833095072E+04 0.  0.
        1    1    3    3  502    0  0.13405211453E+03 -0.60031566049E+03  0.16239449608E+04  0.17365327803E+04  0.50400001928E-02 0.  1.
       -1    1    3    3    0  502 -0.13405211453E+03  0.60031566049E+03  0.18605595033E+02  0.61538201943E+03  0.50400001928E-02 0. -1.
</event>
<event>
 5   0  0.9610114E-04  0.1703398E+04  0.7818609E-02  0.8759429E-01
       -2   -1    0    0    0  501  0.00000000000E+00  0.00000000000E+00  0.60945843050E+03  0.60945843050E+03  0.25500000920E-02 0. -1.
        2   -1    0    0  501    0  0.00000000000E+00  0.00000000000E+00 -0.11902225774E+04  0.11902225774E+04  0.25500000920E-02 0.  1.
    10030    2    1    2    0    0  0.00000000000E+00  0.00000000000E+00 -0.58076414691E+03  0.17996810079E+04  0.17033979969E+04 0.  0.
        2    1    3    3  502    0 -0.24595521130E+03  0.18582568872E+03 -0.11292156433E+04  0.11705353996E+04  0.25500000920E-02 0.  1.
       -2    1    3    3    0  502  0.24595521130E+03 -0.18582568872E+03  0.54845149641E+03  0.62914560833E+03  0.25500000920E-02 0. -1.
</event>
<event>
 5   0  0.9312096E-04  0.1838515E+04  0.7818609E-02  0.8686082E-01
       -2   -1    0    0    0  501  0.00000000000E+00  0.00000000000E+00  0.56857938117E+03  0.56857938118E+03  0.25500000920E-02 0. -1.
        2   -1    0    0  501    0  0.00000000000E+00  0.00000000000E+00 -0.14862197896E+04  0.14862197896E+04  0.25500000920E-02 0.  1.
    10030    2    1    2    0    0  0.00000000000E+00  0.00000000000E+00 -0.91764040842E+03  0.20547991708E+04  0.18385145398E+04 0.  0.
        3    1    3    3  502    0 -0.28537978869E+02  0.37359584503E+03  0.47936309882E+03  0.60842194436E+03  0.10100000352E+00 0. -1.
       -3    1    3    3    0  502  0.28537978869E+02 -0.37359584503E+03 -0.13970035072E+04  0.14463772264E+04  0.10100000352E+00 0.  1.
</event>
<event>
 5   0  0.5074133E-04  0.1779184E+04  0.7818609E-02  0.8717448E-01
       -1   -1    0    0    0  501  0.00000000000E+00  0.00000000000E+00  0.13530942834E+04  0.13530942834E+04  0.50400001928E-02 0.  1.
        1   -1    0    0  501    0  0.00000000000E+00  0.00000000000E+00 -0.58486227002E+03  0.58486227004E+03  0.50400001928E-02 0. -1.
    10030    2    1    2    0    0  0.00000000000E+00  0.00000000000E+00  0.76823201341E+03  0.19379565535E+04  0.17791838513E+04 0.  0.
        1    1    3    3  502    0  0.82846356052E+02  0.81452913034E+03  0.76309070664E+03  0.11192089392E+04  0.50400001928E-02 0. -1.
       -1    1    3    3    0  502 -0.82846356052E+02 -0.81452913034E+03  0.51413067650E+01  0.81874761432E+03  0.50400001928E-02 0.  1.
</event>
<event>
 5   0  0.9284971E-04  0.1704866E+04  0.7818609E-02  0.8758594E-01
       -2   -1    0    0    0  501  0.00000000000E+00  0.00000000000E+00  0.62214944528E+03  0.62214944529E+03  0.25500000920E-02 0. -1.
        2   -1    0    0  501    0  0.00000000000E+00  0.00000000000E+00 -0.11679545461E+04  0.11679545461E+04  0.25500000920E-02 0.  1.
    10030    2    1    2    0    0  0.00000000000E+00  0.00000000000E+00 -0.54580510083E+03  0.17901039914E+04  0.17048662974E+04 0.  0.
        4    1    3    3  502    0  0.42210647031E+03 -0.70749555248E+03 -0.50274591982E+03  0.96513154639E+03  0.12699999809E+01 0.  1.
       -4    1    3    3    0  502 -0.42210647031E+03  0.70749555248E+03 -0.43059181013E+02  0.82497244501E+03  0.12699999809E+01 0. -1.
</event>
<event>
 5   0  0.3523125E-04  0.1697778E+04  0.7818609E-02  0.8762632E-01
        3   -1    0    0  501    0  0.00000000000E+00  0.00000000000E+00  0.54762715427E+03  0.54762716358E+03  0.10100000352E+00 0.  1.
       -3   -1    0    0    0  501  0.00000000000E+00  0.00000000000E+00 -0.13158821001E+04  0.13158821040E+04  0.10100000352E+00 0. -1.
    10030    2    1    2    0    0  0.00000000000E+00  0.00000000000E+00 -0.76825494582E+03  0.18635092675E+04  0.16977782919E+04 0.  0.
        2    1    3    3  502    0 -0.35954724076E+03  0.71044090291E+01 -0.12281424372E+04  0.12797103332E+04  0.25500000920E-02 0. -1.
       -2    1    3    3    0  502  0.35954724076E+03 -0.71044090291E+01  0.45988749138E+03  0.58379893431E+03  0.25500000920E-02 0.  1.
</event>
<event>
 5   0  0.1007187E-03  0.1727097E+04  0.7818609E-02  0.8746059E-01
        2   -1    0    0  501    0  0.00000000000E+00  0.00000000000E+00  0.10841662362E+04  0.10841662362E+04  0.25500000920E-02 0. -1.
       -2   -1    0    0    0  501  0.00000000000E+00  0.00000000000E+00 -0.68782426713E+03  0.68782426713E+03  0.25500000920E-02 0.  1.
    10030    2    1    2    0    0  0.00000000000E+00  0.00000000000E+00  0.39634196909E+03  0.17719905034E+04  0.17270968090E+04 0.  0.
        5    1    3    3  502    0 -0.51697504364E+03  0.60203677155E+03  0.54758517774E+03  0.96414889251E+03  0.46999998093E+01 0. -1.
       -5    1    3    3    0  502  0.51697504364E+03 -0.60203677155E+03 -0.15124320865E+03  0.80784161084E+03  0.46999998093E+01 0.  1.
</event>
<event>
 5   0  0.9284971E-04  0.1685706E+04  0.7818609E-02  0.8769559E-01
       -2   -1    0    0    0  501  0.00000000000E+00  0.00000000000E+00  0.85053763145E+03  0.85053763145E+03  0.25500000920E-02 0. -1.
        2   -1    0    0  501    0  0.00000000000E+00  0.00000000000E+00 -0.83523734092E+03  0.83523734092E+03  0.25500000920E-02 0.  1.
    10030    2    1    2    0    0  0.00000000000E+00  0.00000000000E+00  0.15300290530E+02  0.16857749724E+04  0.16857055373E+04 0.  0.
        4    1    3    3  502    0 -0.38567183364E+03  0.39625762341E+03 -0.62848635298E+03  0.83711383704E+03  0.12699999809E+01 0.  1.
       -4    1    3    3    0  502  0.38567183364E+03 -0.39625762341E+03  0.64378664351E+03  0.84866113534E+03  0.12699999809E+01 0. -1.
</event>
<event>
 5   0  0.9312096E-04  0.1685211E+04  0.7818609E-02  0.8769844E-01
        2   -1    0    0  501    0  0.00000000000E+00  0.00000000000E+00  0.46612920942E+03  0.46612920942E+03  0.25500000920E-02 0. -1.
       -2   -1    0    0    0  501  0.00000000000E+00  0.00000000000E+00 -0.15231481224E+04  0.15231481224E+04  0.25500000920E-02 0.  1.
    10030    2    1    2    0    0  0.00000000000E+00  0.00000000000E+00 -0.10570189129E+04  0.19892773318E+04  0.16852107644E+04 0.  0.
        3    1    3    3  502    0 -0.20866677756E+03 -0.70465169451E+03 -0.41936458578E+02  0.73609409140E+03  0.10100000352E+00 0. -1.
       -3    1    3    3    0  502  0.20866677756E+03  0.70465169451E+03 -0.10150824544E+04  0.12531832404E+04  0.10100000352E+00 0.  1.
</event>
<event>
 5   0  0.9312096E-04  0.1714486E+04  0.7818609E-02  0.8753145E-01
        2   -1    0    0  501    0  0.00000000000E+00  0.00000000000E+00  0.10290948852E+04  0.10290948852E+04  0.25500000920E-02 0. -1.
       -2   -1    0    0    0  501  0.00000000000E+00  0.00000000000E+00 -0.71408959736E+03  0.71408959737E+03  0.25500000920E-02 0.  1.
    10030    2    1    2    0    0  0.00000000000E+00  0.00000000000E+00  0.31500528785E+03  0.17431844826E+04  0.17144864563E+04 0.  0.
        3    1    3    3  502    0 -0.10300600369E+03 -0.79971357375E+02  0.10189510202E+04  0.10272618198E+04  0.10100000352E+00 0. -1.
       -3    1    3    3    0  502  0.10300600369E+03  0.79971357375E+02 -0.70394573231E+03  0.71592266275E+03  0.10100000352E+00 0.  1.
</event>
<event>
 5   0  0.9284971E-04  0.1713263E+04  0.7818609E-02  0.8753836E-01
        2   -1    0    0  501    0  0.00000000000E+00  0.00000000000E+00  0.78042417362E+03  0.78042417362E+03  0.25500000920E-02 0.  1.
       -2   -1    0    0    0  501  0.00000000000E+00  0.00000000000E+00 -0.94028028286E+03  0.94028028287E+03  0.25500000920E-02 0. -1.
    10030    2    1    2    0    0  0.00000000000E+00  0.00000000000E+00 -0.15985610925E+03  0.17207044565E+04  0.17132629252E+04 0.  0.
        4    1    3    3  502    0 -0.98872963625E+02  0.40299444975E+03  0.67275047313E+03  0.79042722718E+03  0.12699999809E+01 0.  1.
       -4    1    3    3    0  502  0.98872963625E+02 -0.40299444975E+03 -0.83260658237E+03  0.93027722931E+03  0.12699999809E+01 0. -1.
</event>
<event>
 5   0  0.9312096E-04  0.1790957E+04  0.7818609E-02  0.8711123E-01
        2   -1    0    0  501    0  0.00000000000E+00  0.00000000000E+00  0.57474202287E+03  0.57474202288E+03  0.25500000920E-02 0. -1.
       -2   -1    0    0    0  501  0.00000000000E+00  0.00000000000E+00 -0.13952024325E+04  0.13952024325E+04  0.25500000920E-02 0.  1.
    10030    2    1    2    0    0  0.00000000000E+00  0.00000000000E+00 -0.82046040963E+03  0.19699444554E+04  0.17909566923E+04 0.  0.
        3    1    3    3  502    0 -0.17728622076E+03  0.23277318460E+03 -0.13411378135E+04  0.13726851075E+04  0.10100000352E+00 0.  1.
       -3    1    3    3    0  502  0.17728622076E+03 -0.23277318460E+03  0.52067740383E+03  0.59725934786E+03  0.10100000352E+00 0. -1.
</event>
<event>
 5   0  0.5059689E-04  0.1705518E+04  0.7818609E-02  0.8758223E-01
        1   -1    0    0  501    0  0.00000000000E+00  0.00000000000E+00  0.17527405887E+04  0.17527405887E+04  0.50400001928E-02 0. -1.
       -1   -1    0    0    0  501  0.00000000000E+00  0.00000000000E+00 -0.41489209235E+03  0.41489209238E+03  0.50400001928E-02 0.  1.
    10030    2    1    2    0    0  0.00000000000E+00  0.00000000000E+00  0.13378484963E+04  0.21676326811E+04  0.17055183496E+04 0.  0.
        5    1    3    3  502    0 -0.39155846112E+03  0.67405418964E+03  0.11082935145E+04  0.13549921340E+04  0.46999998093E+01 0. -1.
       -5    1    3    3    0  502  0.39155846112E+03 -0.67405418964E+03  0.22955498189E+03  0.81264054708E+03  0.46999998093E+01 0.  1.
</event>
<event>
 5   0  0.9625225E-04  0.1769239E+04  0.7818609E-02  0.8722831E-01
       -2   -1    0    0    0  501  0.00000000000E+00  0.00000000000E+00  0.10750086548E+04  0.10750086548E+04  0.25500000920E-02 0. -1.
        2   -1    0    0  501    0  0.00000000000E+00  0.00000000000E+00 -0.72794943506E+03  0.72794943507E+03  0.25500000920E-02 0.  1.
    10030    2    1    2    0    0  0.00000000000E+00  0.00000000000E+00  0.34705921977E+03  0.18029580899E+04  0.17692393201E+04 0.  0.
        1    1    3    3  502    0 -0.11287427082E+03 -0.75598687910E+03 -0.28026060658E+03  0.81412699869E+03  0.50400001928E-02 0.  1.
       -1    1    3    3    0  502  0.11287427082E+03  0.75598687910E+03  0.62731982634E+03  0.98883109120E+03  0.50400001928E-02 0. -1.
</event>
<event>
 5   0  0.5009762E-04  0.1658937E+04  0.7818609E-02  0.8785137E-01
        1   -1    0    0  501    0  0.00000000000E+00  0.00000000000E+00  0.16170381423E+04  0.16170381423E+04  0.50400001928E-02 0. -1.
       -1   -1    0    0    0  501  0.00000000000E+00  0.00000000000E+00 -0.42548049116E+03  0.42548049119E+03  0.50400001928E-02 0.  1.
    10030    2    1    2    0    0  0.00000000000E+00  0.00000000000E+00  0.11915576512E+04  0.20425186335E+04  0.16589372298E+04 0.  0.
        3    1    3    3  502    0 -0.56747886001E+02 -0.52226411627E+03 -0.19454437561E+03  0.56020322562E+03  0.10100000352E+00 0.  1.
       -3    1    3    3    0  502  0.56747886001E+02  0.52226411627E+03  0.13861020268E+04  0.14823154079E+04  0.10100000352E+00 0. -1.
</event>
<event>
 5   0  0.9284971E-04  0.1696792E+04  0.7818609E-02  0.8763196E-01
        2   -1    0    0  501    0  0.00000000000E+00  0.00000000000E+00  0.26004474625E+04  0.26004474625E+04  0.25500000920E-02 0.  1.
       -2   -1    0    0    0  501  0.00000000000E+00  0.00000000000E+00 -0.27678913084E+03  0.27678913085E+03  0.25500000920E-02 0. -1.
    10030    2    1    2    0    0  0.00000000000E+00  0.00000000000E+00  0.23236583316E+04  0.28772365933E+04  0.16967917880E+04 0.  0.
        4    1    3    3  502    0 -0.52685944714E+03  0.33450958756E+03  0.21363675898E+04  0.22256562252E+04  0.12699999809E+01 0.  1.
       -4    1    3    3    0  502  0.52685944714E+03 -0.33450958756E+03  0.18729074182E+03  0.65158036809E+03  0.12699999809E+01 0. -1.
</event>
<event>
 5   0  0.9284971E-04  0.1766197E+04  0.7818609E-02  0.8724485E-01
       -2   -1    0    0    0  501  0.00000000000E+00  0.00000000000E+00  0.95974579110E+03  0.95974579110E+03  0.25500000920E-02 0.  1.
        2   -1    0    0  501    0  0.00000000000E+00  0.00000000000E+00 -0.81257221807E+03  0.81257221807E+03  0.25500000920E-02 0. -1.
    10030    2    1    2    0    0  0.00000000000E+00  0.00000000000E+00  0.14717357303E+03  0.17723180092E+04  0.17661967798E+04 0.  0.
        4    1    3    3  502    0  0.55457224582E+03 -0.23577596658E+03 -0.57418940170E+03  0.83236756555E+03  0.12699999809E+01 0. -1.
       -4    1    3    3    0  502 -0.55457224582E+03  0.23577596658E+03  0.72136297473E+03  0.93995044362E+03  0.12699999809E+01 0.  1.
</event>
<event>
 5   0  0.3523125E-04  0.1685851E+04  0.7818609E-02  0.8769475E-01
       -3   -1    0    0    0  501  0.00000000000E+00  0.00000000000E+00  0.23416528376E+03  0.23416530554E+03  0.10100000352E+00 0.  1.
        3   -1    0    0  501    0  0.00000000000E+00  0.00000000000E+00 -0.30342825544E+04  0.30342825561E+04  0.10100000352E+00 0. -1.
    10030    2    1    2    0    0  0.00000000000E+00  0.00000000000E+00 -0.28001172707E+04  0.32684478616E+04  0.16858513264E+04 0.  0.
        3    1    3    3  502    0 -0.67406675823E+03 -0.38035007235E+03 -0.75270267345E+03  0.10796265544E+04  0.10100000352E+00 0.  1.
       -3    1    3    3    0  502  0.67406675823E+03  0.38035007235E+03 -0.20474145972E+04  0.21888213073E+04  0.10100000352E+00 0. -1.
</event>
<event>
 5   0  0.9284971E-04  0.1783384E+04  0.7818609E-02  0.8715186E-01
       -2   -1    0    0    0  501  0.00000000000E+00  0.00000000000E+00  0.91710240819E+03  0.91710240820E+03  0.25500000920E-02 0. -1.
        2   -1    0    0  501    0  0.00000000000E+00  0.00000000000E+00 -0.86698571770E+03  0.86698571770E+03  0.25500000920E-02 0.  1.
    10030    2    1    2    0    0  0.00000000000E+00  0.00000000000E+00  0.50116690497E+02  0.17840881259E+04  0.17833840748E+04 0.  0.
        4    1    3    3  502    0  0.57989956654E+03  0.67715456395E+03  0.79850931957E+01  0.89156445946E+03  0.12699999809E+01 0.  1.
       -4    1    3    3    0  502 -0.57989956654E+03 -0.67715456395E+03  0.42131597301E+02  0.89252366644E+03  0.12699999809E+01 0. -1.
</event>
<event>
 5   0  0.9625225E-04  0.1679573E+04  0.7818609E-02  0.8773101E-01
        2   -1    0    0  501    0  0.00000000000E+00  0.00000000000E+00  0.17065376790E+04  0.17065376790E+04  0.25500000920E-02 0. -1.
       -2   -1    0    0    0  501  0.00000000000E+00  0.00000000000E+00 -0.41325866288E+03  0.41325866289E+03  0.25500000920E-02 0.  1.
    10030    2    1    2    0    0  0.00000000000E+00  0.00000000000E+00  0.12932790162E+04  0.21197963419E+04  0.16795731355E+04 0.  0.
        1    1    3    3  502    0 -0.35127217016E+03  0.49545381302E+03  0.13786326034E+04  0.15064841431E+04  0.50400001928E-02 0. -1.
       -1    1    3    3    0  502  0.35127217016E+03 -0.49545381302E+03 -0.85353587191E+02  0.61331219883E+03  0.50400001928E-02 0.  1.
</event>
<event>
 5   0  0.5035495E-04  0.1732177E+04  0.7818609E-02  0.8743223E-01
       -1   -1    0    0    0  501  0.00000000000E+00  0.00000000000E+00  0.34051716167E+03  0.34051716170E+03  0.50400001928E-02 0.  1.
        1   -1    0    0  501    0  0.00000000000E+00  0.00000000000E+00 -0.22028529823E+04  0.22028529823E+04  0.50400001928E-02 0. -1.
    10030    2    1    2    0    0  0.00000000000E+00  0.00000000000E+00 -0.18623358206E+04  0.25433701440E+04  0.17321769484E+04 0.  0.
        4    1    3    3  502    0  0.20973684066E+03  0.18590584499E+03  0.27209017558E+03  0.39062155865E+03  0.12699999809E+01 0.  1.
       -4    1    3    3    0  502 -0.20973684066E+03 -0.18590584499E+03 -0.21344259962E+04  0.21527485854E+04  0.12699999809E+01 0. -1.
</event>
<event>
 5   0  0.3523125E-04  0.9727969E+03  0.7818609E-02  0.9338894E-01
        3   -1    0    0  501    0  0.00000000000E+00  0.00000000000E+00  0.47731027567E+03  0.47731028636E+03  0.10100000352E+00 0. -1.
       -3   -1    0    0    0  501  0.00000000000E+00  0.00000000000E+00 -0.49565961066E+03  0.49565962095E+03  0.10100000352E+00 0.  1.
    10030    2    1    2    0    0  0.00000000000E+00  0.00000000000E+00 -0.18349334989E+02  0.97296990731E+03  0.97279686597E+03 0.  0.
        5    1    3    3  502    0 -0.10231247330E+03 -0.29644913331E+03 -0.38100875592E+03  0.49349740923E+03  0.46999998093E+01 0.  1.
       -5    1    3    3    0  502  0.10231247330E+03  0.29644913331E+03  0.36265942093E+03  0.47947249808E+03  0.46999998093E+01 0. -1.
</event>
<event>
 5   0  0.5059689E-04  0.1700506E+04  0.7818609E-02  0.8761076E-01
       -1   -1    0    0    0  501  0.00000000000E+00  0.00000000000E+00  0.86661424960E+03  0.86661424961E+03  0.50400001928E-02 0. -1.
        1   -1    0    0  501    0  0.00000000000E+00  0.00000000000E+00 -0.83420026621E+03  0.83420026623E+03  0.50400001928E-02 0.  1.
    10030    2    1    2    0    0  0.00000000000E+00  0.00000000000E+00  0.32413983385E+02  0.17008145158E+04  0.17005056163E+04 0.  0.
        5    1    3    3  502    0  0.38849095694E+03  0.12992111604E+03 -0.72898071402E+03  0.83620553181E+03  0.46999998093E+01 0.  1.
       -5    1    3    3    0  502 -0.38849095694E+03 -0.12992111604E+03  0.76139469741E+03  0.86460898403E+03  0.46999998093E+01 0. -1.
</event>
<event>
 5   0  0.9284971E-04  0.1609350E+04  0.7818609E-02  0.8814824E-01
       -2   -1    0    0    0  501  0.00000000000E+00  0.00000000000E+00  0.64149101644E+03  0.64149101645E+03  0.25500000920E-02 0. -1.
        2   -1    0    0  501    0  0.00000000000E+00  0.00000000000E+00 -0.10093702672E+04  0.10093702672E+04  0.25500000920E-02 0.  1.
    10030    2    1    2    0    0  0.00000000000E+00  0.00000000000E+00 -0.36787925074E+03  0.16508612836E+04  0.16093501281E+04 0.  0.
        4    1    3    3  502    0 -0.25626441902E+01 -0.64487514292E+03  0.30975373507E+03  0.71541561794E+03  0.12699999809E+01 0. -1.
       -4    1    3    3    0  502  0.25626441902E+01  0.64487514292E+03 -0.67763298581E+03  0.93544566569E+03  0.12699999809E+01 0.  1.
</event>
<event>
 5   0  0.9625225E-04  0.1734665E+04  0.7818609E-02  0.8741837E-01
       -2   -1    0    0    0  501  0.00000000000E+00  0.00000000000E+00  0.14806241826E+04  0.14806241826E+04  0.25500000920E-02 0.  1.
        2   -1    0    0  501    0  0.00000000000E+00  0.00000000000E+00 -0.50807305334E+03  0.50807305335E+03  0.25500000920E-02 0. -1.
    10030    2    1    2    0    0  0.00000000000E+00  0.00000000000E+00  0.97255112926E+03  0.19886972359E+04  0.17346645201E+04 0.  0.
        1    1    3    3  502    0  0.37338785320E+03 -0.23413054680E+03  0.13426857247E+04  0.14131668539E+04  0.50400001928E-02 0.  1.
       -1    1    3    3    0  502 -0.37338785320E+03  0.23413054680E+03 -0.37013459540E+03  0.57553038200E+03  0.50400001928E-02 0. -1.
</event>
<event>
 5   0  0.9610114E-04  0.1674329E+04  0.7818609E-02  0.8776142E-01
       -2   -1    0    0    0  501  0.00000000000E+00  0.00000000000E+00  0.39299687176E+03  0.39299687177E+03  0.25500000920E-02 0.  1.
        2   -1    0    0  501    0  0.00000000000E+00  0.00000000000E+00 -0.17833341220E+04  0.17833341220E+04  0.25500000920E-02 0. -1.
    10030    2    1    2    0    0  0.00000000000E+00  0.00000000000E+00 -0.13903372503E+04  0.21763309938E+04  0.16743293956E+04 0.  0.
        2    1    3    3  502    0  0.52857500775E+03  0.62114191889E+03 -0.94054229928E+03  0.12449211376E+04  0.25500000920E-02 0.  1.
       -2    1    3    3    0  502 -0.52857500775E+03 -0.62114191889E+03 -0.44979495099E+03  0.93140985616E+03  0.25500000920E-02 0. -1.
</event>
<event>
 5   0  0.1007187E-03  0.1707558E+04  0.7818609E-02  0.8757066E-01
        2   -1    0    0  501    0  0.00000000000E+00  0.00000000000E+00  0.17391549805E+04  0.17391549805E+04  0.25500000920E-02 0. -1.
       -2   -1    0    0    0  501  0.00000000000E+00  0.00000000000E+00 -0.41913354542E+03  0.41913354543E+03  0.25500000920E-02 0.  1.
    10030    2    1    2    0    0  0.00000000000E+00  0.00000000000E+00  0.13200214350E+04  0.21582885259E+04  0.17075575458E+04 0.  0.
        5    1    3    3  502    0  0.28975021724E+02 -0.78449673768E+03  0.23579846208E+03  0.81969365500E+03  0.46999998093E+01 0.  1.
       -5    1    3    3    0  502 -0.28975021724E+02  0.78449673768E+03  0.10842229730E+04  0.13385948709E+04  0.46999998093E+01 0. -1.
</event>
<event>
 5   0  0.9610114E-04  0.1705136E+04  0.7818609E-02  0.8758440E-01
        2   -1    0    0  501    0  0.00000000000E+00  0.00000000000E+00  0.78336222458E+03  0.78336222458E+03  0.25500000920E-02 0.  1.
       -2   -1    0    0    0  501  0.00000000000E+00  0.00000000000E+00 -0.92788781320E+03  0.92788781320E+03  0.25500000920E-02 0. -1.
    10030    2    1    2    0    0  0.00000000000E+00  0.00000000000E+00 -0.14452558862E+03  0.17112500378E+04  0.17051360785E+04 0.  0.
        2    1    3    3  502    0  0.80355956325E+03  0.22983619130E+03 -0.24121015052E+03  0.86989366203E+03  0.25500000920E-02 0. -1.
       -2    1    3    3    0  502 -0.80355956325E+03 -0.22983619130E+03  0.96684561898E+02  0.84135637576E+03  0.25500000920E-02 0.  1.
</event>
<event>
 5   0  0.5009762E-04  0.1387916E+04  0.7818609E-02  0.8962612E-01
        1   -1    0    0  501    0  0.00000000000E+00  0.00000000000E+00  0.12781301464E+04  0.12781301464E+04  0.50400001928E-02 0. -1.
       -1   -1    0    0    0  501  0.00000000000E+00  0.00000000000E+00 -0.37678290260E+03  0.37678290263E+03  0.50400001928E-02 0.  1.
    10030    2    1    2    0    0  0.00000000000E+00  0.00000000000E+00  0.90134724377E+03  0.16549130490E+04  0.13879158281E+04 0.  0.
        3    1    3    3  502    0 -0.28355203403E+03 -0.62938945334E+03  0.36598378682E+03  0.78133026460E+03  0.10100000352E+00 0. -1.
       -3    1    3    3    0  502  0.28355203403E+03  0.62938945334E+03  0.53536345695E+03  0.87358278441E+03  0.10100000352E+00 0.  1.
</event>
<event>
 5   0  0.9625225E-04  0.1723245E+04  0.7818609E-02  0.8748217E-01
       -2   -1    0    0    0  501  0.00000000000E+00  0.00000000000E+00  0.82961718465E+03  0.82961718465E+03  0.25500000920E-02 0.  1.
        2   -1    0    0  501    0  0.00000000000E+00  0.00000000000E+00 -0.89486216453E+03  0.89486216453E+03  0.25500000920E-02 0. -1.
    10030    2    1    2    0    0  0.00000000000E+00  0.00000000000E+00 -0.65244979880E+02  0.17244793492E+04  0.17232446484E+04 0.  0.
        1    1    3    3  502    0 -0.31312857662E+03  0.67167758175E+03 -0.47247438971E+03  0.87888129362E+03  0.50400001928E-02 0. -1.
       -1    1    3    3    0  502  0.31312857662E+03 -0.67167758175E+03  0.40722940983E+03  0.84559805557E+03  0.50400001928E-02 0.  1.
</event>
<event>
 5   0  0.4947006E-04  0.1526372E+04  0.7818609E-02  0.8867103E-01
        1   -1    0    0  501    0  0.00000000000E+00  0.00000000000E+00  0.86466268969E+03  0.86466268971E+03  0.50400001928E-02 0. -1.
       -1   -1    0    0    0  501  0.00000000000E+00  0.00000000000E+00 -0.67361895501E+03  0.67361895503E+03  0.50400001928E-02 0.  1.
    10030    2    1    2    0    0  0.00000000000E+00  0.00000000000E+00  0.19104373468E+03  0.15382816447E+04  0.15263724021E+04 0.  0.
        2    1    3    3  502    0 -0.25852247958E+03  0.12298408418E+03  0.80849782641E+03  0.85768740968E+03  0.25500000920E-02 0. -1.
       -2    1    3    3    0  502  0.25852247958E+03 -0.12298408418E+03 -0.61745409173E+03  0.68059423507E+03  0.25500000920E-02 0.  1.
</event>
<event>
 5   0  0.5035495E-04  0.9847647E+03  0.7818609E-02  0.9325414E-01
        1   -1    0    0  501    0  0.00000000000E+00  0.00000000000E+00  0.57892304486E+03  0.57892304488E+03  0.50400001928E-02 0.  1.
       -1   -1    0    0    0  501  0.00000000000E+00  0.00000000000E+00 -0.41877827574E+03  0.41877827577E+03  0.50400001928E-02 0. -1.
    10030    2    1    2    0    0  0.00000000000E+00  0.00000000000E+00  0.16014476912E+03  0.99770132065E+03  0.98476473239E+03 0.  0.
        4    1    3    3  502    0  0.47172167796E+03 -0.18213471478E+02 -0.61715040715E+02  0.47609183059E+03  0.12699999809E+01 0. -1.
       -4    1    3    3    0  502 -0.47172167796E+03  0.18213471478E+02  0.22185980983E+03  0.52160949006E+03  0.12699999809E+01 0.  1.
</event>
<event>
 5   0  0.9312096E-04  0.1690311E+04  0.7818609E-02  0.8766910E-01
        2   -1    0    0  501    0  0.00000000000E+00  0.00000000000E+00  0.12980565094E+04  0.12980565094E+04  0.25500000920E-02 0. -1.
       -2   -1    0    0    0  501  0.00000000000E+00  0.00000000000E+00 -0.55027489738E+03  0.55027489739E+03  0.25500000920E-02 0.  1.
    10030    2    1    2    0    0  0.00000000000E+00  0.00000000000E+00  0.74778161204E+03  0.18483314068E+04  0.16903111104E+04 0.  0.
        3    1    3    3  502    0 -0.56081937287E+03 -0.29642679811E+03  0.98458158495E+03  0.11712335904E+04  0.10100000352E+00 0. -1.
       -3    1    3    3    0  502  0.56081937287E+03  0.29642679811E+03 -0.23679997291E+03  0.67709781642E+03  0.10100000352E+00 0.  1.
</event>
<event>
 5   0  0.1007187E-03  0.1718365E+04  0.7818609E-02  0.8750959E-01
       -2   -1    0    0    0  501  0.00000000000E+00  0.00000000000E+00  0.10759670825E+04  0.10759670825E+04  0.25500000920E-02 0. -1.
        2   -1    0    0  501    0  0.00000000000E+00  0.00000000000E+00 -0.68607519630E+03  0.68607519631E+03  0.25500000920E-02 0.  1.
    10030    2    1    2    0    0  0.00000000000E+00  0.00000000000E+00  0.38989188624E+03  0.17620422789E+04  0.17183647196E+04 0.  0.
        5    1    3    3  502    0  0.88257769945E+02 -0.77835539252E+03 -0.16693467421E+03  0.80094683124E+03  0.46999998093E+01 0.  1.
       -5    1    3    3    0  502 -0.88257769945E+02  0.77835539252E+03  0.55682656045E+03  0.96109544762E+03  0.46999998093E+01 0. -1.
</event>
<event>
 5   0  0.3523125E-04  0.1086332E+04  0.7818609E-02  0.9218616E-01
        3   -1    0    0  501    0  0.00000000000E+00  0.00000000000E+00  0.43590270789E+03  0.43590271959E+03  0.10100000352E+00 0. -1.
       -3   -1    0    0    0  501  0.00000000000E+00  0.00000000000E+00 -0.67682429889E+03  0.67682430642E+03  0.10100000352E+00 0.  1.
    10030    2    1    2    0    0  0.00000000000E+00  0.00000000000E+00 -0.24092159100E+03  0.11127270260E+04  0.10863324636E+04 0.  0.
        5    1    3    3  502    0 -0.12843436516E+03  0.27888343277E+03  0.33846094328E+03  0.45700027938E+03  0.46999998093E+01 0. -1.
       -5    1    3    3    0  502  0.12843436516E+03 -0.27888343277E+03 -0.57938253427E+03  0.65572674663E+03  0.46999998093E+01 0.  1.
</event>
<event>
 5   0  0.1007187E-03  0.1744815E+04  0.7818609E-02  0.8736210E-01
       -2   -1    0    0    0  501  0.00000000000E+00  0.00000000000E+00  0.43289151334E+03  0.43289151334E+03  0.25500000920E-02 0. -1.
        2   -1    0    0  501    0  0.00000000000E+00  0.00000000000E+00 -0.17581648208E+04  0.17581648208E+04  0.25500000920E-02 0.  1.
    10030    2    1    2    0    0  0.00000000000E+00  0.00000000000E+00 -0.13252733074E+04  0.21910563341E+04  0.17448147523E+04 0.  0.
        5    1    3    3  502    0 -0.41503981713E+03 -0.54347788062E+03  0.17613308025E+02  0.68407497773E+03  0.46999998093E+01 0. -1.
       -5    1    3    3    0  502  0.41503981713E+03  0.54347788062E+03 -0.13428866154E+04  0.15069813564E+04  0.46999998093E+01 0.  1.
</event>
<event>
 5   0  0.9625225E-04  0.1591980E+04  0.7818609E-02  0.8825490E-01
       -2   -1    0    0    0  501  0.00000000000E+00  0.00000000000E+00  0.45365210429E+03  0.45365210430E+03  0.25500000920E-02 0. -1.
        2   -1    0    0  501    0  0.00000000000E+00  0.00000000000E+00 -0.13966657594E+04  0.13966657594E+04  0.25500000920E-02 0.  1.
    10030    2    1    2    0    0  0.00000000000E+00  0.00000000000E+00 -0.94301365513E+03  0.18503178637E+04  0.15919803526E+04 0.  0.
        1    1    3    3  502    0  0.41998353947E+03  0.67596150978E+03 -0.45170634564E+03  0.91506762528E+03  0.50400001928E-02 0. -1.
       -1    1    3    3    0  502 -0.41998353947E+03 -0.67596150978E+03 -0.49130730949E+03  0.93525023844E+03  0.50400001928E-02 0.  1.
</event>
<event>
 5   0  0.5035495E-04  0.1636705E+04  0.7818609E-02  0.8798311E-01
       -1   -1    0    0    0  501  0.00000000000E+00  0.00000000000E+00  0.51434220615E+03  0.51434220618E+03  0.50400001928E-02 0. -1.
        1   -1    0    0  501    0  0.00000000000E+00  0.00000000000E+00 -0.13020529386E+04  0.13020529386E+04  0.50400001928E-02 0.  1.
    10030    2    1    2    0    0  0.00000000000E+00  0.00000000000E+00 -0.78771073243E+03  0.18163951448E+04  0.16367049594E+04 0.  0.
        4    1    3    3  502    0 -0.49076782255E+03  0.11190051564E+03 -0.11099259935E+04  0.12187338122E+04  0.12699999809E+01 0.  1.
       -4    1    3    3    0  502  0.49076782255E+03 -0.11190051564E+03  0.32221526109E+03  0.59766133256E+03  0.12699999809E+01 0. -1.
</event>
<event>
 5   0  0.3523125E-04  0.1684537E+04  0.7818609E-02  0.8770233E-01
        3   -1    0    0  501    0  0.00000000000E+00  0.00000000000E+00  0.54347575928E+03  0.54347576867E+03  0.10100000352E+00 0. -1.
       -3   -1    0    0    0  501  0.00000000000E+00  0.00000000000E+00 -0.13053325820E+04  0.13053325859E+04  0.10100000352E+00 0.  1.
    10030    2    1    2    0    0  0.00000000000E+00  0.00000000000E+00 -0.76185682270E+03  0.18488083546E+04  0.16845374776E+04 0.  0.
        2    1    3    3  502    0 -0.20051202185E+03  0.64254288891E+02  0.51412535129E+03  0.55557048283E+03  0.25500000920E-02 0. -1.
       -2    1    3    3    0  502  0.20051202185E+03 -0.64254288891E+02 -0.12759821740E+04  0.12932378717E+04  0.25500000920E-02 0.  1.
</event>
<event>
 5   0  0.1007187E-03  0.1729198E+04  0.7818609E-02  0.8744885E-01
       -2   -1    0    0    0  501  0.00000000000E+00  0.00000000000E+00  0.40661210936E+03  0.40661210937E+03  0.25500000920E-02 0.  1.
        2   -1    0    0  501    0  0.00000000000E+00  0.00000000000E+00 -0.18384380475E+04  0.18384380475E+04  0.25500000920E-02 0. -1.
    10030    2    1    2    0    0  0.00000000000E+00  0.00000000000E+00 -0.14318259382E+04  0.22450501569E+04  0.17291977012E+04 0.  0.
        5    1    3    3  502    0 -0.56199949210E+02  0.15345153900E+03 -0.18181875023E+04  0.18255228546E+04  0.46999998093E+01 0. -1.
       -5    1    3    3    0  502  0.56199949210E+02 -0.15345153900E+03  0.38636156415E+03  0.41952730229E+03  0.46999998093E+01 0.  1.
</event>
<event>
 5   0  0.9610114E-04  0.1642394E+04  0.7818609E-02  0.8794919E-01
        2   -1    0    0  501    0  0.00000000000E+00  0.00000000000E+00  0.10288844023E+04  0.10288844023E+04  0.25500000920E-02 0. -1.
       -2   -1    0    0    0  501  0.00000000000E+00  0.00000000000E+00 -0.65543309853E+03  0.65543309853E+03  0.25500000920E-02 0.  1.
    10030    2    1    2    0    0  0.00000000000E+00  0.00000000000E+00  0.37345130381E+03  0.16843175009E+04  0.16423944616E+04 0.  0.
        2    1    3    3  502    0  0.22789198406E+03  0.48149765625E+03  0.82765052879E+03  0.98426629892E+03  0.25500000920E-02 0. -1.
       -2    1    3    3    0  502 -0.22789198406E+03 -0.48149765625E+03 -0.45419922498E+03  0.70005120195E+03  0.25500000920E-02 0.  1.
</event>
<event>
 5   0  0.9312096E-04  0.1774846E+04  0.7818609E-02  0.8719792E-01
        2   -1    0    0  501    0  0.00000000000E+00  0.00000000000E+00  0.53648213865E+03  0.53648213866E+03  0.25500000920E-02 0. -1.
       -2   -1    0    0    0  501  0.00000000000E+00  0.00000000000E+00 -0.14679326951E+04  0.14679326951E+04  0.25500000920E-02 0.  1.
    10030    2    1    2    0    0  0.00000000000E+00  0.00000000000E+00 -0.93145055645E+03  0.20044148338E+04  0.17748461023E+04 0.  0.
        3    1    3    3  502    0  0.46790885313E+03  0.75323281816E+03 -0.50519244962E+03  0.10205477914E+04  0.10100000352E+00 0. -1.
       -3    1    3    3    0  502 -0.46790885313E+03 -0.75323281816E+03 -0.42625810684E+03  0.98386704236E+03  0.10100000352E+00 0.  1.
</event>
<event>
 5   0  0.5074133E-04  0.1714578E+04  0.7818609E-02  0.8753093E-01
        1   -1    0    0  501    0  0.00000000000E+00  0.00000000000E+00  0.63417289005E+03  0.63417289007E+03  0.50400001928E-02 0. -1.
       -1   -1    0    0    0  501  0.00000000000E+00  0.00000000000E+00 -0.11589023256E+04  0.11589023256E+04  0.50400001928E-02 0.  1.
    10030    2    1    2    0    0  0.00000000000E+00  0.00000000000E+00 -0.52472943550E+03  0.17930752156E+04  0.17145780089E+04 0.  0.
        1    1    3    3  502    0  0.10517127550E+03 -0.85069801537E+03 -0.27701786013E+03  0.90082573531E+03  0.50400001928E-02 0. -1.
       -1    1    3    3    0  502 -0.10517127550E+03  0.85069801537E+03 -0.24771157537E+03  0.89224948033E+03  0.50400001928E-02 0.  1.
</event>
<event>
 5   0  0.9312096E-04  0.1710442E+04  0.7818609E-02  0.8755431E-01
        2   -1    0    0  501    0  0.00000000000E+00  0.00000000000E+00  0.41835520265E+03  0.41835520266E+03  0.25500000920E-02 0.  1.
       -2   -1    0    0    0  501  0.00000000000E+00  0.00000000000E+00 -0.17482826004E+04  0.17482826004E+04  0.25500000920E-02 0. -1.
    10030    2    1    2    0    0  0.00000000000E+00  0.00000000000E+00 -0.13299273977E+04  0.21666378031E+04  0.17104421903E+04 0.  0.
        3    1    3    3  502    0  0.16050055224E+03 -0.45166055407E+03  0.23220961085E+03  0.53261524288E+03  0.10100000352E+00 0.  1.
       -3    1    3    3    0  502 -0.16050055224E+03  0.45166055407E+03 -0.15621370086E+04  0.16340225602E+04  0.10100000352E+00 0. -1.
</event>
<event>
 5   0  0.1007187E-03  0.1707398E+04  0.7818609E-02  0.8757156E-01
        2   -1    0    0  501    0  0.00000000000E+00  0.00000000000E+00  0.15597002084E+04  0.15597002084E+04  0.25500000920E-02 0. -1.
       -2   -1    0    0    0  501  0.00000000000E+00  0.00000000000E+00 -0.46727080895E+03  0.46727080896E+03  0.25500000920E-02 0.  1.
    10030    2    1    2    0    0  0.00000000000E+00  0.00000000000E+00  0.10924293994E+04  0.20269710174E+04  0.17073984633E+04 0.  0.
        5    1    3    3  502    0  0.60598520249E+03 -0.24653650677E+03  0.11973009964E+04  0.13643863385E+04  0.46999998093E+01 0. -1.
       -5    1    3    3    0  502 -0.60598520249E+03  0.24653650677E+03 -0.10487159692E+03  0.66258467885E+03  0.46999998093E+01 0.  1.
</event>
<event>
 5   0  0.5074133E-04  0.1694505E+04  0.7818609E-02  0.8764505E-01
       -1   -1    0    0    0  501  0.00000000000E+00  0.00000000000E+00  0.82325268483E+03  0.82325268484E+03  0.50400001928E-02 0.  1.
        1   -1    0    0  501    0  0.00000000000E+00  0.00000000000E+00 -0.87195165377E+03  0.87195165379E+03  0.50400001928E-02 0. -1.
    10030    2    1    2    0    0  0.00000000000E+00  0.00000000000E+00 -0.48698968943E+02  0.16952043386E+04  0.16945046946E+04 0.  0.
        1    1    3    3  502    0 -0.46340894254E+03  0.26046559882E+03 -0.68435392062E+03  0.86656244142E+03  0.50400001928E-02 0. -1.
       -1    1    3    3    0  502  0.46340894254E+03 -0.26046559882E+03  0.63565495168E+03  0.82864189721E+03  0.50400001928E-02 0.  1.
</event>
<event>
 5   0  0.4947006E-04  0.1337751E+04  0.7818609E-02  0.9000152E-01
       -1   -1    0    0    0  501  0.00000000000E+00  0.00000000000E+00  0.99254323851E+03  0.99254323852E+03  0.50400001928E-02 0.  1.
        1   -1    0    0  501    0  0.00000000000E+00  0.00000000000E+00 -0.45075568476E+03  0.45075568479E+03  0.50400001928E-02 0. -1.
    10030    2    1    2    0    0  0.00000000000E+00  0.00000000000E+00  0.54178755375E+03  0.14432989233E+04  0.13377511086E+04 0.  0.
        2    1    3    3  502    0  0.61156943931E+03 -0.18949705605E+03  0.62054420026E+02  0.64325505392E+03  0.25500000920E-02 0.  1.
       -2    1    3    3    0  502 -0.61156943931E+03  0.18949705605E+03  0.47973313372E+03  0.80004386939E+03  0.25500000920E-02 0. -1.
</event>
<event>
 5   0  0.9284971E-04  0.1760411E+04  0.7818609E-02  0.8727641E-01
       -2   -1    0    0    0  501  0.00000000000E+00  0.00000000000E+00  0.66261003322E+03  0.66261003323E+03  0.25500000920E-02 0.  1.
        2   -1    0    0  501    0  0.00000000000E+00  0.00000000000E+00 -0.11692569108E+04  0.11692569108E+04  0.25500000920E-02 0. -1.
    10030    2    1    2    0    0  0.00000000000E+00  0.00000000000E+00 -0.50664687754E+03  0.18318669440E+04  0.17604105890E+04 0.  0.
        4    1    3    3  502    0  0.29013912633E+03  0.52517614121E+03 -0.92349057592E+03  0.11012843178E+04  0.12699999809E+01 0. -1.
       -4    1    3    3    0  502 -0.29013912633E+03 -0.52517614121E+03  0.41684369838E+03  0.73058262620E+03  0.12699999809E+01 0.  1.
</event>
<event>
 5   0  0.9284971E-04  0.1666125E+04  0.7818609E-02  0.8780924E-01
        2   -1    0    0  501    0  0.00000000000E+00  0.00000000000E+00  0.95626823139E+03  0.95626823140E+03  0.25500000920E-02 0. -1.
       -2   -1    0    0    0  501  0.00000000000E+00  0.00000000000E+00 -0.72573046701E+03  0.72573046701E+03  0.25500000920E-02 0.  1.
    10030    2    1    2    0    0  0.00000000000E+00  0.00000000000E+00  0.23053776438E+03  0.16819986984E+04  0.16661248335E+04 0.  0.
        4    1    3    3  502    0  0.56108431450E+03 -0.58454167942E+02  0.73410085483E+03  0.92581757150E+03  0.12699999809E+01 0. -1.
       -4    1    3    3    0  502 -0.56108431450E+03  0.58454167942E+02 -0.50356309045E+03  0.75618112691E+03  0.12699999809E+01 0.  1.
</event>
<event>
 5   0  0.9610114E-04  0.1691045E+04  0.7818609E-02  0.8766488E-01
       -2   -1    0    0    0  501  0.00000000000E+00  0.00000000000E+00  0.33280131224E+03  0.33280131225E+03  0.25500000920E-02 0.  1.
        2   -1    0    0  501    0  0.00000000000E+00  0.00000000000E+00 -0.21481545442E+04  0.21481545442E+04  0.25500000920E-02 0. -1.
    10030    2    1    2    0    0  0.00000000000E+00  0.00000000000E+00 -0.18153532320E+04  0.24809558565E+04  0.16910454178E+04 0.  0.
        2    1    3    3  502    0 -0.41949897985E+02 -0.43032948850E+03  0.15834617900E+03  0.46045279348E+03  0.25500000920E-02 0.  1.
       -2    1    3    3    0  502  0.41949897985E+02  0.43032948850E+03 -0.19736994110E+04  0.20205030630E+04  0.25500000920E-02 0. -1.
</event>
<event>
 5   0  0.9625225E-04  0.1667331E+04  0.7818609E-02  0.8780219E-01
       -2   -1    0    0    0  501  0.00000000000E+00  0.00000000000E+00  0.70492921101E+03  0.70492921102E+03  0.25500000920E-02 0. -1.
        2   -1    0    0  501    0  0.00000000000E+00  0.00000000000E+00 -0.98591211657E+03  0.98591211657E+03  0.25500000920E-02 0.  1.
    10030    2    1    2    0    0  0.00000000000E+00  0.00000000000E+00 -0.28098290556E+03  0.16908413276E+04  0.16673311015E+04 0.  0.
        1    1    3    3  502    0 -0.15843758190E+03  0.61159768020E+03 -0.69207643132E+03  0.93708269465E+03  0.50400001928E-02 0.  1.
       -1    1    3    3    0  502  0.15843758190E+03 -0.61159768020E+03  0.41109352577E+03  0.75375863295E+03  0.50400001928E-02 0. -1.
</event>
<event>
 5   0  0.9284971E-04  0.1695293E+04  0.7818609E-02  0.8764054E-01
        2   -1    0    0  501    0  0.00000000000E+00  0.00000000000E+00  0.15490264760E+04  0.15490264760E+04  0.25500000920E-02 0.  1.
       -2   -1    0    0    0  501  0.00000000000E+00  0.00000000000E+00 -0.46384254517E+03  0.46384254518E+03  0.25500000920E-02 0. -1.
    10030    2    1    2    0    0  0.00000000000E+00  0.00000000000E+00  0.10851839309E+04  0.20128690212E+04  0.16952927572E+04 0.  0.
        4    1    3    3  502    0 -0.56162065986E+03  0.59230791314E+03  0.27117292749E+03  0.86010627195E+03  0.12699999809E+01 0. -1.
       -4    1    3    3    0  502  0.56162065986E+03 -0.59230791314E+03  0.81401100338E+03  0.11527627493E+04  0.12699999809E+01 0.  1.
</event>
<event>
 5   0  0.9312096E-04  0.1705808E+04  0.7818609E-02  0.8758059E-01
        2   -1    0    0  501    0  0.00000000000E+00  0.00000000000E+00  0.12292731323E+04  0.12292731323E+04  0.25500000920E-02 0. -1.
       -2   -1    0    0    0  501  0.00000000000E+00  0.00000000000E+00 -0.59176851970E+03  0.59176851971E+03  0.25500000920E-02 0.  1.
    10030    2    1    2    0    0  0.00000000000E+00  0.00000000000E+00  0.63750461255E+03  0.18210416520E+04  0.17058078928E+04 0.  0.
        3    1    3    3  502    0 -0.36207648291E+03 -0.43816116732E+03  0.99760281161E+03  0.11481707051E+04  0.10100000352E+00 0. -1.
       -3    1    3    3    0  502  0.36207648291E+03  0.43816116732E+03 -0.36009819906E+03  0.67287094691E+03  0.10100000352E+00 0.  1.
</event>
<event>
 5   0  0.5009762E-04  0.1707337E+04  0.7818609E-02  0.8757191E-01
        1   -1    0    0  501    0  0.00000000000E+00  0.00000000000E+00  0.17129740512E+04  0.17129740512E+04  0.50400001928E-02 0. -1.
       -1   -1    0    0    0  501  0.00000000000E+00  0.00000000000E+00 -0.42542978975E+03  0.42542978978E+03  0.50400001928E-02 0.  1.
    10030    2    1    2    0    0  0.00000000000E+00  0.00000000000E+00  0.12875442614E+04  0.21384038410E+04  0.17073373310E+04 0.  0.
        3    1    3    3  502    0 -0.20770723296E+03 -0.78794266789E+03  0.96248858655E+03  0.12611027841E+04  0.10100000352E+00 0. -1.
       -3    1    3    3    0  502  0.20770723296E+03  0.78794266789E+03  0.32505567488E+03  0.87730105692E+03  0.10100000352E+00 0.  1.
</event>
<event>
 5   0  0.5009762E-04  0.1694920E+04  0.7818609E-02  0.8764267E-01
       -1   -1    0    0    0  501  0.00000000000E+00  0.00000000000E+00  0.36506779833E+03  0.36506779837E+03  0.50400001928E-02 0. -1.
        1   -1    0    0  501    0  0.00000000000E+00  0.00000000000E+00 -0.19672738351E+04  0.19672738351E+04  0.50400001928E-02 0.  1.
    10030    2    1    2    0    0  0.00000000000E+00  0.00000000000E+00 -0.16022060368E+04  0.23323416335E+04  0.16949198539E+04 0.  0.
        3    1    3    3  502    0  0.65839408839E+03 -0.17651463184E+03 -0.10819880712E+03  0.69017909483E+03  0.10100000352E+00 0. -1.
       -3    1    3    3    0  502 -0.65839408839E+03  0.17651463184E+03 -0.14940072297E+04  0.16421625387E+04  0.10100000352E+00 0.  1.
</event>
<event>
 5   0  0.5035495E-04  0.1697172E+04  0.7818609E-02  0.8762979E-01
       -1   -1    0    0    0  501  0.00000000000E+00  0.00000000000E+00  0.27838950752E+03  0.27838950756E+03  0.50400001928E-02 0. -1.
        1   -1    0    0  501    0  0.00000000000E+00  0.00000000000E+00 -0.25866583633E+04  0.25866583634E+04  0.50400001928E-02 0.  1.
    10030    2    1    2    0    0  0.00000000000E+00  0.00000000000E+00 -0.23082688558E+04  0.28650478709E+04  0.16971724108E+04 0.  0.
        4    1    3    3  502    0  0.63263611905E+02  0.40499184598E+03 -0.24084460716E+04  0.24430789534E+04  0.12699999809E+01 0.  1.
       -4    1    3    3    0  502 -0.63263611905E+02 -0.40499184598E+03  0.10017721575E+03  0.42196891752E+03  0.12699999809E+01 0. -1.
</event>
<event>
 5   0  0.5074133E-04  0.1688167E+04  0.7818609E-02  0.8768142E-01
       -1   -1    0    0    0  501  0.00000000000E+00  0.00000000000E+00  0.56465348622E+03  0.56465348624E+03  0.50400001928E-02 0.  1.
        1   -1    0    0  501    0  0.00000000000E+00  0.00000000000E+00 -0.12617956362E+04  0.12617956362E+04  0.50400001928E-02 0. -1.
    10030    2    1    2    0    0  0.00000000000E+00  0.00000000000E+00 -0.69714214999E+03  0.18264491225E+04  0.16881674146E+04 0.  0.
        1    1    3    3  502    0  0.20828258001E+02  0.50518303681E+03 -0.10798298312E+04  0.11923406314E+04  0.50400001928E-02 0. -1.
       -1    1    3    3    0  502 -0.20828258001E+02 -0.50518303681E+03  0.38268768121E+03  0.63410849102E+03  0.50400001928E-02 0.  1.
</event>
<event>
 5   0  0.9625225E-04  0.1695294E+04  0.7818609E-02  0.8764053E-01
       -2   -1    0    0    0  501  0.00000000000E+00  0.00000000000E+00  0.33709522000E+03  0.33709522001E+03  0.25500000920E-02 0. -1.
        2   -1    0    0  501    0  0.00000000000E+00  0.00000000000E+00 -0.21314611274E+04  0.21314611274E+04  0.25500000920E-02 0.  1.
    10030    2    1    2    0    0  0.00000000000E+00  0.00000000000E+00 -0.17943659074E+04  0.24685563474E+04  0.16952939069E+04 0.  0.
        1    1    3    3  502    0  0.55026255309E+03 -0.29890072766E+03 -0.65311202647E+02  0.62959993293E+03  0.50400001928E-02 0.  1.
       -1    1    3    3    0  502 -0.55026255309E+03  0.29890072766E+03 -0.17290547048E+04  0.18389564145E+04  0.50400001928E-02 0. -1.
</event>
<event>
 5   0  0.9284971E-04  0.1643209E+04  0.7818609E-02  0.8794434E-01
       -2   -1    0    0    0  501  0.00000000000E+00  0.00000000000E+00  0.34467599537E+03  0.34467599538E+03  0.25500000920E-02 0.  1.
        2   -1    0    0  501    0  0.00000000000E+00  0.00000000000E+00 -0.19584598912E+04  0.19584598912E+04  0.25500000920E-02 0. -1.
    10030    2    1    2    0    0  0.00000000000E+00  0.00000000000E+00 -0.16137838959E+04  0.23031358866E+04  0.16432091923E+04 0.  0.
        4    1    3    3  502    0 -0.47542297836E+02  0.38383661786E+03 -0.18228808559E+04  0.18634610398E+04  0.12699999809E+01 0. -1.
       -4    1    3    3    0  502  0.47542297836E+02 -0.38383661786E+03  0.20909696003E+03  0.43967484678E+03  0.12699999809E+01 0.  1.
</event>
<event>
 5   0  0.9610114E-04  0.1678441E+04  0.7818609E-02  0.8773757E-01
        2   -1    0    0  501    0  0.00000000000E+00  0.00000000000E+00  0.79391818156E+03  0.79391818156E+03  0.25500000920E-02 0.  1.
       -2   -1    0    0    0  501  0.00000000000E+00  0.00000000000E+00 -0.88710746541E+03  0.88710746541E+03  0.25500000920E-02 0. -1.
    10030    2    1    2    0    0  0.00000000000E+00  0.00000000000E+00 -0.93189283851E+02  0.16810256470E+04  0.16784406403E+04 0.  0.
        2    1    3    3  502    0  0.50620645264E+03 -0.61206306932E+03  0.22479237382E+03  0.82546822159E+03  0.25500000920E-02 0.  1.
       -2    1    3    3    0  502 -0.50620645264E+03  0.61206306932E+03 -0.31798165767E+03  0.85555742539E+03  0.25500000920E-02 0. -1.
</event>
<event>
 5   0  0.5059689E-04  0.1697621E+04  0.7818609E-02  0.8762723E-01
        1   -1    0    0  501    0  0.00000000000E+00  0.00000000000E+00  0.34027984329E+03  0.34027984332E+03  0.50400001928E-02 0. -1.
       -1   -1    0    0    0  501  0.00000000000E+00  0.00000000000E+00 -0.21173128651E+04  0.21173128651E+04  0.50400001928E-02 0.  1.
    10030    2    1    2    0    0  0.00000000000E+00  0.00000000000E+00 -0.17770330218E+04  0.24575927084E+04  0.16976205583E+04 0.  0.
        5    1    3    3  502    0 -0.22370603645E+03  0.10400807539E+03  0.28721422667E+03  0.37865046215E+03  0.46999998093E+01 0. -1.
       -5    1    3    3    0  502  0.22370603645E+03 -0.10400807539E+03 -0.20642472485E+04  0.20789422463E+04  0.46999998093E+01 0.  1.
</event>
<event>
 5   0  0.5009762E-04  0.1672314E+04  0.7818609E-02  0.8777314E-01
        1   -1    0    0  501    0  0.00000000000E+00  0.00000000000E+00  0.82373062557E+03  0.82373062558E+03  0.50400001928E-02 0.  1.
       -1   -1    0    0    0  501  0.00000000000E+00  0.00000000000E+00 -0.84877128459E+03  0.84877128461E+03  0.50400001928E-02 0. -1.
    10030    2    1    2    0    0  0.00000000000E+00  0.00000000000E+00 -0.25040659028E+02  0.16725019102E+04  0.16723144456E+04 0.  0.
        3    1    3    3  502    0  0.28581923891E+02  0.31309711245E+03  0.76236466778E+03  0.82464939525E+03  0.10100000352E+00 0.  1.
       -3    1    3    3    0  502 -0.28581923891E+02 -0.31309711245E+03 -0.78740532681E+03  0.84785251494E+03  0.10100000352E+00 0. -1.
</event>
<event>
 5   0  0.9625225E-04  0.1698612E+04  0.7818609E-02  0.8762156E-01
       -2   -1    0    0    0  501  0.00000000000E+00  0.00000000000E+00  0.55497305714E+03  0.55497305714E+03  0.25500000920E-02 0. -1.
        2   -1    0    0  501    0  0.00000000000E+00  0.00000000000E+00 -0.12997397597E+04  0.12997397597E+04  0.25500000920E-02 0.  1.
    10030    2    1    2    0    0  0.00000000000E+00  0.00000000000E+00 -0.74476670255E+03  0.18547128168E+04  0.16986118426E+04 0.  0.
        1    1    3    3  502    0 -0.48117450360E+03 -0.22008182431E+03  0.35301550033E+03  0.63606985136E+03  0.50400001928E-02 0. -1.
       -1    1    3    3    0  502  0.48117450360E+03  0.22008182431E+03 -0.10977822029E+04  0.12186429655E+04  0.50400001928E-02 0.  1.
</event>
<event>
 5   0  0.5035495E-04  0.1728326E+04  0.7818609E-02  0.8745372E-01
       -1   -1    0    0    0  501  0.00000000000E+00  0.00000000000E+00  0.75995073342E+03  0.75995073344E+03  0.50400001928E-02 0.  1.
        1   -1    0    0  501    0  0.00000000000E+00  0.00000000000E+00 -0.98266583435E+03  0.98266583436E+03  0.50400001928E-02 0. -1.
    10030    2    1    2    0    0  0.00000000000E+00  0.00000000000E+00 -0.22271510092E+03  0.17426165678E+04  0.17283259201E+04 0.  0.
        4    1    3    3  502    0  0.86186692666E+03  0.38694176085E+02 -0.61306691068E+02  0.86491153409E+03  0.12699999809E+01 0. -1.
       -4    1    3    3    0  502 -0.86186692666E+03 -0.38694176085E+02 -0.16140840985E+03  0.87770503371E+03  0.12699999809E+01 0.  1.
</event>
<event>
 5   0  0.5009762E-04  0.1780252E+04  0.7818609E-02  0.8716872E-01
        1   -1    0    0  501    0  0.00000000000E+00  0.00000000000E+00  0.91158673102E+03  0.91158673103E+03  0.50400001928E-02 0.  1.
       -1   -1    0    0    0  501  0.00000000000E+00  0.00000000000E+00 -0.86917074569E+03  0.86917074570E+03  0.50400001928E-02 0. -1.
    10030    2    1    2    0    0  0.00000000000E+00  0.00000000000E+00  0.42415985334E+02  0.17807574767E+04  0.17802522504E+04 0.  0.
        3    1    3    3  502    0  0.48821501042E+03  0.68910493411E+03 -0.26012794091E+03  0.88367757833E+03  0.10100000352E+00 0.  1.
       -3    1    3    3    0  502 -0.48821501042E+03 -0.68910493411E+03  0.30254392624E+03  0.89707989840E+03  0.10100000352E+00 0. -1.
</event>
<event>
 5   0  0.5074133E-04  0.1687150E+04  0.7818609E-02  0.8768727E-01
       -1   -1    0    0    0  501  0.00000000000E+00  0.00000000000E+00  0.90018033272E+03  0.90018033273E+03  0.50400001928E-02 0.  1.
        1   -1    0    0  501    0  0.00000000000E+00  0.00000000000E+00 -0.79052923932E+03  0.79052923934E+03  0.50400001928E-02 0. -1.
    10030    2    1    2    0    0  0.00000000000E+00  0.00000000000E+00  0.10965109340E+03  0.16907095721E+04  0.16871501103E+04 0.  0.
        1    1    3    3  502    0  0.20458715587E+03 -0.60040182168E+03 -0.50247778801E+03  0.80921083736E+03  0.50400001928E-02 0. -1.
       -1    1    3    3    0  502 -0.20458715587E+03  0.60040182168E+03  0.61212888141E+03  0.88149873472E+03  0.50400001928E-02 0.  1.
</event>
<event>
 5   0  0.5059689E-04  0.1708662E+04  0.7818609E-02  0.8756439E-01
        1   -1    0    0  501    0  0.00000000000E+00  0.00000000000E+00  0.15110051109E+04  0.15110051109E+04  0.50400001928E-02 0.  1.
       -1   -1    0    0    0  501  0.00000000000E+00  0.00000000000E+00 -0.48304366396E+03  0.48304366399E+03  0.50400001928E-02 0. -1.
    10030    2    1    2    0    0  0.00000000000E+00  0.00000000000E+00  0.10279614469E+04  0.19940487749E+04  0.17086619854E+04 0.  0.
        5    1    3    3  502    0 -0.63550690112E+03 -0.54734434506E+03  0.32434567495E+03  0.89926473315E+03  0.46999998093E+01 0. -1.
       -5    1    3    3    0  502  0.63550690112E+03  0.54734434506E+03  0.70361577195E+03  0.10947840417E+04  0.46999998093E+01 0.  1.
</event>
<event>
 5   0  0.5009762E-04  0.1589178E+04  0.7818609E-02  0.8827224E-01
       -1   -1    0    0    0  501  0.00000000000E+00  0.00000000000E+00  0.54464425663E+03  0.54464425665E+03  0.50400001928E-02 0.  1.
        1   -1    0    0  501    0  0.00000000000E+00  0.00000000000E+00 -0.11592370724E+04  0.11592370724E+04  0.50400001928E-02 0. -1.
    10030    2    1    2    0    0  0.00000000000E+00  0.00000000000E+00 -0.61459281577E+03  0.17038813291E+04  0.15891781695E+04 0.  0.
        3    1    3    3  502    0  0.44891920174E+03 -0.33901780954E+03 -0.90896892086E+03  0.10689649359E+04  0.10100000352E+00 0. -1.
       -3    1    3    3    0  502 -0.44891920174E+03  0.33901780954E+03  0.29437610508E+03  0.63491639318E+03  0.10100000352E+00 0.  1.
</event>
<event>
 5   0  0.9284971E-04  0.1739407E+04  0.7818609E-02  0.8739203E-01
        2   -1    0    0  501    0  0.00000000000E+00  0.00000000000E+00  0.16369968201E+04  0.16369968201E+04  0.25500000920E-02 0. -1.
       -2   -1    0    0    0  501  0.00000000000E+00  0.00000000000E+00 -0.46205581722E+03  0.46205581723E+03  0.25500000920E-02 0.  1.
    10030    2    1    2    0    0  0.00000000000E+00  0.00000000000E+00  0.11749410028E+04  0.20990526373E+04  0.17394066845E+04 0.  0.
        4    1    3    3  502    0 -0.30256511278E+03 -0.32682616024E+03  0.14889328340E+04  0.15541182656E+04  0.12699999809E+01 0. -1.
       -4    1    3    3    0  502  0.30256511278E+03  0.32682616024E+03 -0.31399183116E+03  0.54493437166E+03  0.12699999809E+01 0.  1.
</event>
<event>
 5   0  0.9625225E-04  0.1637822E+04  0.7818609E-02  0.8797643E-01
        2   -1    0    0  501    0  0.00000000000E+00  0.00000000000E+00  0.19055015356E+04  0.19055015356E+04  0.25500000920E-02 0. -1.
       -2   -1    0    0    0  501  0.00000000000E+00  0.00000000000E+00 -0.35193642779E+03  0.35193642780E+03  0.25500000920E-02 0.  1.
    10030    2    1    2    0    0  0.00000000000E+00  0.00000000000E+00  0.15535651078E+04  0.22574379634E+04  0.16378222169E+04 0.  0.
        1    1    3    3  502    0  0.43514173305E+03  0.27532017903E+03  0.16544423822E+04  0.17327230376E+04  0.50400001928E-02 0. -1.
       -1    1    3    3    0  502 -0.43514173305E+03 -0.27532017903E+03 -0.10087727444E+03  0.52471492579E+03  0.50400001928E-02 0.  1.
</event>
<event>
 5   0  0.5035495E-04  0.1128523E+04  0.7818609E-02  0.9177829E-01
       -1   -1    0    0    0  501  0.00000000000E+00  0.00000000000E+00  0.35133384191E+03  0.35133384195E+03  0.50400001928E-02 0.  1.
        1   -1    0    0  501    0  0.00000000000E+00  0.00000000000E+00 -0.90623541021E+03  0.90623541023E+03  0.50400001928E-02 0. -1.
    10030    2    1    2    0    0  0.00000000000E+00  0.00000000000E+00 -0.55490156830E+03  0.12575692522E+04  0.11285232268E+04 0.  0.
        4    1    3    3  502    0  0.56096164181E+03  0.32267726165E+02 -0.21986591182E+03  0.60337534075E+03  0.12699999809E+01 0.  1.
       -4    1    3    3    0  502 -0.56096164181E+03 -0.32267726165E+02 -0.33503565648E+03  0.65419391143E+03  0.12699999809E+01 0. -1.
</event>
<event>
 5   0  0.1007187E-03  0.1704696E+04  0.7818609E-02  0.8758691E-01
        2   -1    0    0  501    0  0.00000000000E+00  0.00000000000E+00  0.16091132777E+04  0.16091132777E+04  0.25500000920E-02 0. -1.
       -2   -1    0    0    0  501  0.00000000000E+00  0.00000000000E+00 -0.45148907664E+03  0.45148907665E+03  0.25500000920E-02 0.  1.
    10030    2    1    2    0    0  0.00000000000E+00  0.00000000000E+00  0.11576242011E+04  0.20606023544E+04  0.17046959471E+04 0.  0.
        5    1    3    3  502    0 -0.80688720531E+03  0.11817415023E+03  0.87844056372E+03  0.11986292195E+04  0.46999998093E+01 0. -1.
       -5    1    3    3    0  502  0.80688720531E+03 -0.11817415023E+03  0.27918363737E+03  0.86197313488E+03  0.46999998093E+01 0.  1.
</event>
<event>
 5   0  0.5035495E-04  0.1706090E+04  0.7818609E-02  0.8757899E-01
        1   -1    0    0  501    0  0.00000000000E+00  0.00000000000E+00  0.23047097722E+04  0.23047097722E+04  0.50400001928E-02 0. -1.
       -1   -1    0    0    0  501  0.00000000000E+00  0.00000000000E+00 -0.31573845863E+03  0.31573845867E+03  0.50400001928E-02 0.  1.
    10030    2    1    2    0    0  0.00000000000E+00  0.00000000000E+00  0.19889713135E+04  0.26204482308E+04  0.17060896941E+04 0.  0.
        4    1    3    3  502    0 -0.27538437084E+03  0.78275235103E+03  0.69059454736E+03  0.10795648366E+04  0.12699999809E+01 0.  1.
       -4    1    3    3    0  502  0.27538437084E+03 -0.78275235103E+03  0.12983767662E+04  0.15408833942E+04  0.12699999809E+01 0. -1.
</event>
<event>
 5   0  0.5074133E-04  0.1684219E+04  0.7818609E-02  0.8770416E-01
        1   -1    0    0  501    0  0.00000000000E+00  0.00000000000E+00  0.78257779749E+03  0.78257779750E+03  0.50400001928E-02 0.  1.
       -1   -1    0    0    0  501  0.00000000000E+00  0.00000000000E+00 -0.90616987486E+03  0.90616987488E+03  0.50400001928E-02 0. -1.
    10030    2    1    2    0    0  0.00000000000E+00  0.00000000000E+00 -0.12359207738E+03  0.16887476724E+04  0.16842190176E+04 0.  0.
        1    1    3    3  502    0  0.38623707114E+02  0.21153505365E+03  0.75458580220E+03  0.78462640956E+03  0.50400001928E-02 0.  1.
       -1    1    3    3    0  502 -0.38623707114E+02 -0.21153505365E+03 -0.87817787958E+03  0.90412126282E+03  0.50400001928E-02 0. -1.
</event>
<event>
 5   0  0.5074133E-04  0.1713106E+04  0.7818609E-02  0.8753924E-01
        1   -1    0    0  501    0  0.00000000000E+00  0.00000000000E+00  0.10204061340E+04  0.10204061340E+04  0.50400001928E-02 0. -1.
       -1   -1    0    0    0  501  0.00000000000E+00  0.00000000000E+00 -0.71901107117E+03  0.71901107119E+03  0.50400001928E-02 0.  1.
    10030    2    1    2    0    0  0.00000000000E+00  0.00000000000E+00  0.30139506281E+03  0.17394172052E+04  0.17131063101E+04 0.  0.
        1    1    3    3  502    0 -0.80561534014E+02 -0.57185738847E+03 -0.49160989631E+03  0.75841368902E+03  0.50400001928E-02 0.  1.
       -1    1    3    3    0  502  0.80561534014E+02  0.57185738847E+03  0.79300495912E+03  0.98100351616E+03  0.50400001928E-02 0. -1.
</event>
<event>
 5   0  0.5009762E-04  0.1600481E+04  0.7818609E-02  0.8820252E-01
        1   -1    0    0  501    0  0.00000000000E+00  0.00000000000E+00  0.15912765061E+04  0.15912765061E+04  0.50400001928E-02 0.  1.
       -1   -1    0    0    0  501  0.00000000000E+00  0.00000000000E+00 -0.40243483550E+03  0.40243483554E+03  0.50400001928E-02 0. -1.
    10030    2    1    2    0    0  0.00000000000E+00  0.00000000000E+00  0.11888416706E+04  0.19937113416E+04  0.16004813014E+04 0.  0.
        3    1    3    3  502    0  0.54489871720E+03  0.31716450988E+03  0.12083312546E+04  0.13629278666E+04  0.10100000352E+00 0.  1.
       -3    1    3    3    0  502 -0.54489871720E+03 -0.31716450988E+03 -0.19489584044E+02  0.63078347507E+03  0.10100000352E+00 0. -1.
</event>
<event>
 5   0  0.1007187E-03  0.1734119E+04  0.7818609E-02  0.8742141E-01
        2   -1    0    0  501    0  0.00000000000E+00  0.00000000000E+00  0.12013233367E+04  0.12013233367E+04  0.25500000920E-02 0. -1.
       -2   -1    0    0    0  501  0.00000000000E+00  0.00000000000E+00 -0.62580319231E+03  0.62580319232E+03  0.25500000920E-02 0.  1.
    10030    2    1    2    0    0  0.00000000000E+00  0.00000000000E+00  0.57552014436E+03  0.18271265290E+04  0.17341187723E+04 0.  0.
        5    1    3    3  502    0  0.35370901650E+03  0.34681530945E+03 -0.46200915355E+03  0.67739609918E+03  0.46999998093E+01 0.  1.
       -5    1    3    3    0  502 -0.35370901650E+03 -0.34681530945E+03  0.10375292979E+04  0.11497304298E+04  0.46999998093E+01 0. -1.
</event>
<event>
 5   0  0.9625225E-04  0.1683684E+04  0.7818609E-02  0.8770725E-01
       -2   -1    0    0    0  501  0.00000000000E+00  0.00000000000E+00  0.60105248120E+03  0.60105248121E+03  0.25500000920E-02 0.  1.
        2   -1    0    0  501    0  0.00000000000E+00  0.00000000000E+00 -0.11790950179E+04  0.11790950179E+04  0.25500000920E-02 0. -1.
    10030    2    1    2    0    0  0.00000000000E+00  0.00000000000E+00 -0.57804253670E+03  0.17801474991E+04  0.16836840394E+04 0.  0.
        1    1    3    3  502    0  0.88056467592E+02  0.79379175917E+03 -0.76170217328E+01  0.79869726270E+03  0.50400001928E-02 0.  1.
       -1    1    3    3    0  502 -0.88056467592E+02 -0.79379175917E+03 -0.57042551497E+03  0.98145023641E+03  0.50400001928E-02 0. -1.
</event>
<event>
 5   0  0.5035495E-04  0.1125139E+04  0.7818609E-02  0.9181031E-01
        1   -1    0    0  501    0  0.00000000000E+00  0.00000000000E+00  0.21071862014E+04  0.21071862014E+04  0.50400001928E-02 0.  1.
       -1   -1    0    0    0  501  0.00000000000E+00  0.00000000000E+00 -0.15019281685E+03  0.15019281693E+03  0.50400001928E-02 0. -1.
    10030    2    1    2    0    0  0.00000000000E+00  0.00000000000E+00  0.19569933846E+04  0.22573790184E+04  0.11251386249E+04 0.  0.
        4    1    3    3  502    0  0.48201840914E+03  0.43565942042E+01  0.39659051761E+03  0.62421661161E+03  0.12699999809E+01 0. -1.
       -4    1    3    3    0  502 -0.48201840914E+03 -0.43565942042E+01  0.15604028670E+04  0.16331624067E+04  0.12699999809E+01 0.  1.
</event>
<event>
 5   0  0.5009762E-04  0.1710272E+04  0.7818609E-02  0.8755528E-01
        1   -1    0    0  501    0  0.00000000000E+00  0.00000000000E+00  0.13949498262E+04  0.13949498262E+04  0.50400001928E-02 0.  1.
       -1   -1    0    0    0  501  0.00000000000E+00  0.00000000000E+00 -0.52421764309E+03  0.52421764311E+03  0.50400001928E-02 0. -1.
    10030    2    1    2    0    0  0.00000000000E+00  0.00000000000E+00  0.87073218307E+03  0.19191674693E+04  0.17102716862E+04 0.  0.
        3    1    3    3  502    0 -0.16239135198E+03  0.45049460728E+03  0.12303788256E+04  0.13202834571E+04  0.10100000352E+00 0.  1.
       -3    1    3    3    0  502  0.16239135198E+03 -0.45049460728E+03 -0.35964664252E+03  0.59888401220E+03  0.10100000352E+00 0. -1.
</event>
<event>
 5   0  0.1007187E-03  0.1659152E+04  0.7818609E-02  0.8785010E-01
       -2   -1    0    0    0  501  0.00000000000E+00  0.00000000000E+00  0.92294347425E+03  0.92294347425E+03  0.25500000920E-02 0.  1.
        2   -1    0    0  501    0  0.00000000000E+00  0.00000000000E+00 -0.74565418919E+03  0.74565418919E+03  0.25500000920E-02 0. -1.
    10030    2    1    2    0    0  0.00000000000E+00  0.00000000000E+00  0.17728928506E+03  0.16685976634E+04  0.16591523956E+04 0.  0.
        5    1    3    3  502    0 -0.72996659769E+03 -0.27381081200E+03  0.37372083587E+03  0.86458831109E+03  0.46999998093E+01 0.  1.
       -5    1    3    3    0  502  0.72996659769E+03  0.27381081200E+03 -0.19643155081E+03  0.80400935235E+03  0.46999998093E+01 0. -1.
</event>
<event>
 5   0  0.5009762E-04  0.1626757E+04  0.7818609E-02  0.8804277E-01
       -1   -1    0    0    0  501  0.00000000000E+00  0.00000000000E+00  0.14571454910E+04  0.14571454910E+04  0.50400001928E-02 0.  1.
        1   -1    0    0  501    0  0.00000000000E+00  0.00000000000E+00 -0.45402784602E+03  0.45402784605E+03  0.50400001928E-02 0. -1.
    10030    2    1    2    0    0  0.00000000000E+00  0.00000000000E+00  0.10031176450E+04  0.19111733370E+04  0.16267570546E+04 0.  0.
        3    1    3    3  502    0 -0.27247132260E+03  0.58703919550E+03 -0.77254067764E+02  0.65178511788E+03  0.10100000352E+00 0. -1.
       -3    1    3    3    0  502  0.27247132260E+03 -0.58703919550E+03  0.10803717127E+04  0.12593882192E+04  0.10100000352E+00 0.  1.
</event>
<event>
 5   0  0.5009762E-04  0.1081712E+04  0.7818609E-02  0.9223202E-01
       -1   -1    0    0    0  501  0.00000000000E+00  0.00000000000E+00  0.13560029034E+04  0.13560029034E+04  0.50400001928E-02 0.  1.
        1   -1    0    0  501    0  0.00000000000E+00  0.00000000000E+00 -0.21572607978E+03  0.21572607983E+03  0.50400001928E-02 0. -1.
    10030    2    1    2    0    0  0.00000000000E+00  0.00000000000E+00  0.11402768236E+04  0.15717289832E+04  0.10817119590E+04 0.  0.
        3    1    3    3  502    0  0.28897415254E+02  0.19903099429E+02 -0.21407053029E+03  0.21692716776E+03  0.10100000352E+00 0. -1.
       -3    1    3    3    0  502 -0.28897415254E+02 -0.19903099429E+02  0.13543473539E+04  0.13548018155E+04  0.10100000352E+00 0.  1.
</event>
<event>
 5   0  0.9284971E-04  0.1505073E+04  0.7818609E-02  0.8881087E-01
        2   -1    0    0  501    0  0.00000000000E+00  0.00000000000E+00  0.20212161564E+04  0.20212161564E+04  0.25500000920E-02 0.  1.
       -2   -1    0    0    0  501  0.00000000000E+00  0.00000000000E+00 -0.28018329211E+03  0.28018329212E+03  0.25500000920E-02 0. -1.
    10030    2    1    2    0    0  0.00000000000E+00  0.00000000000E+00  0.17410328643E+04  0.23013994485E+04  0.15050727514E+04 0.  0.
        4    1    3    3  502    0 -0.70961874588E+03 -0.53476316476E+02  0.12447260470E+04  0.14337932298E+04  0.12699999809E+01 0. -1.
       -4    1    3    3    0  502  0.70961874588E+03  0.53476316476E+02  0.49630681730E+03  0.86760621870E+03  0.12699999809E+01 0.  1.
</event>
<event>
 5   0  0.9610114E-04  0.1666845E+04  0.7818609E-02  0.8780503E-01
        2   -1    0    0  501    0  0.00000000000E+00  0.00000000000E+00  0.28884057557E+04  0.28884057557E+04  0.25500000920E-02 0. -1.
       -2   -1    0    0    0  501  0.00000000000E+00  0.00000000000E+00 -0.24047635943E+03  0.24047635945E+03  0.25500000920E-02 0.  1.
    10030    2    1    2    0    0  0.00000000000E+00  0.00000000000E+00  0.26479293962E+04  0.31288821151E+04  0.16668452846E+04 0.  0.
        2    1    3    3  502    0  0.59667534563E+02 -0.58906523984E+03  0.22294429160E+03  0.63266280801E+03  0.25500000920E-02 0.  1.
       -2    1    3    3    0  502 -0.59667534563E+02  0.58906523984E+03  0.24249851046E+04  0.24962193071E+04  0.25500000920E-02 0. -1.
</event>
<event>
 5   0  0.4947006E-04  0.1698554E+04  0.7818609E-02  0.8762190E-01
       -1   -1    0    0    0  501  0.00000000000E+00  0.00000000000E+00  0.41704750443E+03  0.41704750446E+03  0.50400001928E-02 0. -1.
        1   -1    0    0  501    0  0.00000000000E+00  0.00000000000E+00 -0.17294699274E+04  0.17294699274E+04  0.50400001928E-02 0.  1.
    10030    2    1    2    0    0  0.00000000000E+00  0.00000000000E+00 -0.13124224230E+04  0.21465174319E+04  0.16985536403E+04 0.  0.
        2    1    3    3  502    0 -0.15783555153E+03 -0.89508496746E+02  0.39226590247E+03  0.43219945692E+03  0.25500000920E-02 0. -1.
       -2    1    3    3    0  502  0.15783555153E+03  0.89508496746E+02 -0.17046883255E+04  0.17143179750E+04  0.25500000920E-02 0.  1.
</event>
<event>
 5   0  0.9610114E-04  0.1732952E+04  0.7818609E-02  0.8742790E-01
       -2   -1    0    0    0  501  0.00000000000E+00  0.00000000000E+00  0.94086546376E+03  0.94086546376E+03  0.25500000920E-02 0. -1.
        2   -1    0    0  501    0  0.00000000000E+00  0.00000000000E+00 -0.79796845930E+03  0.79796845930E+03  0.25500000920E-02 0.  1.
    10030    2    1    2    0    0  0.00000000000E+00  0.00000000000E+00  0.14289700446E+03  0.17388339231E+04  0.17329523531E+04 0.  0.
        2    1    3    3  502    0 -0.16807085486E+03 -0.75215232357E+03  0.46877228266E+03  0.90206894587E+03  0.25500000920E-02 0. -1.
       -2    1    3    3    0  502  0.16807085486E+03  0.75215232357E+03 -0.32587527820E+03  0.83676497719E+03  0.25500000920E-02 0.  1.
</event>
<event>
 5   0  0.4947006E-04  0.1565942E+04  0.7818609E-02  0.8841749E-01
       -1   -1    0    0    0  501  0.00000000000E+00  0.00000000000E+00  0.39059805097E+03  0.39059805100E+03  0.50400001928E-02 0. -1.
        1   -1    0    0  501    0  0.00000000000E+00  0.00000000000E+00 -0.15694990937E+04  0.15694990937E+04  0.50400001928E-02 0.  1.
    10030    2    1    2    0    0  0.00000000000E+00  0.00000000000E+00 -0.11789010427E+04  0.19600971447E+04  0.15659416171E+04 0.  0.
        2    1    3    3  502    0  0.49347904542E+03 -0.60639506584E+03 -0.64265524678E+03  0.10120485711E+04  0.25500000920E-02 0. -1.
       -2    1    3    3    0  502 -0.49347904542E+03  0.60639506584E+03 -0.53624579595E+03  0.94804857355E+03  0.25500000920E-02 0.  1.
</event>
<event>
 5   0  0.3523125E-04  0.1693587E+04  0.7818609E-02  0.8765031E-01
        3   -1    0    0  501    0  0.00000000000E+00  0.00000000000E+00  0.55340246860E+03  0.55340247781E+03  0.10100000352E+00 0.  1.
       -3   -1    0    0    0  501  0.00000000000E+00  0.00000000000E+00 -0.12957275581E+04  0.12957275621E+04  0.10100000352E+00 0. -1.
    10030    2    1    2    0    0  0.00000000000E+00  0.00000000000E+00 -0.74232508952E+03  0.18491300399E+04  0.16935865392E+04 0.  0.
        3    1    3    3  502    0  0.25738517018E+03 -0.26506924587E+03 -0.12030793081E+04  0.12585343312E+04  0.10100000352E+00 0. -1.
       -3    1    3    3    0  502 -0.25738517018E+03  0.26506924587E+03  0.46075421861E+03  0.59059570867E+03  0.10100000352E+00 0.  1.
</event>
<event>
 5   0  0.5074133E-04  0.1696568E+04  0.7818609E-02  0.8763324E-01
        1   -1    0    0  501    0  0.00000000000E+00  0.00000000000E+00  0.19291977977E+04  0.19291977977E+04  0.50400001928E-02 0.  1.
       -1   -1    0    0    0  501  0.00000000000E+00  0.00000000000E+00 -0.37299732538E+03  0.37299732541E+03  0.50400001928E-02 0. -1.
    10030    2    1    2    0    0  0.00000000000E+00  0.00000000000E+00  0.15562004723E+04  0.23021951231E+04  0.16965678515E+04 0.  0.
        1    1    3    3  502    0  0.62337076330E+03  0.12465029904E+03  0.15402509349E+04  0.16662838137E+04  0.50400001928E-02 0.  1.
       -1    1    3    3    0  502 -0.62337076330E+03 -0.12465029904E+03  0.15949537446E+02  0.63591130935E+03  0.50400001928E-02 0. -1.
</event>
<event>
 5   0  0.9610114E-04  0.1669392E+04  0.7818609E-02  0.8779016E-01
        2   -1    0    0  501    0  0.00000000000E+00  0.00000000000E+00  0.24818359045E+04  0.24818359045E+04  0.25500000920E-02 0.  1.
       -2   -1    0    0    0  501  0.00000000000E+00  0.00000000000E+00 -0.28072659293E+03  0.28072659294E+03  0.25500000920E-02 0. -1.
    10030    2    1    2    0    0  0.00000000000E+00  0.00000000000E+00  0.22011093116E+04  0.27625624975E+04  0.16693919105E+04 0.  0.
        2    1    3    3  502    0 -0.36508818109E+03 -0.50891113569E+03  0.18748729364E+03  0.65378238679E+03  0.25500000920E-02 0. -1.
       -2    1    3    3    0  502  0.36508818109E+03  0.50891113569E+03  0.20136220180E+04  0.21087801107E+04  0.25500000920E-02 0.  1.
</event>
<event>
 5   0  0.9284971E-04  0.1687909E+04  0.7818609E-02  0.8768290E-01
       -2   -1    0    0    0  501  0.00000000000E+00  0.00000000000E+00  0.11526075632E+04  0.11526075632E+04  0.25500000920E-02 0. -1.
        2   -1    0    0  501    0  0.00000000000E+00  0.00000000000E+00 -0.61795477106E+03  0.61795477106E+03  0.25500000920E-02 0.  1.
    10030    2    1    2    0    0  0.00000000000E+00  0.00000000000E+00  0.53465279213E+03  0.17705623343E+04  0.16879091715E+04 0.  0.
        4    1    3    3  502    0 -0.30844175397E+03  0.27362129703E+03  0.10397633628E+04  0.11185322496E+04  0.12699999809E+01 0. -1.
       -4    1    3    3    0  502  0.30844175397E+03 -0.27362129703E+03 -0.50511057070E+03  0.65203008467E+03  0.12699999809E+01 0.  1.
</event>
<event>
 5   0  0.9625225E-04  0.1702159E+04  0.7818609E-02  0.8760134E-01
        2   -1    0    0  501    0  0.00000000000E+00  0.00000000000E+00  0.16908369327E+04  0.16908369327E+04  0.25500000920E-02 0. -1.
       -2   -1    0    0    0  501  0.00000000000E+00  0.00000000000E+00 -0.42838931341E+03  0.42838931342E+03  0.25500000920E-02 0.  1.
    10030    2    1    2    0    0  0.00000000000E+00  0.00000000000E+00  0.12624476192E+04  0.21192262461E+04  0.17021591849E+04 0.  0.
        1    1    3    3  502    0 -0.51623213355E+03  0.59260084196E+03  0.22460419741E+03  0.81738511066E+03  0.50400001928E-02 0.  1.
       -1    1    3    3    0  502  0.51623213355E+03 -0.59260084196E+03  0.10378434218E+04  0.13018411354E+04  0.50400001928E-02 0. -1.
</event>
<event>
 5   0  0.9625225E-04  0.1753773E+04  0.7818609E-02  0.8731276E-01
       -2   -1    0    0    0  501  0.00000000000E+00  0.00000000000E+00  0.74160352956E+03  0.74160352956E+03  0.25500000920E-02 0. -1.
        2   -1    0    0  501    0  0.00000000000E+00  0.00000000000E+00 -0.10368479531E+04  0.10368479531E+04  0.25500000920E-02 0.  1.
    10030    2    1    2    0    0  0.00000000000E+00  0.00000000000E+00 -0.29524442349E+03  0.17784514826E+04  0.17537731913E+04 0.  0.
        1    1    3    3  502    0  0.52184869871E+03  0.17739812131E+03 -0.83922639541E+03  0.10040403879E+04  0.50400001928E-02 0.  1.
       -1    1    3    3    0  502 -0.52184869871E+03 -0.17739812131E+03  0.54398197192E+03  0.77441109470E+03  0.50400001928E-02 0. -1.
</event>
<event>
 5   0  0.4947006E-04  0.1411208E+04  0.7818609E-02  0.8945745E-01
       -1   -1    0    0    0  501  0.00000000000E+00  0.00000000000E+00  0.10202810715E+04  0.10202810715E+04  0.50400001928E-02 0.  1.
        1   -1    0    0  501    0  0.00000000000E+00  0.00000000000E+00 -0.48798043122E+03  0.48798043125E+03  0.50400001928E-02 0. -1.
    10030    2    1    2    0    0  0.00000000000E+00  0.00000000000E+00  0.53230064026E+03  0.15082615027E+04  0.14112082727E+04 0.  0.
        2    1    3    3  502    0 -0.50731925880E+02 -0.40451312202E+03  0.88166771672E+03  0.97136118767E+03  0.25500000920E-02 0.  1.
       -2    1    3    3    0  502  0.50731925880E+02  0.40451312202E+03 -0.34936707647E+03  0.53690031507E+03  0.25500000920E-02 0. -1.
</event>
<event>
 5   0  0.3523125E-04  0.1617377E+04  0.7818609E-02  0.8809943E-01
        4   -1    0    0  501    0  0.00000000000E+00  0.00000000000E+00  0.16176037260E+04  0.16176042245E+04  0.12699999809E+01 0. -1.
       -4   -1    0    0    0  501  0.00000000000E+00  0.00000000000E+00 -0.40428587570E+03  0.40428787045E+03  0.12699999809E+01 0.  1.
    10030    2    1    2    0    0  0.00000000000E+00  0.00000000000E+00  0.12133178503E+04  0.20218920950E+04  0.16173767149E+04 0.  0.
        1    1    3    3  502    0  0.67153483697E+03 -0.21264992177E+03  0.11006968492E+03  0.71294765731E+03  0.50400001928E-02 0.  1.
       -1    1    3    3    0  502 -0.67153483697E+03  0.21264992177E+03  0.11032481654E+04  0.13089444377E+04  0.50400001928E-02 0. -1.
</event>
<event>
 5   0  0.9625225E-04  0.1719734E+04  0.7818609E-02  0.8750189E-01
        2   -1    0    0  501    0  0.00000000000E+00  0.00000000000E+00  0.28299075708E+04  0.28299075709E+04  0.25500000920E-02 0. -1.
       -2   -1    0    0    0  501  0.00000000000E+00  0.00000000000E+00 -0.26127042971E+03  0.26127042972E+03  0.25500000920E-02 0.  1.
    10030    2    1    2    0    0  0.00000000000E+00  0.00000000000E+00  0.25686371411E+04  0.30911780006E+04  0.17197338946E+04 0.  0.
        1    1    3    3  502    0 -0.73719394758E+03 -0.13373311241E+03  0.52589566839E+03  0.91537190024E+03  0.50400001928E-02 0.  1.
       -1    1    3    3    0  502  0.73719394758E+03  0.13373311241E+03  0.20427414728E+04  0.21758061003E+04  0.50400001928E-02 0. -1.
</event>
<event>
 5   0  0.1007187E-03  0.1664961E+04  0.7818609E-02  0.8781604E-01
       -2   -1    0    0    0  501  0.00000000000E+00  0.00000000000E+00  0.80962569345E+03  0.80962569345E+03  0.25500000920E-02 0. -1.
        2   -1    0    0  501    0  0.00000000000E+00  0.00000000000E+00 -0.85598065685E+03  0.85598065685E+03  0.25500000920E-02 0.  1.
    10030    2    1    2    0    0  0.00000000000E+00  0.00000000000E+00 -0.46354963400E+02  0.16656063503E+04  0.16649611802E+04 0.  0.
        5    1    3    3  502    0  0.54630818557E+03  0.61721155114E+03  0.93482930317E+02  0.82955643613E+03  0.46999998093E+01 0.  1.
       -5    1    3    3    0  502 -0.54630818557E+03 -0.61721155114E+03 -0.13983789372E+03  0.83604991417E+03  0.46999998093E+01 0. -1.
</event>
<event>
 5   0  0.9284971E-04  0.1670940E+04  0.7818609E-02  0.8778114E-01
        2   -1    0    0  501    0  0.00000000000E+00  0.00000000000E+00  0.22577044644E+04  0.22577044644E+04  0.25500000920E-02 0.  1.
       -2   -1    0    0    0  501  0.00000000000E+00  0.00000000000E+00 -0.30916818821E+03  0.30916818822E+03  0.25500000920E-02 0. -1.
    10030    2    1    2    0    0  0.00000000000E+00  0.00000000000E+00  0.19485362762E+04  0.25668726526E+04  0.16709403326E+04 0.  0.
        4    1    3    3  502    0  0.55874405597E+03  0.80747384667E+02  0.28180843192E+02  0.56525289299E+03  0.12699999809E+01 0. -1.
       -4    1    3    3    0  502 -0.55874405597E+03 -0.80747384667E+02  0.19203554330E+04  0.20016197596E+04  0.12699999809E+01 0.  1.
</event>
<event>
 5   0  0.5074133E-04  0.1737524E+04  0.7818609E-02  0.8740248E-01
       -1   -1    0    0    0  501  0.00000000000E+00  0.00000000000E+00  0.10077561610E+04  0.10077561611E+04  0.50400001928E-02 0. -1.
        1   -1    0    0  501    0  0.00000000000E+00  0.00000000000E+00 -0.74893832263E+03  0.74893832265E+03  0.50400001928E-02 0.  1.
    10030    2    1    2    0    0  0.00000000000E+00  0.00000000000E+00  0.25881783842E+03  0.17566944837E+04  0.17375237655E+04 0.  0.
        1    1    3    3  502    0 -0.43061196586E+03 -0.43756174195E+03 -0.49207671872E+03  0.78678233349E+03  0.50400001928E-02 0.  1.
       -1    1    3    3    0  502  0.43061196586E+03  0.43756174195E+03  0.75089455714E+03  0.96991215021E+03  0.50400001928E-02 0. -1.
</event>
<event>
 5   0  0.9312096E-04  0.1787470E+04  0.7818609E-02  0.8712991E-01
       -2   -1    0    0    0  501  0.00000000000E+00  0.00000000000E+00  0.43169923043E+03  0.43169923044E+03  0.25500000920E-02 0.  1.
        2   -1    0    0  501    0  0.00000000000E+00  0.00000000000E+00 -0.18502744203E+04  0.18502744203E+04  0.25500000920E-02 0. -1.
    10030    2    1    2    0    0  0.00000000000E+00  0.00000000000E+00 -0.14185751898E+04  0.22819736507E+04  0.17874697685E+04 0.  0.
        3    1    3    3  502    0 -0.32366955732E+03  0.82212010192E+03 -0.88113148867E+03  0.12478125480E+04  0.10100000352E+00 0. -1.
       -3    1    3    3    0  502  0.32366955732E+03 -0.82212010192E+03 -0.53744370117E+03  0.10341611028E+04  0.10100000352E+00 0.  1.
</event>
<event>
 5   0  0.9625225E-04  0.8674190E+03  0.7818609E-02  0.9467251E-01
       -2   -1    0    0    0  501  0.00000000000E+00  0.00000000000E+00  0.28129014778E+03  0.28129014779E+03  0.25500000920E-02 0.  1.
        2   -1    0    0  501    0  0.00000000000E+00  0.00000000000E+00 -0.66871847440E+03  0.66871847441E+03  0.25500000920E-02 0. -1.
    10030    2    1    2    0    0  0.00000000000E+00  0.00000000000E+00 -0.38742832663E+03  0.95000862220E+03  0.86741897257E+03 0.  0.
        1    1    3    3  502    0 -0.66498572205E+02 -0.35676485439E+03 -0.45381447079E+03  0.58107727141E+03  0.50400001928E-02 0. -1.
       -1    1    3    3    0  502  0.66498572205E+02  0.35676485439E+03  0.66386144162E+02  0.36893135079E+03  0.50400001928E-02 0.  1.
</event>
<event>
 5   0  0.5035495E-04  0.1764364E+04  0.7818609E-02  0.8725483E-01
       -1   -1    0    0    0  501  0.00000000000E+00  0.00000000000E+00  0.12492744602E+04  0.12492744602E+04  0.50400001928E-02 0. -1.
        1   -1    0    0  501    0  0.00000000000E+00  0.00000000000E+00 -0.62295730706E+03  0.62295730708E+03  0.50400001928E-02 0.  1.
    10030    2    1    2    0    0  0.00000000000E+00  0.00000000000E+00  0.62631715310E+03  0.18722317672E+04  0.17643635153E+04 0.  0.
        4    1    3    3  502    0 -0.54751626281E+03  0.18429887139E+03  0.10206299065E+04  0.11727860636E+04  0.12699999809E+01 0. -1.
       -4    1    3    3    0  502  0.54751626281E+03 -0.18429887139E+03 -0.39431275336E+03  0.69944570368E+03  0.12699999809E+01 0.  1.
</event>
<event>
 5   0  0.9312096E-04  0.1707809E+04  0.7818609E-02  0.8756923E-01
       -2   -1    0    0    0  501  0.00000000000E+00  0.00000000000E+00  0.36916636581E+03  0.36916636582E+03  0.25500000920E-02 0. -1.
        2   -1    0    0  501    0  0.00000000000E+00  0.00000000000E+00 -0.19751327255E+04  0.19751327255E+04  0.25500000920E-02 0.  1.
    10030    2    1    2    0    0  0.00000000000E+00  0.00000000000E+00 -0.16059663597E+04  0.23442990913E+04  0.17078086196E+04 0.  0.
        3    1    3    3  502    0 -0.19297497988E+03 -0.46526627554E+02  0.33705447811E+03  0.39116467293E+03  0.10100000352E+00 0. -1.
       -3    1    3    3    0  502  0.19297497988E+03  0.46526627554E+02 -0.19430208378E+04  0.19531344184E+04  0.10100000352E+00 0.  1.
</event>
<event>
 5   0  0.9625225E-04  0.1733587E+04  0.7818609E-02  0.8742437E-01
       -2   -1    0    0    0  501  0.00000000000E+00  0.00000000000E+00  0.10768128368E+04  0.10768128368E+04  0.25500000920E-02 0. -1.
        2   -1    0    0  501    0  0.00000000000E+00  0.00000000000E+00 -0.69773617456E+03  0.69773617457E+03  0.25500000920E-02 0.  1.
    10030    2    1    2    0    0  0.00000000000E+00  0.00000000000E+00  0.37907666221E+03  0.17745490113E+04  0.17335873436E+04 0.  0.
        1    1    3    3  502    0  0.83353268890E+02 -0.21301322665E+03  0.10453606604E+04  0.10700940671E+04  0.50400001928E-02 0. -1.
       -1    1    3    3    0  502 -0.83353268890E+02  0.21301322665E+03 -0.66628399819E+03  0.70445494422E+03  0.50400001928E-02 0.  1.
</event>
<event>
 5   0  0.4947006E-04  0.1717746E+04  0.7818609E-02  0.8751308E-01
       -1   -1    0    0    0  501  0.00000000000E+00  0.00000000000E+00  0.50521520020E+03  0.50521520022E+03  0.50400001928E-02 0. -1.
        1   -1    0    0  501    0  0.00000000000E+00  0.00000000000E+00 -0.14600957879E+04  0.14600957879E+04  0.50400001928E-02 0.  1.
    10030    2    1    2    0    0  0.00000000000E+00  0.00000000000E+00 -0.95488058768E+03  0.19653109881E+04  0.17177457155E+04 0.  0.
        2    1    3    3  502    0 -0.34524580444E+03  0.12926046037E+03 -0.13649721322E+04  0.14138783023E+04  0.25500000920E-02 0.  1.
       -2    1    3    3    0  502  0.34524580444E+03 -0.12926046037E+03  0.41009154450E+03  0.55143268581E+03  0.25500000920E-02 0. -1.
</event>
<event>
 5   0  0.1007187E-03  0.1684621E+04  0.7818609E-02  0.8770184E-01
       -2   -1    0    0    0  501  0.00000000000E+00  0.00000000000E+00  0.87068049009E+03  0.87068049009E+03  0.25500000920E-02 0. -1.
        2   -1    0    0  501    0  0.00000000000E+00  0.00000000000E+00 -0.81486523128E+03  0.81486523128E+03  0.25500000920E-02 0.  1.
    10030    2    1    2    0    0  0.00000000000E+00  0.00000000000E+00  0.55815258814E+02  0.16855457214E+04  0.16846213330E+04 0.  0.
        5    1    3    3  502    0  0.59000657631E+03 -0.29868480975E+02 -0.57280942669E+03  0.82288068124E+03  0.46999998093E+01 0.  1.
       -5    1    3    3    0  502 -0.59000657631E+03  0.29868480975E+02  0.62862468550E+03  0.86266504014E+03  0.46999998093E+01 0. -1.
</event>
<event>
 5   0  0.5074133E-04  0.1649749E+04  0.7818609E-02  0.8790555E-01
        1   -1    0    0  501    0  0.00000000000E+00  0.00000000000E+00  0.87399492099E+03  0.87399492101E+03  0.50400001928E-02 0. -1.
       -1   -1    0    0    0  501  0.00000000000E+00  0.00000000000E+00 -0.77851511221E+03  0.77851511223E+03  0.50400001928E-02 0.  1.
    10030    2    1    2    0    0  0.00000000000E+00  0.00000000000E+00  0.95479808782E+02  0.16525100332E+04  0.16497493798E+04 0.  0.
        1    1    3    3  502    0 -0.51044947880E+03  0.12878291525E+03 -0.58836176567E+03  0.78950191703E+03  0.50400001928E-02 0.  1.
       -1    1    3    3    0  502  0.51044947880E+03 -0.12878291525E+03  0.68384157445E+03  0.86300811621E+03  0.50400001928E-02 0. -1.
</event>
<event>
 5   0  0.9625225E-04  0.1670510E+04  0.7818609E-02  0.8778365E-01
        2   -1    0    0  501    0  0.00000000000E+00  0.00000000000E+00  0.83154451233E+03  0.83154451234E+03  0.25500000920E-02 0. -1.
       -2   -1    0    0    0  501  0.00000000000E+00  0.00000000000E+00 -0.83898172686E+03  0.83898172686E+03  0.25500000920E-02 0.  1.
    10030    2    1    2    0    0  0.00000000000E+00  0.00000000000E+00 -0.74372145284E+01  0.16705262392E+04  0.16705096838E+04 0.  0.
        1    1    3    3  502    0  0.23854695696E+03 -0.22889998335E+03  0.76332927877E+03  0.83184820785E+03  0.50400001928E-02 0. -1.
       -1    1    3    3    0  502 -0.23854695696E+03  0.22889998335E+03 -0.77076649330E+03  0.83867803135E+03  0.50400001928E-02 0.  1.
</event>
<event>
 5   0  0.9610114E-04  0.1695082E+04  0.7818609E-02  0.8764175E-01
       -2   -1    0    0    0  501  0.00000000000E+00  0.00000000000E+00  0.58938298295E+03  0.58938298296E+03  0.25500000920E-02 0. -1.
        2   -1    0    0  501    0  0.00000000000E+00  0.00000000000E+00 -0.12187751860E+04  0.12187751860E+04  0.25500000920E-02 0.  1.
    10030    2    1    2    0    0  0.00000000000E+00  0.00000000000E+00 -0.62939220303E+03  0.18081581689E+04  0.16950815375E+04 0.  0.
        2    1    3    3  502    0 -0.18849887658E+03  0.82512173989E+03 -0.36201328961E+03  0.92054947394E+03  0.25500000920E-02 0. -1.
       -2    1    3    3    0  502  0.18849887658E+03 -0.82512173989E+03 -0.26737891343E+03  0.88760869501E+03  0.25500000920E-02 0.  1.
</event>
<event>
 5   0  0.5059689E-04  0.1698390E+04  0.7818609E-02  0.8762283E-01
       -1   -1    0    0    0  501  0.00000000000E+00  0.00000000000E+00  0.78177168557E+03  0.78177168559E+03  0.50400001928E-02 0.  1.
        1   -1    0    0  501    0  0.00000000000E+00  0.00000000000E+00 -0.92243311272E+03  0.92243311273E+03  0.50400001928E-02 0. -1.
    10030    2    1    2    0    0  0.00000000000E+00  0.00000000000E+00 -0.14066142715E+03  0.17042047983E+04  0.16983899309E+04 0.  0.
        5    1    3    3  502    0 -0.48242323698E+03 -0.69883327225E+03 -0.67177119503E+02  0.85184210823E+03  0.46999998093E+01 0. -1.
       -5    1    3    3    0  502  0.48242323698E+03  0.69883327225E+03 -0.73484307647E+02  0.85236269008E+03  0.46999998093E+01 0.  1.
</event>
<event>
 5   0  0.5009762E-04  0.1437336E+04  0.7818609E-02  0.8927228E-01
       -1   -1    0    0    0  501  0.00000000000E+00  0.00000000000E+00  0.28837354968E+03  0.28837354972E+03  0.50400001928E-02 0.  1.
        1   -1    0    0  501    0  0.00000000000E+00  0.00000000000E+00 -0.17910227398E+04  0.17910227398E+04  0.50400001928E-02 0. -1.
    10030    2    1    2    0    0  0.00000000000E+00  0.00000000000E+00 -0.15026491901E+04  0.20793962895E+04  0.14373358481E+04 0.  0.
        3    1    3    3  502    0  0.18380611828E+03 -0.59318407961E+03 -0.12746059049E+04  0.14178407049E+04  0.10100000352E+00 0. -1.
       -3    1    3    3    0  502 -0.18380611828E+03  0.59318407961E+03 -0.22804328518E+03  0.66155558462E+03  0.10100000352E+00 0.  1.
</event>
<event>
 5   0  0.9312096E-04  0.1674522E+04  0.7818609E-02  0.8776031E-01
       -2   -1    0    0    0  501  0.00000000000E+00  0.00000000000E+00  0.76526461036E+03  0.76526461037E+03  0.25500000920E-02 0.  1.
        2   -1    0    0  501    0  0.00000000000E+00  0.00000000000E+00 -0.91603029783E+03  0.91603029783E+03  0.25500000920E-02 0. -1.
    10030    2    1    2    0    0  0.00000000000E+00  0.00000000000E+00 -0.15076568746E+03  0.16812949082E+04  0.16745215065E+04 0.  0.
        3    1    3    3  502    0 -0.30020166783E+03 -0.17281358433E+02 -0.85994353257E+03  0.91100086505E+03  0.10100000352E+00 0. -1.
       -3    1    3    3    0  502  0.30020166783E+03  0.17281358433E+02  0.70917784510E+03  0.77029404315E+03  0.10100000352E+00 0.  1.
</event>
<event>
 5   0  0.1007187E-03  0.2070245E+04  0.7818609E-02  0.8574465E-01
       -2   -1    0    0    0  501  0.00000000000E+00  0.00000000000E+00  0.61676222029E+03  0.61676222030E+03  0.25500000920E-02 0. -1.
        2   -1    0    0  501    0  0.00000000000E+00  0.00000000000E+00 -0.17372635003E+04  0.17372635003E+04  0.25500000920E-02 0.  1.
    10030    2    1    2    0    0  0.00000000000E+00  0.00000000000E+00 -0.11205012800E+04  0.23540257206E+04  0.20702449069E+04 0.  0.
        5    1    3    3  502    0  0.13740627975E+03 -0.83746912982E+03  0.11362529584E+03  0.85625219822E+03  0.46999998093E+01 0. -1.
       -5    1    3    3    0  502 -0.13740627975E+03  0.83746912982E+03 -0.12341265758E+04  0.14977735223E+04  0.46999998093E+01 0.  1.
</event>
<event>
 5   0  0.5059689E-04  0.1591216E+04  0.7818609E-02  0.8825962E-01
        1   -1    0    0  501    0  0.00000000000E+00  0.00000000000E+00  0.20058639640E+04  0.20058639640E+04  0.50400001928E-02 0.  1.
       -1   -1    0    0    0  501  0.00000000000E+00  0.00000000000E+00 -0.31557095091E+03  0.31557095095E+03  0.50400001928E-02 0. -1.
    10030    2    1    2    0    0  0.00000000000E+00  0.00000000000E+00  0.16902930130E+04  0.23214349149E+04  0.15912163882E+04 0.  0.
        5    1    3    3  502    0  0.19282219735E+03  0.73190479439E+03  0.48747562593E+03  0.90028862245E+03  0.46999998093E+01 0. -1.
       -5    1    3    3    0  502 -0.19282219735E+03 -0.73190479439E+03  0.12028173871E+04  0.14211462925E+04  0.46999998093E+01 0.  1.
</event>
<event>
 5   0  0.9625225E-04  0.1593587E+04  0.7818609E-02  0.8824497E-01
       -2   -1    0    0    0  501  0.00000000000E+00  0.00000000000E+00  0.25083432601E+03  0.25083432603E+03  0.25500000920E-02 0.  1.
        2   -1    0    0  501    0  0.00000000000E+00  0.00000000000E+00 -0.25310740163E+04  0.25310740163E+04  0.25500000920E-02 0. -1.
    10030    2    1    2    0    0  0.00000000000E+00  0.00000000000E+00 -0.22802396903E+04  0.27819083424E+04  0.15935874560E+04 0.  0.
        1    1    3    3  502    0  0.22599291775E+03 -0.74028560734E+03 -0.80989070303E+03  0.11202760955E+04  0.50400001928E-02 0.  1.
       -1    1    3    3    0  502 -0.22599291775E+03  0.74028560734E+03 -0.14703489873E+04  0.16616322468E+04  0.50400001928E-02 0. -1.
</event>
<event>
 5   0  0.5074133E-04  0.1734356E+04  0.7818609E-02  0.8742009E-01
       -1   -1    0    0    0  501  0.00000000000E+00  0.00000000000E+00  0.91457218555E+03  0.91457218556E+03  0.50400001928E-02 0.  1.
        1   -1    0    0  501    0  0.00000000000E+00  0.00000000000E+00 -0.82224010926E+03  0.82224010928E+03  0.50400001928E-02 0. -1.
    10030    2    1    2    0    0  0.00000000000E+00  0.00000000000E+00  0.92332076283E+02  0.17368122948E+04  0.17343562884E+04 0.  0.
        1    1    3    3  502    0  0.47446475313E+03 -0.46268978918E+03 -0.51391058395E+03  0.83863146333E+03  0.50400001928E-02 0. -1.
       -1    1    3    3    0  502 -0.47446475313E+03  0.46268978918E+03  0.60624266024E+03  0.89818083151E+03  0.50400001928E-02 0.  1.
</event>
<event>
 5   0  0.9312096E-04  0.9718776E+03  0.7818609E-02  0.9339938E-01
        2   -1    0    0  501    0  0.00000000000E+00  0.00000000000E+00  0.33779599832E+03  0.33779599833E+03  0.25500000920E-02 0. -1.
       -2   -1    0    0    0  501  0.00000000000E+00  0.00000000000E+00 -0.69905060672E+03  0.69905060672E+03  0.25500000920E-02 0.  1.
    10030    2    1    2    0    0  0.00000000000E+00  0.00000000000E+00 -0.36125460840E+03  0.10368466050E+04  0.97187755932E+03 0.  0.
        3    1    3    3  502    0  0.15048147821E+03 -0.24379337886E+03 -0.59936601418E+03  0.66431883612E+03  0.10100000352E+00 0.  1.
       -3    1    3    3    0  502 -0.15048147821E+03  0.24379337886E+03  0.23811140578E+03  0.37252776893E+03  0.10100000352E+00 0. -1.
</event>
<event>
 5   0  0.9284971E-04  0.1781944E+04  0.7818609E-02  0.8715961E-01
        2   -1    0    0  501    0  0.00000000000E+00  0.00000000000E+00  0.10920494052E+04  0.10920494052E+04  0.25500000920E-02 0.  1.
       -2   -1    0    0    0  501  0.00000000000E+00  0.00000000000E+00 -0.72691884920E+03  0.72691884921E+03  0.25500000920E-02 0. -1.
    10030    2    1    2    0    0  0.00000000000E+00  0.00000000000E+00  0.36513055602E+03  0.18189682544E+04  0.17819442156E+04 0.  0.
        4    1    3    3  502    0 -0.28240763949E+03 -0.87815398165E+02  0.10404823578E+04  0.10816980950E+04  0.12699999809E+01 0.  1.
       -4    1    3    3    0  502  0.28240763949E+03  0.87815398165E+02 -0.67535180174E+03  0.73727015944E+03  0.12699999809E+01 0. -1.
</event>
<event>
 5   0  0.9610114E-04  0.1671845E+04  0.7818609E-02  0.8777587E-01
        2   -1    0    0  501    0  0.00000000000E+00  0.00000000000E+00  0.54366405197E+03  0.54366405198E+03  0.25500000920E-02 0.  1.
       -2   -1    0    0    0  501  0.00000000000E+00  0.00000000000E+00 -0.12852914587E+04  0.12852914587E+04  0.25500000920E-02 0. -1.
    10030    2    1    2    0    0  0.00000000000E+00  0.00000000000E+00 -0.74162740670E+03  0.18289555107E+04  0.16718454024E+04 0.  0.
        2    1    3    3  502    0  0.59603751402E+03 -0.14207031693E+03  0.25123544670E+03  0.66224160452E+03  0.25500000920E-02 0.  1.
       -2    1    3    3    0  502 -0.59603751402E+03  0.14207031693E+03 -0.99286285340E+03  0.11667139061E+04  0.25500000920E-02 0. -1.
</event>
<event>
 5   0  0.9610114E-04  0.1791247E+04  0.7818609E-02  0.8710968E-01
        2   -1    0    0  501    0  0.00000000000E+00  0.00000000000E+00  0.16094663124E+04  0.16094663124E+04  0.25500000920E-02 0.  1.
       -2   -1    0    0    0  501  0.00000000000E+00  0.00000000000E+00 -0.49838987976E+03  0.49838987977E+03  0.25500000920E-02 0. -1.
    10030    2    1    2    0    0  0.00000000000E+00  0.00000000000E+00  0.11110764326E+04  0.21078561922E+04  0.17912472994E+04 0.  0.
        2    1    3    3  502    0 -0.58983442559E+03 -0.58686720094E+03  0.16556571823E+03  0.84836888687E+03  0.25500000920E-02 0. -1.
       -2    1    3    3    0  502  0.58983442559E+03  0.58686720094E+03  0.94551071440E+03  0.12594873053E+04  0.25500000920E-02 0.  1.
</event>
<event>
 5   0  0.9625225E-04  0.1669484E+04  0.7818609E-02  0.8778963E-01
       -2   -1    0    0    0  501  0.00000000000E+00  0.00000000000E+00  0.28703389612E+03  0.28703389613E+03  0.25500000920E-02 0. -1.
        2   -1    0    0  501    0  0.00000000000E+00  0.00000000000E+00 -0.24275667782E+04  0.24275667782E+04  0.25500000920E-02 0.  1.
    10030    2    1    2    0    0  0.00000000000E+00  0.00000000000E+00 -0.21405328821E+04  0.27146006743E+04  0.16694836932E+04 0.  0.
        1    1    3    3  502    0 -0.17392597426E+03 -0.49035018154E+03 -0.21316680580E+04  0.21942429799E+04  0.50400001928E-02 0.  1.
       -1    1    3    3    0  502  0.17392597426E+03  0.49035018154E+03 -0.88648240507E+01  0.52035769446E+03  0.50400001928E-02 0. -1.
</event>
<event>
 5   0  0.5059689E-04  0.1663839E+04  0.7818609E-02  0.8782261E-01
       -1   -1    0    0    0  501  0.00000000000E+00  0.00000000000E+00  0.86560577978E+03  0.86560577980E+03  0.50400001928E-02 0. -1.
        1   -1    0    0  501    0  0.00000000000E+00  0.00000000000E+00 -0.79954433579E+03  0.79954433581E+03  0.50400001928E-02 0.  1.
    10030    2    1    2    0    0  0.00000000000E+00  0.00000000000E+00  0.66061443990E+02  0.16651501156E+04  0.16638391729E+04 0.  0.
        5    1    3    3  502    0  0.77201083101E+03  0.29391913728E+03  0.13148976900E+03  0.83648122023E+03  0.46999998093E+01 0.  1.
       -5    1    3    3    0  502 -0.77201083101E+03 -0.29391913728E+03 -0.65428325008E+02  0.82866889538E+03  0.46999998093E+01 0. -1.
</event>
<event>
 5   0  0.5074133E-04  0.1608253E+04  0.7818609E-02  0.8815494E-01
        1   -1    0    0  501    0  0.00000000000E+00  0.00000000000E+00  0.12290842075E+04  0.12290842075E+04  0.50400001928E-02 0.  1.
       -1   -1    0    0    0  501  0.00000000000E+00  0.00000000000E+00 -0.52609859474E+03  0.52609859477E+03  0.50400001928E-02 0. -1.
    10030    2    1    2    0    0  0.00000000000E+00  0.00000000000E+00  0.70298561279E+03  0.17551828023E+04  0.16082530577E+04 0.  0.
        1    1    3    3  502    0  0.29091920437E+03  0.31345030678E+03 -0.39170192793E+03  0.57992713220E+03  0.50400001928E-02 0. -1.
       -1    1    3    3    0  502 -0.29091920437E+03 -0.31345030678E+03  0.10946875407E+04  0.11752556701E+04  0.50400001928E-02 0.  1.
</event>
<event>
 5   0  0.9625225E-04  0.1666741E+04  0.7818609E-02  0.8780564E-01
        2   -1    0    0  501    0  0.00000000000E+00  0.00000000000E+00  0.60847561679E+03  0.60847561680E+03  0.25500000920E-02 0. -1.
       -2   -1    0    0    0  501  0.00000000000E+00  0.00000000000E+00 -0.11413869760E+04  0.11413869760E+04  0.25500000920E-02 0.  1.
    10030    2    1    2    0    0  0.00000000000E+00  0.00000000000E+00 -0.53291135921E+03  0.17498625928E+04  0.16667407048E+04 0.  0.
        1    1    3    3  502    0 -0.29101472847E+03  0.40861812493E+03  0.43219993127E+03  0.66215944063E+03  0.50400001928E-02 0. -1.
       -1    1    3    3    0  502  0.29101472847E+03 -0.40861812493E+03 -0.96511129048E+03  0.10877031522E+04  0.50400001928E-02 0.  1.
</event>
<event>
 5   0  0.4947006E-04  0.1727620E+04  0.7818609E-02  0.8745767E-01
       -1   -1    0    0    0  501  0.00000000000E+00  0.00000000000E+00  0.13562526705E+04  0.13562526705E+04  0.50400001928E-02 0. -1.
        1   -1    0    0  501    0  0.00000000000E+00  0.00000000000E+00 -0.55016852124E+03  0.55016852127E+03  0.50400001928E-02 0.  1.
    10030    2    1    2    0    0  0.00000000000E+00  0.00000000000E+00  0.80608414924E+03  0.19064211918E+04  0.17276197801E+04 0.  0.
        2    1    3    3  502    0  0.69011840497E+03 -0.29672645095E+03 -0.67541028491E+02  0.75423589818E+03  0.25500000920E-02 0.  1.
       -2    1    3    3    0  502 -0.69011840497E+03  0.29672645095E+03  0.87362517773E+03  0.11521852936E+04  0.25500000920E-02 0. -1.
</event>
<event>
 5   0  0.5009762E-04  0.1726003E+04  0.7818609E-02  0.8746671E-01
       -1   -1    0    0    0  501  0.00000000000E+00  0.00000000000E+00  0.92972945044E+03  0.92972945045E+03  0.50400001928E-02 0.  1.
        1   -1    0    0  501    0  0.00000000000E+00  0.00000000000E+00 -0.80106239547E+03  0.80106239549E+03  0.50400001928E-02 0. -1.
    10030    2    1    2    0    0  0.00000000000E+00  0.00000000000E+00  0.12866705497E+03  0.17307918459E+04  0.17260026660E+04 0.  0.
        3    1    3    3  502    0  0.38466995029E+03 -0.73049049383E+03 -0.18772813317E+03  0.84665766070E+03  0.10100000352E+00 0. -1.
       -3    1    3    3    0  502 -0.38466995029E+03  0.73049049383E+03  0.31639518814E+03  0.88413418524E+03  0.10100000352E+00 0.  1.
</event>
<event>
 5   0  0.5035495E-04  0.1513218E+04  0.7818609E-02  0.8875711E-01
        1   -1    0    0  501    0  0.00000000000E+00  0.00000000000E+00  0.92186506240E+03  0.92186506241E+03  0.50400001928E-02 0. -1.
       -1   -1    0    0    0  501  0.00000000000E+00  0.00000000000E+00 -0.62097697555E+03  0.62097697557E+03  0.50400001928E-02 0.  1.
    10030    2    1    2    0    0  0.00000000000E+00  0.00000000000E+00  0.30088808684E+03  0.15428420380E+04  0.15132177349E+04 0.  0.
        4    1    3    3  502    0  0.44379679770E+03 -0.41712642234E+03 -0.30723738960E+03  0.68216308631E+03  0.12699999809E+01 0. -1.
       -4    1    3    3    0  502 -0.44379679770E+03  0.41712642234E+03  0.60812547644E+03  0.86067895167E+03  0.12699999809E+01 0.  1.
</event>
<event>
 5   0  0.9625225E-04  0.1551547E+04  0.7818609E-02  0.8850880E-01
       -2   -1    0    0    0  501  0.00000000000E+00  0.00000000000E+00  0.11629843497E+04  0.11629843497E+04  0.25500000920E-02 0.  1.
        2   -1    0    0  501    0  0.00000000000E+00  0.00000000000E+00 -0.51748268892E+03  0.51748268893E+03  0.25500000920E-02 0. -1.
    10030    2    1    2    0    0  0.00000000000E+00  0.00000000000E+00  0.64550166075E+03  0.16804670386E+04  0.15515466715E+04 0.  0.
        1    1    3    3  502    0 -0.37399933141E+03 -0.36781389747E+03 -0.29628283323E+03  0.60245006462E+03  0.50400001928E-02 0. -1.
       -1    1    3    3    0  502  0.37399933141E+03  0.36781389747E+03  0.94178449398E+03  0.10780169740E+04  0.50400001928E-02 0.  1.
</event>
<event>
 5   0  0.4947006E-04  0.1743262E+04  0.7818609E-02  0.8737068E-01
       -1   -1    0    0    0  501  0.00000000000E+00  0.00000000000E+00  0.83123145544E+03  0.83123145545E+03  0.50400001928E-02 0. -1.
        1   -1    0    0  501    0  0.00000000000E+00  0.00000000000E+00 -0.91399433418E+03  0.91399433420E+03  0.50400001928E-02 0.  1.
    10030    2    1    2    0    0  0.00000000000E+00  0.00000000000E+00 -0.82762878746E+02  0.17452257897E+04  0.17432622760E+04 0.  0.
        2    1    3    3  502    0  0.13836710611E+03 -0.17055103904E+03 -0.88584069585E+03  0.91265921976E+03  0.25500000920E-02 0.  1.
       -2    1    3    3    0  502 -0.13836710611E+03  0.17055103904E+03  0.80307781711E+03  0.83256656989E+03  0.25500000920E-02 0. -1.
</event>
<event>
 5   0  0.5059689E-04  0.1728415E+04  0.7818609E-02  0.8745322E-01
       -1   -1    0    0    0  501  0.00000000000E+00  0.00000000000E+00  0.80601832908E+03  0.80601832910E+03  0.50400001928E-02 0. -1.
        1   -1    0    0  501    0  0.00000000000E+00  0.00000000000E+00 -0.92659741618E+03  0.92659741619E+03  0.50400001928E-02 0.  1.
    10030    2    1    2    0    0  0.00000000000E+00  0.00000000000E+00 -0.12057908709E+03  0.17326157453E+04  0.17284148821E+04 0.  0.
        5    1    3    3  502    0  0.37918432142E+03  0.24041628568E+03  0.67991673134E+03  0.81479420198E+03  0.46999998093E+01 0. -1.
       -5    1    3    3    0  502 -0.37918432142E+03 -0.24041628568E+03 -0.80049581843E+03  0.91782154331E+03  0.46999998093E+01 0.  1.
</event>
<event>
 5   0  0.5059689E-04  0.1822183E+04  0.7818609E-02  0.8694591E-01
       -1   -1    0    0    0  501  0.00000000000E+00  0.00000000000E+00  0.12305719385E+04  0.12305719385E+04  0.50400001928E-02 0. -1.
        1   -1    0    0  501    0  0.00000000000E+00  0.00000000000E+00 -0.67455438247E+03  0.67455438249E+03  0.50400001928E-02 0.  1.
    10030    2    1    2    0    0  0.00000000000E+00  0.00000000000E+00  0.55601755604E+03  0.19051263210E+04  0.18221829701E+04 0.  0.
        5    1    3    3  502    0  0.90840029889E+03  0.29892831056E+02  0.34397528748E+03  0.97181570926E+03  0.46999998093E+01 0.  1.
       -5    1    3    3    0  502 -0.90840029889E+03 -0.29892831056E+02  0.21204226856E+03  0.93331061176E+03  0.46999998093E+01 0. -1.
</event>
<event>
 5   0  0.9625225E-04  0.1734025E+04  0.7818609E-02  0.8742193E-01
       -2   -1    0    0    0  501  0.00000000000E+00  0.00000000000E+00  0.63333557894E+03  0.63333557895E+03  0.25500000920E-02 0.  1.
        2   -1    0    0  501    0  0.00000000000E+00  0.00000000000E+00 -0.11869073701E+04  0.11869073701E+04  0.25500000920E-02 0. -1.
    10030    2    1    2    0    0  0.00000000000E+00  0.00000000000E+00 -0.55357179115E+03  0.18202429490E+04  0.17340249899E+04 0.  0.
        1    1    3    3  502    0 -0.29519456086E+02 -0.57651348795E+02  0.63079246564E+03  0.63410898987E+03  0.50400001928E-02 0.  1.
       -1    1    3    3    0  502  0.29519456086E+02  0.57651348795E+02 -0.11843642568E+04  0.11861339592E+04  0.50400001928E-02 0. -1.
</event>
<event>
 5   0  0.5059689E-04  0.1626548E+04  0.7818609E-02  0.8804403E-01
       -1   -1    0    0    0  501  0.00000000000E+00  0.00000000000E+00  0.85628998262E+03  0.85628998263E+03  0.50400001928E-02 0.  1.
        1   -1    0    0  501    0  0.00000000000E+00  0.00000000000E+00 -0.77241895651E+03  0.77241895652E+03  0.50400001928E-02 0. -1.
    10030    2    1    2    0    0  0.00000000000E+00  0.00000000000E+00  0.83871026112E+02  0.16287089392E+04  0.16265480194E+04 0.  0.
        5    1    3    3  502    0  0.15173634166E+03  0.79778038351E+03  0.85755131964E+02  0.81661097859E+03  0.46999998093E+01 0. -1.
       -5    1    3    3    0  502 -0.15173634166E+03 -0.79778038351E+03 -0.18841058514E+01  0.81209796056E+03  0.46999998093E+01 0.  1.
</event>
<event>
 5   0  0.9610114E-04  0.1695297E+04  0.7818609E-02  0.8764051E-01
        2   -1    0    0  501    0  0.00000000000E+00  0.00000000000E+00  0.90107474430E+03  0.90107474430E+03  0.25500000920E-02 0.  1.
       -2   -1    0    0    0  501  0.00000000000E+00  0.00000000000E+00 -0.79739031154E+03  0.79739031155E+03  0.25500000920E-02 0. -1.
    10030    2    1    2    0    0  0.00000000000E+00  0.00000000000E+00  0.10368443276E+03  0.16984650559E+04  0.16952973439E+04 0.  0.
        2    1    3    3  502    0  0.67913960160E+03 -0.47788724905E+03 -0.11847970561E+03  0.83883506240E+03  0.25500000920E-02 0. -1.
       -2    1    3    3    0  502 -0.67913960160E+03  0.47788724905E+03  0.22216413837E+03  0.85962999345E+03  0.25500000920E-02 0.  1.
</event>
<event>
 5   0  0.4947006E-04  0.1666769E+04  0.7818609E-02  0.8780547E-01
        1   -1    0    0  501    0  0.00000000000E+00  0.00000000000E+00  0.51664835691E+03  0.51664835693E+03  0.50400001928E-02 0.  1.
       -1   -1    0    0    0  501  0.00000000000E+00  0.00000000000E+00 -0.13442993970E+04  0.13442993970E+04  0.50400001928E-02 0. -1.
    10030    2    1    2    0    0  0.00000000000E+00  0.00000000000E+00 -0.82765104006E+03  0.18609477539E+04  0.16667694198E+04 0.  0.
        2    1    3    3  502    0  0.46266316350E+03  0.56302432783E+03 -0.86525123338E+03  0.11312441352E+04  0.25500000920E-02 0. -1.
       -2    1    3    3    0  502 -0.46266316350E+03 -0.56302432783E+03  0.37600193316E+02  0.72970361870E+03  0.25500000920E-02 0.  1.
</event>
<event>
 5   0  0.1007187E-03  0.2187780E+04  0.7818609E-02  0.8523532E-01
       -2   -1    0    0    0  501  0.00000000000E+00  0.00000000000E+00  0.85721923893E+03  0.85721923893E+03  0.25500000920E-02 0. -1.
        2   -1    0    0  501    0  0.00000000000E+00  0.00000000000E+00 -0.13959028957E+04  0.13959028957E+04  0.25500000920E-02 0.  1.
    10030    2    1    2    0    0  0.00000000000E+00  0.00000000000E+00 -0.53868365681E+03  0.22531221347E+04  0.21877795299E+04 0.  0.
        5    1    3    3  502    0 -0.72556329562E+03  0.66294805657E+03  0.22524159431E+03  0.10083144785E+04  0.46999998093E+01 0. -1.
       -5    1    3    3    0  502  0.72556329562E+03 -0.66294805657E+03 -0.76392525112E+03  0.12448076562E+04  0.46999998093E+01 0.  1.
</event>
<event>
 5   0  0.9284971E-04  0.1666414E+04  0.7818609E-02  0.8780755E-01
       -2   -1    0    0    0  501  0.00000000000E+00  0.00000000000E+00  0.83821977988E+03  0.83821977989E+03  0.25500000920E-02 0.  1.
        2   -1    0    0  501    0  0.00000000000E+00  0.00000000000E+00 -0.82822443042E+03  0.82822443042E+03  0.25500000920E-02 0. -1.
    10030    2    1    2    0    0  0.00000000000E+00  0.00000000000E+00  0.99953494638E+01  0.16664442103E+04  0.16664142339E+04 0.  0.
        4    1    3    3  502    0 -0.38879583960E+03  0.48606469500E+03 -0.54891787166E+03  0.82989971403E+03  0.12699999809E+01 0. -1.
       -4    1    3    3    0  502  0.38879583960E+03 -0.48606469500E+03  0.55891322112E+03  0.83654449628E+03  0.12699999809E+01 0.  1.
</event>
<event>
 5   0  0.9284971E-04  0.1698713E+04  0.7818609E-02  0.8762099E-01
       -2   -1    0    0    0  501  0.00000000000E+00  0.00000000000E+00  0.90702309971E+03  0.90702309972E+03  0.25500000920E-02 0. -1.
        2   -1    0    0  501    0  0.00000000000E+00  0.00000000000E+00 -0.79535597142E+03  0.79535597142E+03  0.25500000920E-02 0.  1.
    10030    2    1    2    0    0  0.00000000000E+00  0.00000000000E+00  0.11166712829E+03  0.17023790711E+04  0.16987127345E+04 0.  0.
        4    1    3    3  502    0  0.73901559853E+03 -0.21601760547E+03 -0.30354460212E+03  0.82761621487E+03  0.12699999809E+01 0.  1.
       -4    1    3    3    0  502 -0.73901559853E+03  0.21601760547E+03  0.41521173041E+03  0.87476285627E+03  0.12699999809E+01 0. -1.
</event>
<event>
 5   0  0.5059689E-04  0.1697691E+04  0.7818609E-02  0.8762682E-01
       -1   -1    0    0    0  501  0.00000000000E+00  0.00000000000E+00  0.13513359634E+04  0.13513359634E+04  0.50400001928E-02 0. -1.
        1   -1    0    0  501    0  0.00000000000E+00  0.00000000000E+00 -0.53320469055E+03  0.53320469058E+03  0.50400001928E-02 0.  1.
    10030    2    1    2    0    0  0.00000000000E+00  0.00000000000E+00  0.81813127287E+03  0.18845406540E+04  0.16976909898E+04 0.  0.
        5    1    3    3  502    0  0.73267618253E+03 -0.42344167328E+03  0.48269327707E+03  0.97423412425E+03  0.46999998093E+01 0.  1.
       -5    1    3    3    0  502 -0.73267618253E+03  0.42344167328E+03  0.33543799580E+03  0.91030652977E+03  0.46999998093E+01 0. -1.
</event>
<event>
 5   0  0.3523125E-04  0.1005652E+04  0.7818609E-02  0.9302367E-01
       -3   -1    0    0    0  501  0.00000000000E+00  0.00000000000E+00  0.52718911777E+03  0.52718912745E+03  0.10100000352E+00 0. -1.
        3   -1    0    0  501    0  0.00000000000E+00  0.00000000000E+00 -0.47958912823E+03  0.47958913886E+03  0.10100000352E+00 0.  1.
    10030    2    1    2    0    0  0.00000000000E+00  0.00000000000E+00  0.47599989544E+02  0.10067782663E+04  0.10056523845E+04 0.  0.
        4    1    3    3  502    0 -0.43994281113E+03  0.21306345250E+03  0.14177442605E+03  0.50896690721E+03  0.12699999809E+01 0. -1.
       -4    1    3    3    0  502  0.43994281113E+03 -0.21306345250E+03 -0.94174436510E+02  0.49781135910E+03  0.12699999809E+01 0.  1.
</event>
<event>
 5   0  0.5059689E-04  0.1719536E+04  0.7818609E-02  0.8750300E-01
        1   -1    0    0  501    0  0.00000000000E+00  0.00000000000E+00  0.41807332838E+03  0.41807332841E+03  0.50400001928E-02 0. -1.
       -1   -1    0    0    0  501  0.00000000000E+00  0.00000000000E+00 -0.17681124217E+04  0.17681124217E+04  0.50400001928E-02 0.  1.
    10030    2    1    2    0    0  0.00000000000E+00  0.00000000000E+00 -0.13500390933E+04  0.21861857501E+04  0.17195355712E+04 0.  0.
        5    1    3    3  502    0 -0.81522621558E+02 -0.92340459941E+02 -0.17568194407E+04  0.17611386475E+04  0.46999998093E+01 0.  1.
       -5    1    3    3    0  502  0.81522621558E+02  0.92340459941E+02  0.40678034744E+03  0.42504710260E+03  0.46999998093E+01 0. -1.
</event>
<event>
 5   0  0.9284971E-04  0.1769379E+04  0.7818609E-02  0.8722755E-01
        2   -1    0    0  501    0  0.00000000000E+00  0.00000000000E+00  0.58279627225E+03  0.58279627226E+03  0.25500000920E-02 0.  1.
       -2   -1    0    0    0  501  0.00000000000E+00  0.00000000000E+00 -0.13429651671E+04  0.13429651671E+04  0.25500000920E-02 0. -1.
    10030    2    1    2    0    0  0.00000000000E+00  0.00000000000E+00 -0.76016889486E+03  0.19257614394E+04  0.17693785272E+04 0.  0.
        4    1    3    3  502    0  0.31146038080E+03 -0.21874120625E+02  0.52083596872E+03  0.60725428378E+03  0.12699999809E+01 0.  1.
       -4    1    3    3    0  502 -0.31146038080E+03  0.21874120625E+02 -0.12810048636E+04  0.13185071556E+04  0.12699999809E+01 0. -1.
</event>
<event>
 5   0  0.1007187E-03  0.1678580E+04  0.7818609E-02  0.8773676E-01
        2   -1    0    0  501    0  0.00000000000E+00  0.00000000000E+00  0.11714454056E+04  0.11714454056E+04  0.25500000920E-02 0. -1.
       -2   -1    0    0    0  501  0.00000000000E+00  0.00000000000E+00 -0.60131479848E+03  0.60131479848E+03  0.25500000920E-02 0.  1.
    10030    2    1    2    0    0  0.00000000000E+00  0.00000000000E+00  0.57013060712E+03  0.17727602041E+04  0.16785797068E+04 0.  0.
        5    1    3    3  502    0 -0.74677873269E+03 -0.14990888046E+03 -0.87179500334E+02  0.76666387897E+03  0.46999998093E+01 0.  1.
       -5    1    3    3    0  502  0.74677873269E+03  0.14990888046E+03  0.65731010745E+03  0.10060963251E+04  0.46999998093E+01 0. -1.
</event>
<event>
 5   0  0.5009762E-04  0.1712434E+04  0.7818609E-02  0.8754304E-01
       -1   -1    0    0    0  501  0.00000000000E+00  0.00000000000E+00  0.49366169020E+03  0.49366169023E+03  0.50400001928E-02 0. -1.
        1   -1    0    0  501    0  0.00000000000E+00  0.00000000000E+00 -0.14850405527E+04  0.14850405527E+04  0.50400001928E-02 0.  1.
    10030    2    1    2    0    0  0.00000000000E+00  0.00000000000E+00 -0.99137886252E+03  0.19787022430E+04  0.17124340914E+04 0.  0.
        3    1    3    3  502    0 -0.82606235656E+03 -0.22264846072E+03 -0.45639823110E+03  0.96966525643E+03  0.10100000352E+00 0.  1.
       -3    1    3    3    0  502  0.82606235656E+03  0.22264846072E+03 -0.53498063142E+03  0.10090369865E+04  0.10100000352E+00 0. -1.
</event>
<event>
 5   0  0.9284971E-04  0.1733502E+04  0.7818609E-02  0.8742484E-01
        2   -1    0    0  501    0  0.00000000000E+00  0.00000000000E+00  0.11624485884E+04  0.11624485884E+04  0.25500000920E-02 0.  1.
       -2   -1    0    0    0  501  0.00000000000E+00  0.00000000000E+00 -0.64627151301E+03  0.64627151301E+03  0.25500000920E-02 0. -1.
    10030    2    1    2    0    0  0.00000000000E+00  0.00000000000E+00  0.51617707536E+03  0.18087201014E+04  0.17335021292E+04 0.  0.
        4    1    3    3  502    0 -0.34310113415E+03 -0.12542581750E+03 -0.56202308389E+03  0.67031454085E+03  0.12699999809E+01 0. -1.
       -4    1    3    3    0  502  0.34310113415E+03  0.12542581750E+03  0.10782001592E+04  0.11384055605E+04  0.12699999809E+01 0.  1.
</event>
<event>
 5   0  0.9625225E-04  0.1718853E+04  0.7818609E-02  0.8750684E-01
       -2   -1    0    0    0  501  0.00000000000E+00  0.00000000000E+00  0.38884987279E+03  0.38884987280E+03  0.25500000920E-02 0.  1.
        2   -1    0    0  501    0  0.00000000000E+00  0.00000000000E+00 -0.18994843069E+04  0.18994843069E+04  0.25500000920E-02 0. -1.
    10030    2    1    2    0    0  0.00000000000E+00  0.00000000000E+00 -0.15106344341E+04  0.22883341797E+04  0.17188533749E+04 0.  0.
        1    1    3    3  502    0 -0.43013954118E+03  0.36064772873E+03  0.11108864814E+03  0.57221280735E+03  0.50400001928E-02 0.  1.
       -1    1    3    3    0  502  0.43013954118E+03 -0.36064772873E+03 -0.16217230822E+04  0.17161213723E+04  0.50400001928E-02 0. -1.
</event>
<event>
 5   0  0.5009762E-04  0.1718961E+04  0.7818609E-02  0.8750624E-01
        1   -1    0    0  501    0  0.00000000000E+00  0.00000000000E+00  0.69386563413E+03  0.69386563415E+03  0.50400001928E-02 0. -1.
       -1   -1    0    0    0  501  0.00000000000E+00  0.00000000000E+00 -0.10646248149E+04  0.10646248149E+04  0.50400001928E-02 0.  1.
    10030    2    1    2    0    0  0.00000000000E+00  0.00000000000E+00 -0.37075918080E+03  0.17584904491E+04  0.17189608167E+04 0.  0.
        3    1    3    3  502    0 -0.50420209385E+03  0.27858105170E+03  0.46716003960E+03  0.74166411981E+03  0.10100000352E+00 0. -1.
       -3    1    3    3    0  502  0.50420209385E+03 -0.27858105170E+03 -0.83791922040E+03  0.10168263293E+04  0.10100000352E+00 0.  1.
</event>
<event>
 5   0  0.9312096E-04  0.1756383E+04  0.7818609E-02  0.8729844E-01
        2   -1    0    0  501    0  0.00000000000E+00  0.00000000000E+00  0.66802673720E+03  0.66802673721E+03  0.25500000920E-02 0.  1.
       -2   -1    0    0    0  501  0.00000000000E+00  0.00000000000E+00 -0.11544756180E+04  0.11544756180E+04  0.25500000920E-02 0. -1.
    10030    2    1    2    0    0  0.00000000000E+00  0.00000000000E+00 -0.48644888082E+03  0.18225023552E+04  0.17563833070E+04 0.  0.
        3    1    3    3  502    0 -0.80716363571E+03 -0.10645239607E+02  0.11561791652E+03  0.81547162352E+03  0.10100000352E+00 0.  1.
       -3    1    3    3    0  502  0.80716363571E+03  0.10645239607E+02 -0.60206679734E+03  0.10070307317E+04  0.10100000352E+00 0. -1.
</event>
<event>
 5   0  0.5009762E-04  0.1781041E+04  0.7818609E-02  0.8716447E-01
        1   -1    0    0  501    0  0.00000000000E+00  0.00000000000E+00  0.17773793951E+04  0.17773793951E+04  0.50400001928E-02 0.  1.
       -1   -1    0    0    0  501  0.00000000000E+00  0.00000000000E+00 -0.44617737831E+03  0.44617737834E+03  0.50400001928E-02 0. -1.
    10030    2    1    2    0    0  0.00000000000E+00  0.00000000000E+00  0.13312020168E+04  0.22235567734E+04  0.17810406832E+04 0.  0.
        3    1    3    3  502    0  0.53377303789E+03  0.25018606291E+03  0.14989134416E+04  0.16106670164E+04  0.10100000352E+00 0.  1.
       -3    1    3    3    0  502 -0.53377303789E+03 -0.25018606291E+03 -0.16771142485E+03  0.61288975704E+03  0.10100000352E+00 0. -1.
</event>
<event>
 5   0  0.5059689E-04  0.1654075E+04  0.7818609E-02  0.8788000E-01
       -1   -1    0    0    0  501  0.00000000000E+00  0.00000000000E+00  0.11195388890E+04  0.11195388890E+04  0.50400001928E-02 0. -1.
        1   -1    0    0  501    0  0.00000000000E+00  0.00000000000E+00 -0.61095750126E+03  0.61095750128E+03  0.50400001928E-02 0.  1.
    10030    2    1    2    0    0  0.00000000000E+00  0.00000000000E+00  0.50858138772E+03  0.17304963903E+04  0.16540745838E+04 0.  0.
        5    1    3    3  502    0 -0.31706042265E+03 -0.75821802285E+03  0.35101043020E+03  0.89367348282E+03  0.46999998093E+01 0.  1.
       -5    1    3    3    0  502  0.31706042265E+03  0.75821802285E+03  0.15757095751E+03  0.83682290745E+03  0.46999998093E+01 0. -1.
</event>
<event>
 5   0  0.5074133E-04  0.1606371E+04  0.7818609E-02  0.8816644E-01
        1   -1    0    0  501    0  0.00000000000E+00  0.00000000000E+00  0.62982946790E+03  0.62982946792E+03  0.50400001928E-02 0.  1.
       -1   -1    0    0    0  501  0.00000000000E+00  0.00000000000E+00 -0.10242566967E+04  0.10242566967E+04  0.50400001928E-02 0. -1.
    10030    2    1    2    0    0  0.00000000000E+00  0.00000000000E+00 -0.39442722883E+03  0.16540861647E+04  0.16063711281E+04 0.  0.
        1    1    3    3  502    0  0.91035646713E+02 -0.76287855027E+03 -0.43833994849E+03  0.88454117027E+03  0.50400001928E-02 0. -1.
       -1    1    3    3    0  502 -0.91035646713E+02  0.76287855027E+03  0.43912719663E+02  0.76954499440E+03  0.50400001928E-02 0.  1.
</event>
<event>
 5   0  0.5074133E-04  0.1691028E+04  0.7818609E-02  0.8766498E-01
       -1   -1    0    0    0  501  0.00000000000E+00  0.00000000000E+00  0.51354315555E+03  0.51354315558E+03  0.50400001928E-02 0. -1.
        1   -1    0    0  501    0  0.00000000000E+00  0.00000000000E+00 -0.13920809861E+04  0.13920809861E+04  0.50400001928E-02 0.  1.
    10030    2    1    2    0    0  0.00000000000E+00  0.00000000000E+00 -0.87853783056E+03  0.19056241417E+04  0.16910276904E+04 0.  0.
        1    1    3    3  502    0  0.43449150091E+03 -0.13946899192E+03 -0.12413984227E+04  0.13226127581E+04  0.50400001928E-02 0.  1.
       -1    1    3    3    0  502 -0.43449150091E+03  0.13946899192E+03  0.36286059211E+03  0.58301138359E+03  0.50400001928E-02 0. -1.
</event>
<event>
 5   0  0.9312096E-04  0.1687569E+04  0.7818609E-02  0.8768486E-01
        2   -1    0    0  501    0  0.00000000000E+00  0.00000000000E+00  0.10429696594E+04  0.10429696594E+04  0.25500000920E-02 0.  1.
       -2   -1    0    0    0  501  0.00000000000E+00  0.00000000000E+00 -0.68263931639E+03  0.68263931640E+03  0.25500000920E-02 0. -1.
    10030    2    1    2    0    0  0.00000000000E+00  0.00000000000E+00  0.36033034298E+03  0.17256089758E+04  0.16875687782E+04 0.  0.
        3    1    3    3  502    0  0.12178363031E+03  0.46064380661E+03 -0.53191443397E+03  0.71411269730E+03  0.10100000352E+00 0. -1.
       -3    1    3    3    0  502 -0.12178363031E+03 -0.46064380661E+03  0.89224477694E+03  0.10114962785E+04  0.10100000352E+00 0.  1.
</event>
<event>
 5   0  0.5074133E-04  0.1585489E+04  0.7818609E-02  0.8829513E-01
        1   -1    0    0  501    0  0.00000000000E+00  0.00000000000E+00  0.21333928363E+04  0.21333928363E+04  0.50400001928E-02 0. -1.
       -1   -1    0    0    0  501  0.00000000000E+00  0.00000000000E+00 -0.29457470461E+03  0.29457470466E+03  0.50400001928E-02 0.  1.
    10030    2    1    2    0    0  0.00000000000E+00  0.00000000000E+00  0.18388181317E+04  0.24279675410E+04  0.15854886498E+04 0.  0.
        1    1    3    3  502    0 -0.60989590502E+03 -0.35155315107E+03  0.14776363652E+04  0.16367565062E+04  0.50400001928E-02 0. -1.
       -1    1    3    3    0  502  0.60989590502E+03  0.35155315107E+03  0.36118176651E+03  0.79121103472E+03  0.50400001928E-02 0.  1.
</event>
<event>
 5   0  0.4947006E-04  0.1662681E+04  0.7818609E-02  0.8782940E-01
        1   -1    0    0  501    0  0.00000000000E+00  0.00000000000E+00  0.71571566629E+03  0.71571566631E+03  0.50400001928E-02 0. -1.
       -1   -1    0    0    0  501  0.00000000000E+00  0.00000000000E+00 -0.96564455590E+03  0.96564455592E+03  0.50400001928E-02 0.  1.
    10030    2    1    2    0    0  0.00000000000E+00  0.00000000000E+00 -0.24992888961E+03  0.16813602222E+04  0.16626808915E+04 0.  0.
        2    1    3    3  502    0 -0.38605734745E+03 -0.64743386689E+03  0.22956814190E+03  0.78797996123E+03  0.25500000920E-02 0. -1.
       -2    1    3    3    0  502  0.38605734745E+03  0.64743386689E+03 -0.47949703151E+03  0.89338026100E+03  0.25500000920E-02 0.  1.
</event>
<event>
 5   0  0.5059689E-04  0.1190199E+04  0.7818609E-02  0.9121479E-01
        1   -1    0    0  501    0  0.00000000000E+00  0.00000000000E+00  0.29483075740E+03  0.29483075745E+03  0.50400001928E-02 0. -1.
       -1   -1    0    0    0  501  0.00000000000E+00  0.00000000000E+00 -0.12011753349E+04  0.12011753349E+04  0.50400001928E-02 0.  1.
    10030    2    1    2    0    0  0.00000000000E+00  0.00000000000E+00 -0.90634457749E+03  0.14960060923E+04  0.11901990318E+04 0.  0.
        5    1    3    3  502    0  0.30544463119E+03  0.43320017503E+03 -0.79315601183E+03  0.95397975003E+03  0.46999998093E+01 0.  1.
       -5    1    3    3    0  502 -0.30544463119E+03 -0.43320017503E+03 -0.11318856565E+03  0.54202634231E+03  0.46999998093E+01 0. -1.
</event>
<event>
 5   0  0.9284971E-04  0.1706697E+04  0.7818609E-02  0.8757554E-01
        2   -1    0    0  501    0  0.00000000000E+00  0.00000000000E+00  0.12488997093E+04  0.12488997093E+04  0.25500000920E-02 0.  1.
       -2   -1    0    0    0  501  0.00000000000E+00  0.00000000000E+00 -0.58307626022E+03  0.58307626023E+03  0.25500000920E-02 0. -1.
    10030    2    1    2    0    0  0.00000000000E+00  0.00000000000E+00  0.66582344908E+03  0.18319759695E+04  0.17066971283E+04 0.  0.
        4    1    3    3  502    0 -0.92097514564E+02 -0.38709657697E+03  0.11432263336E+04  0.12104931949E+04  0.12699999809E+01 0.  1.
       -4    1    3    3    0  502  0.92097514564E+02  0.38709657697E+03 -0.47740288455E+03  0.62148277464E+03  0.12699999809E+01 0. -1.
</event>
<event>
 5   0  0.9312096E-04  0.9243622E+03  0.7818609E-02  0.9395630E-01
       -2   -1    0    0    0  501  0.00000000000E+00  0.00000000000E+00  0.21758077609E+03  0.21758077610E+03  0.25500000920E-02 0.  1.
        2   -1    0    0  501    0  0.00000000000E+00  0.00000000000E+00 -0.98175662421E+03  0.98175662421E+03  0.25500000920E-02 0. -1.
    10030    2    1    2    0    0  0.00000000000E+00  0.00000000000E+00 -0.76417584812E+03  0.11993374003E+04  0.92436219792E+03 0.  0.
        3    1    3    3  502    0 -0.39482689267E+03 -0.10215002287E+03 -0.99940060509E+02  0.41989394881E+03  0.10100000352E+00 0.  1.
       -3    1    3    3    0  502  0.39482689267E+03  0.10215002287E+03 -0.66423578761E+03  0.77944345151E+03  0.10100000352E+00 0. -1.
</event>
<event>
 5   0  0.5035495E-04  0.1710969E+04  0.7818609E-02  0.8755133E-01
       -1   -1    0    0    0  501  0.00000000000E+00  0.00000000000E+00  0.70909721418E+03  0.70909721419E+03  0.50400001928E-02 0.  1.
        1   -1    0    0  501    0  0.00000000000E+00  0.00000000000E+00 -0.10320918419E+04  0.10320918419E+04  0.50400001928E-02 0. -1.
    10030    2    1    2    0    0  0.00000000000E+00  0.00000000000E+00 -0.32299462767E+03  0.17411890561E+04  0.17109686728E+04 0.  0.
        4    1    3    3  502    0  0.14299618354E+03  0.83617818207E+03 -0.49046842254E+02  0.84973470349E+03  0.12699999809E+01 0.  1.
       -4    1    3    3    0  502 -0.14299618354E+03 -0.83617818207E+03 -0.27394778542E+03  0.89145435257E+03  0.12699999809E+01 0. -1.
</event>
<event>
 5   0  0.4947006E-04  0.1742487E+04  0.7818609E-02  0.8737497E-01
       -1   -1    0    0    0  501  0.00000000000E+00  0.00000000000E+00  0.35208288257E+03  0.35208288261E+03  0.50400001928E-02 0.  1.
        1   -1    0    0  501    0  0.00000000000E+00  0.00000000000E+00 -0.21559268737E+04  0.21559268737E+04  0.50400001928E-02 0. -1.
    10030    2    1    2    0    0  0.00000000000E+00  0.00000000000E+00 -0.18038439911E+04  0.25080097563E+04  0.17424866695E+04 0.  0.
        2    1    3    3  502    0 -0.46143613646E+03  0.51765696864E+03 -0.16610537683E+04  0.17999976851E+04  0.25500000920E-02 0. -1.
       -2    1    3    3    0  502  0.46143613646E+03 -0.51765696864E+03 -0.14279022280E+03  0.70801207118E+03  0.25500000920E-02 0.  1.
</event>
<event>
 5   0  0.5035495E-04  0.1437445E+04  0.7818609E-02  0.8927152E-01
        1   -1    0    0  501    0  0.00000000000E+00  0.00000000000E+00  0.17047491578E+04  0.17047491578E+04  0.50400001928E-02 0.  1.
       -1   -1    0    0    0  501  0.00000000000E+00  0.00000000000E+00 -0.30301331494E+03  0.30301331499E+03  0.50400001928E-02 0. -1.
    10030    2    1    2    0    0  0.00000000000E+00  0.00000000000E+00  0.14017358429E+04  0.20077624728E+04  0.14374445290E+04 0.  0.
        4    1    3    3  502    0 -0.64151926772E+03  0.32401193075E+03  0.69329722329E+03  0.99859569138E+03  0.12699999809E+01 0. -1.
       -4    1    3    3    0  502  0.64151926772E+03 -0.32401193075E+03  0.70843861958E+03  0.10091667814E+04  0.12699999809E+01 0.  1.
</event>
<event>
 5   0  0.5074133E-04  0.1693742E+04  0.7818609E-02  0.8764942E-01
        1   -1    0    0  501    0  0.00000000000E+00  0.00000000000E+00  0.75026164156E+03  0.75026164157E+03  0.50400001928E-02 0. -1.
       -1   -1    0    0    0  501  0.00000000000E+00  0.00000000000E+00 -0.95592051553E+03  0.95592051555E+03  0.50400001928E-02 0.  1.
    10030    2    1    2    0    0  0.00000000000E+00  0.00000000000E+00 -0.20565887398E+03  0.17061821571E+04  0.16937420054E+04 0.  0.
        1    1    3    3  502    0  0.18876935565E+03 -0.60190715122E+03 -0.67201436251E+03  0.92169918724E+03  0.50400001928E-02 0.  1.
       -1    1    3    3    0  502 -0.18876935565E+03  0.60190715122E+03  0.46635548853E+03  0.78448296988E+03  0.50400001928E-02 0. -1.
</event>
<event>
 5   0  0.3523125E-04  0.1702341E+04  0.7818609E-02  0.8760031E-01
       -3   -1    0    0    0  501  0.00000000000E+00  0.00000000000E+00  0.32245927936E+03  0.32245929517E+03  0.10100000352E+00 0.  1.
        3   -1    0    0  501    0  0.00000000000E+00  0.00000000000E+00 -0.22467670368E+04  0.22467670391E+04  0.10100000352E+00 0. -1.
    10030    2    1    2    0    0  0.00000000000E+00  0.00000000000E+00 -0.19243077575E+04  0.25692263343E+04  0.17023406273E+04 0.  0.
        3    1    3    3  502    0 -0.83803530331E+03 -0.14847850790E+03 -0.98012930948E+03  0.12980764655E+04  0.10100000352E+00 0. -1.
       -3    1    3    3    0  502  0.83803530331E+03  0.14847850790E+03 -0.94417844798E+03  0.12711498687E+04  0.10100000352E+00 0.  1.
</event>
<event>
 5   0  0.5035495E-04  0.1561795E+04  0.7818609E-02  0.8844369E-01
       -1   -1    0    0    0  501  0.00000000000E+00  0.00000000000E+00  0.60282889314E+03  0.60282889316E+03  0.50400001928E-02 0. -1.
        1   -1    0    0  501    0  0.00000000000E+00  0.00000000000E+00 -0.10115654120E+04  0.10115654120E+04  0.50400001928E-02 0.  1.
    10030    2    1    2    0    0  0.00000000000E+00  0.00000000000E+00 -0.40873651881E+03  0.16143943051E+04  0.15617949387E+04 0.  0.
        4    1    3    3  502    0  0.74683685050E+03 -0.19721905429E+03 -0.85884101770E+02  0.77719902759E+03  0.12699999809E+01 0. -1.
       -4    1    3    3    0  502 -0.74683685050E+03  0.19721905429E+03 -0.32285241704E+03  0.83719527754E+03  0.12699999809E+01 0.  1.
</event>
<event>
 5   0  0.9284971E-04  0.1742898E+04  0.7818609E-02  0.8737269E-01
       -2   -1    0    0    0  501  0.00000000000E+00  0.00000000000E+00  0.62112948221E+03  0.62112948221E+03  0.25500000920E-02 0. -1.
        2   -1    0    0  501    0  0.00000000000E+00  0.00000000000E+00 -0.12226496288E+04  0.12226496288E+04  0.25500000920E-02 0.  1.
    10030    2    1    2    0    0  0.00000000000E+00  0.00000000000E+00 -0.60152014655E+03  0.18437791110E+04  0.17428984260E+04 0.  0.
        4    1    3    3  502    0 -0.35028904088E+02 -0.19753239233E+03 -0.11978880908E+04  0.12145713488E+04  0.12699999809E+01 0.  1.
       -4    1    3    3    0  502  0.35028904088E+02  0.19753239233E+03  0.59636794430E+03  0.62920776221E+03  0.12699999809E+01 0. -1.
</event>
<event>
 5   0  0.9284971E-04  0.1754867E+04  0.7818609E-02  0.8730676E-01
       -2   -1    0    0    0  501  0.00000000000E+00  0.00000000000E+00  0.46372070152E+03  0.46372070152E+03  0.25500000920E-02 0.  1.
        2   -1    0    0  501    0  0.00000000000E+00  0.00000000000E+00 -0.16602440345E+04  0.16602440346E+04  0.25500000920E-02 0. -1.
    10030    2    1    2    0    0  0.00000000000E+00  0.00000000000E+00 -0.11965233330E+04  0.21239647361E+04  0.17548669789E+04 0.  0.
        4    1    3    3  502    0 -0.14212821475E+03  0.19959744608E+03  0.42146995584E+03  0.48752241640E+03  0.12699999809E+01 0.  1.
       -4    1    3    3    0  502  0.14212821475E+03 -0.19959744608E+03 -0.16179932889E+04  0.16364423197E+04  0.12699999809E+01 0. -1.
</event>
<event>
 5   0  0.5074133E-04  0.1684122E+04  0.7818609E-02  0.8770472E-01
       -1   -1    0    0    0  501  0.00000000000E+00  0.00000000000E+00  0.93258114503E+03  0.93258114505E+03  0.50400001928E-02 0.  1.
        1   -1    0    0  501    0  0.00000000000E+00  0.00000000000E+00 -0.76032726704E+03  0.76032726705E+03  0.50400001928E-02 0. -1.
    10030    2    1    2    0    0  0.00000000000E+00  0.00000000000E+00  0.17225387800E+03  0.16929084121E+04  0.16841221729E+04 0.  0.
        1    1    3    3  502    0  0.47276384466E+03 -0.11966952592E+01  0.78658352973E+03  0.91772584913E+03  0.50400001928E-02 0.  1.
       -1    1    3    3    0  502 -0.47276384466E+03  0.11966952592E+01 -0.61432965174E+03  0.77518256297E+03  0.50400001928E-02 0. -1.
</event>
<event>
 5   0  0.5035495E-04  0.1710611E+04  0.7818609E-02  0.8755336E-01
        1   -1    0    0  501    0  0.00000000000E+00  0.00000000000E+00  0.18850628569E+04  0.18850628569E+04  0.50400001928E-02 0.  1.
       -1   -1    0    0    0  501  0.00000000000E+00  0.00000000000E+00 -0.38807574123E+03  0.38807574126E+03  0.50400001928E-02 0. -1.
    10030    2    1    2    0    0  0.00000000000E+00  0.00000000000E+00  0.14969871156E+04  0.22731385981E+04  0.17106106108E+04 0.  0.
        4    1    3    3  502    0  0.60425441249E+03  0.42600175450E+02  0.15508872092E+04  0.16649897652E+04  0.12699999809E+01 0.  1.
       -4    1    3    3    0  502 -0.60425441249E+03 -0.42600175450E+02 -0.53900093507E+02  0.60814883289E+03  0.12699999809E+01 0. -1.
</event>
<event>
 5   0  0.9284971E-04  0.1065689E+04  0.7818609E-02  0.9239294E-01
       -2   -1    0    0    0  501  0.00000000000E+00  0.00000000000E+00  0.39253728850E+03  0.39253728851E+03  0.25500000920E-02 0. -1.
        2   -1    0    0  501    0  0.00000000000E+00  0.00000000000E+00 -0.72330248381E+03  0.72330248381E+03  0.25500000920E-02 0.  1.
    10030    2    1    2    0    0  0.00000000000E+00  0.00000000000E+00 -0.33076519531E+03  0.11158397723E+04  0.10656888772E+04 0.  0.
        4    1    3    3  502    0 -0.11970706856E+03 -0.12169719080E+03  0.36313010458E+03  0.40125437601E+03  0.12699999809E+01 0. -1.
       -4    1    3    3    0  502  0.11970706856E+03  0.12169719080E+03 -0.69389529989E+03  0.71458539631E+03  0.12699999809E+01 0.  1.
</event>
<event>
 5   0  0.9284971E-04  0.1730408E+04  0.7818609E-02  0.8744209E-01
        2   -1    0    0  501    0  0.00000000000E+00  0.00000000000E+00  0.60599659513E+03  0.60599659514E+03  0.25500000920E-02 0. -1.
       -2   -1    0    0    0  501  0.00000000000E+00  0.00000000000E+00 -0.12352843958E+04  0.12352843958E+04  0.25500000920E-02 0.  1.
    10030    2    1    2    0    0  0.00000000000E+00  0.00000000000E+00 -0.62928780067E+03  0.18412809909E+04  0.17304082037E+04 0.  0.
        4    1    3    3  502    0 -0.38613892923E+03  0.50093378451E+03  0.31355466875E+03  0.70594339173E+03  0.12699999809E+01 0.  1.
       -4    1    3    3    0  502  0.38613892923E+03 -0.50093378451E+03 -0.94284246943E+03  0.11353375992E+04  0.12699999809E+01 0. -1.
</event>
<event>
 5   0  0.1007187E-03  0.1708834E+04  0.7818609E-02  0.8756342E-01
       -2   -1    0    0    0  501  0.00000000000E+00  0.00000000000E+00  0.53231651374E+03  0.53231651375E+03  0.25500000920E-02 0. -1.
        2   -1    0    0  501    0  0.00000000000E+00  0.00000000000E+00 -0.13714186604E+04  0.13714186604E+04  0.25500000920E-02 0.  1.
    10030    2    1    2    0    0  0.00000000000E+00  0.00000000000E+00 -0.83910214664E+03  0.19037351741E+04  0.17088344568E+04 0.  0.
        5    1    3    3  502    0  0.14277992351E+03  0.35989781705E+03  0.42895663128E+03  0.57787405790E+03  0.46999998093E+01 0. -1.
       -5    1    3    3    0  502 -0.14277992351E+03 -0.35989781705E+03 -0.12680587779E+04  0.13258611162E+04  0.46999998093E+01 0.  1.
</event>
<event>
 5   0  0.9625225E-04  0.1780944E+04  0.7818609E-02  0.8716500E-01
       -2   -1    0    0    0  501  0.00000000000E+00  0.00000000000E+00  0.12523319005E+04  0.12523319005E+04  0.25500000920E-02 0. -1.
        2   -1    0    0  501    0  0.00000000000E+00  0.00000000000E+00 -0.63317092791E+03  0.63317092792E+03  0.25500000920E-02 0.  1.
    10030    2    1    2    0    0  0.00000000000E+00  0.00000000000E+00  0.61916097262E+03  0.18855028285E+04  0.17809437403E+04 0.  0.
        1    1    3    3  502    0 -0.73293536639E+02  0.19847162143E+03 -0.60617436827E+03  0.64203605179E+03  0.50400001928E-02 0.  1.
       -1    1    3    3    0  502  0.73293536639E+02 -0.19847162143E+03  0.12253353409E+04  0.12434667767E+04  0.50400001928E-02 0. -1.
</event>
<event>
 5   0  0.5059689E-04  0.1681816E+04  0.7818609E-02  0.8771804E-01
        1   -1    0    0  501    0  0.00000000000E+00  0.00000000000E+00  0.57013017697E+03  0.57013017699E+03  0.50400001928E-02 0. -1.
       -1   -1    0    0    0  501  0.00000000000E+00  0.00000000000E+00 -0.12402887437E+04  0.12402887437E+04  0.50400001928E-02 0.  1.
    10030    2    1    2    0    0  0.00000000000E+00  0.00000000000E+00 -0.67015856671E+03  0.18104189207E+04  0.16818157342E+04 0.  0.
        5    1    3    3  502    0 -0.59151955271E+03  0.52431371705E+02 -0.97597001602E+03  0.11424464942E+04  0.46999998093E+01 0.  1.
       -5    1    3    3    0  502  0.59151955271E+03 -0.52431371705E+02  0.30581144931E+03  0.66797242646E+03  0.46999998093E+01 0. -1.
</event>
<event>
 5   0  0.1007187E-03  0.1665436E+04  0.7818609E-02  0.8781327E-01
        2   -1    0    0  501    0  0.00000000000E+00  0.00000000000E+00  0.20132884756E+04  0.20132884756E+04  0.25500000920E-02 0.  1.
       -2   -1    0    0    0  501  0.00000000000E+00  0.00000000000E+00 -0.34442114772E+03  0.34442114773E+03  0.25500000920E-02 0. -1.
    10030    2    1    2    0    0  0.00000000000E+00  0.00000000000E+00  0.16688673279E+04  0.23577096233E+04  0.16654358318E+04 0.  0.
        5    1    3    3  502    0 -0.56396511411E+03 -0.58273108844E+03  0.56670756273E+03  0.98934914111E+03  0.46999998093E+01 0. -1.
       -5    1    3    3    0  502  0.56396511411E+03  0.58273108844E+03  0.11021597651E+04  0.13683604822E+04  0.46999998093E+01 0.  1.
</event>
<event>
 5   0  0.4947006E-04  0.1609259E+04  0.7818609E-02  0.8814880E-01
       -1   -1    0    0    0  501  0.00000000000E+00  0.00000000000E+00  0.46808548097E+03  0.46808548100E+03  0.50400001928E-02 0. -1.
        1   -1    0    0  501    0  0.00000000000E+00  0.00000000000E+00 -0.13831414334E+04  0.13831414334E+04  0.50400001928E-02 0.  1.
    10030    2    1    2    0    0  0.00000000000E+00  0.00000000000E+00 -0.91505595240E+03  0.18512269144E+04  0.16092587401E+04 0.  0.
        2    1    3    3  502    0  0.15505494565E+03  0.21488656996E+03  0.41645054284E+03  0.49360847719E+03  0.25500000920E-02 0. -1.
       -2    1    3    3    0  502 -0.15505494565E+03 -0.21488656996E+03 -0.13315064952E+04  0.13576184372E+04  0.25500000920E-02 0.  1.
</event>
<event>
 5   0  0.1007187E-03  0.1267382E+04  0.7818609E-02  0.9055839E-01
        2   -1    0    0  501    0  0.00000000000E+00  0.00000000000E+00  0.17899456979E+04  0.17899456979E+04  0.25500000920E-02 0. -1.
       -2   -1    0    0    0  501  0.00000000000E+00  0.00000000000E+00 -0.22434430415E+03  0.22434430416E+03  0.25500000920E-02 0.  1.
    10030    2    1    2    0    0  0.00000000000E+00  0.00000000000E+00  0.15656013937E+04  0.20142900020E+04  0.12673817453E+04 0.  0.
        5    1    3    3  502    0  0.25917726840E+03  0.32170018352E+03  0.19130252143E+02  0.41358423698E+03  0.46999998093E+01 0.  1.
       -5    1    3    3    0  502 -0.25917726840E+03 -0.32170018352E+03  0.15464711416E+04  0.16007057650E+04  0.46999998093E+01 0. -1.
</event>
<event>
 5   0  0.5009762E-04  0.1698679E+04  0.7818609E-02  0.8762118E-01
       -1   -1    0    0    0  501  0.00000000000E+00  0.00000000000E+00  0.92254716031E+03  0.92254716033E+03  0.50400001928E-02 0.  1.
        1   -1    0    0  501    0  0.00000000000E+00  0.00000000000E+00 -0.78194125857E+03  0.78194125859E+03  0.50400001928E-02 0. -1.
    10030    2    1    2    0    0  0.00000000000E+00  0.00000000000E+00  0.14060590174E+03  0.17044884189E+04  0.16986791194E+04 0.  0.
        3    1    3    3  502    0 -0.43912034203E+03 -0.46961291161E+03 -0.48658579262E+03  0.80630559053E+03  0.10100000352E+00 0. -1.
       -3    1    3    3    0  502  0.43912034203E+03  0.46961291161E+03  0.62719169436E+03  0.89818282839E+03  0.10100000352E+00 0.  1.
</event>
<event>
 5   0  0.5035495E-04  0.1683413E+04  0.7818609E-02  0.8770882E-01
        1   -1    0    0  501    0  0.00000000000E+00  0.00000000000E+00  0.65166416390E+03  0.65166416392E+03  0.50400001928E-02 0.  1.
       -1   -1    0    0    0  501  0.00000000000E+00  0.00000000000E+00 -0.10871697894E+04  0.10871697894E+04  0.50400001928E-02 0. -1.
    10030    2    1    2    0    0  0.00000000000E+00  0.00000000000E+00 -0.43550562553E+03  0.17388339534E+04  0.16834127146E+04 0.  0.
        4    1    3    3  502    0 -0.40314267081E+03  0.63016752960E+03  0.18073671141E+03  0.76961191528E+03  0.12699999809E+01 0.  1.
       -4    1    3    3    0  502  0.40314267081E+03 -0.63016752960E+03 -0.61624233695E+03  0.96922203809E+03  0.12699999809E+01 0. -1.
</event>
<event>
 5   0  0.5009762E-04  0.1669896E+04  0.7818609E-02  0.8778722E-01
        1   -1    0    0  501    0  0.00000000000E+00  0.00000000000E+00  0.16316858424E+04  0.16316858424E+04  0.50400001928E-02 0. -1.
       -1   -1    0    0    0  501  0.00000000000E+00  0.00000000000E+00 -0.42725026041E+03  0.42725026044E+03  0.50400001928E-02 0.  1.
    10030    2    1    2    0    0  0.00000000000E+00  0.00000000000E+00  0.12044355820E+04  0.20589361029E+04  0.16698960460E+04 0.  0.
        3    1    3    3  502    0 -0.76696207710E+03 -0.12424247193E+02  0.10088240487E+04  0.12673244103E+04  0.10100000352E+00 0. -1.
       -3    1    3    3    0  502  0.76696207710E+03  0.12424247193E+02  0.19561153337E+03  0.79161169257E+03  0.10100000352E+00 0.  1.
</event>
<event>
 5   0  0.5009762E-04  0.1694034E+04  0.7818609E-02  0.8764774E-01
       -1   -1    0    0    0  501  0.00000000000E+00  0.00000000000E+00  0.84927374586E+03  0.84927374588E+03  0.50400001928E-02 0.  1.
        1   -1    0    0  501    0  0.00000000000E+00  0.00000000000E+00 -0.84476649087E+03  0.84476649088E+03  0.50400001928E-02 0. -1.
    10030    2    1    2    0    0  0.00000000000E+00  0.00000000000E+00  0.45072549991E+01  0.16940402368E+04  0.16940342406E+04 0.  0.
        3    1    3    3  502    0 -0.61910499428E+03 -0.32013324560E+03 -0.47906055573E+03  0.84573950785E+03  0.10100000352E+00 0. -1.
       -3    1    3    3    0  502  0.61910499428E+03  0.32013324560E+03  0.48356781073E+03  0.84830072891E+03  0.10100000352E+00 0.  1.
</event>
<event>
 5   0  0.9610114E-04  0.1728067E+04  0.7818609E-02  0.8745517E-01
        2   -1    0    0  501    0  0.00000000000E+00  0.00000000000E+00  0.21891157140E+04  0.21891157140E+04  0.25500000920E-02 0.  1.
       -2   -1    0    0    0  501  0.00000000000E+00  0.00000000000E+00 -0.34102997030E+03  0.34102997031E+03  0.25500000920E-02 0. -1.
    10030    2    1    2    0    0  0.00000000000E+00  0.00000000000E+00  0.18480857437E+04  0.25301456843E+04  0.17280672058E+04 0.  0.
        2    1    3    3  502    0 -0.48727210696E+02  0.71580144266E+03  0.16289779615E+04  0.17799761924E+04  0.25500000920E-02 0.  1.
       -2    1    3    3    0  502  0.48727210696E+02 -0.71580144266E+03  0.21910778218E+03  0.75016949191E+03  0.25500000920E-02 0. -1.
</event>
<event>
 5   0  0.5059689E-04  0.1753239E+04  0.7818609E-02  0.8731570E-01
       -1   -1    0    0    0  501  0.00000000000E+00  0.00000000000E+00  0.63946702990E+03  0.63946702992E+03  0.50400001928E-02 0.  1.
        1   -1    0    0  501    0  0.00000000000E+00  0.00000000000E+00 -0.12017220121E+04  0.12017220121E+04  0.50400001928E-02 0. -1.
    10030    2    1    2    0    0  0.00000000000E+00  0.00000000000E+00 -0.56225498221E+03  0.18411890420E+04  0.17532388381E+04 0.  0.
        5    1    3    3  502    0  0.69884319786E+03  0.51815798989E+03 -0.39408729879E+03  0.95508973754E+03  0.46999998093E+01 0. -1.
       -5    1    3    3    0  502 -0.69884319786E+03 -0.51815798989E+03 -0.16816768342E+03  0.88609930450E+03  0.46999998093E+01 0.  1.
</event>
<event>
 5   0  0.4947006E-04  0.1654267E+04  0.7818609E-02  0.8787886E-01
        1   -1    0    0  501    0  0.00000000000E+00  0.00000000000E+00  0.79690661828E+03  0.79690661830E+03  0.50400001928E-02 0.  1.
       -1   -1    0    0    0  501  0.00000000000E+00  0.00000000000E+00 -0.85850723061E+03  0.85850723062E+03  0.50400001928E-02 0. -1.
    10030    2    1    2    0    0  0.00000000000E+00  0.00000000000E+00 -0.61600612325E+02  0.16554138489E+04  0.16542673229E+04 0.  0.
        2    1    3    3  502    0 -0.47525288129E+03  0.53502884535E+03  0.38425085553E+03  0.81226220306E+03  0.25500000920E-02 0.  1.
       -2    1    3    3    0  502  0.47525288129E+03 -0.53502884535E+03 -0.44585146786E+03  0.84315164587E+03  0.25500000920E-02 0. -1.
</event>
<event>
 5   0  0.5009762E-04  0.1111945E+04  0.7818609E-02  0.9193627E-01
       -1   -1    0    0    0  501  0.00000000000E+00  0.00000000000E+00  0.15974173522E+03  0.15974173530E+03  0.50400001928E-02 0. -1.
        1   -1    0    0  501    0  0.00000000000E+00  0.00000000000E+00 -0.19350312362E+04  0.19350312362E+04  0.50400001928E-02 0.  1.
    10030    2    1    2    0    0  0.00000000000E+00  0.00000000000E+00 -0.17752895010E+04  0.20947729715E+04  0.11119446883E+04 0.  0.
        3    1    3    3  502    0  0.18608714317E+03 -0.48286960405E+03 -0.12705586464E+04  0.13719004204E+04  0.10100000352E+00 0.  1.
       -3    1    3    3    0  502 -0.18608714317E+03  0.48286960405E+03 -0.50473085456E+03  0.72287255109E+03  0.10100000352E+00 0. -1.
</event>
<event>
 5   0  0.9625225E-04  0.1704454E+04  0.7818609E-02  0.8758828E-01
        2   -1    0    0  501    0  0.00000000000E+00  0.00000000000E+00  0.14730294561E+04  0.14730294561E+04  0.25500000920E-02 0. -1.
       -2   -1    0    0    0  501  0.00000000000E+00  0.00000000000E+00 -0.49305923324E+03  0.49305923324E+03  0.25500000920E-02 0.  1.
    10030    2    1    2    0    0  0.00000000000E+00  0.00000000000E+00  0.97997022289E+03  0.19660886894E+04  0.17044538998E+04 0.  0.
        1    1    3    3  502    0  0.78782683187E+03  0.23110133951E+03  0.22641127696E+03  0.85166954419E+03  0.50400001928E-02 0.  1.
       -1    1    3    3    0  502 -0.78782683187E+03 -0.23110133951E+03  0.75355894593E+03  0.11144191452E+04  0.50400001928E-02 0. -1.
</event>
<event>
 5   0  0.9610114E-04  0.1731899E+04  0.7818609E-02  0.8743377E-01
       -2   -1    0    0    0  501  0.00000000000E+00  0.00000000000E+00  0.62046331805E+03  0.62046331806E+03  0.25500000920E-02 0. -1.
        2   -1    0    0  501    0  0.00000000000E+00  0.00000000000E+00 -0.12085627244E+04  0.12085627244E+04  0.25500000920E-02 0.  1.
    10030    2    1    2    0    0  0.00000000000E+00  0.00000000000E+00 -0.58809940638E+03  0.18290260425E+04  0.17318993482E+04 0.  0.
        2    1    3    3  502    0  0.75348465743E+02  0.28718579125E+03 -0.11531284644E+04  0.11907385630E+04  0.25500000920E-02 0.  1.
       -2    1    3    3    0  502 -0.75348465743E+02 -0.28718579125E+03  0.56502905806E+03  0.63828747947E+03  0.25500000920E-02 0. -1.
</event>
<event>
 5   0  0.5009762E-04  0.1701679E+04  0.7818609E-02  0.8760407E-01
        1   -1    0    0  501    0  0.00000000000E+00  0.00000000000E+00  0.15248931036E+04  0.15248931037E+04  0.50400001928E-02 0. -1.
       -1   -1    0    0    0  501  0.00000000000E+00  0.00000000000E+00 -0.47474003252E+03  0.47474003255E+03  0.50400001928E-02 0.  1.
    10030    2    1    2    0    0  0.00000000000E+00  0.00000000000E+00  0.10501530711E+04  0.19996331362E+04  0.17016789376E+04 0.  0.
        3    1    3    3  502    0  0.40500155839E+03 -0.31985269553E+03 -0.26982568081E+03  0.58235549054E+03  0.10100000352E+00 0.  1.
       -3    1    3    3    0  502 -0.40500155839E+03  0.31985269553E+03  0.13199787519E+04  0.14172776457E+04  0.10100000352E+00 0. -1.
</event>
<event>
 5   0  0.9625225E-04  0.1663651E+04  0.7818609E-02  0.8782372E-01
       -2   -1    0    0    0  501  0.00000000000E+00  0.00000000000E+00  0.49472042708E+03  0.49472042709E+03  0.25500000920E-02 0.  1.
        2   -1    0    0  501    0  0.00000000000E+00  0.00000000000E+00 -0.13986351752E+04  0.13986351753E+04  0.25500000920E-02 0. -1.
    10030    2    1    2    0    0  0.00000000000E+00  0.00000000000E+00 -0.90391474817E+03  0.18933556023E+04  0.16636506740E+04 0.  0.
        1    1    3    3  502    0 -0.11661655877E+03  0.11837693895E+03  0.47563890275E+03  0.50383021673E+03  0.50400001928E-02 0.  1.
       -1    1    3    3    0  502  0.11661655877E+03 -0.11837693895E+03 -0.13795536509E+04  0.13895253856E+04  0.50400001928E-02 0. -1.
</event>
<event>
 5   0  0.5074133E-04  0.1673033E+04  0.7818609E-02  0.8776896E-01
       -1   -1    0    0    0  501  0.00000000000E+00  0.00000000000E+00  0.80427161928E+03  0.80427161929E+03  0.50400001928E-02 0. -1.
        1   -1    0    0  501    0  0.00000000000E+00  0.00000000000E+00 -0.87005452319E+03  0.87005452320E+03  0.50400001928E-02 0.  1.
    10030    2    1    2    0    0  0.00000000000E+00  0.00000000000E+00 -0.65782903910E+02  0.16743261425E+04  0.16730333652E+04 0.  0.
        1    1    3    3  502    0 -0.71439433187E+03 -0.13346210814E+03  0.38166137368E+03  0.82087562999E+03  0.50400001928E-02 0. -1.
       -1    1    3    3    0  502  0.71439433187E+03  0.13346210814E+03 -0.44744427759E+03  0.85345051250E+03  0.50400001928E-02 0.  1.
</event>
<event>
 5   0  0.5009762E-04  0.1663608E+04  0.7818609E-02  0.8782396E-01
       -1   -1    0    0    0  501  0.00000000000E+00  0.00000000000E+00  0.76197227409E+03  0.76197227410E+03  0.50400001928E-02 0.  1.
        1   -1    0    0  501    0  0.00000000000E+00  0.00000000000E+00 -0.90803592114E+03  0.90803592115E+03  0.50400001928E-02 0. -1.
    10030    2    1    2    0    0  0.00000000000E+00  0.00000000000E+00 -0.14606364705E+03  0.16700081953E+04  0.16636083623E+04 0.  0.
        3    1    3    3  502    0  0.71441431625E+03 -0.42396916563E+03 -0.30911896406E+02  0.83132016950E+03  0.10100000352E+00 0.  1.
       -3    1    3    3    0  502 -0.71441431625E+03  0.42396916563E+03 -0.11515175064E+03  0.83868802576E+03  0.10100000352E+00 0. -1.
</event>
<event>
 5   0  0.9284971E-04  0.1665348E+04  0.7818609E-02  0.8781378E-01
        2   -1    0    0  501    0  0.00000000000E+00  0.00000000000E+00  0.11555387052E+04  0.11555387052E+04  0.25500000920E-02 0. -1.
       -2   -1    0    0    0  501  0.00000000000E+00  0.00000000000E+00 -0.60001947348E+03  0.60001947349E+03  0.25500000920E-02 0.  1.
    10030    2    1    2    0    0  0.00000000000E+00  0.00000000000E+00  0.55551923176E+03  0.17555581787E+04  0.16653476820E+04 0.  0.
        4    1    3    3  502    0 -0.32889679309E+02  0.23590664651E+03 -0.56333951912E+03  0.61162627770E+03  0.12699999809E+01 0.  1.
       -4    1    3    3    0  502  0.32889679309E+02 -0.23590664651E+03  0.11188587509E+04  0.11439319010E+04  0.12699999809E+01 0. -1.
</event>
<event>
 5   0  0.3523125E-04  0.1677121E+04  0.7818609E-02  0.8774522E-01
       -4   -1    0    0    0  501  0.00000000000E+00  0.00000000000E+00  0.68765484800E+03  0.68765602076E+03  0.12699999809E+01 0.  1.
        4   -1    0    0  501    0  0.00000000000E+00  0.00000000000E+00 -0.10225797973E+04  0.10225805859E+04  0.12699999809E+01 0. -1.
    10030    2    1    2    0    0  0.00000000000E+00  0.00000000000E+00 -0.33492494927E+03  0.17102366067E+04  0.16771209047E+04 0.  0.
        2    1    3    3  502    0 -0.21522479989E+03 -0.38878732243E+03  0.55770951885E+03  0.71310392229E+03  0.25500000920E-02 0.  1.
       -2    1    3    3    0  502  0.21522479989E+03  0.38878732243E+03 -0.89263446812E+03  0.99713268437E+03  0.25500000920E-02 0. -1.
</event>
<event>
 5   0  0.9625225E-04  0.1738215E+04  0.7818609E-02  0.8739864E-01
       -2   -1    0    0    0  501  0.00000000000E+00  0.00000000000E+00  0.46431892576E+03  0.46431892577E+03  0.25500000920E-02 0.  1.
        2   -1    0    0  501    0  0.00000000000E+00  0.00000000000E+00 -0.16267875104E+04  0.16267875104E+04  0.25500000920E-02 0. -1.
    10030    2    1    2    0    0  0.00000000000E+00  0.00000000000E+00 -0.11624685847E+04  0.20911064362E+04  0.17382154404E+04 0.  0.
        1    1    3    3  502    0 -0.67759466258E+03 -0.40826634460E+03 -0.14826054499E+03  0.80485844974E+03  0.50400001928E-02 0.  1.
       -1    1    3    3    0  502  0.67759466258E+03  0.40826634460E+03 -0.10142080397E+04  0.12862479864E+04  0.50400001928E-02 0. -1.
</event>
<event>
 5   0  0.1007187E-03  0.1644233E+04  0.7818609E-02  0.8793825E-01
       -2   -1    0    0    0  501  0.00000000000E+00  0.00000000000E+00  0.12119939854E+04  0.12119939854E+04  0.25500000920E-02 0.  1.
        2   -1    0    0  501    0  0.00000000000E+00  0.00000000000E+00 -0.55765583417E+03  0.55765583418E+03  0.25500000920E-02 0. -1.
    10030    2    1    2    0    0  0.00000000000E+00  0.00000000000E+00  0.65433815120E+03  0.17696498195E+04  0.16442329725E+04 0.  0.
        5    1    3    3  502    0  0.69000855130E+03 -0.38524695537E+03  0.83334984635E+02  0.79466585880E+03  0.46999998093E+01 0. -1.
       -5    1    3    3    0  502 -0.69000855130E+03  0.38524695537E+03  0.57100316656E+03  0.97498396075E+03  0.46999998093E+01 0.  1.
</event>
<event>
 5   0  0.9284971E-04  0.1812607E+04  0.7818609E-02  0.8699624E-01
        2   -1    0    0  501    0  0.00000000000E+00  0.00000000000E+00  0.23255149414E+04  0.23255149414E+04  0.25500000920E-02 0. -1.
       -2   -1    0    0    0  501  0.00000000000E+00  0.00000000000E+00 -0.35320624543E+03  0.35320624543E+03  0.25500000920E-02 0.  1.
    10030    2    1    2    0    0  0.00000000000E+00  0.00000000000E+00  0.19723086960E+04  0.26787211869E+04  0.18126074050E+04 0.  0.
        4    1    3    3  502    0  0.54568617285E+03  0.51828224274E+03  0.23989546278E+03  0.78989956852E+03  0.12699999809E+01 0.  1.
       -4    1    3    3    0  502 -0.54568617285E+03 -0.51828224274E+03  0.17324132332E+04  0.18888216184E+04  0.12699999809E+01 0. -1.
</event>
<event>
 5   0  0.5009762E-04  0.9794643E+03  0.7818609E-02  0.9331359E-01
       -1   -1    0    0    0  501  0.00000000000E+00  0.00000000000E+00  0.70851428433E+03  0.70851428435E+03  0.50400001928E-02 0. -1.
        1   -1    0    0  501    0  0.00000000000E+00  0.00000000000E+00 -0.33850772280E+03  0.33850772284E+03  0.50400001928E-02 0.  1.
    10030    2    1    2    0    0  0.00000000000E+00  0.00000000000E+00  0.37000656153E+03  0.10470220072E+04  0.97946425558E+03 0.  0.
        3    1    3    3  502    0  0.64183419520E+01  0.25267601460E+03  0.63340091705E+03  0.68197001063E+03  0.10100000352E+00 0. -1.
       -3    1    3    3    0  502 -0.64183419520E+01 -0.25267601460E+03 -0.26339435553E+03  0.36505199656E+03  0.10100000352E+00 0.  1.
</event>
<event>
 5   0  0.5009762E-04  0.1640607E+04  0.7818609E-02  0.8795983E-01
       -1   -1    0    0    0  501  0.00000000000E+00  0.00000000000E+00  0.10331314504E+04  0.10331314504E+04  0.50400001928E-02 0. -1.
        1   -1    0    0  501    0  0.00000000000E+00  0.00000000000E+00 -0.65131863377E+03  0.65131863379E+03  0.50400001928E-02 0.  1.
    10030    2    1    2    0    0  0.00000000000E+00  0.00000000000E+00  0.38181281663E+03  0.16844500842E+04  0.16406069179E+04 0.  0.
        3    1    3    3  502    0  0.69739600199E+03  0.25123994608E+03 -0.16978656979E+03  0.76046708251E+03  0.10100000352E+00 0. -1.
       -3    1    3    3    0  502 -0.69739600199E+03 -0.25123994608E+03  0.55159938642E+03  0.92398300168E+03  0.10100000352E+00 0.  1.
</event>
<event>
 5   0  0.9312096E-04  0.1703957E+04  0.7818609E-02  0.8759111E-01
       -2   -1    0    0    0  501  0.00000000000E+00  0.00000000000E+00  0.79214545729E+03  0.79214545729E+03  0.25500000920E-02 0. -1.
        2   -1    0    0  501    0  0.00000000000E+00  0.00000000000E+00 -0.91633087197E+03  0.91633087197E+03  0.25500000920E-02 0.  1.
    10030    2    1    2    0    0  0.00000000000E+00  0.00000000000E+00 -0.12418541468E+03  0.17084763293E+04  0.17039569685E+04 0.  0.
        3    1    3    3  502    0 -0.41911252868E+03  0.40598144967E+02  0.68052263609E+03  0.80025907649E+03  0.10100000352E+00 0. -1.
       -3    1    3    3    0  502  0.41911252868E+03 -0.40598144967E+02 -0.80470805076E+03  0.90821725278E+03  0.10100000352E+00 0.  1.
</event>
<event>
 5   0  0.9284971E-04  0.1692165E+04  0.7818609E-02  0.8765846E-01
        2   -1    0    0  501    0  0.00000000000E+00  0.00000000000E+00  0.22838350277E+04  0.22838350277E+04  0.25500000920E-02 0. -1.
       -2   -1    0    0    0  501  0.00000000000E+00  0.00000000000E+00 -0.31344452386E+03  0.31344452387E+03  0.25500000920E-02 0.  1.
    10030    2    1    2    0    0  0.00000000000E+00  0.00000000000E+00  0.19703905038E+04  0.25972795515E+04  0.16921649835E+04 0.  0.
        4    1    3    3  502    0 -0.46820113926E+03 -0.27139150908E+03  0.19834472222E+04  0.20559499396E+04  0.12699999809E+01 0. -1.
       -4    1    3    3    0  502  0.46820113926E+03  0.27139150908E+03 -0.13056718349E+02  0.54132961198E+03  0.12699999809E+01 0.  1.
</event>
<event>
 5   0  0.4947006E-04  0.1728071E+04  0.7818609E-02  0.8745514E-01
       -1   -1    0    0    0  501  0.00000000000E+00  0.00000000000E+00  0.49398307093E+03  0.49398307096E+03  0.50400001928E-02 0.  1.
        1   -1    0    0  501    0  0.00000000000E+00  0.00000000000E+00 -0.15113021877E+04  0.15113021877E+04  0.50400001928E-02 0. -1.
    10030    2    1    2    0    0  0.00000000000E+00  0.00000000000E+00 -0.10173191168E+04  0.20052852587E+04  0.17280714057E+04 0.  0.
        2    1    3    3  502    0  0.12750415404E+03 -0.48591607104E+03  0.30709531674E+03  0.58879476132E+03  0.25500000920E-02 0.  1.
       -2    1    3    3    0  502 -0.12750415404E+03  0.48591607104E+03 -0.13244144335E+04  0.14164904973E+04  0.25500000920E-02 0. -1.
</event>
<event>
 5   0  0.5074133E-04  0.1688612E+04  0.7818609E-02  0.8767886E-01
        1   -1    0    0  501    0  0.00000000000E+00  0.00000000000E+00  0.14940184369E+04  0.14940184369E+04  0.50400001928E-02 0. -1.
       -1   -1    0    0    0  501  0.00000000000E+00  0.00000000000E+00 -0.47713797753E+03  0.47713797756E+03  0.50400001928E-02 0.  1.
    10030    2    1    2    0    0  0.00000000000E+00  0.00000000000E+00  0.10168804593E+04  0.19711564145E+04  0.16886123716E+04 0.  0.
        1    1    3    3  502    0 -0.76136938750E+02  0.64088566949E+02  0.14871478158E+04  0.14904740199E+04  0.50400001928E-02 0. -1.
       -1    1    3    3    0  502  0.76136938750E+02 -0.64088566949E+02 -0.47026735647E+03  0.48068239456E+03  0.50400001928E-02 0.  1.
</event>
<event>
 5   0  0.4947006E-04  0.1617203E+04  0.7818609E-02  0.8810049E-01
       -1   -1    0    0    0  501  0.00000000000E+00  0.00000000000E+00  0.94475391616E+03  0.94475391617E+03  0.50400001928E-02 0. -1.
        1   -1    0    0  501    0  0.00000000000E+00  0.00000000000E+00 -0.69207051851E+03  0.69207051853E+03  0.50400001928E-02 0.  1.
    10030    2    1    2    0    0  0.00000000000E+00  0.00000000000E+00  0.25268339765E+03  0.16368244347E+04  0.16172029343E+04 0.  0.
        2    1    3    3  502    0 -0.39269694088E+03 -0.25455763661E+03  0.79375561633E+03  0.92144368043E+03  0.25500000920E-02 0. -1.
       -2    1    3    3    0  502  0.39269694088E+03  0.25455763661E+03 -0.54107221868E+03  0.71538075427E+03  0.25500000920E-02 0.  1.
</event>
<event>
 5   0  0.9284971E-04  0.1739858E+04  0.7818609E-02  0.8738953E-01
        2   -1    0    0  501    0  0.00000000000E+00  0.00000000000E+00  0.28578571037E+04  0.28578571037E+04  0.25500000920E-02 0.  1.
       -2   -1    0    0    0  501  0.00000000000E+00  0.00000000000E+00 -0.26480559102E+03  0.26480559103E+03  0.25500000920E-02 0. -1.
    10030    2    1    2    0    0  0.00000000000E+00  0.00000000000E+00  0.25930515127E+04  0.31226626947E+04  0.17398580855E+04 0.  0.
        4    1    3    3  502    0 -0.37410708277E+03  0.49752095816E+02  0.27032756768E+04  0.27294930625E+04  0.12699999809E+01 0.  1.
       -4    1    3    3    0  502  0.37410708277E+03 -0.49752095816E+02 -0.11022416417E+03  0.39316963220E+03  0.12699999809E+01 0. -1.
</event>
<event>
 5   0  0.9284971E-04  0.1708367E+04  0.7818609E-02  0.8756606E-01
        2   -1    0    0  501    0  0.00000000000E+00  0.00000000000E+00  0.13154296748E+04  0.13154296748E+04  0.25500000920E-02 0.  1.
       -2   -1    0    0    0  501  0.00000000000E+00  0.00000000000E+00 -0.55467035088E+03  0.55467035088E+03  0.25500000920E-02 0. -1.
    10030    2    1    2    0    0  0.00000000000E+00  0.00000000000E+00  0.76075932395E+03  0.18701000257E+04  0.17083674538E+04 0.  0.
        4    1    3    3  502    0 -0.48678085613E+03 -0.40992674084E+03  0.10040853051E+04  0.11887743468E+04  0.12699999809E+01 0.  1.
       -4    1    3    3    0  502  0.48678085613E+03  0.40992674084E+03 -0.24332598116E+03  0.68132567892E+03  0.12699999809E+01 0. -1.
</event>
<event>
 5   0  0.1007187E-03  0.1766700E+04  0.7818609E-02  0.8724211E-01
       -2   -1    0    0    0  501  0.00000000000E+00  0.00000000000E+00  0.11019723083E+04  0.11019723083E+04  0.25500000920E-02 0. -1.
        2   -1    0    0  501    0  0.00000000000E+00  0.00000000000E+00 -0.70810085413E+03  0.70810085413E+03  0.25500000920E-02 0.  1.
    10030    2    1    2    0    0  0.00000000000E+00  0.00000000000E+00  0.39387145413E+03  0.18100731624E+04  0.17667003512E+04 0.  0.
        5    1    3    3  502    0  0.10117641912E+03 -0.53287269008E+03 -0.51738626527E+03  0.74960029957E+03  0.46999998093E+01 0.  1.
       -5    1    3    3    0  502 -0.10117641912E+03  0.53287269008E+03  0.91125771940E+03  0.10604728628E+04  0.46999998093E+01 0. -1.
</event>
<event>
 5   0  0.5009762E-04  0.1681564E+04  0.7818609E-02  0.8771949E-01
       -1   -1    0    0    0  501  0.00000000000E+00  0.00000000000E+00  0.54742663117E+03  0.54742663120E+03  0.50400001928E-02 0. -1.
        1   -1    0    0  501    0  0.00000000000E+00  0.00000000000E+00 -0.12913410771E+04  0.12913410771E+04  0.50400001928E-02 0.  1.
    10030    2    1    2    0    0  0.00000000000E+00  0.00000000000E+00 -0.74391444588E+03  0.18387677083E+04  0.16815641475E+04 0.  0.
        3    1    3    3  502    0  0.13753839588E+02 -0.35840892206E+03 -0.12034876491E+04  0.12557980153E+04  0.10100000352E+00 0.  1.
       -3    1    3    3    0  502 -0.13753839588E+02  0.35840892206E+03  0.45957320325E+03  0.58296969292E+03  0.10100000352E+00 0. -1.
</event>
<event>
 5   0  0.4947006E-04  0.1652969E+04  0.7818609E-02  0.8788652E-01
        1   -1    0    0  501    0  0.00000000000E+00  0.00000000000E+00  0.11673053661E+04  0.11673053662E+04  0.50400001928E-02 0.  1.
       -1   -1    0    0    0  501  0.00000000000E+00  0.00000000000E+00 -0.58517372300E+03  0.58517372302E+03  0.50400001928E-02 0. -1.
    10030    2    1    2    0    0  0.00000000000E+00  0.00000000000E+00  0.58213164314E+03  0.17524790892E+04  0.16529687559E+04 0.  0.
        2    1    3    3  502    0 -0.30851269064E+03  0.19051299483E+03 -0.49634391307E+03  0.61468086153E+03  0.25500000920E-02 0. -1.
       -2    1    3    3    0  502  0.30851269064E+03 -0.19051299483E+03  0.10784755562E+04  0.11377982276E+04  0.25500000920E-02 0.  1.
</event>
<event>
 5   0  0.9625225E-04  0.1630339E+04  0.7818609E-02  0.8802124E-01
       -2   -1    0    0    0  501  0.00000000000E+00  0.00000000000E+00  0.43533491687E+03  0.43533491688E+03  0.25500000920E-02 0.  1.
        2   -1    0    0  501    0  0.00000000000E+00  0.00000000000E+00 -0.15264132239E+04  0.15264132239E+04  0.25500000920E-02 0. -1.
    10030    2    1    2    0    0  0.00000000000E+00  0.00000000000E+00 -0.10910783070E+04  0.19617481408E+04  0.16303385832E+04 0.  0.
        1    1    3    3  502    0  0.63984689329E+02 -0.29085602748E+02  0.43168212336E+03  0.43736651496E+03  0.50400001928E-02 0.  1.
       -1    1    3    3    0  502 -0.63984689329E+02  0.29085602748E+02 -0.15227604304E+04  0.15243816258E+04  0.50400001928E-02 0. -1.
</event>
<event>
 5   0  0.5035495E-04  0.1703744E+04  0.7818609E-02  0.8759232E-01
       -1   -1    0    0    0  501  0.00000000000E+00  0.00000000000E+00  0.73838336004E+03  0.73838336006E+03  0.50400001928E-02 0. -1.
        1   -1    0    0  501    0  0.00000000000E+00  0.00000000000E+00 -0.98280317683E+03  0.98280317685E+03  0.50400001928E-02 0.  1.
    10030    2    1    2    0    0  0.00000000000E+00  0.00000000000E+00 -0.24441981679E+03  0.17211865369E+04  0.17037435394E+04 0.  0.
        4    1    3    3  502    0 -0.24957705861E+03 -0.54417697095E+03 -0.73443967985E+03  0.94753392559E+03  0.12699999809E+01 0.  1.
       -4    1    3    3    0  502  0.24957705861E+03  0.54417697095E+03  0.49001986306E+03  0.77365261132E+03  0.12699999809E+01 0. -1.
</event>
<event>
 5   0  0.9284971E-04  0.1601744E+04  0.7818609E-02  0.8819477E-01
        2   -1    0    0  501    0  0.00000000000E+00  0.00000000000E+00  0.21877265525E+04  0.21877265525E+04  0.25500000920E-02 0. -1.
       -2   -1    0    0    0  501  0.00000000000E+00  0.00000000000E+00 -0.29317924197E+03  0.29317924198E+03  0.25500000920E-02 0.  1.
    10030    2    1    2    0    0  0.00000000000E+00  0.00000000000E+00  0.18945473105E+04  0.24809057945E+04  0.16017440649E+04 0.  0.
        4    1    3    3  502    0 -0.41119534132E+02  0.50642203252E+02  0.21836031437E+04  0.21845777054E+04  0.12699999809E+01 0. -1.
       -4    1    3    3    0  502  0.41119534132E+02 -0.50642203252E+02 -0.28905583313E+03  0.29632808913E+03  0.12699999809E+01 0.  1.
</event>
<event>
 5   0  0.3523125E-04  0.1690593E+04  0.7818609E-02  0.8766748E-01
        3   -1    0    0  501    0  0.00000000000E+00  0.00000000000E+00  0.36465158368E+03  0.36465159767E+03  0.10100000352E+00 0. -1.
       -3   -1    0    0    0  501  0.00000000000E+00  0.00000000000E+00 -0.19594770677E+04  0.19594770703E+04  0.10100000352E+00 0.  1.
    10030    2    1    2    0    0  0.00000000000E+00  0.00000000000E+00 -0.15948254840E+04  0.23241286680E+04  0.16905933103E+04 0.  0.
        5    1    3    3  502    0 -0.80932179415E+03  0.45546914990E+02 -0.46796761817E+03  0.93599790043E+03  0.46999998093E+01 0.  1.
       -5    1    3    3    0  502  0.80932179415E+03 -0.45546914990E+02 -0.11268578658E+04  0.13881307675E+04  0.46999998093E+01 0. -1.
</event>
<event>
 5   0  0.9610114E-04  0.1689161E+04  0.7818609E-02  0.8767570E-01
       -2   -1    0    0    0  501  0.00000000000E+00  0.00000000000E+00  0.31253472325E+03  0.31253472326E+03  0.25500000920E-02 0. -1.
        2   -1    0    0  501    0  0.00000000000E+00  0.00000000000E+00 -0.22823584076E+04  0.22823584076E+04  0.25500000920E-02 0.  1.
    10030    2    1    2    0    0  0.00000000000E+00  0.00000000000E+00 -0.19698236843E+04  0.25948931308E+04  0.16891610382E+04 0.  0.
        2    1    3    3  502    0 -0.69900637011E+03 -0.47276531633E+03 -0.10381120062E+04  0.13378316363E+04  0.25500000920E-02 0. -1.
       -2    1    3    3    0  502  0.69900637011E+03  0.47276531633E+03 -0.93171167818E+03  0.12570614945E+04  0.25500000920E-02 0.  1.
</event>
<event>
 5   0  0.5035495E-04  0.1691671E+04  0.7818609E-02  0.8766129E-01
       -1   -1    0    0    0  501  0.00000000000E+00  0.00000000000E+00  0.51909894005E+03  0.51909894007E+03  0.50400001928E-02 0. -1.
        1   -1    0    0  501    0  0.00000000000E+00  0.00000000000E+00 -0.13782302415E+04  0.13782302415E+04  0.50400001928E-02 0.  1.
    10030    2    1    2    0    0  0.00000000000E+00  0.00000000000E+00 -0.85913130144E+03  0.18973291816E+04  0.16916711944E+04 0.  0.
        4    1    3    3  502    0  0.22230868611E+03 -0.23230533249E+03  0.44787943067E+03  0.55134790898E+03  0.12699999809E+01 0. -1.
       -4    1    3    3    0  502 -0.22230868611E+03  0.23230533249E+03 -0.13070107321E+04  0.13459812726E+04  0.12699999809E+01 0.  1.
</event>
<event>
 5   0  0.9284971E-04  0.1648167E+04  0.7818609E-02  0.8791492E-01
       -2   -1    0    0    0  501  0.00000000000E+00  0.00000000000E+00  0.37905437244E+03  0.37905437245E+03  0.25500000920E-02 0. -1.
        2   -1    0    0  501    0  0.00000000000E+00  0.00000000000E+00 -0.17915996405E+04  0.17915996405E+04  0.25500000920E-02 0.  1.
    10030    2    1    2    0    0  0.00000000000E+00  0.00000000000E+00 -0.14125452681E+04  0.21706540130E+04  0.16481670758E+04 0.  0.
        4    1    3    3  502    0 -0.51054860621E+03 -0.41744315661E+03 -0.55459470263E+02  0.66181268804E+03  0.12699999809E+01 0. -1.
       -4    1    3    3    0  502  0.51054860621E+03  0.41744315661E+03 -0.13570857978E+04  0.15088413249E+04  0.12699999809E+01 0.  1.
</event>
<event>
 5   0  0.5009762E-04  0.1681808E+04  0.7818609E-02  0.8771808E-01
        1   -1    0    0  501    0  0.00000000000E+00  0.00000000000E+00  0.13331365005E+04  0.13331365005E+04  0.50400001928E-02 0.  1.
       -1   -1    0    0    0  501  0.00000000000E+00  0.00000000000E+00 -0.53041802036E+03  0.53041802038E+03  0.50400001928E-02 0. -1.
    10030    2    1    2    0    0  0.00000000000E+00  0.00000000000E+00  0.80271848012E+03  0.18635545209E+04  0.16818081026E+04 0.  0.
        3    1    3    3  502    0 -0.44045511310E+03 -0.62769450084E+03  0.78379219359E+03  0.10965086894E+04  0.10100000352E+00 0.  1.
       -3    1    3    3    0  502  0.44045511310E+03  0.62769450084E+03  0.18926286535E+02  0.76704583146E+03  0.10100000352E+00 0. -1.
</event>
<event>
 5   0  0.1007187E-03  0.1708478E+04  0.7818609E-02  0.8756543E-01
       -2   -1    0    0    0  501  0.00000000000E+00  0.00000000000E+00  0.11690513277E+04  0.11690513277E+04  0.25500000920E-02 0.  1.
        2   -1    0    0  501    0  0.00000000000E+00  0.00000000000E+00 -0.62420243711E+03  0.62420243712E+03  0.25500000920E-02 0. -1.
    10030    2    1    2    0    0  0.00000000000E+00  0.00000000000E+00  0.54484889061E+03  0.17932537648E+04  0.17084784902E+04 0.  0.
        5    1    3    3  502    0 -0.21038019308E+03  0.73933098233E+03  0.66351539171E+03  0.10154530477E+04  0.46999998093E+01 0.  1.
       -5    1    3    3    0  502  0.21038019308E+03 -0.73933098233E+03 -0.11866650110E+03  0.77780071713E+03  0.46999998093E+01 0. -1.
</event>
<event>
 5   0  0.1007187E-03  0.1727354E+04  0.7818609E-02  0.8745916E-01
       -2   -1    0    0    0  501  0.00000000000E+00  0.00000000000E+00  0.54836215785E+03  0.54836215786E+03  0.25500000920E-02 0. -1.
        2   -1    0    0  501    0  0.00000000000E+00  0.00000000000E+00 -0.13603008936E+04  0.13603008936E+04  0.25500000920E-02 0.  1.
    10030    2    1    2    0    0  0.00000000000E+00  0.00000000000E+00 -0.81193873572E+03  0.19086630514E+04  0.17273535056E+04 0.  0.
        5    1    3    3  502    0  0.70060664548E+03  0.48485389556E+03 -0.24977238423E+03  0.88788586297E+03  0.46999998093E+01 0. -1.
       -5    1    3    3    0  502 -0.70060664548E+03 -0.48485389556E+03 -0.56216635149E+03  0.10207771885E+04  0.46999998093E+01 0.  1.
</event>
<event>
 5   0  0.9625225E-04  0.1735211E+04  0.7818609E-02  0.8741533E-01
        2   -1    0    0  501    0  0.00000000000E+00  0.00000000000E+00  0.19725795298E+04  0.19725795298E+04  0.25500000920E-02 0.  1.
       -2   -1    0    0    0  501  0.00000000000E+00  0.00000000000E+00 -0.38160161772E+03  0.38160161773E+03  0.25500000920E-02 0. -1.
    10030    2    1    2    0    0  0.00000000000E+00  0.00000000000E+00  0.15909779120E+04  0.23541811475E+04  0.17352112720E+04 0.  0.
        1    1    3    3  502    0  0.56146519232E+03 -0.23452848838E+03  0.16345607650E+04  0.17441432477E+04  0.50400001928E-02 0.  1.
       -1    1    3    3    0  502 -0.56146519232E+03  0.23452848838E+03 -0.43582852980E+02  0.61003789976E+03  0.50400001928E-02 0. -1.
</event>
<event>
 5   0  0.4947006E-04  0.1632705E+04  0.7818609E-02  0.8800704E-01
       -1   -1    0    0    0  501  0.00000000000E+00  0.00000000000E+00  0.56817090497E+03  0.56817090499E+03  0.50400001928E-02 0. -1.
        1   -1    0    0  501    0  0.00000000000E+00  0.00000000000E+00 -0.11729419014E+04  0.11729419014E+04  0.50400001928E-02 0.  1.
    10030    2    1    2    0    0  0.00000000000E+00  0.00000000000E+00 -0.60477099646E+03  0.17411128064E+04  0.16327050703E+04 0.  0.
        2    1    3    3  502    0 -0.72711825220E+03 -0.37097706893E+03 -0.31339180044E+03  0.87437941361E+03  0.25500000920E-02 0. -1.
       -2    1    3    3    0  502  0.72711825220E+03  0.37097706893E+03 -0.29137919602E+03  0.86673339282E+03  0.25500000920E-02 0.  1.
</event>
<event>
 5   0  0.5009762E-04  0.1733749E+04  0.7818609E-02  0.8742347E-01
        1   -1    0    0  501    0  0.00000000000E+00  0.00000000000E+00  0.62392072596E+03  0.62392072598E+03  0.50400001928E-02 0.  1.
       -1   -1    0    0    0  501  0.00000000000E+00  0.00000000000E+00 -0.12044346990E+04  0.12044346990E+04  0.50400001928E-02 0. -1.
    10030    2    1    2    0    0  0.00000000000E+00  0.00000000000E+00 -0.58051397308E+03  0.18283554250E+04  0.17337494304E+04 0.  0.
        3    1    3    3  502    0  0.85973875450E+03  0.46092144494E+02 -0.18376892616E+03  0.88036710536E+03  0.10100000352E+00 0. -1.
       -3    1    3    3    0  502 -0.85973875450E+03 -0.46092144494E+02 -0.39674504693E+03  0.94798831967E+03  0.10100000352E+00 0.  1.
</event>
<event>
 5   0  0.5009762E-04  0.1725780E+04  0.7818609E-02  0.8746796E-01
       -1   -1    0    0    0  501  0.00000000000E+00  0.00000000000E+00  0.72733914304E+03  0.72733914305E+03  0.50400001928E-02 0.  1.
        1   -1    0    0  501    0  0.00000000000E+00  0.00000000000E+00 -0.10237031241E+04  0.10237031241E+04  0.50400001928E-02 0. -1.
    10030    2    1    2    0    0  0.00000000000E+00  0.00000000000E+00 -0.29636398103E+03  0.17510422671E+04  0.17257802328E+04 0.  0.
        3    1    3    3  502    0  0.71871740446E+03 -0.47578327528E+03 -0.10690591778E+03  0.86853515643E+03  0.10100000352E+00 0.  1.
       -3    1    3    3    0  502 -0.71871740446E+03  0.47578327528E+03 -0.18945806325E+03  0.88250711070E+03  0.10100000352E+00 0. -1.
</event>
<event>
 5   0  0.9284971E-04  0.1689733E+04  0.7818609E-02  0.8767242E-01
        2   -1    0    0  501    0  0.00000000000E+00  0.00000000000E+00  0.13256888581E+04  0.13256888581E+04  0.25500000920E-02 0. -1.
       -2   -1    0    0    0  501  0.00000000000E+00  0.00000000000E+00 -0.53843652857E+03  0.53843652858E+03  0.25500000920E-02 0.  1.
    10030    2    1    2    0    0  0.00000000000E+00  0.00000000000E+00  0.78725232954E+03  0.18641253867E+04  0.16897328863E+04 0.  0.
        4    1    3    3  502    0 -0.52633372505E+03 -0.99870191955E+02 -0.32709531036E+03  0.62768957322E+03  0.12699999809E+01 0.  1.
       -4    1    3    3    0  502  0.52633372505E+03  0.99870191955E+02  0.11143476399E+04  0.12364358135E+04  0.12699999809E+01 0. -1.
</event>
<event>
 5   0  0.5059689E-04  0.1810655E+04  0.7818609E-02  0.8700654E-01
       -1   -1    0    0    0  501  0.00000000000E+00  0.00000000000E+00  0.65001636374E+03  0.65001636376E+03  0.50400001928E-02 0. -1.
        1   -1    0    0  501    0  0.00000000000E+00  0.00000000000E+00 -0.12609184153E+04  0.12609184153E+04  0.50400001928E-02 0.  1.
    10030    2    1    2    0    0  0.00000000000E+00  0.00000000000E+00 -0.61090205159E+03  0.19109347791E+04  0.18106546919E+04 0.  0.
        5    1    3    3  502    0 -0.71975898606E+03 -0.47283069576E+03 -0.10748296316E+02  0.86125459694E+03  0.46999998093E+01 0. -1.
       -5    1    3    3    0  502  0.71975898606E+03  0.47283069576E+03 -0.60015375528E+03  0.10496801822E+04  0.46999998093E+01 0.  1.
</event>
<event>
 5   0  0.5035495E-04  0.1013405E+04  0.7818609E-02  0.9293963E-01
        1   -1    0    0  501    0  0.00000000000E+00  0.00000000000E+00  0.36377602395E+03  0.36377602399E+03  0.50400001928E-02 0. -1.
       -1   -1    0    0    0  501  0.00000000000E+00  0.00000000000E+00 -0.70578447077E+03  0.70578447079E+03  0.50400001928E-02 0.  1.
    10030    2    1    2    0    0  0.00000000000E+00  0.00000000000E+00 -0.34200844682E+03  0.10695604948E+04  0.10134050889E+04 0.  0.
        4    1    3    3  502    0 -0.38062333048E+03 -0.98359285851E+02  0.16639318570E+03  0.42689222758E+03  0.12699999809E+01 0. -1.
       -4    1    3    3    0  502  0.38062333048E+03  0.98359285851E+02 -0.50840163252E+03  0.64266826720E+03  0.12699999809E+01 0.  1.
</event>
<event>
 5   0  0.4947006E-04  0.1829169E+04  0.7818609E-02  0.8690940E-01
        1   -1    0    0  501    0  0.00000000000E+00  0.00000000000E+00  0.21248410883E+04  0.21248410883E+04  0.50400001928E-02 0. -1.
       -1   -1    0    0    0  501  0.00000000000E+00  0.00000000000E+00 -0.39365972517E+03  0.39365972520E+03  0.50400001928E-02 0.  1.
    10030    2    1    2    0    0  0.00000000000E+00  0.00000000000E+00  0.17311813631E+04  0.25185008135E+04  0.18291685094E+04 0.  0.
        2    1    3    3  502    0  0.31816999066E+03 -0.70965187716E+02  0.20421346215E+04  0.20679898484E+04  0.25500000920E-02 0. -1.
       -2    1    3    3    0  502 -0.31816999066E+03  0.70965187716E+02 -0.31095325833E+03  0.45051096513E+03  0.25500000920E-02 0.  1.
</event>
<event>
 5   0  0.9312096E-04  0.1654028E+04  0.7818609E-02  0.8788027E-01
        2   -1    0    0  501    0  0.00000000000E+00  0.00000000000E+00  0.84149507209E+03  0.84149507209E+03  0.25500000920E-02 0.  1.
       -2   -1    0    0    0  501  0.00000000000E+00  0.00000000000E+00 -0.81278171071E+03  0.81278171071E+03  0.25500000920E-02 0. -1.
    10030    2    1    2    0    0  0.00000000000E+00  0.00000000000E+00  0.28713361379E+02  0.16542767828E+04  0.16540275744E+04 0.  0.
        3    1    3    3  502    0 -0.55856755882E+02 -0.13933629256E+03 -0.79904146152E+03  0.81302020088E+03  0.10100000352E+00 0. -1.
       -3    1    3    3    0  502  0.55856755882E+02  0.13933629256E+03  0.82775482290E+03  0.84125658193E+03  0.10100000352E+00 0.  1.
</event>
<event>
 5   0  0.9284971E-04  0.1695989E+04  0.7818609E-02  0.8763655E-01
       -2   -1    0    0    0  501  0.00000000000E+00  0.00000000000E+00  0.59717153726E+03  0.59717153727E+03  0.25500000920E-02 0.  1.
        2   -1    0    0  501    0  0.00000000000E+00  0.00000000000E+00 -0.12041680503E+04  0.12041680503E+04  0.25500000920E-02 0. -1.
    10030    2    1    2    0    0  0.00000000000E+00  0.00000000000E+00 -0.60699651303E+03  0.18013395876E+04  0.16959892520E+04 0.  0.
        4    1    3    3  502    0  0.23456016785E+03 -0.63704101961E+03 -0.84325197048E+03  0.10825503368E+04  0.12699999809E+01 0. -1.
       -4    1    3    3    0  502 -0.23456016785E+03  0.63704101961E+03  0.23625545745E+03  0.71878925081E+03  0.12699999809E+01 0.  1.
</event>
<event>
 5   0  0.9625225E-04  0.1472104E+04  0.7818609E-02  0.8903218E-01
       -2   -1    0    0    0  501  0.00000000000E+00  0.00000000000E+00  0.67826927695E+03  0.67826927696E+03  0.25500000920E-02 0.  1.
        2   -1    0    0  501    0  0.00000000000E+00  0.00000000000E+00 -0.79875770679E+03  0.79875770679E+03  0.25500000920E-02 0. -1.
    10030    2    1    2    0    0  0.00000000000E+00  0.00000000000E+00 -0.12048842983E+03  0.14770269837E+04  0.14721043608E+04 0.  0.
        1    1    3    3  502    0 -0.26707842694E+03  0.32116619605E+03 -0.66831881918E+03  0.78811715863E+03  0.50400001928E-02 0. -1.
       -1    1    3    3    0  502  0.26707842694E+03 -0.32116619605E+03  0.54783038935E+03  0.68890982512E+03  0.50400001928E-02 0.  1.
</event>
<event>
 5   0  0.9312096E-04  0.1282074E+04  0.7818609E-02  0.9043903E-01
        2   -1    0    0  501    0  0.00000000000E+00  0.00000000000E+00  0.81820579869E+03  0.81820579869E+03  0.25500000920E-02 0. -1.
       -2   -1    0    0    0  501  0.00000000000E+00  0.00000000000E+00 -0.50223116461E+03  0.50223116461E+03  0.25500000920E-02 0.  1.
    10030    2    1    2    0    0  0.00000000000E+00  0.00000000000E+00  0.31597463408E+03  0.13204369633E+04  0.12820740246E+04 0.  0.
        3    1    3    3  502    0  0.14338379262E+02 -0.59750929373E+03 -0.80691533043E+02  0.60310370494E+03  0.10100000352E+00 0.  1.
       -3    1    3    3    0  502 -0.14338379262E+02  0.59750929373E+03  0.39666616712E+03  0.71733325836E+03  0.10100000352E+00 0. -1.
</event>
<event>
 5   0  0.5059689E-04  0.1705440E+04  0.7818609E-02  0.8758268E-01
        1   -1    0    0  501    0  0.00000000000E+00  0.00000000000E+00  0.15958833206E+04  0.15958833206E+04  0.50400001928E-02 0. -1.
       -1   -1    0    0    0  501  0.00000000000E+00  0.00000000000E+00 -0.45562966429E+03  0.45562966432E+03  0.50400001928E-02 0.  1.
    10030    2    1    2    0    0  0.00000000000E+00  0.00000000000E+00  0.11402536563E+04  0.20515129849E+04  0.17054404494E+04 0.  0.
        5    1    3    3  502    0  0.82567902951E+03 -0.19634496822E+03  0.47084025974E+03  0.97057191722E+03  0.46999998093E+01 0. -1.
       -5    1    3    3    0  502 -0.82567902951E+03  0.19634496822E+03  0.66941339655E+03  0.10809410677E+04  0.46999998093E+01 0.  1.
</event>
<event>
 5   0  0.5035495E-04  0.1708022E+04  0.7818609E-02  0.8756802E-01
        1   -1    0    0  501    0  0.00000000000E+00  0.00000000000E+00  0.14625144388E+04  0.14625144388E+04  0.50400001928E-02 0. -1.
       -1   -1    0    0    0  501  0.00000000000E+00  0.00000000000E+00 -0.49868573140E+03  0.49868573142E+03  0.50400001928E-02 0.  1.
    10030    2    1    2    0    0  0.00000000000E+00  0.00000000000E+00  0.96382870736E+03  0.19612001702E+04  0.17080223448E+04 0.  0.
        4    1    3    3  502    0  0.81910903854E+03  0.28551301264E+01  0.75936236960E+03  0.11169514717E+04  0.12699999809E+01 0.  1.
       -4    1    3    3    0  502 -0.81910903854E+03 -0.28551301264E+01  0.20446633776E+03  0.84424869852E+03  0.12699999809E+01 0. -1.
</event>
<event>
 5   0  0.5059689E-04  0.1709004E+04  0.7818609E-02  0.8756246E-01
       -1   -1    0    0    0  501  0.00000000000E+00  0.00000000000E+00  0.12917340445E+04  0.12917340445E+04  0.50400001928E-02 0. -1.
        1   -1    0    0  501    0  0.00000000000E+00  0.00000000000E+00 -0.56526642146E+03  0.56526642148E+03  0.50400001928E-02 0.  1.
    10030    2    1    2    0    0  0.00000000000E+00  0.00000000000E+00  0.72646762308E+03  0.18570004660E+04  0.17090042491E+04 0.  0.
        5    1    3    3  502    0  0.34890581606E+03 -0.88751498103E+02  0.12052873969E+04  0.12579156951E+04  0.46999998093E+01 0. -1.
       -5    1    3    3    0  502 -0.34890581606E+03  0.88751498103E+02 -0.47881977384E+03  0.59908477089E+03  0.46999998093E+01 0.  1.
</event>
<event>
 5   0  0.5074133E-04  0.1704847E+04  0.7818609E-02  0.8758605E-01
        1   -1    0    0  501    0  0.00000000000E+00  0.00000000000E+00  0.12162304802E+04  0.12162304802E+04  0.50400001928E-02 0. -1.
       -1   -1    0    0    0  501  0.00000000000E+00  0.00000000000E+00 -0.59744087049E+03  0.59744087052E+03  0.50400001928E-02 0.  1.
    10030    2    1    2    0    0  0.00000000000E+00  0.00000000000E+00  0.61878960966E+03  0.18136713507E+04  0.17048469689E+04 0.  0.
        1    1    3    3  502    0  0.71723132673E+03 -0.35148354919E+03  0.62616745104E+03  0.10149123795E+04  0.50400001928E-02 0. -1.
       -1    1    3    3    0  502 -0.71723132673E+03  0.35148354919E+03 -0.73778413864E+01  0.79875897113E+03  0.50400001928E-02 0.  1.
</event>
<event>
 5   0  0.9284971E-04  0.1686895E+04  0.7818609E-02  0.8768874E-01
       -2   -1    0    0    0  501  0.00000000000E+00  0.00000000000E+00  0.65180141096E+03  0.65180141097E+03  0.25500000920E-02 0.  1.
        2   -1    0    0  501    0  0.00000000000E+00  0.00000000000E+00 -0.10914429522E+04  0.10914429522E+04  0.25500000920E-02 0. -1.
    10030    2    1    2    0    0  0.00000000000E+00  0.00000000000E+00 -0.43964154127E+03  0.17432443632E+04  0.16868954399E+04 0.  0.
        4    1    3    3  502    0  0.43892719745E+03  0.16251217618E+03  0.50528360769E+03  0.68875280701E+03  0.12699999809E+01 0.  1.
       -4    1    3    3    0  502 -0.43892719745E+03 -0.16251217618E+03 -0.94492514895E+03  0.10544915562E+04  0.12699999809E+01 0. -1.
</event>
<event>
 5   0  0.9625225E-04  0.1695299E+04  0.7818609E-02  0.8764050E-01
       -2   -1    0    0    0  501  0.00000000000E+00  0.00000000000E+00  0.59936111262E+03  0.59936111262E+03  0.25500000920E-02 0. -1.
        2   -1    0    0  501    0  0.00000000000E+00  0.00000000000E+00 -0.11987927726E+04  0.11987927726E+04  0.25500000920E-02 0.  1.
    10030    2    1    2    0    0  0.00000000000E+00  0.00000000000E+00 -0.59943165995E+03  0.17981538852E+04  0.16952991122E+04 0.  0.
        1    1    3    3  502    0  0.62259670628E+03  0.22424230758E+03  0.26213780213E+03  0.71177770302E+03  0.50400001928E-02 0.  1.
       -1    1    3    3    0  502 -0.62259670628E+03 -0.22424230758E+03 -0.86156946208E+03  0.10863761822E+04  0.50400001928E-02 0. -1.
</event>
<event>
 5   0  0.9610114E-04  0.1692786E+04  0.7818609E-02  0.8765489E-01
        2   -1    0    0  501    0  0.00000000000E+00  0.00000000000E+00  0.14915140459E+04  0.14915140459E+04  0.25500000920E-02 0.  1.
       -2   -1    0    0    0  501  0.00000000000E+00  0.00000000000E+00 -0.48030478689E+03  0.48030478690E+03  0.25500000920E-02 0. -1.
    10030    2    1    2    0    0  0.00000000000E+00  0.00000000000E+00  0.10112092590E+04  0.19718188328E+04  0.16927862665E+04 0.  0.
        2    1    3    3  502    0 -0.34620831480E+03  0.12253085595E+03  0.13938694847E+04  0.14414389159E+04  0.25500000920E-02 0.  1.
       -2    1    3    3    0  502  0.34620831480E+03 -0.12253085595E+03 -0.38266022570E+03  0.53037991689E+03  0.25500000920E-02 0. -1.
</event>
<event>
 5   0  0.5009762E-04  0.1686681E+04  0.7818609E-02  0.8768997E-01
        1   -1    0    0  501    0  0.00000000000E+00  0.00000000000E+00  0.15729536686E+04  0.15729536686E+04  0.50400001928E-02 0. -1.
       -1   -1    0    0    0  501  0.00000000000E+00  0.00000000000E+00 -0.45215781421E+03  0.45215781424E+03  0.50400001928E-02 0.  1.
    10030    2    1    2    0    0  0.00000000000E+00  0.00000000000E+00  0.11207958544E+04  0.20251114828E+04  0.16866811112E+04 0.  0.
        3    1    3    3  502    0  0.98827459305E+02  0.79211866572E+03  0.88701947236E+03  0.11933240976E+04  0.10100000352E+00 0.  1.
       -3    1    3    3    0  502 -0.98827459305E+02 -0.79211866572E+03  0.23377638201E+03  0.83178738527E+03  0.10100000352E+00 0. -1.
</event>
<event>
 5   0  0.9312096E-04  0.1721830E+04  0.7818609E-02  0.8749011E-01
        2   -1    0    0  501    0  0.00000000000E+00  0.00000000000E+00  0.28847382122E+04  0.28847382122E+04  0.25500000920E-02 0. -1.
       -2   -1    0    0    0  501  0.00000000000E+00  0.00000000000E+00 -0.25692947022E+03  0.25692947023E+03  0.25500000920E-02 0.  1.
    10030    2    1    2    0    0  0.00000000000E+00  0.00000000000E+00  0.26278087420E+04  0.31416676825E+04  0.17218295626E+04 0.  0.
        3    1    3    3  502    0  0.29728082763E+03  0.78404631812E+03  0.16699125605E+04  0.18686124503E+04  0.10100000352E+00 0.  1.
       -3    1    3    3    0  502 -0.29728082763E+03 -0.78404631812E+03  0.95789618148E+03  0.12730552322E+04  0.10100000352E+00 0. -1.
</event>
<event>
 5   0  0.1007187E-03  0.1692484E+04  0.7818609E-02  0.8765663E-01
       -2   -1    0    0    0  501  0.00000000000E+00  0.00000000000E+00  0.35233936513E+03  0.35233936514E+03  0.25500000920E-02 0. -1.
        2   -1    0    0  501    0  0.00000000000E+00  0.00000000000E+00 -0.20324869959E+04  0.20324869959E+04  0.25500000920E-02 0.  1.
    10030    2    1    2    0    0  0.00000000000E+00  0.00000000000E+00 -0.16801476307E+04  0.23848263610E+04  0.16924835926E+04 0.  0.
        5    1    3    3  502    0  0.36081949570E+03 -0.70054426605E+03 -0.40542655645E+03  0.88619735942E+03  0.46999998093E+01 0. -1.
       -5    1    3    3    0  502 -0.36081949570E+03  0.70054426605E+03 -0.12747210743E+04  0.14986290016E+04  0.46999998093E+01 0.  1.
</event>
<event>
 5   0  0.9625225E-04  0.1574314E+04  0.7818609E-02  0.8836485E-01
       -2   -1    0    0    0  501  0.00000000000E+00  0.00000000000E+00  0.32968394566E+03  0.32968394567E+03  0.25500000920E-02 0. -1.
        2   -1    0    0  501    0  0.00000000000E+00  0.00000000000E+00 -0.18794249841E+04  0.18794249841E+04  0.25500000920E-02 0.  1.
    10030    2    1    2    0    0  0.00000000000E+00  0.00000000000E+00 -0.15497410384E+04  0.22091089297E+04  0.15743141292E+04 0.  0.
        1    1    3    3  502    0 -0.32476376533E+03  0.60399273792E+03 -0.23260723992E+03  0.72414422515E+03  0.50400001928E-02 0. -1.
       -1    1    3    3    0  502  0.32476376533E+03 -0.60399273792E+03 -0.13171337985E+04  0.14849647046E+04  0.50400001928E-02 0.  1.
</event>
<event>
 5   0  0.5009762E-04  0.1705018E+04  0.7818609E-02  0.8758508E-01
       -1   -1    0    0    0  501  0.00000000000E+00  0.00000000000E+00  0.83154472986E+03  0.83154472987E+03  0.50400001928E-02 0. -1.
        1   -1    0    0  501    0  0.00000000000E+00  0.00000000000E+00 -0.87400136125E+03  0.87400136126E+03  0.50400001928E-02 0.  1.
    10030    2    1    2    0    0  0.00000000000E+00  0.00000000000E+00 -0.42456631388E+02  0.17055460911E+04  0.17050175669E+04 0.  0.
        3    1    3    3  502    0  0.32326275606E+03 -0.49244042797E+03 -0.63767808176E+03  0.86811850039E+03  0.10100000352E+00 0.  1.
       -3    1    3    3    0  502 -0.32326275606E+03  0.49244042797E+03  0.59522145037E+03  0.83742759074E+03  0.10100000352E+00 0. -1.
</event>
<event>
 5   0  0.5035495E-04  0.1621519E+04  0.7818609E-02  0.8807436E-01
        1   -1    0    0  501    0  0.00000000000E+00  0.00000000000E+00  0.12382800408E+04  0.12382800409E+04  0.50400001928E-02 0. -1.
       -1   -1    0    0    0  501  0.00000000000E+00  0.00000000000E+00 -0.53084225376E+03  0.53084225379E+03  0.50400001928E-02 0.  1.
    10030    2    1    2    0    0  0.00000000000E+00  0.00000000000E+00  0.70743778709E+03  0.17691222946E+04  0.16215194944E+04 0.  0.
        4    1    3    3  502    0  0.67939153327E+03 -0.19738554029E+02 -0.12851930259E+03  0.69172342019E+03  0.12699999809E+01 0.  1.
       -4    1    3    3    0  502 -0.67939153327E+03  0.19738554029E+02  0.83595708968E+03  0.10773988745E+04  0.12699999809E+01 0. -1.
</event>
<event>
 5   0  0.5009762E-04  0.1587881E+04  0.7818609E-02  0.8828028E-01
        1   -1    0    0  501    0  0.00000000000E+00  0.00000000000E+00  0.92261745989E+03  0.92261745990E+03  0.50400001928E-02 0.  1.
       -1   -1    0    0    0  501  0.00000000000E+00  0.00000000000E+00 -0.68321003240E+03  0.68321003242E+03  0.50400001928E-02 0. -1.
    10030    2    1    2    0    0  0.00000000000E+00  0.00000000000E+00  0.23940742749E+03  0.16058274923E+04  0.15878809838E+04 0.  0.
        3    1    3    3  502    0  0.29849004384E+02 -0.53672245971E+02 -0.68080428889E+03  0.68356869664E+03  0.10100000352E+00 0. -1.
       -3    1    3    3    0  502 -0.29849004384E+02  0.53672245971E+02  0.92021171638E+03  0.92225879568E+03  0.10100000352E+00 0.  1.
</event>
<event>
 5   0  0.9284971E-04  0.1670802E+04  0.7818609E-02  0.8778194E-01
        2   -1    0    0  501    0  0.00000000000E+00  0.00000000000E+00  0.21897411524E+04  0.21897411524E+04  0.25500000920E-02 0. -1.
       -2   -1    0    0    0  501  0.00000000000E+00  0.00000000000E+00 -0.31871120579E+03  0.31871120580E+03  0.25500000920E-02 0.  1.
    10030    2    1    2    0    0  0.00000000000E+00  0.00000000000E+00  0.18710299466E+04  0.25084523582E+04  0.16708022541E+04 0.  0.
        4    1    3    3  502    0 -0.67226217956E+03 -0.43087514699E+03  0.56683255837E+03  0.97922959131E+03  0.12699999809E+01 0.  1.
       -4    1    3    3    0  502  0.67226217956E+03  0.43087514699E+03  0.13041973882E+04  0.15292227669E+04  0.12699999809E+01 0. -1.
</event>
<event>
 5   0  0.1007187E-03  0.1596692E+04  0.7818609E-02  0.8822583E-01
        2   -1    0    0  501    0  0.00000000000E+00  0.00000000000E+00  0.12874839015E+04  0.12874839015E+04  0.25500000920E-02 0.  1.
       -2   -1    0    0    0  501  0.00000000000E+00  0.00000000000E+00 -0.49504023815E+03  0.49504023815E+03  0.25500000920E-02 0. -1.
    10030    2    1    2    0    0  0.00000000000E+00  0.00000000000E+00  0.79244366337E+03  0.17825241397E+04  0.15966920019E+04 0.  0.
        5    1    3    3  502    0  0.31696467443E+03  0.33060008234E+03 -0.33377085064E+03  0.56673458516E+03  0.46999998093E+01 0. -1.
       -5    1    3    3    0  502 -0.31696467443E+03 -0.33060008234E+03  0.11262145140E+04  0.12157895545E+04  0.46999998093E+01 0.  1.
</event>
<event>
 5   0  0.9610114E-04  0.1686785E+04  0.7818609E-02  0.8768938E-01
       -2   -1    0    0    0  501  0.00000000000E+00  0.00000000000E+00  0.33043714592E+03  0.33043714593E+03  0.25500000920E-02 0.  1.
        2   -1    0    0  501    0  0.00000000000E+00  0.00000000000E+00 -0.21526354255E+04  0.21526354255E+04  0.25500000920E-02 0. -1.
    10030    2    1    2    0    0  0.00000000000E+00  0.00000000000E+00 -0.18221982796E+04  0.24830725714E+04  0.16867847595E+04 0.  0.
        2    1    3    3  502    0 -0.59395335128E+03  0.53239120869E+03 -0.13144843742E+04  0.15375598046E+04  0.25500000920E-02 0.  1.
       -2    1    3    3    0  502  0.59395335128E+03 -0.53239120869E+03 -0.50771390539E+03  0.94551276687E+03  0.25500000920E-02 0. -1.
</event>
<event>
 5   0  0.9312096E-04  0.1616876E+04  0.7818609E-02  0.8810247E-01
       -2   -1    0    0    0  501  0.00000000000E+00  0.00000000000E+00  0.60560992592E+03  0.60560992593E+03  0.25500000920E-02 0. -1.
        2   -1    0    0  501    0  0.00000000000E+00  0.00000000000E+00 -0.10791961944E+04  0.10791961944E+04  0.25500000920E-02 0.  1.
    10030    2    1    2    0    0  0.00000000000E+00  0.00000000000E+00 -0.47358626845E+03  0.16848061203E+04  0.16168759103E+04 0.  0.
        3    1    3    3  502    0 -0.26820809506E+03 -0.43364302663E+03  0.41693217934E+03  0.65864581466E+03  0.10100000352E+00 0. -1.
       -3    1    3    3    0  502  0.26820809506E+03  0.43364302663E+03 -0.89051844780E+03  0.10261603056E+04  0.10100000352E+00 0.  1.
</event>
<event>
 5   0  0.9610114E-04  0.1726094E+04  0.7818609E-02  0.8746620E-01
       -2   -1    0    0    0  501  0.00000000000E+00  0.00000000000E+00  0.26812246405E+03  0.26812246406E+03  0.25500000920E-02 0. -1.
        2   -1    0    0  501    0  0.00000000000E+00  0.00000000000E+00 -0.27780228558E+04  0.27780228558E+04  0.25500000920E-02 0.  1.
    10030    2    1    2    0    0  0.00000000000E+00  0.00000000000E+00 -0.25099003917E+04  0.30461453199E+04  0.17260942423E+04 0.  0.
        2    1    3    3  502    0 -0.52577342560E+03  0.46312641640E+03 -0.36566680862E+03  0.79033915983E+03  0.25500000920E-02 0. -1.
       -2    1    3    3    0  502  0.52577342560E+03 -0.46312641640E+03 -0.21442335831E+04  0.22558061600E+04  0.25500000920E-02 0.  1.
</event>
<event>
 5   0  0.9312096E-04  0.1618768E+04  0.7818609E-02  0.8809100E-01
        2   -1    0    0  501    0  0.00000000000E+00  0.00000000000E+00  0.13921349338E+04  0.13921349338E+04  0.25500000920E-02 0. -1.
       -2   -1    0    0    0  501  0.00000000000E+00  0.00000000000E+00 -0.47057401107E+03  0.47057401108E+03  0.25500000920E-02 0.  1.
    10030    2    1    2    0    0  0.00000000000E+00  0.00000000000E+00  0.92156092274E+03  0.18627089449E+04  0.16187680745E+04 0.  0.
        3    1    3    3  502    0  0.78767029153E+03 -0.17753238465E+03  0.39609261011E+03  0.89935065561E+03  0.10100000352E+00 0.  1.
       -3    1    3    3    0  502 -0.78767029153E+03  0.17753238465E+03  0.52546831263E+03  0.96335828929E+03  0.10100000352E+00 0. -1.
</event>
<event>
 5   0  0.9312096E-04  0.1802807E+04  0.7818609E-02  0.8704808E-01
        2   -1    0    0  501    0  0.00000000000E+00  0.00000000000E+00  0.82499658608E+03  0.82499658609E+03  0.25500000920E-02 0. -1.
       -2   -1    0    0    0  501  0.00000000000E+00  0.00000000000E+00 -0.98488673228E+03  0.98488673229E+03  0.25500000920E-02 0.  1.
    10030    2    1    2    0    0  0.00000000000E+00  0.00000000000E+00 -0.15989014620E+03  0.18098833184E+04  0.18028069135E+04 0.  0.
        3    1    3    3  502    0  0.39065873225E+03 -0.53658435628E+03  0.53235974248E+03  0.85084894200E+03  0.10100000352E+00 0. -1.
       -3    1    3    3    0  502 -0.39065873225E+03  0.53658435628E+03 -0.69224988868E+03  0.95903437637E+03  0.10100000352E+00 0.  1.
</event>
<event>
 5   0  0.9284971E-04  0.1782335E+04  0.7818609E-02  0.8715750E-01
        2   -1    0    0  501    0  0.00000000000E+00  0.00000000000E+00  0.13726764879E+04  0.13726764879E+04  0.25500000920E-02 0. -1.
       -2   -1    0    0    0  501  0.00000000000E+00  0.00000000000E+00 -0.57856287605E+03  0.57856287606E+03  0.25500000920E-02 0.  1.
    10030    2    1    2    0    0  0.00000000000E+00  0.00000000000E+00  0.79411361186E+03  0.19512393640E+04  0.17823351612E+04 0.  0.
        4    1    3    3  502    0  0.36913611437E+03 -0.49022436884E+03  0.11045131939E+04  0.12635396358E+04  0.12699999809E+01 0. -1.
       -4    1    3    3    0  502 -0.36913611437E+03  0.49022436884E+03 -0.31039958205E+03  0.68769972820E+03  0.12699999809E+01 0.  1.
</event>
<event>
 5   0  0.5059689E-04  0.1462696E+04  0.7818609E-02  0.8909646E-01
        1   -1    0    0  501    0  0.00000000000E+00  0.00000000000E+00  0.27472117884E+04  0.27472117884E+04  0.50400001928E-02 0.  1.
       -1   -1    0    0    0  501  0.00000000000E+00  0.00000000000E+00 -0.19469555057E+03  0.19469555064E+03  0.50400001928E-02 0. -1.
    10030    2    1    2    0    0  0.00000000000E+00  0.00000000000E+00  0.25525162378E+04  0.29419073390E+04  0.14626960201E+04 0.  0.
        5    1    3    3  502    0 -0.37016635902E+03  0.57901210041E+03  0.17793610680E+04  0.19074658702E+04  0.46999998093E+01 0.  1.
       -5    1    3    3    0  502  0.37016635902E+03 -0.57901210041E+03  0.77315516981E+03  0.10344414688E+04  0.46999998093E+01 0. -1.
</event>
<event>
 5   0  0.4947006E-04  0.1695225E+04  0.7818609E-02  0.8764092E-01
        1   -1    0    0  501    0  0.00000000000E+00  0.00000000000E+00  0.52203106402E+03  0.52203106404E+03  0.50400001928E-02 0. -1.
       -1   -1    0    0    0  501  0.00000000000E+00  0.00000000000E+00 -0.13762532766E+04  0.13762532766E+04  0.50400001928E-02 0.  1.
    10030    2    1    2    0    0  0.00000000000E+00  0.00000000000E+00 -0.85422221258E+03  0.18982843407E+04  0.16952250144E+04 0.  0.
        2    1    3    3  502    0 -0.53812153210E+03  0.38404489967E+03 -0.10211047984E+04  0.12164375355E+04  0.25500000920E-02 0.  1.
       -2    1    3    3    0  502  0.53812153210E+03 -0.38404489967E+03  0.16688258586E+03  0.68184680519E+03  0.25500000920E-02 0. -1.
</event>
<event>
 5   0  0.4947006E-04  0.1673905E+04  0.7818609E-02  0.8776389E-01
        1   -1    0    0  501    0  0.00000000000E+00  0.00000000000E+00  0.83329937380E+03  0.83329937382E+03  0.50400001928E-02 0.  1.
       -1   -1    0    0    0  501  0.00000000000E+00  0.00000000000E+00 -0.84062178318E+03  0.84062178320E+03  0.50400001928E-02 0. -1.
    10030    2    1    2    0    0  0.00000000000E+00  0.00000000000E+00 -0.73224093813E+01  0.16739211570E+04  0.16739051413E+04 0.  0.
        2    1    3    3  502    0  0.48977569552E+03  0.65550134941E+03  0.17220222631E+03  0.83619128060E+03  0.25500000920E-02 0.  1.
       -2    1    3    3    0  502 -0.48977569552E+03 -0.65550134941E+03 -0.17952463569E+03  0.83772987641E+03  0.25500000920E-02 0. -1.
</event>
<event>
 5   0  0.5009762E-04  0.1724966E+04  0.7818609E-02  0.8747252E-01
       -1   -1    0    0    0  501  0.00000000000E+00  0.00000000000E+00  0.36483608446E+03  0.36483608450E+03  0.50400001928E-02 0.  1.
        1   -1    0    0  501    0  0.00000000000E+00  0.00000000000E+00 -0.20389347130E+04  0.20389347130E+04  0.50400001928E-02 0. -1.
    10030    2    1    2    0    0  0.00000000000E+00  0.00000000000E+00 -0.16740986285E+04  0.24037707975E+04  0.17249660370E+04 0.  0.
        3    1    3    3  502    0  0.62822050247E+03  0.45407621714E+03 -0.31002919695E+03  0.83484389191E+03  0.10100000352E+00 0.  1.
       -3    1    3    3    0  502 -0.62822050247E+03 -0.45407621714E+03 -0.13640694315E+04  0.15689269056E+04  0.10100000352E+00 0. -1.
</event>
<event>
 5   0  0.9625225E-04  0.1782912E+04  0.7818609E-02  0.8715440E-01
        2   -1    0    0  501    0  0.00000000000E+00  0.00000000000E+00  0.47596415304E+03  0.47596415305E+03  0.25500000920E-02 0. -1.
       -2   -1    0    0    0  501  0.00000000000E+00  0.00000000000E+00 -0.16696502985E+04  0.16696502985E+04  0.25500000920E-02 0.  1.
    10030    2    1    2    0    0  0.00000000000E+00  0.00000000000E+00 -0.11936861455E+04  0.21456144516E+04  0.17829118769E+04 0.  0.
        1    1    3    3  502    0 -0.12567432866E+03 -0.71589132533E+03 -0.12179813850E+04  0.14183698674E+04  0.50400001928E-02 0.  1.
       -1    1    3    3    0  502  0.12567432866E+03  0.71589132533E+03  0.24295239459E+02  0.72724458420E+03  0.50400001928E-02 0. -1.
</event>
<event>
 5   0  0.5009762E-04  0.1713595E+04  0.7818609E-02  0.8753649E-01
       -1   -1    0    0    0  501  0.00000000000E+00  0.00000000000E+00  0.37445832953E+03  0.37445832956E+03  0.50400001928E-02 0. -1.
        1   -1    0    0  501    0  0.00000000000E+00  0.00000000000E+00 -0.19604365464E+04  0.19604365465E+04  0.50400001928E-02 0.  1.
    10030    2    1    2    0    0  0.00000000000E+00  0.00000000000E+00 -0.15859782169E+04  0.23348948760E+04  0.17135948113E+04 0.  0.
        3    1    3    3  502    0  0.33077263284E+03 -0.77528097047E+03 -0.58353099975E+03  0.10251729394E+04  0.10100000352E+00 0.  1.
       -3    1    3    3    0  502 -0.33077263284E+03  0.77528097047E+03 -0.10024472172E+04  0.13097219366E+04  0.10100000352E+00 0. -1.
</event>
<event>
 5   0  0.9312096E-04  0.1702108E+04  0.7818609E-02  0.8760163E-01
        2   -1    0    0  501    0  0.00000000000E+00  0.00000000000E+00  0.67526994091E+03  0.67526994092E+03  0.25500000920E-02 0.  1.
       -2   -1    0    0    0  501  0.00000000000E+00  0.00000000000E+00 -0.10725980595E+04  0.10725980595E+04  0.25500000920E-02 0. -1.
    10030    2    1    2    0    0  0.00000000000E+00  0.00000000000E+00 -0.39732811862E+03  0.17478680005E+04  0.17021083729E+04 0.  0.
        3    1    3    3  502    0  0.81526884527E+03  0.17513423661E+03 -0.37340922075E+03  0.91365734674E+03  0.10100000352E+00 0. -1.
       -3    1    3    3    0  502 -0.81526884527E+03 -0.17513423661E+03 -0.23918897866E+02  0.83421065372E+03  0.10100000352E+00 0.  1.
</event>
<event>
 5   0  0.5074133E-04  0.1736178E+04  0.7818609E-02  0.8740996E-01
        1   -1    0    0  501    0  0.00000000000E+00  0.00000000000E+00  0.17316956310E+04  0.17316956310E+04  0.50400001928E-02 0.  1.
       -1   -1    0    0    0  501  0.00000000000E+00  0.00000000000E+00 -0.43516785368E+03  0.43516785371E+03  0.50400001928E-02 0. -1.
    10030    2    1    2    0    0  0.00000000000E+00  0.00000000000E+00  0.12965277773E+04  0.21668634847E+04  0.17361777225E+04 0.  0.
        1    1    3    3  502    0 -0.60131566867E+03  0.18056528663E+03 -0.99944772932E+02  0.63574626525E+03  0.50400001928E-02 0. -1.
       -1    1    3    3    0  502  0.60131566867E+03 -0.18056528663E+03  0.13964725502E+04  0.15311172194E+04  0.50400001928E-02 0.  1.
</event>
<event>
 5   0  0.9284971E-04  0.1697049E+04  0.7818609E-02  0.8763049E-01
       -2   -1    0    0    0  501  0.00000000000E+00  0.00000000000E+00  0.10413097024E+04  0.10413097024E+04  0.25500000920E-02 0.  1.
        2   -1    0    0  501    0  0.00000000000E+00  0.00000000000E+00 -0.69143071543E+03  0.69143071543E+03  0.25500000920E-02 0. -1.
    10030    2    1    2    0    0  0.00000000000E+00  0.00000000000E+00  0.34987898697E+03  0.17327404178E+04  0.16970486293E+04 0.  0.
        4    1    3    3  502    0  0.67852477353E+00  0.69926300379E+03  0.66569653250E+03  0.96546501497E+03  0.12699999809E+01 0.  1.
       -4    1    3    3    0  502 -0.67852477353E+00 -0.69926300379E+03 -0.31581754553E+03  0.76727540285E+03  0.12699999809E+01 0. -1.
</event>
<event>
 5   0  0.9284971E-04  0.1761566E+04  0.7818609E-02  0.8727009E-01
        2   -1    0    0  501    0  0.00000000000E+00  0.00000000000E+00  0.25149162365E+04  0.25149162365E+04  0.25500000920E-02 0. -1.
       -2   -1    0    0    0  501  0.00000000000E+00  0.00000000000E+00 -0.30847106690E+03  0.30847106691E+03  0.25500000920E-02 0.  1.
    10030    2    1    2    0    0  0.00000000000E+00  0.00000000000E+00  0.22064451697E+04  0.28233873035E+04  0.17615662289E+04 0.  0.
        4    1    3    3  502    0 -0.58486531097E+03  0.51398035923E+03  0.44328944564E+03  0.89596338495E+03  0.12699999809E+01 0.  1.
       -4    1    3    3    0  502  0.58486531097E+03 -0.51398035923E+03  0.17631557240E+04  0.19274239185E+04  0.12699999809E+01 0. -1.
</event>
<event>
 5   0  0.5059689E-04  0.1708572E+04  0.7818609E-02  0.8756490E-01
        1   -1    0    0  501    0  0.00000000000E+00  0.00000000000E+00  0.24686245968E+04  0.24686245968E+04  0.50400001928E-02 0.  1.
       -1   -1    0    0    0  501  0.00000000000E+00  0.00000000000E+00 -0.29563208006E+03  0.29563208011E+03  0.50400001928E-02 0. -1.
    10030    2    1    2    0    0  0.00000000000E+00  0.00000000000E+00  0.21729925167E+04  0.27642566769E+04  0.17085720640E+04 0.  0.
        5    1    3    3  502    0 -0.57113879604E+03  0.19614231476E+03  0.20640882728E+04  0.21506170788E+04  0.46999998093E+01 0.  1.
       -5    1    3    3    0  502  0.57113879604E+03 -0.19614231476E+03  0.10890424397E+03  0.61363959808E+03  0.46999998093E+01 0. -1.
</event>
<event>
 5   0  0.5009762E-04  0.1728272E+04  0.7818609E-02  0.8745402E-01
        1   -1    0    0  501    0  0.00000000000E+00  0.00000000000E+00  0.14726118046E+04  0.14726118046E+04  0.50400001928E-02 0. -1.
       -1   -1    0    0    0  501  0.00000000000E+00  0.00000000000E+00 -0.50707947019E+03  0.50707947021E+03  0.50400001928E-02 0.  1.
    10030    2    1    2    0    0  0.00000000000E+00  0.00000000000E+00  0.96553233444E+03  0.19796912748E+04  0.17282722167E+04 0.  0.
        3    1    3    3  502    0  0.41941322921E+03  0.52590287620E+03  0.11041264518E+04  0.12928946298E+04  0.10100000352E+00 0. -1.
       -3    1    3    3    0  502 -0.41941322921E+03 -0.52590287620E+03 -0.13859411737E+03  0.68679664502E+03  0.10100000352E+00 0.  1.
</event>
<event>
 5   0  0.4947006E-04  0.1614493E+04  0.7818609E-02  0.8811693E-01
        1   -1    0    0  501    0  0.00000000000E+00  0.00000000000E+00  0.82686748058E+03  0.82686748059E+03  0.50400001928E-02 0.  1.
       -1   -1    0    0    0  501  0.00000000000E+00  0.00000000000E+00 -0.78809136032E+03  0.78809136034E+03  0.50400001928E-02 0. -1.
    10030    2    1    2    0    0  0.00000000000E+00  0.00000000000E+00  0.38776120254E+02  0.16149588409E+04  0.16144932550E+04 0.  0.
        2    1    3    3  502    0 -0.77454254145E+03  0.13640179243E+03  0.20144472236E+03  0.81185070898E+03  0.25500000920E-02 0.  1.
       -2    1    3    3    0  502  0.77454254145E+03 -0.13640179243E+03 -0.16266860211E+03  0.80310813195E+03  0.25500000920E-02 0. -1.
</event>
<event>
 5   0  0.9284971E-04  0.1863877E+04  0.7818609E-02  0.8673049E-01
       -2   -1    0    0    0  501  0.00000000000E+00  0.00000000000E+00  0.58398366578E+03  0.58398366579E+03  0.25500000920E-02 0. -1.
        2   -1    0    0  501    0  0.00000000000E+00  0.00000000000E+00 -0.14872154393E+04  0.14872154393E+04  0.25500000920E-02 0.  1.
    10030    2    1    2    0    0  0.00000000000E+00  0.00000000000E+00 -0.90323177354E+03  0.20711991051E+04  0.18638771677E+04 0.  0.
        4    1    3    3  502    0  0.73055436251E+03  0.30779504950E+03  0.92842713426E+02  0.79816592975E+03  0.12699999809E+01 0. -1.
       -4    1    3    3    0  502 -0.73055436251E+03 -0.30779504950E+03 -0.99607448696E+03  0.12730331754E+04  0.12699999809E+01 0.  1.
</event>
<event>
 5   0  0.5009762E-04  0.1696372E+04  0.7818609E-02  0.8763436E-01
        1   -1    0    0  501    0  0.00000000000E+00  0.00000000000E+00  0.40014488524E+03  0.40014488527E+03  0.50400001928E-02 0.  1.
       -1   -1    0    0    0  501  0.00000000000E+00  0.00000000000E+00 -0.17978983952E+04  0.17978983952E+04  0.50400001928E-02 0. -1.
    10030    2    1    2    0    0  0.00000000000E+00  0.00000000000E+00 -0.13977535099E+04  0.21980432804E+04  0.16963724202E+04 0.  0.
        3    1    3    3  502    0 -0.68344762313E+03  0.20995779300E+03 -0.10759580053E+03  0.72302129629E+03  0.10100000352E+00 0.  1.
       -3    1    3    3    0  502  0.68344762313E+03 -0.20995779300E+03 -0.12901577094E+04  0.14750219841E+04  0.10100000352E+00 0. -1.
</event>
<event>
 5   0  0.9610114E-04  0.1674126E+04  0.7818609E-02  0.8776260E-01
        2   -1    0    0  501    0  0.00000000000E+00  0.00000000000E+00  0.15590149170E+04  0.15590149170E+04  0.25500000920E-02 0.  1.
       -2   -1    0    0    0  501  0.00000000000E+00  0.00000000000E+00 -0.44943419563E+03  0.44943419564E+03  0.25500000920E-02 0. -1.
    10030    2    1    2    0    0  0.00000000000E+00  0.00000000000E+00  0.11095807214E+04  0.20084491127E+04  0.16741261783E+04 0.  0.
        2    1    3    3  502    0  0.54553461925E+03 -0.50633777019E+03  0.95305812578E+02  0.75037934155E+03  0.25500000920E-02 0. -1.
       -2    1    3    3    0  502 -0.54553461925E+03  0.50633777019E+03  0.10142749088E+04  0.12580697711E+04  0.25500000920E-02 0.  1.
</event>
<event>
 5   0  0.9284971E-04  0.1672940E+04  0.7818609E-02  0.8776950E-01
       -2   -1    0    0    0  501  0.00000000000E+00  0.00000000000E+00  0.90909998588E+03  0.90909998589E+03  0.25500000920E-02 0.  1.
        2   -1    0    0  501    0  0.00000000000E+00  0.00000000000E+00 -0.76964254157E+03  0.76964254157E+03  0.25500000920E-02 0. -1.
    10030    2    1    2    0    0  0.00000000000E+00  0.00000000000E+00  0.13945744432E+03  0.16787425275E+04  0.16729399555E+04 0.  0.
        4    1    3    3  502    0  0.28123540216E+03 -0.73931725490E+03 -0.20323878865E+03  0.81669515300E+03  0.12699999809E+01 0. -1.
       -4    1    3    3    0  502 -0.28123540216E+03  0.73931725490E+03  0.34269623297E+03  0.86204737446E+03  0.12699999809E+01 0.  1.
</event>
<event>
 5   0  0.5059689E-04  0.1670881E+04  0.7818609E-02  0.8778149E-01
        1   -1    0    0  501    0  0.00000000000E+00  0.00000000000E+00  0.57945231031E+03  0.57945231033E+03  0.50400001928E-02 0.  1.
       -1   -1    0    0    0  501  0.00000000000E+00  0.00000000000E+00 -0.12045180146E+04  0.12045180146E+04  0.50400001928E-02 0. -1.
    10030    2    1    2    0    0  0.00000000000E+00  0.00000000000E+00 -0.62506570433E+03  0.17839703250E+04  0.16708809011E+04 0.  0.
        5    1    3    3  502    0  0.93691743346E+02  0.66856611497E+03  0.21289264780E+03  0.70788711130E+03  0.46999998093E+01 0.  1.
       -5    1    3    3    0  502 -0.93691743346E+02 -0.66856611497E+03 -0.83795835213E+03  0.10760832137E+04  0.46999998093E+01 0. -1.
</event>
<event>
 5   0  0.4947006E-04  0.1763037E+04  0.7818609E-02  0.8726207E-01
        1   -1    0    0  501    0  0.00000000000E+00  0.00000000000E+00  0.50153714746E+03  0.50153714749E+03  0.50400001928E-02 0. -1.
       -1   -1    0    0    0  501  0.00000000000E+00  0.00000000000E+00 -0.15493867594E+04  0.15493867594E+04  0.50400001928E-02 0.  1.
    10030    2    1    2    0    0  0.00000000000E+00  0.00000000000E+00 -0.10478496119E+04  0.20509239069E+04  0.17630371700E+04 0.  0.
        2    1    3    3  502    0  0.11842544644E+03  0.57884666249E+03  0.23710795526E+03  0.63663822340E+03  0.25500000920E-02 0. -1.
       -2    1    3    3    0  502 -0.11842544644E+03 -0.57884666249E+03 -0.12849575672E+04  0.14142856835E+04  0.25500000920E-02 0.  1.
</event>
<event>
 5   0  0.9610114E-04  0.1619195E+04  0.7818609E-02  0.8808842E-01
        2   -1    0    0  501    0  0.00000000000E+00  0.00000000000E+00  0.25611455219E+04  0.25611455219E+04  0.25500000920E-02 0.  1.
       -2   -1    0    0    0  501  0.00000000000E+00  0.00000000000E+00 -0.25591988726E+03  0.25591988728E+03  0.25500000920E-02 0. -1.
    10030    2    1    2    0    0  0.00000000000E+00  0.00000000000E+00  0.23052256347E+04  0.28170654092E+04  0.16191949521E+04 0.  0.
        2    1    3    3  502    0 -0.17431173655E+03 -0.45012050414E+03  0.21807012816E+02  0.48318588096E+03  0.25500000920E-02 0. -1.
       -2    1    3    3    0  502  0.17431173655E+03  0.45012050414E+03  0.22834186218E+04  0.23338795282E+04  0.25500000920E-02 0.  1.
</event>
<event>
 5   0  0.9312096E-04  0.1720939E+04  0.7818609E-02  0.8749511E-01
       -2   -1    0    0    0  501  0.00000000000E+00  0.00000000000E+00  0.55175917545E+03  0.55175917546E+03  0.25500000920E-02 0. -1.
        2   -1    0    0  501    0  0.00000000000E+00  0.00000000000E+00 -0.13419035550E+04  0.13419035550E+04  0.25500000920E-02 0.  1.
    10030    2    1    2    0    0  0.00000000000E+00  0.00000000000E+00 -0.79014437956E+03  0.18936627305E+04  0.17209388125E+04 0.  0.
        3    1    3    3  502    0 -0.60210916061E+03 -0.32114018724E+03 -0.97183737920E+03  0.11874907844E+04  0.10100000352E+00 0.  1.
       -3    1    3    3    0  502  0.60210916061E+03  0.32114018724E+03  0.18169299964E+03  0.70617194611E+03  0.10100000352E+00 0. -1.
</event>
<event>
 5   0  0.1007187E-03  0.1894431E+04  0.7818609E-02  0.8657634E-01
       -2   -1    0    0    0  501  0.00000000000E+00  0.00000000000E+00  0.78430694943E+03  0.78430694943E+03  0.25500000920E-02 0.  1.
        2   -1    0    0  501    0  0.00000000000E+00  0.00000000000E+00 -0.11439613752E+04  0.11439613752E+04  0.25500000920E-02 0. -1.
    10030    2    1    2    0    0  0.00000000000E+00  0.00000000000E+00 -0.35965442580E+03  0.19282683247E+04  0.18944306337E+04 0.  0.
        5    1    3    3  502    0 -0.48725376737E+03  0.56647748364E+03 -0.77236067010E+03  0.10746516031E+04  0.46999998093E+01 0. -1.
       -5    1    3    3    0  502  0.48725376737E+03 -0.56647748364E+03  0.41270624430E+03  0.85361672158E+03  0.46999998093E+01 0.  1.
</event>
<event>
 5   0  0.4947006E-04  0.1658613E+04  0.7818609E-02  0.8785327E-01
        1   -1    0    0  501    0  0.00000000000E+00  0.00000000000E+00  0.11254143575E+04  0.11254143575E+04  0.50400001928E-02 0. -1.
       -1   -1    0    0    0  501  0.00000000000E+00  0.00000000000E+00 -0.61110755810E+03  0.61110755812E+03  0.50400001928E-02 0.  1.
    10030    2    1    2    0    0  0.00000000000E+00  0.00000000000E+00  0.51430679943E+03  0.17365219156E+04  0.16586129385E+04 0.  0.
        2    1    3    3  502    0 -0.35054732952E+03  0.14365978230E+03  0.10295236256E+04  0.10970143385E+04  0.25500000920E-02 0. -1.
       -2    1    3    3    0  502  0.35054732952E+03 -0.14365978230E+03 -0.51521682614E+03  0.63950757715E+03  0.25500000920E-02 0.  1.
</event>
<event>
 5   0  0.9610114E-04  0.1331612E+04  0.7818609E-02  0.9004865E-01
        2   -1    0    0  501    0  0.00000000000E+00  0.00000000000E+00  0.73096966706E+03  0.73096966707E+03  0.25500000920E-02 0.  1.
       -2   -1    0    0    0  501  0.00000000000E+00  0.00000000000E+00 -0.60645165964E+03  0.60645165965E+03  0.25500000920E-02 0. -1.
    10030    2    1    2    0    0  0.00000000000E+00  0.00000000000E+00  0.12451800742E+03  0.13374213267E+04  0.13316122074E+04 0.  0.
        2    1    3    3  502    0  0.58644812199E+03  0.10341752732E+03  0.36135198062E+03  0.69655713236E+03  0.25500000920E-02 0.  1.
       -2    1    3    3    0  502 -0.58644812199E+03 -0.10341752732E+03 -0.23683397320E+03  0.64086419436E+03  0.25500000920E-02 0. -1.
</event>
<event>
 5   0  0.4947006E-04  0.1605600E+04  0.7818609E-02  0.8817115E-01
       -1   -1    0    0    0  501  0.00000000000E+00  0.00000000000E+00  0.67596705808E+03  0.67596705810E+03  0.50400001928E-02 0.  1.
        1   -1    0    0  501    0  0.00000000000E+00  0.00000000000E+00 -0.95343080738E+03  0.95343080739E+03  0.50400001928E-02 0. -1.
    10030    2    1    2    0    0  0.00000000000E+00  0.00000000000E+00 -0.27746374930E+03  0.16293978655E+04  0.16055999726E+04 0.  0.
        2    1    3    3  502    0  0.49487518950E+03  0.51511707841E+03  0.23308747988E+03  0.75138327832E+03  0.25500000920E-02 0.  1.
       -2    1    3    3    0  502 -0.49487518950E+03 -0.51511707841E+03 -0.51055122918E+03  0.87801458717E+03  0.25500000920E-02 0. -1.
</event>
<event>
 5   0  0.1007187E-03  0.1727341E+04  0.7818609E-02  0.8745923E-01
        2   -1    0    0  501    0  0.00000000000E+00  0.00000000000E+00  0.89274876767E+03  0.89274876767E+03  0.25500000920E-02 0.  1.
       -2   -1    0    0    0  501  0.00000000000E+00  0.00000000000E+00 -0.83553940623E+03  0.83553940623E+03  0.25500000920E-02 0. -1.
    10030    2    1    2    0    0  0.00000000000E+00  0.00000000000E+00  0.57209361437E+02  0.17282881739E+04  0.17273410494E+04 0.  0.
        5    1    3    3  502    0  0.20341832567E+03 -0.81361930548E+03  0.23499259048E+03  0.87097588775E+03  0.46999998093E+01 0.  1.
       -5    1    3    3    0  502 -0.20341832567E+03  0.81361930548E+03 -0.17778322904E+03  0.85731228615E+03  0.46999998093E+01 0. -1.
</event>
<event>
 5   0  0.5074133E-04  0.1274785E+04  0.7818609E-02  0.9049803E-01
       -1   -1    0    0    0  501  0.00000000000E+00  0.00000000000E+00  0.34455888463E+03  0.34455888467E+03  0.50400001928E-02 0. -1.
        1   -1    0    0  501    0  0.00000000000E+00  0.00000000000E+00 -0.11790994648E+04  0.11790994648E+04  0.50400001928E-02 0.  1.
    10030    2    1    2    0    0  0.00000000000E+00  0.00000000000E+00 -0.83454058016E+03  0.15236583495E+04  0.12747849960E+04 0.  0.
        1    1    3    3  502    0 -0.83082805916E+02  0.54136500256E+03 -0.80694087917E+03  0.97526017100E+03  0.50400001928E-02 0.  1.
       -1    1    3    3    0  502  0.83082805916E+02 -0.54136500256E+03 -0.27599700995E+02  0.54839817848E+03  0.50400001928E-02 0. -1.
</event>
<event>
 5   0  0.4947006E-04  0.1951435E+04  0.7818609E-02  0.8629669E-01
       -1   -1    0    0    0  501  0.00000000000E+00  0.00000000000E+00  0.13159368620E+04  0.13159368620E+04  0.50400001928E-02 0.  1.
        1   -1    0    0  501    0  0.00000000000E+00  0.00000000000E+00 -0.72345770642E+03  0.72345770643E+03  0.50400001928E-02 0. -1.
    10030    2    1    2    0    0  0.00000000000E+00  0.00000000000E+00  0.59247915557E+03  0.20393945684E+04  0.19514350248E+04 0.  0.
        2    1    3    3  502    0 -0.65272042445E+03 -0.69350814644E+03  0.74478945257E+02  0.95527201098E+03  0.25500000920E-02 0.  1.
       -2    1    3    3    0  502  0.65272042445E+03  0.69350814644E+03  0.51800021031E+03  0.10841225574E+04  0.25500000920E-02 0. -1.
</event>
<event>
 5   0  0.5074133E-04  0.1670379E+04  0.7818609E-02  0.8778441E-01
       -1   -1    0    0    0  501  0.00000000000E+00  0.00000000000E+00  0.61964069282E+03  0.61964069284E+03  0.50400001928E-02 0.  1.
        1   -1    0    0  501    0  0.00000000000E+00  0.00000000000E+00 -0.11257192928E+04  0.11257192928E+04  0.50400001928E-02 0. -1.
    10030    2    1    2    0    0  0.00000000000E+00  0.00000000000E+00 -0.50607859998E+03  0.17453599857E+04  0.16703789780E+04 0.  0.
        1    1    3    3  502    0 -0.45322788875E+02  0.19049852841E+03  0.59531608450E+03  0.62669377291E+03  0.50400001928E-02 0.  1.
       -1    1    3    3    0  502  0.45322788875E+02 -0.19049852841E+03 -0.11013946845E+04  0.11186662127E+04  0.50400001928E-02 0. -1.
</event>
<event>
 5   0  0.1007187E-03  0.1669925E+04  0.7818609E-02  0.8778706E-01
        2   -1    0    0  501    0  0.00000000000E+00  0.00000000000E+00  0.93368506748E+03  0.93368506748E+03  0.25500000920E-02 0. -1.
       -2   -1    0    0    0  501  0.00000000000E+00  0.00000000000E+00 -0.74667785331E+03  0.74667785331E+03  0.25500000920E-02 0.  1.
    10030    2    1    2    0    0  0.00000000000E+00  0.00000000000E+00  0.18700721417E+03  0.16803629208E+04  0.16699245035E+04 0.  0.
        5    1    3    3  502    0 -0.16446190603E+03 -0.80096292899E+03  0.26352885376E+03  0.85910353213E+03  0.46999998093E+01 0. -1.
       -5    1    3    3    0  502  0.16446190603E+03  0.80096292899E+03 -0.76521639585E+02  0.82125938867E+03  0.46999998093E+01 0.  1.
</event>
<event>
 5   0  0.5059689E-04  0.1711064E+04  0.7818609E-02  0.8755079E-01
       -1   -1    0    0    0  501  0.00000000000E+00  0.00000000000E+00  0.45217254682E+03  0.45217254685E+03  0.50400001928E-02 0.  1.
        1   -1    0    0  501    0  0.00000000000E+00  0.00000000000E+00 -0.16187075189E+04  0.16187075190E+04  0.50400001928E-02 0. -1.
    10030    2    1    2    0    0  0.00000000000E+00  0.00000000000E+00 -0.11665349721E+04  0.20708800658E+04  0.17110641150E+04 0.  0.
        5    1    3    3  502    0 -0.85434507027E+03 -0.44748725841E+02 -0.58054396580E+03  0.10339058631E+04  0.46999998093E+01 0.  1.
       -5    1    3    3    0  502  0.85434507027E+03  0.44748725841E+02 -0.58599100632E+03  0.10369742027E+04  0.46999998093E+01 0. -1.
</event>
<event>
 5   0  0.5009762E-04  0.1696965E+04  0.7818609E-02  0.8763097E-01
        1   -1    0    0  501    0  0.00000000000E+00  0.00000000000E+00  0.13334265667E+04  0.13334265667E+04  0.50400001928E-02 0. -1.
       -1   -1    0    0    0  501  0.00000000000E+00  0.00000000000E+00 -0.53990398757E+03  0.53990398760E+03  0.50400001928E-02 0.  1.
    10030    2    1    2    0    0  0.00000000000E+00  0.00000000000E+00  0.79352257909E+03  0.18733305543E+04  0.16969647262E+04 0.  0.
        3    1    3    3  502    0 -0.42975341650E+03  0.20289146435E+03 -0.37919197505E+03  0.60797985941E+03  0.10100000352E+00 0.  1.
       -3    1    3    3    0  502  0.42975341650E+03 -0.20289146435E+03  0.11727145541E+04  0.12653506949E+04  0.10100000352E+00 0. -1.
</event>
<event>
 5   0  0.9625225E-04  0.1675992E+04  0.7818609E-02  0.8775177E-01
        2   -1    0    0  501    0  0.00000000000E+00  0.00000000000E+00  0.15097273328E+04  0.15097273328E+04  0.25500000920E-02 0. -1.
       -2   -1    0    0    0  501  0.00000000000E+00  0.00000000000E+00 -0.46514157535E+03  0.46514157535E+03  0.25500000920E-02 0.  1.
    10030    2    1    2    0    0  0.00000000000E+00  0.00000000000E+00  0.10445857575E+04  0.19748689082E+04  0.16759915870E+04 0.  0.
        1    1    3    3  502    0  0.74008732270E+03  0.38547894980E+03  0.43167883880E+03  0.93950512816E+03  0.50400001928E-02 0.  1.
       -1    1    3    3    0  502 -0.74008732270E+03 -0.38547894980E+03  0.61290691866E+03  0.10353637800E+04  0.50400001928E-02 0. -1.
</event>
<event>
 5   0  0.5009762E-04  0.1875092E+04  0.7818609E-02  0.8667355E-01
       -1   -1    0    0    0  501  0.00000000000E+00  0.00000000000E+00  0.69697226299E+03  0.69697226301E+03  0.50400001928E-02 0.  1.
        1   -1    0    0  501    0  0.00000000000E+00  0.00000000000E+00 -0.12611587190E+04  0.12611587190E+04  0.50400001928E-02 0. -1.
    10030    2    1    2    0    0  0.00000000000E+00  0.00000000000E+00 -0.56418645604E+03  0.19581309820E+04  0.18750921539E+04 0.  0.
        3    1    3    3  502    0  0.64630444537E+02 -0.87670400275E+02 -0.12545293635E+04  0.12592486361E+04  0.10100000352E+00 0. -1.
       -3    1    3    3    0  502 -0.64630444537E+02  0.87670400275E+02  0.69034290744E+03  0.69888234597E+03  0.10100000352E+00 0.  1.
</event>
<event>
 5   0  0.9312096E-04  0.1627116E+04  0.7818609E-02  0.8804061E-01
       -2   -1    0    0    0  501  0.00000000000E+00  0.00000000000E+00  0.87349773211E+03  0.87349773211E+03  0.25500000920E-02 0. -1.
        2   -1    0    0  501    0  0.00000000000E+00  0.00000000000E+00 -0.75773144706E+03  0.75773144707E+03  0.25500000920E-02 0.  1.
    10030    2    1    2    0    0  0.00000000000E+00  0.00000000000E+00  0.11576628505E+03  0.16312291792E+04  0.16271160998E+04 0.  0.
        3    1    3    3  502    0  0.63350063490E+03 -0.14051761821E+03 -0.43407968246E+03  0.78070060610E+03  0.10100000352E+00 0.  1.
       -3    1    3    3    0  502 -0.63350063490E+03  0.14051761821E+03  0.54984596751E+03  0.85052857308E+03  0.10100000352E+00 0. -1.
</event>
<event>
 5   0  0.5074133E-04  0.1696968E+04  0.7818609E-02  0.8763096E-01
       -1   -1    0    0    0  501  0.00000000000E+00  0.00000000000E+00  0.70184864893E+03  0.70184864895E+03  0.50400001928E-02 0.  1.
        1   -1    0    0  501    0  0.00000000000E+00  0.00000000000E+00 -0.10257554485E+04  0.10257554485E+04  0.50400001928E-02 0. -1.
    10030    2    1    2    0    0  0.00000000000E+00  0.00000000000E+00 -0.32390679959E+03  0.17276040975E+04  0.16969679734E+04 0.  0.
        1    1    3    3  502    0 -0.28319509846E+03 -0.77363929735E+03 -0.36861536491E+03  0.90254889810E+03  0.50400001928E-02 0.  1.
       -1    1    3    3    0  502  0.28319509846E+03  0.77363929735E+03  0.44708565320E+02  0.82505519938E+03  0.50400001928E-02 0. -1.
</event>
<event>
 5   0  0.5074133E-04  0.1544753E+04  0.7818609E-02  0.8855226E-01
        1   -1    0    0  501    0  0.00000000000E+00  0.00000000000E+00  0.11336776236E+04  0.11336776236E+04  0.50400001928E-02 0.  1.
       -1   -1    0    0    0  501  0.00000000000E+00  0.00000000000E+00 -0.52622114664E+03  0.52622114666E+03  0.50400001928E-02 0. -1.
    10030    2    1    2    0    0  0.00000000000E+00  0.00000000000E+00  0.60745647694E+03  0.16598987703E+04  0.15447525873E+04 0.  0.
        1    1    3    3  502    0 -0.63241678859E+03 -0.29889032866E+03 -0.48220534337E+02  0.70115022856E+03  0.50400001928E-02 0. -1.
       -1    1    3    3    0  502  0.63241678859E+03  0.29889032866E+03  0.65567701128E+03  0.95874854169E+03  0.50400001928E-02 0.  1.
</event>
<event>
 5   0  0.9625225E-04  0.1622130E+04  0.7818609E-02  0.8807067E-01
        2   -1    0    0  501    0  0.00000000000E+00  0.00000000000E+00  0.22245920925E+04  0.22245920925E+04  0.25500000920E-02 0.  1.
       -2   -1    0    0    0  501  0.00000000000E+00  0.00000000000E+00 -0.29570660821E+03  0.29570660822E+03  0.25500000920E-02 0. -1.
    10030    2    1    2    0    0  0.00000000000E+00  0.00000000000E+00  0.19288854843E+04  0.25202987007E+04  0.16221301826E+04 0.  0.
        1    1    3    3  502    0  0.45535047849E+03 -0.40754173351E+03  0.13588038983E+03  0.62601741443E+03  0.50400001928E-02 0. -1.
       -1    1    3    3    0  502 -0.45535047849E+03  0.40754173351E+03  0.17930050945E+04  0.18942812863E+04  0.50400001928E-02 0.  1.
</event>
<event>
 5   0  0.5074133E-04  0.1718118E+04  0.7818609E-02  0.8751098E-01
        1   -1    0    0  501    0  0.00000000000E+00  0.00000000000E+00  0.53097452633E+03  0.53097452635E+03  0.50400001928E-02 0. -1.
       -1   -1    0    0    0  501  0.00000000000E+00  0.00000000000E+00 -0.13898634350E+04  0.13898634350E+04  0.50400001928E-02 0.  1.
    10030    2    1    2    0    0  0.00000000000E+00  0.00000000000E+00 -0.85888890867E+03  0.19208379614E+04  0.17181176666E+04 0.  0.
        1    1    3    3  502    0  0.40784871754E+03 -0.22490405030E+03  0.37757045257E+03  0.59956805696E+03  0.50400001928E-02 0. -1.
       -1    1    3    3    0  502 -0.40784871754E+03  0.22490405030E+03 -0.12364593612E+04  0.13212699044E+04  0.50400001928E-02 0.  1.
</event>
<event>
 5   0  0.5074133E-04  0.1608298E+04  0.7818609E-02  0.8815467E-01
        1   -1    0    0  501    0  0.00000000000E+00  0.00000000000E+00  0.59111372041E+03  0.59111372044E+03  0.50400001928E-02 0.  1.
       -1   -1    0    0    0  501  0.00000000000E+00  0.00000000000E+00 -0.10939607839E+04  0.10939607839E+04  0.50400001928E-02 0. -1.
    10030    2    1    2    0    0  0.00000000000E+00  0.00000000000E+00 -0.50284706348E+03  0.16850745043E+04  0.16082975210E+04 0.  0.
        1    1    3    3  502    0 -0.21916891374E+03  0.28887557780E+03  0.50059487067E+03  0.61812566422E+03  0.50400001928E-02 0.  1.
       -1    1    3    3    0  502  0.21916891374E+03 -0.28887557780E+03 -0.10034419341E+04  0.10669488401E+04  0.50400001928E-02 0. -1.
</event>
<event>
 5   0  0.9312096E-04  0.1700245E+04  0.7818609E-02  0.8761225E-01
       -2   -1    0    0    0  501  0.00000000000E+00  0.00000000000E+00  0.89423215968E+03  0.89423215969E+03  0.25500000920E-02 0. -1.
        2   -1    0    0  501    0  0.00000000000E+00  0.00000000000E+00 -0.80818820141E+03  0.80818820141E+03  0.25500000920E-02 0.  1.
    10030    2    1    2    0    0  0.00000000000E+00  0.00000000000E+00  0.86043958277E+02  0.17024203611E+04  0.17002445480E+04 0.  0.
        3    1    3    3  502    0 -0.68759840778E+03 -0.41510997630E+03  0.32194624350E+03  0.86530760814E+03  0.10100000352E+00 0. -1.
       -3    1    3    3    0  502  0.68759840778E+03  0.41510997630E+03 -0.23590228522E+03  0.83711275296E+03  0.10100000352E+00 0.  1.
</event>
<event>
 5   0  0.1007187E-03  0.1682925E+04  0.7818609E-02  0.8771163E-01
        2   -1    0    0  501    0  0.00000000000E+00  0.00000000000E+00  0.86570861955E+03  0.86570861956E+03  0.25500000920E-02 0. -1.
       -2   -1    0    0    0  501  0.00000000000E+00  0.00000000000E+00 -0.81789507740E+03  0.81789507741E+03  0.25500000920E-02 0.  1.
    10030    2    1    2    0    0  0.00000000000E+00  0.00000000000E+00  0.47813542150E+02  0.16836036970E+04  0.16829246191E+04 0.  0.
        5    1    3    3  502    0  0.14307256365E+03 -0.71132783634E+03 -0.40238684533E+03  0.82969531306E+03  0.46999998093E+01 0.  1.
       -5    1    3    3    0  502 -0.14307256365E+03  0.71132783634E+03  0.45020038748E+03  0.85390838390E+03  0.46999998093E+01 0. -1.
</event>
<event>
 5   0  0.9610114E-04  0.1679624E+04  0.7818609E-02  0.8773072E-01
       -2   -1    0    0    0  501  0.00000000000E+00  0.00000000000E+00  0.18505361642E+04  0.18505361642E+04  0.25500000920E-02 0.  1.
        2   -1    0    0  501    0  0.00000000000E+00  0.00000000000E+00 -0.38112430198E+03  0.38112430199E+03  0.25500000920E-02 0. -1.
    10030    2    1    2    0    0  0.00000000000E+00  0.00000000000E+00  0.14694118623E+04  0.22316604662E+04  0.16796241293E+04 0.  0.
        2    1    3    3  502    0 -0.50483681784E+03  0.42203971968E+03  0.14280440405E+04  0.15723509529E+04  0.25500000920E-02 0.  1.
       -2    1    3    3    0  502  0.50483681784E+03 -0.42203971968E+03  0.41367821774E+02  0.65930951330E+03  0.25500000920E-02 0. -1.
</event>
<event>
 5   0  0.9610114E-04  0.1725136E+04  0.7818609E-02  0.8747157E-01
       -2   -1    0    0    0  501  0.00000000000E+00  0.00000000000E+00  0.11985858829E+04  0.11985858829E+04  0.25500000920E-02 0.  1.
        2   -1    0    0  501    0  0.00000000000E+00  0.00000000000E+00 -0.62075115544E+03  0.62075115545E+03  0.25500000920E-02 0. -1.
    10030    2    1    2    0    0  0.00000000000E+00  0.00000000000E+00  0.57783472748E+03  0.18193370384E+04  0.17251360198E+04 0.  0.
        2    1    3    3  502    0  0.32189012127E+03 -0.74338450831E+03 -0.23555159109E+02  0.81042496438E+03  0.25500000920E-02 0.  1.
       -2    1    3    3    0  502 -0.32189012127E+03  0.74338450831E+03  0.60138988659E+03  0.10089120740E+04  0.25500000920E-02 0. -1.
</event>
<event>
 5   0  0.9312096E-04  0.1738710E+04  0.7818609E-02  0.8739589E-01
        2   -1    0    0  501    0  0.00000000000E+00  0.00000000000E+00  0.83175307217E+03  0.83175307217E+03  0.25500000920E-02 0.  1.
       -2   -1    0    0    0  501  0.00000000000E+00  0.00000000000E+00 -0.90865702719E+03  0.90865702719E+03  0.25500000920E-02 0. -1.
    10030    2    1    2    0    0  0.00000000000E+00  0.00000000000E+00 -0.76903955021E+02  0.17404100994E+04  0.17387101816E+04 0.  0.
        3    1    3    3  502    0 -0.39936140078E+03 -0.64827490817E+03  0.38151557956E+03  0.85164783370E+03  0.10100000352E+00 0.  1.
       -3    1    3    3    0  502  0.39936140078E+03  0.64827490817E+03 -0.45841953458E+03  0.88876226567E+03  0.10100000352E+00 0. -1.
</event>
<event>
 5   0  0.4947006E-04  0.1129716E+04  0.7818609E-02  0.9176703E-01
        1   -1    0    0  501    0  0.00000000000E+00  0.00000000000E+00  0.72896783778E+03  0.72896783780E+03  0.50400001928E-02 0.  1.
       -1   -1    0    0    0  501  0.00000000000E+00  0.00000000000E+00 -0.43769356255E+03  0.43769356258E+03  0.50400001928E-02 0. -1.
    10030    2    1    2    0    0  0.00000000000E+00  0.00000000000E+00  0.29127427523E+03  0.11666614004E+04  0.11297159465E+04 0.  0.
        2    1    3    3  502    0 -0.50110859348E+03  0.22864211681E+03  0.16332579414E+02  0.55104790463E+03  0.25500000920E-02 0. -1.
       -2    1    3    3    0  502  0.50110859348E+03 -0.22864211681E+03  0.27494169582E+03  0.61561349575E+03  0.25500000920E-02 0.  1.
</event>
<event>
 5   0  0.9625225E-04  0.1672725E+04  0.7818609E-02  0.8777075E-01
        2   -1    0    0  501    0  0.00000000000E+00  0.00000000000E+00  0.25021924554E+04  0.25021924554E+04  0.25500000920E-02 0. -1.
       -2   -1    0    0    0  501  0.00000000000E+00  0.00000000000E+00 -0.27955580003E+03  0.27955580004E+03  0.25500000920E-02 0.  1.
    10030    2    1    2    0    0  0.00000000000E+00  0.00000000000E+00  0.22226366553E+04  0.27817482554E+04  0.16727252180E+04 0.  0.
        1    1    3    3  502    0  0.19400663741E+03 -0.12836454934E+03  0.24473080533E+04  0.24583394275E+04  0.50400001928E-02 0. -1.
       -1    1    3    3    0  502 -0.19400663741E+03  0.12836454934E+03 -0.22467139798E+03  0.32340882792E+03  0.50400001928E-02 0.  1.
</event>
<event>
 5   0  0.5009762E-04  0.1746227E+04  0.7818609E-02  0.8735430E-01
        1   -1    0    0  501    0  0.00000000000E+00  0.00000000000E+00  0.78402801930E+03  0.78402801931E+03  0.50400001928E-02 0.  1.
       -1   -1    0    0    0  501  0.00000000000E+00  0.00000000000E+00 -0.97232086048E+03  0.97232086050E+03  0.50400001928E-02 0. -1.
    10030    2    1    2    0    0  0.00000000000E+00  0.00000000000E+00 -0.18829284118E+03  0.17563488798E+04  0.17462265585E+04 0.  0.
        3    1    3    3  502    0  0.32506863914E+02 -0.77344603571E+02 -0.96825717548E+03  0.97188520514E+03  0.10100000352E+00 0. -1.
       -3    1    3    3    0  502 -0.32506863914E+02  0.77344603571E+02  0.77996433429E+03  0.78446367467E+03  0.10100000352E+00 0.  1.
</event>
<event>
 5   0  0.5009762E-04  0.9120687E+03  0.7818609E-02  0.9410619E-01
        1   -1    0    0  501    0  0.00000000000E+00  0.00000000000E+00  0.45125485309E+03  0.45125485312E+03  0.50400001928E-02 0. -1.
       -1   -1    0    0    0  501  0.00000000000E+00  0.00000000000E+00 -0.46086443933E+03  0.46086443936E+03  0.50400001928E-02 0.  1.
    10030    2    1    2    0    0  0.00000000000E+00  0.00000000000E+00 -0.96095862350E+01  0.91211929248E+03  0.91206867042E+03 0.  0.
        3    1    3    3  502    0 -0.36951490930E+03  0.22434184019E+03 -0.15006014464E+03  0.45758997658E+03  0.10100000352E+00 0. -1.
       -3    1    3    3    0  502  0.36951490930E+03 -0.22434184019E+03  0.14045055840E+03  0.45452931590E+03  0.10100000352E+00 0.  1.
</event>
<event>
 5   0  0.5035495E-04  0.1781133E+04  0.7818609E-02  0.8716398E-01
       -1   -1    0    0    0  501  0.00000000000E+00  0.00000000000E+00  0.73742410294E+03  0.73742410295E+03  0.50400001928E-02 0.  1.
        1   -1    0    0  501    0  0.00000000000E+00  0.00000000000E+00 -0.10755118959E+04  0.10755118959E+04  0.50400001928E-02 0. -1.
    10030    2    1    2    0    0  0.00000000000E+00  0.00000000000E+00 -0.33808779293E+03  0.18129359988E+04  0.17811326678E+04 0.  0.
        4    1    3    3  502    0 -0.56798297784E+03 -0.53247857617E+02  0.52702858792E+03  0.77665999179E+03  0.12699999809E+01 0.  1.
       -4    1    3    3    0  502  0.56798297784E+03  0.53247857617E+02 -0.86511638085E+03  0.10362760070E+04  0.12699999809E+01 0. -1.
</event>
<event>
 5   0  0.9284971E-04  0.1671143E+04  0.7818609E-02  0.8777996E-01
       -2   -1    0    0    0  501  0.00000000000E+00  0.00000000000E+00  0.44375798649E+03  0.44375798650E+03  0.25500000920E-02 0. -1.
        2   -1    0    0  501    0  0.00000000000E+00  0.00000000000E+00 -0.15733339774E+04  0.15733339774E+04  0.25500000920E-02 0.  1.
    10030    2    1    2    0    0  0.00000000000E+00  0.00000000000E+00 -0.11295759909E+04  0.20170919639E+04  0.16711427442E+04 0.  0.
        4    1    3    3  502    0  0.19396886239E+03 -0.68478322471E+03 -0.10931593672E+04  0.13044351266E+04  0.12699999809E+01 0.  1.
       -4    1    3    3    0  502 -0.19396886239E+03  0.68478322471E+03 -0.36416623717E+02  0.71265683734E+03  0.12699999809E+01 0. -1.
</event>
<event>
 5   0  0.5009762E-04  0.1639457E+04  0.7818609E-02  0.8796668E-01
       -1   -1    0    0    0  501  0.00000000000E+00  0.00000000000E+00  0.78490592645E+03  0.78490592647E+03  0.50400001928E-02 0.  1.
        1   -1    0    0  501    0  0.00000000000E+00  0.00000000000E+00 -0.85609609876E+03  0.85609609878E+03  0.50400001928E-02 0. -1.
    10030    2    1    2    0    0  0.00000000000E+00  0.00000000000E+00 -0.71190172311E+02  0.16410020252E+04  0.16394571072E+04 0.  0.
        3    1    3    3  502    0  0.26909425762E+03 -0.87081144997E+02 -0.80570950704E+03  0.85391022083E+03  0.10100000352E+00 0. -1.
       -3    1    3    3    0  502 -0.26909425762E+03  0.87081144997E+02  0.73451933473E+03  0.78709180442E+03  0.10100000352E+00 0.  1.
</event>
<event>
 5   0  0.1007187E-03  0.1884067E+04  0.7818609E-02  0.8662828E-01
        2   -1    0    0  501    0  0.00000000000E+00  0.00000000000E+00  0.18283196151E+04  0.18283196151E+04  0.25500000920E-02 0. -1.
       -2   -1    0    0    0  501  0.00000000000E+00  0.00000000000E+00 -0.48537877585E+03  0.48537877586E+03  0.25500000920E-02 0.  1.
    10030    2    1    2    0    0  0.00000000000E+00  0.00000000000E+00  0.13429408392E+04  0.23136983909E+04  0.18840674475E+04 0.  0.
        5    1    3    3  502    0 -0.23480210212E+03  0.12314884870E+03  0.17815394117E+04  0.18011669638E+04  0.46999998093E+01 0. -1.
       -5    1    3    3    0  502  0.23480210212E+03 -0.12314884870E+03 -0.43859857244E+03  0.51253142717E+03  0.46999998093E+01 0.  1.
</event>
<event>
 5   0  0.5009762E-04  0.1008647E+04  0.7818609E-02  0.9299111E-01
       -1   -1    0    0    0  501  0.00000000000E+00  0.00000000000E+00  0.63964164555E+03  0.63964164557E+03  0.50400001928E-02 0. -1.
        1   -1    0    0  501    0  0.00000000000E+00  0.00000000000E+00 -0.39763248028E+03  0.39763248032E+03  0.50400001928E-02 0.  1.
    10030    2    1    2    0    0  0.00000000000E+00  0.00000000000E+00  0.24200916527E+03  0.10372741259E+04  0.10086472010E+04 0.  0.
        3    1    3    3  502    0  0.24929813929E+03  0.29954313463E+02  0.57079126199E+03  0.62357798078E+03  0.10100000352E+00 0. -1.
       -3    1    3    3    0  502 -0.24929813929E+03 -0.29954313463E+02 -0.32878209672E+03  0.41369614511E+03  0.10100000352E+00 0.  1.
</event>
<event>
 5   0  0.9625225E-04  0.1750378E+04  0.7818609E-02  0.8733142E-01
       -2   -1    0    0    0  501  0.00000000000E+00  0.00000000000E+00  0.38142098699E+03  0.38142098700E+03  0.25500000920E-02 0. -1.
        2   -1    0    0  501    0  0.00000000000E+00  0.00000000000E+00 -0.20081637207E+04  0.20081637207E+04  0.25500000920E-02 0.  1.
    10030    2    1    2    0    0  0.00000000000E+00  0.00000000000E+00 -0.16267427337E+04  0.23895847077E+04  0.17503780031E+04 0.  0.
        1    1    3    3  502    0 -0.61968675801E+03  0.16144450019E+03 -0.16277797629E+04  0.17492120973E+04  0.50400001928E-02 0.  1.
       -1    1    3    3    0  502  0.61968675801E+03 -0.16144450019E+03  0.10370292226E+01  0.64037261040E+03  0.50400001928E-02 0. -1.
</event>
<event>
 5   0  0.5009762E-04  0.1701082E+04  0.7818609E-02  0.8760748E-01
       -1   -1    0    0    0  501  0.00000000000E+00  0.00000000000E+00  0.41202998957E+03  0.41202998960E+03  0.50400001928E-02 0. -1.
        1   -1    0    0  501    0  0.00000000000E+00  0.00000000000E+00 -0.17557454294E+04  0.17557454294E+04  0.50400001928E-02 0.  1.
    10030    2    1    2    0    0  0.00000000000E+00  0.00000000000E+00 -0.13437154398E+04  0.21677754190E+04  0.17010817393E+04 0.  0.
        3    1    3    3  502    0  0.34399410913E+03  0.41855402676E+03 -0.15074087891E+04  0.16018116893E+04  0.10100000352E+00 0.  1.
       -3    1    3    3    0  502 -0.34399410913E+03 -0.41855402676E+03  0.16369334931E+03  0.56596372962E+03  0.10100000352E+00 0. -1.
</event>
<event>
 5   0  0.1007187E-03  0.1696325E+04  0.7818609E-02  0.8763463E-01
       -2   -1    0    0    0  501  0.00000000000E+00  0.00000000000E+00  0.58150375760E+03  0.58150375761E+03  0.25500000920E-02 0.  1.
        2   -1    0    0  501    0  0.00000000000E+00  0.00000000000E+00 -0.12371023439E+04  0.12371023439E+04  0.25500000920E-02 0. -1.
    10030    2    1    2    0    0  0.00000000000E+00  0.00000000000E+00 -0.65559858626E+03  0.18186061015E+04  0.16963250414E+04 0.  0.
        5    1    3    3  502    0 -0.49494985564E+03  0.54265650087E+03 -0.78252819282E+03  0.10732305904E+04  0.46999998093E+01 0. -1.
       -5    1    3    3    0  502  0.49494985564E+03 -0.54265650087E+03  0.12692960656E+03  0.74537551110E+03  0.46999998093E+01 0.  1.
</event>
<event>
 5   0  0.9312096E-04  0.1592521E+04  0.7818609E-02  0.8825156E-01
       -2   -1    0    0    0  501  0.00000000000E+00  0.00000000000E+00  0.28759938413E+03  0.28759938414E+03  0.25500000920E-02 0.  1.
        2   -1    0    0  501    0  0.00000000000E+00  0.00000000000E+00 -0.22045634750E+04  0.22045634750E+04  0.25500000920E-02 0. -1.
    10030    2    1    2    0    0  0.00000000000E+00  0.00000000000E+00 -0.19169640909E+04  0.24921628592E+04  0.15925213941E+04 0.  0.
        3    1    3    3  502    0 -0.38234249577E+03 -0.65849703383E+03 -0.59406492458E+03  0.96577288865E+03  0.10100000352E+00 0. -1.
       -3    1    3    3    0  502  0.38234249577E+03  0.65849703383E+03 -0.13228991663E+04  0.15263899705E+04  0.10100000352E+00 0.  1.
</event>
<event>
 5   0  0.9312096E-04  0.1679829E+04  0.7818609E-02  0.8772953E-01
       -2   -1    0    0    0  501  0.00000000000E+00  0.00000000000E+00  0.42565710002E+03  0.42565710003E+03  0.25500000920E-02 0. -1.
        2   -1    0    0  501    0  0.00000000000E+00  0.00000000000E+00 -0.16573346741E+04  0.16573346741E+04  0.25500000920E-02 0.  1.
    10030    2    1    2    0    0  0.00000000000E+00  0.00000000000E+00 -0.12316775740E+04  0.20829917741E+04  0.16798288855E+04 0.  0.
        3    1    3    3  502    0  0.73599670884E+03  0.22824398001E+03 -0.20146682488E+03  0.79647684308E+03  0.10100000352E+00 0. -1.
       -3    1    3    3    0  502 -0.73599670884E+03 -0.22824398001E+03 -0.10302107492E+04  0.12865149310E+04  0.10100000352E+00 0.  1.
</event>
<event>
 5   0  0.5074133E-04  0.1482500E+04  0.7818609E-02  0.8896174E-01
        1   -1    0    0  501    0  0.00000000000E+00  0.00000000000E+00  0.14016457604E+04  0.14016457604E+04  0.50400001928E-02 0.  1.
       -1   -1    0    0    0  501  0.00000000000E+00  0.00000000000E+00 -0.39200450861E+03  0.39200450864E+03  0.50400001928E-02 0. -1.
    10030    2    1    2    0    0  0.00000000000E+00  0.00000000000E+00  0.10096412518E+04  0.17936502691E+04  0.14824998585E+04 0.  0.
        1    1    3    3  502    0 -0.17388505615E+03 -0.56711310353E+03  0.10426376786E+04  0.11995610088E+04  0.50400001928E-02 0.  1.
       -1    1    3    3    0  502  0.17388505615E+03  0.56711310353E+03 -0.32996426813E+02  0.59408926026E+03  0.50400001928E-02 0. -1.
</event>
<event>
 5   0  0.5035495E-04  0.1671165E+04  0.7818609E-02  0.8777983E-01
       -1   -1    0    0    0  501  0.00000000000E+00  0.00000000000E+00  0.10395207841E+04  0.10395207841E+04  0.50400001928E-02 0. -1.
        1   -1    0    0  501    0  0.00000000000E+00  0.00000000000E+00 -0.67165383147E+03  0.67165383149E+03  0.50400001928E-02 0.  1.
    10030    2    1    2    0    0  0.00000000000E+00  0.00000000000E+00  0.36786695261E+03  0.17111746156E+04  0.16711650039E+04 0.  0.
        4    1    3    3  502    0  0.43186198871E+03 -0.91174738702E+02 -0.54254457528E+03  0.69940963630E+03  0.12699999809E+01 0.  1.
       -4    1    3    3    0  502 -0.43186198871E+03  0.91174738702E+02  0.91041152789E+03  0.10117649793E+04  0.12699999809E+01 0. -1.
</event>
<event>
 5   0  0.5074133E-04  0.1714651E+04  0.7818609E-02  0.8753052E-01
        1   -1    0    0  501    0  0.00000000000E+00  0.00000000000E+00  0.10504168228E+04  0.10504168228E+04  0.50400001928E-02 0.  1.
       -1   -1    0    0    0  501  0.00000000000E+00  0.00000000000E+00 -0.69972914869E+03  0.69972914871E+03  0.50400001928E-02 0. -1.
    10030    2    1    2    0    0  0.00000000000E+00  0.00000000000E+00  0.35068767412E+03  0.17501459715E+04  0.17146512989E+04 0.  0.
        1    1    3    3  502    0  0.18790788935E+03  0.34884705854E+03  0.95134744523E+03  0.10305656732E+04  0.50400001928E-02 0.  1.
       -1    1    3    3    0  502 -0.18790788935E+03 -0.34884705854E+03 -0.60065977111E+03  0.71958029836E+03  0.50400001928E-02 0. -1.
</event>
<event>
 5   0  0.3523125E-04  0.1718637E+04  0.7818609E-02  0.8750806E-01
       -3   -1    0    0    0  501  0.00000000000E+00  0.00000000000E+00  0.87960473476E+03  0.87960474056E+03  0.10100000352E+00 0. -1.
        3   -1    0    0  501    0  0.00000000000E+00  0.00000000000E+00 -0.83950001475E+03  0.83950002082E+03  0.10100000352E+00 0.  1.
    10030    2    1    2    0    0  0.00000000000E+00  0.00000000000E+00  0.40104720012E+02  0.17191047614E+04  0.17186368994E+04 0.  0.
        4    1    3    3  502    0  0.43088580692E+02  0.83631388902E+03  0.21284568759E+03  0.86405002539E+03  0.12699999809E+01 0. -1.
       -4    1    3    3    0  502 -0.43088580692E+02 -0.83631388902E+03 -0.17274096758E+03  0.85505473599E+03  0.12699999809E+01 0.  1.
</event>
<event>
 5   0  0.5009762E-04  0.1708136E+04  0.7818609E-02  0.8756737E-01
       -1   -1    0    0    0  501  0.00000000000E+00  0.00000000000E+00  0.80583864968E+03  0.80583864970E+03  0.50400001928E-02 0.  1.
        1   -1    0    0  501    0  0.00000000000E+00  0.00000000000E+00 -0.90518435440E+03  0.90518435442E+03  0.50400001928E-02 0. -1.
    10030    2    1    2    0    0  0.00000000000E+00  0.00000000000E+00 -0.99345704724E+02  0.17110230041E+04  0.17081364558E+04 0.  0.
        3    1    3    3  502    0 -0.63602420803E+03 -0.25562075105E+01  0.52128967746E+03  0.82236017986E+03  0.10100000352E+00 0.  1.
       -3    1    3    3    0  502  0.63602420803E+03  0.25562075105E+01 -0.62063538218E+03  0.88866282425E+03  0.10100000352E+00 0. -1.
</event>
<event>
 5   0  0.5035495E-04  0.1705823E+04  0.7818609E-02  0.8758050E-01
        1   -1    0    0  501    0  0.00000000000E+00  0.00000000000E+00  0.10719807956E+04  0.10719807956E+04  0.50400001928E-02 0. -1.
       -1   -1    0    0    0  501  0.00000000000E+00  0.00000000000E+00 -0.67861091835E+03  0.67861091837E+03  0.50400001928E-02 0.  1.
    10030    2    1    2    0    0  0.00000000000E+00  0.00000000000E+00  0.39336987723E+03  0.17505917140E+04  0.17058228187E+04 0.  0.
        4    1    3    3  502    0  0.59378907768E+03 -0.25132041929E+03  0.76964652549E+03  0.10040442266E+04  0.12699999809E+01 0. -1.
       -4    1    3    3    0  502 -0.59378907768E+03  0.25132041929E+03 -0.37627664826E+03  0.74654748734E+03  0.12699999809E+01 0.  1.
</event>
<event>
 5   0  0.4947006E-04  0.1695901E+04  0.7818609E-02  0.8763706E-01
        1   -1    0    0  501    0  0.00000000000E+00  0.00000000000E+00  0.11328314956E+04  0.11328314956E+04  0.50400001928E-02 0. -1.
       -1   -1    0    0    0  501  0.00000000000E+00  0.00000000000E+00 -0.63471013830E+03  0.63471013832E+03  0.50400001928E-02 0.  1.
    10030    2    1    2    0    0  0.00000000000E+00  0.00000000000E+00  0.49812135731E+03  0.17675416339E+04  0.16959005104E+04 0.  0.
        2    1    3    3  502    0 -0.80231429922E+03  0.20978983304E+03  0.43345131324E+03  0.93573503180E+03  0.25500000920E-02 0. -1.
       -2    1    3    3    0  502  0.80231429922E+03 -0.20978983304E+03  0.64670044070E+02  0.83180660215E+03  0.25500000920E-02 0.  1.
</event>
<event>
 5   0  0.9610114E-04  0.1703140E+04  0.7818609E-02  0.8759575E-01
       -2   -1    0    0    0  501  0.00000000000E+00  0.00000000000E+00  0.41610320261E+03  0.41610320261E+03  0.25500000920E-02 0. -1.
        2   -1    0    0  501    0  0.00000000000E+00  0.00000000000E+00 -0.17427693021E+04  0.17427693021E+04  0.25500000920E-02 0.  1.
    10030    2    1    2    0    0  0.00000000000E+00  0.00000000000E+00 -0.13266660995E+04  0.21588725047E+04  0.17031404969E+04 0.  0.
        2    1    3    3  502    0  0.59354276828E+03 -0.54402864058E+03 -0.10148714312E+04  0.12954629294E+04  0.25500000920E-02 0.  1.
       -2    1    3    3    0  502 -0.59354276828E+03  0.54402864058E+03 -0.31179466828E+03  0.86340957531E+03  0.25500000920E-02 0. -1.
</event>
<event>
 5   0  0.5059689E-04  0.1806271E+04  0.7818609E-02  0.8702972E-01
        1   -1    0    0  501    0  0.00000000000E+00  0.00000000000E+00  0.11489000341E+04  0.11489000341E+04  0.50400001928E-02 0.  1.
       -1   -1    0    0    0  501  0.00000000000E+00  0.00000000000E+00 -0.70994328237E+03  0.70994328239E+03  0.50400001928E-02 0. -1.
    10030    2    1    2    0    0  0.00000000000E+00  0.00000000000E+00  0.43895675170E+03  0.18588433165E+04  0.18062711439E+04 0.  0.
        5    1    3    3  502    0  0.13595689132E+03  0.14049836882E+03  0.11268480499E+04  0.11436925659E+04  0.46999998093E+01 0.  1.
       -5    1    3    3    0  502 -0.13595689132E+03 -0.14049836882E+03 -0.68789129815E+03  0.71515075054E+03  0.46999998093E+01 0. -1.
</event>
<event>
 5   0  0.5009762E-04  0.1689872E+04  0.7818609E-02  0.8767162E-01
        1   -1    0    0  501    0  0.00000000000E+00  0.00000000000E+00  0.13184523291E+04  0.13184523291E+04  0.50400001928E-02 0. -1.
       -1   -1    0    0    0  501  0.00000000000E+00  0.00000000000E+00 -0.54148068205E+03  0.54148068207E+03  0.50400001928E-02 0.  1.
    10030    2    1    2    0    0  0.00000000000E+00  0.00000000000E+00  0.77697164706E+03  0.18599330112E+04  0.16898715530E+04 0.  0.
        3    1    3    3  502    0 -0.63761013598E+03 -0.22757191363E+03  0.94491220876E+03  0.11624090303E+04  0.10100000352E+00 0. -1.
       -3    1    3    3    0  502  0.63761013598E+03  0.22757191363E+03 -0.16794056170E+03  0.69752398084E+03  0.10100000352E+00 0.  1.
</event>
<event>
 5   0  0.9610114E-04  0.1704014E+04  0.7818609E-02  0.8759079E-01
       -2   -1    0    0    0  501  0.00000000000E+00  0.00000000000E+00  0.67851522995E+03  0.67851522996E+03  0.25500000920E-02 0.  1.
        2   -1    0    0  501    0  0.00000000000E+00  0.00000000000E+00 -0.10698590123E+04  0.10698590123E+04  0.25500000920E-02 0. -1.
    10030    2    1    2    0    0  0.00000000000E+00  0.00000000000E+00 -0.39134378234E+03  0.17483742423E+04  0.17040136546E+04 0.  0.
        2    1    3    3  502    0  0.12912810882E+03  0.44102966016E+03  0.54045541441E+03  0.70941756717E+03  0.25500000920E-02 0.  1.
       -2    1    3    3    0  502 -0.12912810882E+03 -0.44102966016E+03 -0.93179919675E+03  0.10389566751E+04  0.25500000920E-02 0. -1.
</event>
<event>
 5   0  0.4947006E-04  0.1663839E+04  0.7818609E-02  0.8782261E-01
       -1   -1    0    0    0  501  0.00000000000E+00  0.00000000000E+00  0.16758534182E+04  0.16758534182E+04  0.50400001928E-02 0.  1.
        1   -1    0    0  501    0  0.00000000000E+00  0.00000000000E+00 -0.41297767098E+03  0.41297767101E+03  0.50400001928E-02 0. -1.
    10030    2    1    2    0    0  0.00000000000E+00  0.00000000000E+00  0.12628757473E+04  0.20888310893E+04  0.16638389845E+04 0.  0.
        2    1    3    3  502    0 -0.42265985542E+01 -0.25023255233E+03  0.16274730193E+04  0.16466033593E+04  0.25500000920E-02 0.  1.
       -2    1    3    3    0  502  0.42265985542E+01  0.25023255233E+03 -0.36459727201E+03  0.44222772996E+03  0.25500000920E-02 0. -1.
</event>
<event>
 5   0  0.5059689E-04  0.1673880E+04  0.7818609E-02  0.8776403E-01
       -1   -1    0    0    0  501  0.00000000000E+00  0.00000000000E+00  0.12559238863E+04  0.12559238863E+04  0.50400001928E-02 0. -1.
        1   -1    0    0  501    0  0.00000000000E+00  0.00000000000E+00 -0.55773180737E+03  0.55773180739E+03  0.50400001928E-02 0.  1.
    10030    2    1    2    0    0  0.00000000000E+00  0.00000000000E+00  0.69819207892E+03  0.18136556937E+04  0.16738801618E+04 0.  0.
        5    1    3    3  502    0  0.22300993722E+03 -0.59192997567E+03  0.94288394003E+03  0.11354147888E+04  0.46999998093E+01 0. -1.
       -5    1    3    3    0  502 -0.22300993722E+03  0.59192997567E+03 -0.24469186112E+03  0.67824090491E+03  0.46999998093E+01 0.  1.
</event>
<event>
 5   0  0.9625225E-04  0.1696012E+04  0.7818609E-02  0.8763642E-01
        2   -1    0    0  501    0  0.00000000000E+00  0.00000000000E+00  0.79836978562E+03  0.79836978562E+03  0.25500000920E-02 0.  1.
       -2   -1    0    0    0  501  0.00000000000E+00  0.00000000000E+00 -0.90072809962E+03  0.90072809962E+03  0.25500000920E-02 0. -1.
    10030    2    1    2    0    0  0.00000000000E+00  0.00000000000E+00 -0.10235831400E+03  0.16990978852E+04  0.16960119101E+04 0.  0.
        1    1    3    3  502    0 -0.27830883698E+03  0.77589735984E+03  0.14828504727E+03  0.83753267220E+03  0.50400001928E-02 0.  1.
       -1    1    3    3    0  502  0.27830883698E+03 -0.77589735984E+03 -0.25064336127E+03  0.86156521304E+03  0.50400001928E-02 0. -1.
</event>
<event>
 5   0  0.9610114E-04  0.1524478E+04  0.7818609E-02  0.8868336E-01
       -2   -1    0    0    0  501  0.00000000000E+00  0.00000000000E+00  0.50681690366E+03  0.50681690366E+03  0.25500000920E-02 0.  1.
        2   -1    0    0  501    0  0.00000000000E+00  0.00000000000E+00 -0.11463875634E+04  0.11463875634E+04  0.25500000920E-02 0. -1.
    10030    2    1    2    0    0  0.00000000000E+00  0.00000000000E+00 -0.63957065975E+03  0.16532044671E+04  0.15244783964E+04 0.  0.
        2    1    3    3  502    0  0.53157155957E+03  0.50373441056E+03 -0.54904083989E+03  0.91529368140E+03  0.25500000920E-02 0. -1.
       -2    1    3    3    0  502 -0.53157155957E+03 -0.50373441056E+03 -0.90529819856E+02  0.73791078567E+03  0.25500000920E-02 0.  1.
</event>
<event>
 5   0  0.9284971E-04  0.1631878E+04  0.7818609E-02  0.8801200E-01
        2   -1    0    0  501    0  0.00000000000E+00  0.00000000000E+00  0.48238043660E+03  0.48238043660E+03  0.25500000920E-02 0.  1.
       -2   -1    0    0    0  501  0.00000000000E+00  0.00000000000E+00 -0.13801485625E+04  0.13801485625E+04  0.25500000920E-02 0. -1.
    10030    2    1    2    0    0  0.00000000000E+00  0.00000000000E+00 -0.89776812590E+03  0.18625289991E+04  0.16318782628E+04 0.  0.
        4    1    3    3  502    0  0.29431384018E+03  0.74298598766E+03 -0.26097405261E+03  0.84068893380E+03  0.12699999809E+01 0. -1.
       -4    1    3    3    0  502 -0.29431384018E+03 -0.74298598766E+03 -0.63679407329E+03  0.10218400653E+04  0.12699999809E+01 0.  1.
</event>
<event>
 5   0  0.1007187E-03  0.1717323E+04  0.7818609E-02  0.8751545E-01
        2   -1    0    0  501    0  0.00000000000E+00  0.00000000000E+00  0.23279412800E+04  0.23279412800E+04  0.25500000920E-02 0.  1.
       -2   -1    0    0    0  501  0.00000000000E+00  0.00000000000E+00 -0.31671753145E+03  0.31671753146E+03  0.25500000920E-02 0. -1.
    10030    2    1    2    0    0  0.00000000000E+00  0.00000000000E+00  0.20112237485E+04  0.26446588114E+04  0.17173232841E+04 0.  0.
        5    1    3    3  502    0  0.84794268592E+03  0.69578604102E+02  0.82714752473E+03  0.11866099184E+04  0.46999998093E+01 0.  1.
       -5    1    3    3    0  502 -0.84794268592E+03 -0.69578604102E+02  0.11840762238E+04  0.14580488930E+04  0.46999998093E+01 0. -1.
</event>
<event>
 5   0  0.9284971E-04  0.1711058E+04  0.7818609E-02  0.8755083E-01
       -2   -1    0    0    0  501  0.00000000000E+00  0.00000000000E+00  0.63572689104E+03  0.63572689104E+03  0.25500000920E-02 0.  1.
        2   -1    0    0  501    0  0.00000000000E+00  0.00000000000E+00 -0.11513268931E+04  0.11513268931E+04  0.25500000920E-02 0. -1.
    10030    2    1    2    0    0  0.00000000000E+00  0.00000000000E+00 -0.51560000211E+03  0.17870537842E+04  0.17110575284E+04 0.  0.
        4    1    3    3  502    0  0.32275913790E+03 -0.74108899652E+03  0.34899905949E+02  0.80907723870E+03  0.12699999809E+01 0.  1.
       -4    1    3    3    0  502 -0.32275913790E+03  0.74108899652E+03 -0.55049990806E+03  0.97797654549E+03  0.12699999809E+01 0. -1.
</event>
<event>
 5   0  0.9625225E-04  0.1710159E+04  0.7818609E-02  0.8755591E-01
       -2   -1    0    0    0  501  0.00000000000E+00  0.00000000000E+00  0.40842120656E+03  0.40842120656E+03  0.25500000920E-02 0. -1.
        2   -1    0    0  501    0  0.00000000000E+00  0.00000000000E+00 -0.17902139372E+04  0.17902139372E+04  0.25500000920E-02 0.  1.
    10030    2    1    2    0    0  0.00000000000E+00  0.00000000000E+00 -0.13817927306E+04  0.21986351438E+04  0.17101594502E+04 0.  0.
        1    1    3    3  502    0  0.24628516686E+03 -0.40806831973E+03 -0.16035909049E+04  0.16729255594E+04  0.50400001928E-02 0.  1.
       -1    1    3    3    0  502 -0.24628516686E+03  0.40806831973E+03  0.22179817425E+03  0.52570958438E+03  0.50400001928E-02 0. -1.
</event>
<event>
 5   0  0.4947006E-04  0.1708790E+04  0.7818609E-02  0.8756367E-01
        1   -1    0    0  501    0  0.00000000000E+00  0.00000000000E+00  0.11333720993E+04  0.11333720993E+04  0.50400001928E-02 0.  1.
       -1   -1    0    0    0  501  0.00000000000E+00  0.00000000000E+00 -0.64408759223E+03  0.64408759225E+03  0.50400001928E-02 0. -1.
    10030    2    1    2    0    0  0.00000000000E+00  0.00000000000E+00  0.48928450704E+03  0.17774596915E+04  0.17087901060E+04 0.  0.
        2    1    3    3  502    0  0.58413226695E+03 -0.59801489327E+03  0.61030732136E+02  0.83818677402E+03  0.25500000920E-02 0. -1.
       -2    1    3    3    0  502 -0.58413226695E+03  0.59801489327E+03  0.42825377490E+03  0.93927291752E+03  0.25500000920E-02 0.  1.
</event>
<event>
 5   0  0.9610114E-04  0.1604563E+04  0.7818609E-02  0.8817750E-01
       -2   -1    0    0    0  501  0.00000000000E+00  0.00000000000E+00  0.42268503746E+03  0.42268503746E+03  0.25500000920E-02 0.  1.
        2   -1    0    0  501    0  0.00000000000E+00  0.00000000000E+00 -0.15227783507E+04  0.15227783507E+04  0.25500000920E-02 0. -1.
    10030    2    1    2    0    0  0.00000000000E+00  0.00000000000E+00 -0.11000933132E+04  0.19454633881E+04  0.16045630236E+04 0.  0.
        2    1    3    3  502    0  0.15395539685E+03  0.36557723190E+03  0.29546847714E+03  0.49462167127E+03  0.25500000920E-02 0.  1.
       -2    1    3    3    0  502 -0.15395539685E+03 -0.36557723190E+03 -0.13955617904E+04  0.14508417169E+04  0.25500000920E-02 0. -1.
</event>
<event>
 5   0  0.9312096E-04  0.1638750E+04  0.7818609E-02  0.8797090E-01
        2   -1    0    0  501    0  0.00000000000E+00  0.00000000000E+00  0.15831088670E+04  0.15831088670E+04  0.25500000920E-02 0.  1.
       -2   -1    0    0    0  501  0.00000000000E+00  0.00000000000E+00 -0.42408655626E+03  0.42408655627E+03  0.25500000920E-02 0. -1.
    10030    2    1    2    0    0  0.00000000000E+00  0.00000000000E+00  0.11590223107E+04  0.20071954232E+04  0.16387497522E+04 0.  0.
        3    1    3    3  502    0  0.43136355451E+03  0.44859662874E+03  0.12323160165E+04  0.13805492480E+04  0.10100000352E+00 0.  1.
       -3    1    3    3    0  502 -0.43136355451E+03 -0.44859662874E+03 -0.73293705738E+02  0.62664617527E+03  0.10100000352E+00 0. -1.
</event>
<event>
 5   0  0.1007187E-03  0.1683842E+04  0.7818609E-02  0.8770634E-01
        2   -1    0    0  501    0  0.00000000000E+00  0.00000000000E+00  0.82821379490E+03  0.82821379490E+03  0.25500000920E-02 0. -1.
       -2   -1    0    0    0  501  0.00000000000E+00  0.00000000000E+00 -0.85585476684E+03  0.85585476684E+03  0.25500000920E-02 0.  1.
    10030    2    1    2    0    0  0.00000000000E+00  0.00000000000E+00 -0.27640971943E+02  0.16840685617E+04  0.16838417079E+04 0.  0.
        5    1    3    3  502    0 -0.64037332311E+03  0.45144625526E+03 -0.32196412062E+03  0.84709190724E+03  0.46999998093E+01 0.  1.
       -5    1    3    3    0  502  0.64037332311E+03 -0.45144625526E+03  0.29432314868E+03  0.83697665451E+03  0.46999998093E+01 0. -1.
</event>
<event>
 5   0  0.9625225E-04  0.1698963E+04  0.7818609E-02  0.8761956E-01
       -2   -1    0    0    0  501  0.00000000000E+00  0.00000000000E+00  0.44483810248E+03  0.44483810248E+03  0.25500000920E-02 0.  1.
        2   -1    0    0  501    0  0.00000000000E+00  0.00000000000E+00 -0.16222045702E+04  0.16222045702E+04  0.25500000920E-02 0. -1.
    10030    2    1    2    0    0  0.00000000000E+00  0.00000000000E+00 -0.11773664678E+04  0.20670426727E+04  0.16989625103E+04 0.  0.
        1    1    3    3  502    0 -0.44561765043E+03  0.51078961325E+03  0.34233566188E+02  0.67871426717E+03  0.50400001928E-02 0. -1.
       -1    1    3    3    0  502  0.44561765043E+03 -0.51078961325E+03 -0.12116000340E+04  0.13883284056E+04  0.50400001928E-02 0.  1.
</event>
<event>
 5   0  0.5074133E-04  0.1364454E+04  0.7818609E-02  0.8979958E-01
       -1   -1    0    0    0  501  0.00000000000E+00  0.00000000000E+00  0.23449591815E+03  0.23449591820E+03  0.50400001928E-02 0. -1.
        1   -1    0    0  501    0  0.00000000000E+00  0.00000000000E+00 -0.19848260193E+04  0.19848260193E+04  0.50400001928E-02 0.  1.
    10030    2    1    2    0    0  0.00000000000E+00  0.00000000000E+00 -0.17503301011E+04  0.22193219375E+04  0.13644538832E+04 0.  0.
        1    1    3    3  502    0 -0.20266223814E+03  0.59942433141E+03 -0.46031412378E+03  0.78247722295E+03  0.50400001928E-02 0. -1.
       -1    1    3    3    0  502  0.20266223814E+03 -0.59942433141E+03 -0.12900159773E+04  0.14368447145E+04  0.50400001928E-02 0.  1.
</event>
<event>
 5   0  0.9610114E-04  0.1684289E+04  0.7818609E-02  0.8770376E-01
        2   -1    0    0  501    0  0.00000000000E+00  0.00000000000E+00  0.99568641044E+03  0.99568641044E+03  0.25500000920E-02 0.  1.
       -2   -1    0    0    0  501  0.00000000000E+00  0.00000000000E+00 -0.71228025327E+03  0.71228025328E+03  0.25500000920E-02 0. -1.
    10030    2    1    2    0    0  0.00000000000E+00  0.00000000000E+00  0.28340615716E+03  0.17079666637E+04  0.16842894865E+04 0.  0.
        2    1    3    3  502    0 -0.42765243188E+03 -0.69804956090E+03  0.34208656084E+03  0.88723334421E+03  0.25500000920E-02 0. -1.
       -2    1    3    3    0  502  0.42765243188E+03  0.69804956090E+03 -0.58680403678E+02  0.82073331951E+03  0.25500000920E-02 0.  1.
</event>
<event>
 5   0  0.5059689E-04  0.1705656E+04  0.7818609E-02  0.8758145E-01
       -1   -1    0    0    0  501  0.00000000000E+00  0.00000000000E+00  0.10100368235E+04  0.10100368235E+04  0.50400001928E-02 0.  1.
        1   -1    0    0  501    0  0.00000000000E+00  0.00000000000E+00 -0.72008807515E+03  0.72008807517E+03  0.50400001928E-02 0. -1.
    10030    2    1    2    0    0  0.00000000000E+00  0.00000000000E+00  0.28994874831E+03  0.17301248986E+04  0.17056558528E+04 0.  0.
        5    1    3    3  502    0 -0.55415370904E+03 -0.50555889664E+03  0.55652542949E+03  0.93403360479E+03  0.46999998093E+01 0.  1.
       -5    1    3    3    0  502  0.55415370904E+03  0.50555889664E+03 -0.26657668118E+03  0.79609129386E+03  0.46999998093E+01 0. -1.
</event>
<event>
 5   0  0.1007187E-03  0.1784050E+04  0.7818609E-02  0.8714828E-01
       -2   -1    0    0    0  501  0.00000000000E+00  0.00000000000E+00  0.81373711596E+03  0.81373711597E+03  0.25500000920E-02 0.  1.
        2   -1    0    0  501    0  0.00000000000E+00  0.00000000000E+00 -0.97784446104E+03  0.97784446104E+03  0.25500000920E-02 0. -1.
    10030    2    1    2    0    0  0.00000000000E+00  0.00000000000E+00 -0.16410734507E+03  0.17915815770E+04  0.17840496984E+04 0.  0.
        5    1    3    3  502    0  0.69450580496E+03 -0.35828705873E+03 -0.51396047639E+03  0.93535308352E+03  0.46999998093E+01 0. -1.
       -5    1    3    3    0  502 -0.69450580496E+03  0.35828705873E+03  0.34985313131E+03  0.85622849349E+03  0.46999998093E+01 0.  1.
</event>
<event>
 5   0  0.5035495E-04  0.1692155E+04  0.7818609E-02  0.8765851E-01
        1   -1    0    0  501    0  0.00000000000E+00  0.00000000000E+00  0.88689944332E+03  0.88689944334E+03  0.50400001928E-02 0. -1.
       -1   -1    0    0    0  501  0.00000000000E+00  0.00000000000E+00 -0.80713482048E+03  0.80713482050E+03  0.50400001928E-02 0.  1.
    10030    2    1    2    0    0  0.00000000000E+00  0.00000000000E+00  0.79764622841E+02  0.16940342638E+04  0.16921553392E+04 0.  0.
        4    1    3    3  502    0 -0.57309544256E+03  0.31482556226E+03 -0.49764244978E+03  0.82170745503E+03  0.12699999809E+01 0.  1.
       -4    1    3    3    0  502  0.57309544256E+03 -0.31482556226E+03  0.57740707262E+03  0.87232680880E+03  0.12699999809E+01 0. -1.
</event>
<event>
 5   0  0.9284971E-04  0.1651689E+04  0.7818609E-02  0.8789408E-01
        2   -1    0    0  501    0  0.00000000000E+00  0.00000000000E+00  0.89132449010E+03  0.89132449011E+03  0.25500000920E-02 0.  1.
       -2   -1    0    0    0  501  0.00000000000E+00  0.00000000000E+00 -0.76517489309E+03  0.76517489309E+03  0.25500000920E-02 0. -1.
    10030    2    1    2    0    0  0.00000000000E+00  0.00000000000E+00  0.12614959702E+03  0.16564993832E+04  0.16516889797E+04 0.  0.
        4    1    3    3  502    0 -0.55011421278E+03 -0.47419950328E+01  0.68079832467E+03  0.87529201150E+03  0.12699999809E+01 0.  1.
       -4    1    3    3    0  502  0.55011421278E+03  0.47419950328E+01 -0.55464872765E+03  0.78120737170E+03  0.12699999809E+01 0. -1.
</event>
<event>
 5   0  0.5074133E-04  0.1862425E+04  0.7818609E-02  0.8673789E-01
       -1   -1    0    0    0  501  0.00000000000E+00  0.00000000000E+00  0.53465080992E+03  0.53465080994E+03  0.50400001928E-02 0.  1.
        1   -1    0    0  501    0  0.00000000000E+00  0.00000000000E+00 -0.16219130339E+04  0.16219130339E+04  0.50400001928E-02 0. -1.
    10030    2    1    2    0    0  0.00000000000E+00  0.00000000000E+00 -0.10872622240E+04  0.21565638438E+04  0.18624254264E+04 0.  0.
        1    1    3    3  502    0  0.47513467228E+03  0.37708718128E+03  0.27450358734E+03  0.66580771892E+03  0.50400001928E-02 0.  1.
       -1    1    3    3    0  502 -0.47513467228E+03 -0.37708718128E+03 -0.13617658113E+04  0.14907561249E+04  0.50400001928E-02 0. -1.
</event>
<event>
 5   0  0.9625225E-04  0.1664630E+04  0.7818609E-02  0.8781798E-01
       -2   -1    0    0    0  501  0.00000000000E+00  0.00000000000E+00  0.38424606437E+03  0.38424606437E+03  0.25500000920E-02 0.  1.
        2   -1    0    0  501    0  0.00000000000E+00  0.00000000000E+00 -0.18028774924E+04  0.18028774924E+04  0.25500000920E-02 0. -1.
    10030    2    1    2    0    0  0.00000000000E+00  0.00000000000E+00 -0.14186314280E+04  0.21871235568E+04  0.16646303866E+04 0.  0.
        1    1    3    3  502    0  0.19953596658E+03 -0.59952366400E+03  0.24933518936E+01  0.63186188561E+03  0.50400001928E-02 0.  1.
       -1    1    3    3    0  502 -0.19953596658E+03  0.59952366400E+03 -0.14211247799E+04  0.15552616712E+04  0.50400001928E-02 0. -1.
</event>
<event>
 5   0  0.5035495E-04  0.1732873E+04  0.7818609E-02  0.8742835E-01
       -1   -1    0    0    0  501  0.00000000000E+00  0.00000000000E+00  0.96000265228E+03  0.96000265230E+03  0.50400001928E-02 0.  1.
        1   -1    0    0  501    0  0.00000000000E+00  0.00000000000E+00 -0.78198977757E+03  0.78198977758E+03  0.50400001928E-02 0. -1.
    10030    2    1    2    0    0  0.00000000000E+00  0.00000000000E+00  0.17801287472E+03  0.17419924299E+04  0.17328730600E+04 0.  0.
        4    1    3    3  502    0 -0.11393312014E+03  0.59061727432E+03  0.71590765620E+03  0.93505877125E+03  0.12699999809E+01 0.  1.
       -4    1    3    3    0  502  0.11393312014E+03 -0.59061727432E+03 -0.53789478148E+03  0.80693365863E+03  0.12699999809E+01 0. -1.
</event>
<event>
 5   0  0.9312096E-04  0.1682029E+04  0.7818609E-02  0.8771681E-01
        2   -1    0    0  501    0  0.00000000000E+00  0.00000000000E+00  0.11433319051E+04  0.11433319051E+04  0.25500000920E-02 0. -1.
       -2   -1    0    0    0  501  0.00000000000E+00  0.00000000000E+00 -0.61863510251E+03  0.61863510251E+03  0.25500000920E-02 0.  1.
    10030    2    1    2    0    0  0.00000000000E+00  0.00000000000E+00  0.52469680260E+03  0.17619670076E+04  0.16820288349E+04 0.  0.
        3    1    3    3  502    0  0.44244515193E+03 -0.63473674640E+02 -0.48391187714E+03  0.65875438130E+03  0.10100000352E+00 0.  1.
       -3    1    3    3    0  502 -0.44244515193E+03  0.63473674640E+02  0.10086086797E+04  0.11032126263E+04  0.10100000352E+00 0. -1.
</event>
<event>
 5   0  0.5009762E-04  0.1655270E+04  0.7818609E-02  0.8787295E-01
       -1   -1    0    0    0  501  0.00000000000E+00  0.00000000000E+00  0.48163414970E+03  0.48163414972E+03  0.50400001928E-02 0. -1.
        1   -1    0    0  501    0  0.00000000000E+00  0.00000000000E+00 -0.14221996182E+04  0.14221996183E+04  0.50400001928E-02 0.  1.
    10030    2    1    2    0    0  0.00000000000E+00  0.00000000000E+00 -0.94056546855E+03  0.19038337680E+04  0.16552702545E+04 0.  0.
        3    1    3    3  502    0 -0.27432836616E+03 -0.47389465318E+03 -0.11840781731E+04  0.13045586706E+04  0.10100000352E+00 0.  1.
       -3    1    3    3    0  502  0.27432836616E+03  0.47389465318E+03  0.24351270460E+03  0.59927509734E+03  0.10100000352E+00 0. -1.
</event>
<event>
 5   0  0.9625225E-04  0.1712962E+04  0.7818609E-02  0.8754006E-01
       -2   -1    0    0    0  501  0.00000000000E+00  0.00000000000E+00  0.13816295641E+04  0.13816295641E+04  0.25500000920E-02 0. -1.
        2   -1    0    0  501    0  0.00000000000E+00  0.00000000000E+00 -0.53093793139E+03  0.53093793140E+03  0.25500000920E-02 0.  1.
    10030    2    1    2    0    0  0.00000000000E+00  0.00000000000E+00  0.85069163275E+03  0.19125674955E+04  0.17129618125E+04 0.  0.
        1    1    3    3  502    0  0.48697038907E+03  0.26130522557E+03 -0.30522356255E+03  0.63133351242E+03  0.50400001928E-02 0.  1.
       -1    1    3    3    0  502 -0.48697038907E+03 -0.26130522557E+03  0.11559151953E+04  0.12812339831E+04  0.50400001928E-02 0. -1.
</event>
<event>
 5   0  0.5035495E-04  0.9850421E+03  0.7818609E-02  0.9325104E-01
       -1   -1    0    0    0  501  0.00000000000E+00  0.00000000000E+00  0.11344942793E+04  0.11344942793E+04  0.50400001928E-02 0. -1.
        1   -1    0    0  501    0  0.00000000000E+00  0.00000000000E+00 -0.21381950305E+03  0.21381950311E+03  0.50400001928E-02 0.  1.
    10030    2    1    2    0    0  0.00000000000E+00  0.00000000000E+00  0.92067477624E+03  0.13483137824E+04  0.98504213729E+03 0.  0.
        4    1    3    3  502    0  0.30192863239E+03  0.38867793190E+03  0.48572301159E+03  0.69149106335E+03  0.12699999809E+01 0.  1.
       -4    1    3    3    0  502 -0.30192863239E+03 -0.38867793190E+03  0.43495176464E+03  0.65682271906E+03  0.12699999809E+01 0. -1.
</event>
<event>
 5   0  0.9312096E-04  0.1664498E+04  0.7818609E-02  0.8781876E-01
        2   -1    0    0  501    0  0.00000000000E+00  0.00000000000E+00  0.74319231357E+03  0.74319231357E+03  0.25500000920E-02 0.  1.
       -2   -1    0    0    0  501  0.00000000000E+00  0.00000000000E+00 -0.93197712570E+03  0.93197712570E+03  0.25500000920E-02 0. -1.
    10030    2    1    2    0    0  0.00000000000E+00  0.00000000000E+00 -0.18878481213E+03  0.16751694393E+04  0.16644978056E+04 0.  0.
        3    1    3    3  502    0 -0.29266966536E+03 -0.35295890180E+02 -0.87767328939E+03  0.92585730326E+03  0.10100000352E+00 0. -1.
       -3    1    3    3    0  502  0.29266966536E+03  0.35295890180E+02  0.68888847726E+03  0.74931213602E+03  0.10100000352E+00 0.  1.
</event>
<event>
 5   0  0.5035495E-04  0.1578124E+04  0.7818609E-02  0.8834101E-01
        1   -1    0    0  501    0  0.00000000000E+00  0.00000000000E+00  0.13880304109E+04  0.13880304109E+04  0.50400001928E-02 0.  1.
       -1   -1    0    0    0  501  0.00000000000E+00  0.00000000000E+00 -0.44856259255E+03  0.44856259258E+03  0.50400001928E-02 0. -1.
    10030    2    1    2    0    0  0.00000000000E+00  0.00000000000E+00  0.93946781832E+03  0.18365930035E+04  0.15781235942E+04 0.  0.
        4    1    3    3  502    0  0.41437592967E+03 -0.58895817117E+03  0.84511070802E+03  0.11103120553E+04  0.12699999809E+01 0.  1.
       -4    1    3    3    0  502 -0.41437592967E+03  0.58895817117E+03  0.94357110306E+02  0.72628094815E+03  0.12699999809E+01 0. -1.
</event>
<event>
 5   0  0.3523125E-04  0.1747574E+04  0.7818609E-02  0.8734687E-01
        3   -1    0    0  501    0  0.00000000000E+00  0.00000000000E+00  0.47652276070E+03  0.47652277141E+03  0.10100000352E+00 0. -1.
       -3   -1    0    0    0  501  0.00000000000E+00  0.00000000000E+00 -0.16022398063E+04  0.16022398094E+04  0.10100000352E+00 0.  1.
    10030    2    1    2    0    0  0.00000000000E+00  0.00000000000E+00 -0.11257170456E+04  0.20787625808E+04  0.17475740330E+04 0.  0.
        4    1    3    3  502    0  0.31477232887E+03  0.30552188475E+01 -0.15324477349E+04  0.15644451497E+04  0.12699999809E+01 0.  1.
       -4    1    3    3    0  502 -0.31477232887E+03 -0.30552188475E+01  0.40673068936E+03  0.51431743111E+03  0.12699999809E+01 0. -1.
</event>
<event>
 5   0  0.5035495E-04  0.1746881E+04  0.7818609E-02  0.8735069E-01
        1   -1    0    0  501    0  0.00000000000E+00  0.00000000000E+00  0.15400965674E+04  0.15400965674E+04  0.50400001928E-02 0. -1.
       -1   -1    0    0    0  501  0.00000000000E+00  0.00000000000E+00 -0.49535732325E+03  0.49535732328E+03  0.50400001928E-02 0.  1.
    10030    2    1    2    0    0  0.00000000000E+00  0.00000000000E+00  0.10447392441E+04  0.20354538907E+04  0.17468807781E+04 0.  0.
        4    1    3    3  502    0 -0.77931307558E+03  0.32804804619E+03  0.77752331783E+03  0.11486899116E+04  0.12699999809E+01 0. -1.
       -4    1    3    3    0  502  0.77931307558E+03 -0.32804804619E+03  0.26721592630E+03  0.88676397906E+03  0.12699999809E+01 0.  1.
</event>
<event>
 5   0  0.5059689E-04  0.1749601E+04  0.7818609E-02  0.8733570E-01
        1   -1    0    0  501    0  0.00000000000E+00  0.00000000000E+00  0.17446461291E+04  0.17446461291E+04  0.50400001928E-02 0.  1.
       -1   -1    0    0    0  501  0.00000000000E+00  0.00000000000E+00 -0.43864231937E+03  0.43864231940E+03  0.50400001928E-02 0. -1.
    10030    2    1    2    0    0  0.00000000000E+00  0.00000000000E+00  0.13060038097E+04  0.21832884485E+04  0.17496006683E+04 0.  0.
        5    1    3    3  502    0 -0.81386223730E+03 -0.22069989604E+03  0.94344765357E+03  0.12653836377E+04  0.46999998093E+01 0.  1.
       -5    1    3    3    0  502  0.81386223730E+03  0.22069989604E+03  0.36255615614E+03  0.91790481084E+03  0.46999998093E+01 0. -1.
</event>
<event>
 5   0  0.9610114E-04  0.1675815E+04  0.7818609E-02  0.8775279E-01
       -2   -1    0    0    0  501  0.00000000000E+00  0.00000000000E+00  0.43429483305E+03  0.43429483306E+03  0.25500000920E-02 0. -1.
        2   -1    0    0  501    0  0.00000000000E+00  0.00000000000E+00 -0.16166182100E+04  0.16166182100E+04  0.25500000920E-02 0.  1.
    10030    2    1    2    0    0  0.00000000000E+00  0.00000000000E+00 -0.11823233769E+04  0.20509130430E+04  0.16758149487E+04 0.  0.
        2    1    3    3  502    0 -0.56269207367E+03  0.42405078085E+03 -0.36174567238E+02  0.70551402100E+03  0.25500000920E-02 0. -1.
       -2    1    3    3    0  502  0.56269207367E+03 -0.42405078085E+03 -0.11461488097E+04  0.13453990220E+04  0.25500000920E-02 0.  1.
</event>
<event>
 5   0  0.9284971E-04  0.1721415E+04  0.7818609E-02  0.8749244E-01
        2   -1    0    0  501    0  0.00000000000E+00  0.00000000000E+00  0.78385623400E+03  0.78385623400E+03  0.25500000920E-02 0.  1.
       -2   -1    0    0    0  501  0.00000000000E+00  0.00000000000E+00 -0.94509385948E+03  0.94509385949E+03  0.25500000920E-02 0. -1.
    10030    2    1    2    0    0  0.00000000000E+00  0.00000000000E+00 -0.16123762549E+03  0.17289500935E+04  0.17214153636E+04 0.  0.
        4    1    3    3  502    0  0.56216514558E+03  0.43609623084E+03  0.40586324577E+03  0.81910692869E+03  0.12699999809E+01 0.  1.
       -4    1    3    3    0  502 -0.56216514558E+03 -0.43609623084E+03 -0.56710087126E+03  0.90984316480E+03  0.12699999809E+01 0. -1.
</event>
<event>
 5   0  0.1007187E-03  0.1775196E+04  0.7818609E-02  0.8719602E-01
       -2   -1    0    0    0  501  0.00000000000E+00  0.00000000000E+00  0.41326473479E+03  0.41326473480E+03  0.25500000920E-02 0.  1.
        2   -1    0    0  501    0  0.00000000000E+00  0.00000000000E+00 -0.19063576812E+04  0.19063576812E+04  0.25500000920E-02 0. -1.
    10030    2    1    2    0    0  0.00000000000E+00  0.00000000000E+00 -0.14930929464E+04  0.23196224160E+04  0.17751962162E+04 0.  0.
        5    1    3    3  502    0 -0.68819191566E+03 -0.34311109032E+03 -0.16735180094E+03  0.78699558344E+03  0.46999998093E+01 0.  1.
       -5    1    3    3    0  502  0.68819191566E+03  0.34311109032E+03 -0.13257411454E+04  0.15326268325E+04  0.46999998093E+01 0. -1.
</event>
<event>
 5   0  0.1007187E-03  0.1639869E+04  0.7818609E-02  0.8796423E-01
        2   -1    0    0  501    0  0.00000000000E+00  0.00000000000E+00  0.11240971231E+04  0.11240971231E+04  0.25500000920E-02 0.  1.
       -2   -1    0    0    0  501  0.00000000000E+00  0.00000000000E+00 -0.59807307703E+03  0.59807307703E+03  0.25500000920E-02 0. -1.
    10030    2    1    2    0    0  0.00000000000E+00  0.00000000000E+00  0.52602404609E+03  0.17221702001E+04  0.16398685622E+04 0.  0.
        5    1    3    3  502    0 -0.75377438129E+03 -0.21608807218E+03  0.11404299081E+02  0.78423339693E+03  0.46999998093E+01 0. -1.
       -5    1    3    3    0  502  0.75377438129E+03  0.21608807218E+03  0.51461974701E+03  0.93793680322E+03  0.46999998093E+01 0.  1.
</event>
<event>
 5   0  0.5035495E-04  0.1691272E+04  0.7818609E-02  0.8766358E-01
       -1   -1    0    0    0  501  0.00000000000E+00  0.00000000000E+00  0.61364313175E+03  0.61364313177E+03  0.50400001928E-02 0.  1.
        1   -1    0    0  501    0  0.00000000000E+00  0.00000000000E+00 -0.11653352375E+04  0.11653352375E+04  0.50400001928E-02 0. -1.
    10030    2    1    2    0    0  0.00000000000E+00  0.00000000000E+00 -0.55169210576E+03  0.17789783693E+04  0.16912716691E+04 0.  0.
        4    1    3    3  502    0  0.31993332273E+03  0.55238608127E+03 -0.85923469380E+03  0.10704081398E+04  0.12699999809E+01 0.  1.
       -4    1    3    3    0  502 -0.31993332273E+03 -0.55238608127E+03  0.30754258804E+03  0.70857022950E+03  0.12699999809E+01 0. -1.
</event>
<event>
 5   0  0.5074133E-04  0.1706818E+04  0.7818609E-02  0.8757485E-01
        1   -1    0    0  501    0  0.00000000000E+00  0.00000000000E+00  0.16502029565E+04  0.16502029565E+04  0.50400001928E-02 0.  1.
       -1   -1    0    0    0  501  0.00000000000E+00  0.00000000000E+00 -0.44134379157E+03  0.44134379160E+03  0.50400001928E-02 0. -1.
    10030    2    1    2    0    0  0.00000000000E+00  0.00000000000E+00  0.12088591649E+04  0.20915467481E+04  0.17068178927E+04 0.  0.
        1    1    3    3  502    0  0.63580449252E+03  0.67288336509E+01  0.13019588112E+04  0.14489269740E+04  0.50400001928E-02 0.  1.
       -1    1    3    3    0  502 -0.63580449252E+03 -0.67288336509E+01 -0.93099646271E+02  0.64261977410E+03  0.50400001928E-02 0. -1.
</event>
<event>
 5   0  0.9312096E-04  0.1702068E+04  0.7818609E-02  0.8760186E-01
        2   -1    0    0  501    0  0.00000000000E+00  0.00000000000E+00  0.25376363358E+04  0.25376363358E+04  0.25500000920E-02 0.  1.
       -2   -1    0    0    0  501  0.00000000000E+00  0.00000000000E+00 -0.28540700729E+03  0.28540700730E+03  0.25500000920E-02 0. -1.
    10030    2    1    2    0    0  0.00000000000E+00  0.00000000000E+00  0.22522293286E+04  0.28230433431E+04  0.17020683796E+04 0.  0.
        3    1    3    3  502    0  0.56165355029E+03  0.56903924867E+03  0.64255846844E+03  0.10257396222E+04  0.10100000352E+00 0. -1.
       -3    1    3    3    0  502 -0.56165355029E+03 -0.56903924867E+03  0.16096708601E+04  0.17973037209E+04  0.10100000352E+00 0.  1.
</event>
<event>
 5   0  0.9625225E-04  0.1622382E+04  0.7818609E-02  0.8806915E-01
        2   -1    0    0  501    0  0.00000000000E+00  0.00000000000E+00  0.62079536679E+03  0.62079536679E+03  0.25500000920E-02 0.  1.
       -2   -1    0    0    0  501  0.00000000000E+00  0.00000000000E+00 -0.10599798846E+04  0.10599798846E+04  0.25500000920E-02 0. -1.
    10030    2    1    2    0    0  0.00000000000E+00  0.00000000000E+00 -0.43918451784E+03  0.16807752514E+04  0.16223817076E+04 0.  0.
        1    1    3    3  502    0 -0.75692140307E+03 -0.24083475061E+03 -0.39013567137E+03  0.88495041084E+03  0.50400001928E-02 0.  1.
       -1    1    3    3    0  502  0.75692140307E+03  0.24083475061E+03 -0.49048846466E+02  0.79582484059E+03  0.50400001928E-02 0. -1.
</event>
<event>
 5   0  0.1007187E-03  0.1686721E+04  0.7818609E-02  0.8768974E-01
       -2   -1    0    0    0  501  0.00000000000E+00  0.00000000000E+00  0.67460239377E+03  0.67460239377E+03  0.25500000920E-02 0. -1.
        2   -1    0    0  501    0  0.00000000000E+00  0.00000000000E+00 -0.10543353204E+04  0.10543353204E+04  0.25500000920E-02 0.  1.
    10030    2    1    2    0    0  0.00000000000E+00  0.00000000000E+00 -0.37973292659E+03  0.17289377141E+04  0.16867212348E+04 0.  0.
        5    1    3    3  502    0  0.56320832502E+02 -0.48680629939E+03 -0.89339963884E+03  0.10189884268E+04  0.46999998093E+01 0.  1.
       -5    1    3    3    0  502 -0.56320832502E+02  0.48680629939E+03  0.51366671225E+03  0.70994928732E+03  0.46999998093E+01 0. -1.
</event>
<event>
 5   0  0.5009762E-04  0.9786903E+03  0.7818609E-02  0.9332231E-01
        1   -1    0    0  501    0  0.00000000000E+00  0.00000000000E+00  0.10529481823E+04  0.10529481823E+04  0.50400001928E-02 0. -1.
       -1   -1    0    0    0  501  0.00000000000E+00  0.00000000000E+00 -0.22741733808E+03  0.22741733814E+03  0.50400001928E-02 0.  1.
    10030    2    1    2    0    0  0.00000000000E+00  0.00000000000E+00  0.82553084417E+03  0.12803655204E+04  0.97869029379E+03 0.  0.
        3    1    3    3  502    0  0.15453425320E+03  0.46418789673E+03  0.39920607546E+03  0.63144021076E+03  0.10100000352E+00 0.  1.
       -3    1    3    3    0  502 -0.15453425320E+03 -0.46418789673E+03  0.42632476871E+03  0.64892530964E+03  0.10100000352E+00 0. -1.
</event>
<event>
 5   0  0.9610114E-04  0.1717669E+04  0.7818609E-02  0.8751351E-01
       -2   -1    0    0    0  501  0.00000000000E+00  0.00000000000E+00  0.64275275995E+03  0.64275275996E+03  0.25500000920E-02 0.  1.
        2   -1    0    0  501    0  0.00000000000E+00  0.00000000000E+00 -0.11475591682E+04  0.11475591682E+04  0.25500000920E-02 0. -1.
    10030    2    1    2    0    0  0.00000000000E+00  0.00000000000E+00 -0.50480640821E+03  0.17903119281E+04  0.17176691446E+04 0.  0.
        2    1    3    3  502    0 -0.66914886950E+03  0.89473743573E+02  0.30092603476E+03  0.73913614358E+03  0.25500000920E-02 0.  1.
       -2    1    3    3    0  502  0.66914886950E+03 -0.89473743573E+02 -0.80573244297E+03  0.10511757845E+04  0.25500000920E-02 0. -1.
</event>
<event>
 5   0  0.5074133E-04  0.1651447E+04  0.7818609E-02  0.8789551E-01
        1   -1    0    0  501    0  0.00000000000E+00  0.00000000000E+00  0.13755158858E+04  0.13755158858E+04  0.50400001928E-02 0.  1.
       -1   -1    0    0    0  501  0.00000000000E+00  0.00000000000E+00 -0.49568263409E+03  0.49568263412E+03  0.50400001928E-02 0. -1.
    10030    2    1    2    0    0  0.00000000000E+00  0.00000000000E+00  0.87983325169E+03  0.18711985199E+04  0.16514470473E+04 0.  0.
        1    1    3    3  502    0 -0.34086898792E+03 -0.75208168452E+03  0.43889661747E+03  0.93511965436E+03  0.50400001928E-02 0.  1.
       -1    1    3    3    0  502  0.34086898792E+03  0.75208168452E+03  0.44093663422E+03  0.93607886555E+03  0.50400001928E-02 0. -1.
</event>
<event>
 5   0  0.9312096E-04  0.1713875E+04  0.7818609E-02  0.8753490E-01
        2   -1    0    0  501    0  0.00000000000E+00  0.00000000000E+00  0.14777605022E+04  0.14777605022E+04  0.25500000920E-02 0. -1.
       -2   -1    0    0    0  501  0.00000000000E+00  0.00000000000E+00 -0.49692890525E+03  0.49692890525E+03  0.25500000920E-02 0.  1.
    10030    2    1    2    0    0  0.00000000000E+00  0.00000000000E+00  0.98083159699E+03  0.19746894075E+04  0.17138750347E+04 0.  0.
        3    1    3    3  502    0 -0.68123524115E+03  0.37556078769E+03  0.76248947662E+02  0.78162732248E+03  0.10100000352E+00 0.  1.
       -3    1    3    3    0  502  0.68123524115E+03 -0.37556078769E+03  0.90458264933E+03  0.11930620850E+04  0.10100000352E+00 0. -1.
</event>
<event>
 5   0  0.9610114E-04  0.1671286E+04  0.7818609E-02  0.8777912E-01
        2   -1    0    0  501    0  0.00000000000E+00  0.00000000000E+00  0.17059691972E+04  0.17059691972E+04  0.25500000920E-02 0.  1.
       -2   -1    0    0    0  501  0.00000000000E+00  0.00000000000E+00 -0.40932708166E+03  0.40932708167E+03  0.25500000920E-02 0. -1.
    10030    2    1    2    0    0  0.00000000000E+00  0.00000000000E+00  0.12966421155E+04  0.21152962788E+04  0.16712862028E+04 0.  0.
        2    1    3    3  502    0 -0.75321826562E+03  0.22760632639E+03  0.29222674827E+03  0.83936813610E+03  0.25500000920E-02 0. -1.
       -2    1    3    3    0  502  0.75321826562E+03 -0.22760632639E+03  0.10044153672E+04  0.12759281427E+04  0.25500000920E-02 0.  1.
</event>
<event>
 5   0  0.5074133E-04  0.1637536E+04  0.7818609E-02  0.8797814E-01
        1   -1    0    0  501    0  0.00000000000E+00  0.00000000000E+00  0.12336118279E+04  0.12336118279E+04  0.50400001928E-02 0. -1.
       -1   -1    0    0    0  501  0.00000000000E+00  0.00000000000E+00 -0.54342932146E+03  0.54342932148E+03  0.50400001928E-02 0.  1.
    10030    2    1    2    0    0  0.00000000000E+00  0.00000000000E+00  0.69018250647E+03  0.17770411494E+04  0.16375357567E+04 0.  0.
        1    1    3    3  502    0 -0.39355353995E+03  0.15773209392E+03  0.11052039815E+04  0.11837396855E+04  0.50400001928E-02 0. -1.
       -1    1    3    3    0  502  0.39355353995E+03 -0.15773209392E+03 -0.41502147507E+03  0.59330146389E+03  0.50400001928E-02 0.  1.
</event>
<event>
 5   0  0.1007187E-03  0.1868119E+04  0.7818609E-02  0.8670890E-01
       -2   -1    0    0    0  501  0.00000000000E+00  0.00000000000E+00  0.67761997266E+03  0.67761997267E+03  0.25500000920E-02 0. -1.
        2   -1    0    0  501    0  0.00000000000E+00  0.00000000000E+00 -0.12875464645E+04  0.12875464645E+04  0.25500000920E-02 0.  1.
    10030    2    1    2    0    0  0.00000000000E+00  0.00000000000E+00 -0.60992649186E+03  0.19651664372E+04  0.18681190541E+04 0.  0.
        5    1    3    3  502    0  0.30988372872E+03 -0.83896302509E+03 -0.21603522403E+02  0.89463718063E+03  0.46999998093E+01 0.  1.
       -5    1    3    3    0  502 -0.30988372872E+03  0.83896302509E+03 -0.58832296946E+03  0.10705292566E+04  0.46999998093E+01 0. -1.
</event>
<event>
 5   0  0.9610114E-04  0.1703516E+04  0.7818609E-02  0.8759362E-01
       -2   -1    0    0    0  501  0.00000000000E+00  0.00000000000E+00  0.96451862254E+03  0.96451862255E+03  0.25500000920E-02 0.  1.
        2   -1    0    0  501    0  0.00000000000E+00  0.00000000000E+00 -0.75218009736E+03  0.75218009736E+03  0.25500000920E-02 0. -1.
    10030    2    1    2    0    0  0.00000000000E+00  0.00000000000E+00  0.21233852519E+03  0.17166987199E+04  0.17035160245E+04 0.  0.
        2    1    3    3  502    0 -0.43159221485E+01 -0.62811959771E+03 -0.47355535159E+03  0.78664320199E+03  0.25500000920E-02 0. -1.
       -2    1    3    3    0  502  0.43159221485E+01  0.62811959771E+03  0.68589387678E+03  0.93005551792E+03  0.25500000920E-02 0.  1.
</event>
<event>
 5   0  0.1007187E-03  0.1641993E+04  0.7818609E-02  0.8795157E-01
       -2   -1    0    0    0  501  0.00000000000E+00  0.00000000000E+00  0.67138683798E+03  0.67138683798E+03  0.25500000920E-02 0.  1.
        2   -1    0    0  501    0  0.00000000000E+00  0.00000000000E+00 -0.10039451449E+04  0.10039451449E+04  0.25500000920E-02 0. -1.
    10030    2    1    2    0    0  0.00000000000E+00  0.00000000000E+00 -0.33255830688E+03  0.16753319828E+04  0.16419933694E+04 0.  0.
        5    1    3    3  502    0 -0.34950515937E+03 -0.50066305442E+03  0.39367718354E+03  0.72651301800E+03  0.46999998093E+01 0.  1.
       -5    1    3    3    0  502  0.34950515937E+03  0.50066305442E+03 -0.72623549042E+03  0.94881896483E+03  0.46999998093E+01 0. -1.
</event>
<event>
 5   0  0.5074133E-04  0.1574523E+04  0.7818609E-02  0.8836354E-01
        1   -1    0    0  501    0  0.00000000000E+00  0.00000000000E+00  0.15505764256E+04  0.15505764256E+04  0.50400001928E-02 0.  1.
       -1   -1    0    0    0  501  0.00000000000E+00  0.00000000000E+00 -0.39970975301E+03  0.39970975304E+03  0.50400001928E-02 0. -1.
    10030    2    1    2    0    0  0.00000000000E+00  0.00000000000E+00  0.11508666726E+04  0.19502861787E+04  0.15745228104E+04 0.  0.
        1    1    3    3  502    0 -0.42650150524E+03 -0.42530036494E+02 -0.24251634205E+03  0.49246981041E+03  0.50400001928E-02 0. -1.
       -1    1    3    3    0  502  0.42650150524E+03  0.42530036494E+02  0.13933830147E+04  0.14578163683E+04  0.50400001928E-02 0.  1.
</event>
<event>
 5   0  0.9284971E-04  0.1664191E+04  0.7818609E-02  0.8782056E-01
        2   -1    0    0  501    0  0.00000000000E+00  0.00000000000E+00  0.10420607374E+04  0.10420607374E+04  0.25500000920E-02 0.  1.
       -2   -1    0    0    0  501  0.00000000000E+00  0.00000000000E+00 -0.66443584705E+03  0.66443584705E+03  0.25500000920E-02 0. -1.
    10030    2    1    2    0    0  0.00000000000E+00  0.00000000000E+00  0.37762489036E+03  0.17064965845E+04  0.16641905044E+04 0.  0.
        4    1    3    3  502    0  0.86654663103E+01 -0.20131991891E+03 -0.63903744963E+03  0.67005617301E+03  0.12699999809E+01 0. -1.
       -4    1    3    3    0  502 -0.86654663103E+01  0.20131991891E+03  0.10166623400E+04  0.10364404115E+04  0.12699999809E+01 0.  1.
</event>
<event>
 5   0  0.9312096E-04  0.1669429E+04  0.7818609E-02  0.8778995E-01
       -2   -1    0    0    0  501  0.00000000000E+00  0.00000000000E+00  0.64793175552E+03  0.64793175552E+03  0.25500000920E-02 0.  1.
        2   -1    0    0  501    0  0.00000000000E+00  0.00000000000E+00 -0.10753421108E+04  0.10753421108E+04  0.25500000920E-02 0. -1.
    10030    2    1    2    0    0  0.00000000000E+00  0.00000000000E+00 -0.42741035532E+03  0.17232738664E+04  0.16694290062E+04 0.  0.
        3    1    3    3  502    0 -0.66541275039E+03  0.35593940707E+03 -0.58197713558E+03  0.95297659280E+03  0.10100000352E+00 0. -1.
       -3    1    3    3    0  502  0.66541275039E+03 -0.35593940707E+03  0.15456678026E+03  0.77029727356E+03  0.10100000352E+00 0.  1.
</event>
<event>
 5   0  0.1007187E-03  0.1754788E+04  0.7818609E-02  0.8730719E-01
       -2   -1    0    0    0  501  0.00000000000E+00  0.00000000000E+00  0.13073922493E+04  0.13073922493E+04  0.25500000920E-02 0. -1.
        2   -1    0    0  501    0  0.00000000000E+00  0.00000000000E+00 -0.58882115098E+03  0.58882115098E+03  0.25500000920E-02 0.  1.
    10030    2    1    2    0    0  0.00000000000E+00  0.00000000000E+00  0.71857109832E+03  0.18962134003E+04  0.17547879747E+04 0.  0.
        5    1    3    3  502    0  0.81014760396E+03  0.14231455661E+03  0.29384695945E+02  0.82309059257E+03  0.46999998093E+01 0. -1.
       -5    1    3    3    0  502 -0.81014760396E+03 -0.14231455661E+03  0.68918640237E+03  0.10731228077E+04  0.46999998093E+01 0.  1.
</event>
<event>
 5   0  0.9312096E-04  0.1726921E+04  0.7818609E-02  0.8746158E-01
        2   -1    0    0  501    0  0.00000000000E+00  0.00000000000E+00  0.16959387444E+04  0.16959387444E+04  0.25500000920E-02 0.  1.
       -2   -1    0    0    0  501  0.00000000000E+00  0.00000000000E+00 -0.43961708505E+03  0.43961708505E+03  0.25500000920E-02 0. -1.
    10030    2    1    2    0    0  0.00000000000E+00  0.00000000000E+00  0.12563216594E+04  0.21355558295E+04  0.17269205509E+04 0.  0.
        3    1    3    3  502    0  0.49568718226E+03  0.36205407003E+02 -0.24499475366E+03  0.55411104814E+03  0.10100000352E+00 0. -1.
       -3    1    3    3    0  502 -0.49568718226E+03 -0.36205407003E+02  0.15013164130E+04  0.15814447813E+04  0.10100000352E+00 0.  1.
</event>
<event>
 5   0  0.5009762E-04  0.1689639E+04  0.7818609E-02  0.8767296E-01
       -1   -1    0    0    0  501  0.00000000000E+00  0.00000000000E+00  0.45733741225E+03  0.45733741227E+03  0.50400001928E-02 0. -1.
        1   -1    0    0  501    0  0.00000000000E+00  0.00000000000E+00 -0.15605981830E+04  0.15605981830E+04  0.50400001928E-02 0.  1.
    10030    2    1    2    0    0  0.00000000000E+00  0.00000000000E+00 -0.11032607708E+04  0.20179355953E+04  0.16896389373E+04 0.  0.
        3    1    3    3  502    0  0.17889138455E+03 -0.73904947188E+03 -0.11196631425E+03  0.76859138369E+03  0.10100000352E+00 0. -1.
       -3    1    3    3    0  502 -0.17889138455E+03  0.73904947188E+03 -0.99129445652E+03  0.12493442116E+04  0.10100000352E+00 0.  1.
</event>
<event>
 5   0  0.5009762E-04  0.1628107E+04  0.7818609E-02  0.8803465E-01
        1   -1    0    0  501    0  0.00000000000E+00  0.00000000000E+00  0.87829667124E+03  0.87829667126E+03  0.50400001928E-02 0. -1.
       -1   -1    0    0    0  501  0.00000000000E+00  0.00000000000E+00 -0.75450936162E+03  0.75450936164E+03  0.50400001928E-02 0.  1.
    10030    2    1    2    0    0  0.00000000000E+00  0.00000000000E+00  0.12378730962E+03  0.16328060329E+04  0.16281069507E+04 0.  0.
        3    1    3    3  502    0  0.38209383066E+03  0.58948149683E+03  0.47441883179E+03  0.84767763253E+03  0.10100000352E+00 0. -1.
       -3    1    3    3    0  502 -0.38209383066E+03 -0.58948149683E+03 -0.35063152217E+03  0.78512840037E+03  0.10100000352E+00 0.  1.
</event>
<event>
 5   0  0.9284971E-04  0.1736855E+04  0.7818609E-02  0.8740619E-01
        2   -1    0    0  501    0  0.00000000000E+00  0.00000000000E+00  0.21478166587E+04  0.21478166587E+04  0.25500000920E-02 0. -1.
       -2   -1    0    0    0  501  0.00000000000E+00  0.00000000000E+00 -0.35113162376E+03  0.35113162377E+03  0.25500000920E-02 0.  1.
    10030    2    1    2    0    0  0.00000000000E+00  0.00000000000E+00  0.17966850350E+04  0.24989482825E+04  0.17368550324E+04 0.  0.
        4    1    3    3  502    0 -0.59947968108E+03 -0.62514165626E+03  0.98918808086E+03  0.13147899645E+04  0.12699999809E+01 0.  1.
       -4    1    3    3    0  502  0.59947968108E+03  0.62514165626E+03  0.80749695411E+03  0.11841583180E+04  0.12699999809E+01 0. -1.
</event>
<event>
 5   0  0.5059689E-04  0.1651861E+04  0.7818609E-02  0.8789306E-01
       -1   -1    0    0    0  501  0.00000000000E+00  0.00000000000E+00  0.11997861844E+04  0.11997861844E+04  0.50400001928E-02 0. -1.
        1   -1    0    0  501    0  0.00000000000E+00  0.00000000000E+00 -0.56856874900E+03  0.56856874902E+03  0.50400001928E-02 0.  1.
    10030    2    1    2    0    0  0.00000000000E+00  0.00000000000E+00  0.63121743535E+03  0.17683549334E+04  0.16518606841E+04 0.  0.
        5    1    3    3  502    0 -0.57054115256E+03  0.57785092828E+03  0.15428285556E+03  0.82659191358E+03  0.46999998093E+01 0.  1.
       -5    1    3    3    0  502  0.57054115256E+03 -0.57785092828E+03  0.47693457980E+03  0.94176301981E+03  0.46999998093E+01 0. -1.
</event>
<event>
 5   0  0.3523125E-04  0.1678218E+04  0.7818609E-02  0.8773886E-01
        3   -1    0    0  501    0  0.00000000000E+00  0.00000000000E+00  0.20120355973E+04  0.20120355999E+04  0.10100000352E+00 0. -1.
       -3   -1    0    0    0  501  0.00000000000E+00  0.00000000000E+00 -0.34994605815E+03  0.34994607273E+03  0.10100000352E+00 0.  1.
    10030    2    1    2    0    0  0.00000000000E+00  0.00000000000E+00  0.16620895392E+04  0.23619816726E+04  0.16782180387E+04 0.  0.
        5    1    3    3  502    0 -0.58206903664E+03  0.42479483516E+03  0.22596775018E+03  0.75520760689E+03  0.46999998093E+01 0.  1.
       -5    1    3    3    0  502  0.58206903664E+03 -0.42479483516E+03  0.14361217890E+04  0.16067740657E+04  0.46999998093E+01 0. -1.
</event>
<event>
 5   0  0.5009762E-04  0.1691082E+04  0.7818609E-02  0.8766467E-01
       -1   -1    0    0    0  501  0.00000000000E+00  0.00000000000E+00  0.66553388177E+03  0.66553388179E+03  0.50400001928E-02 0. -1.
        1   -1    0    0  501    0  0.00000000000E+00  0.00000000000E+00 -0.10742349814E+04  0.10742349814E+04  0.50400001928E-02 0.  1.
    10030    2    1    2    0    0  0.00000000000E+00  0.00000000000E+00 -0.40870109963E+03  0.17397688632E+04  0.16910822300E+04 0.  0.
        3    1    3    3  502    0 -0.50388958611E+03 -0.61111689945E+03 -0.50879456889E+03  0.94140347531E+03  0.10100000352E+00 0.  1.
       -3    1    3    3    0  502  0.50388958611E+03  0.61111689945E+03  0.10009346926E+03  0.79836538789E+03  0.10100000352E+00 0. -1.
</event>
<event>
 5   0  0.3523125E-04  0.1676282E+04  0.7818609E-02  0.8775008E-01
        3   -1    0    0  501    0  0.00000000000E+00  0.00000000000E+00  0.72668321353E+03  0.72668322055E+03  0.10100000352E+00 0. -1.
       -3   -1    0    0    0  501  0.00000000000E+00  0.00000000000E+00 -0.96669388730E+03  0.96669389258E+03  0.10100000352E+00 0.  1.
    10030    2    1    2    0    0  0.00000000000E+00  0.00000000000E+00 -0.24001067377E+03  0.16933771131E+04  0.16762818748E+04 0.  0.
        1    1    3    3  502    0  0.21486654519E+03  0.79133201466E+03  0.55275688536E+02  0.82184511402E+03  0.50400001928E-02 0.  1.
       -1    1    3    3    0  502 -0.21486654519E+03 -0.79133201466E+03 -0.29528636231E+03  0.87153199910E+03  0.50400001928E-02 0. -1.
</event>
<event>
 5   0  0.5009762E-04  0.1508294E+04  0.7818609E-02  0.8878956E-01
       -1   -1    0    0    0  501  0.00000000000E+00  0.00000000000E+00  0.28235196109E+03  0.28235196114E+03  0.50400001928E-02 0.  1.
        1   -1    0    0  501    0  0.00000000000E+00  0.00000000000E+00 -0.20142875769E+04  0.20142875769E+04  0.50400001928E-02 0. -1.
    10030    2    1    2    0    0  0.00000000000E+00  0.00000000000E+00 -0.17319356158E+04  0.22966395380E+04  0.15082944641E+04 0.  0.
        3    1    3    3  502    0 -0.73756850733E+03 -0.51829064697E+02 -0.10920449495E+04  0.13188084534E+04  0.10100000352E+00 0. -1.
       -3    1    3    3    0  502  0.73756850733E+03  0.51829064697E+02 -0.63989066630E+03  0.97783108458E+03  0.10100000352E+00 0.  1.
</event>
<event>
 5   0  0.9625225E-04  0.1598507E+04  0.7818609E-02  0.8821466E-01
        2   -1    0    0  501    0  0.00000000000E+00  0.00000000000E+00  0.12113254352E+04  0.12113254352E+04  0.25500000920E-02 0. -1.
       -2   -1    0    0    0  501  0.00000000000E+00  0.00000000000E+00 -0.52736151558E+03  0.52736151558E+03  0.25500000920E-02 0.  1.
    10030    2    1    2    0    0  0.00000000000E+00  0.00000000000E+00  0.68396391966E+03  0.17386869508E+04  0.15985073255E+04 0.  0.
        1    1    3    3  502    0  0.27895669009E+02  0.59739758081E+03  0.91871053065E+03  0.10962167108E+04  0.50400001928E-02 0. -1.
       -1    1    3    3    0  502 -0.27895669009E+02 -0.59739758081E+03 -0.23474661099E+03  0.64247024001E+03  0.50400001928E-02 0.  1.
</event>
<event>
 5   0  0.4947006E-04  0.1701077E+04  0.7818609E-02  0.8760751E-01
       -1   -1    0    0    0  501  0.00000000000E+00  0.00000000000E+00  0.11714179170E+04  0.11714179171E+04  0.50400001928E-02 0. -1.
        1   -1    0    0  501    0  0.00000000000E+00  0.00000000000E+00 -0.61755537251E+03  0.61755537253E+03  0.50400001928E-02 0.  1.
    10030    2    1    2    0    0  0.00000000000E+00  0.00000000000E+00  0.55386254453E+03  0.17889732896E+04  0.17010766334E+04 0.  0.
        2    1    3    3  502    0 -0.64288321764E+03  0.21690042985E+03 -0.26247538263E+03  0.72748742566E+03  0.25500000920E-02 0.  1.
       -2    1    3    3    0  502  0.64288321764E+03 -0.21690042985E+03  0.81633792716E+03  0.10614858639E+04  0.25500000920E-02 0. -1.
</event>
<event>
 5   0  0.5009762E-04  0.1609387E+04  0.7818609E-02  0.8814802E-01
        1   -1    0    0  501    0  0.00000000000E+00  0.00000000000E+00  0.66572189017E+03  0.66572189019E+03  0.50400001928E-02 0. -1.
       -1   -1    0    0    0  501  0.00000000000E+00  0.00000000000E+00 -0.97267567469E+03  0.97267567470E+03  0.50400001928E-02 0.  1.
    10030    2    1    2    0    0  0.00000000000E+00  0.00000000000E+00 -0.30695378451E+03  0.16383975649E+04  0.16093868257E+04 0.  0.
        3    1    3    3  502    0 -0.77294988802E+03  0.17505318088E+03 -0.29540421719E+03  0.84578886684E+03  0.10100000352E+00 0.  1.
       -3    1    3    3    0  502  0.77294988802E+03 -0.17505318088E+03 -0.11549567323E+02  0.79260869806E+03  0.10100000352E+00 0. -1.
</event>
<event>
 5   0  0.4947006E-04  0.1675698E+04  0.7818609E-02  0.8775347E-01
        1   -1    0    0  501    0  0.00000000000E+00  0.00000000000E+00  0.11783951828E+04  0.11783951828E+04  0.50400001928E-02 0.  1.
       -1   -1    0    0    0  501  0.00000000000E+00  0.00000000000E+00 -0.59571757853E+03  0.59571757855E+03  0.50400001928E-02 0. -1.
    10030    2    1    2    0    0  0.00000000000E+00  0.00000000000E+00  0.58267760426E+03  0.17741127613E+04  0.16756977351E+04 0.  0.
        2    1    3    3  502    0  0.41261550008E+03  0.72854770101E+03  0.25857931588E+03  0.87629707643E+03  0.25500000920E-02 0.  1.
       -2    1    3    3    0  502 -0.41261550008E+03 -0.72854770101E+03  0.32409828839E+03  0.89781568492E+03  0.25500000920E-02 0. -1.
</event>
<event>
 5   0  0.5009762E-04  0.1851499E+04  0.7818609E-02  0.8679382E-01
        1   -1    0    0  501    0  0.00000000000E+00  0.00000000000E+00  0.14181713829E+04  0.14181713829E+04  0.50400001928E-02 0.  1.
       -1   -1    0    0    0  501  0.00000000000E+00  0.00000000000E+00 -0.60430789555E+03  0.60430789557E+03  0.50400001928E-02 0. -1.
    10030    2    1    2    0    0  0.00000000000E+00  0.00000000000E+00  0.81386348736E+03  0.20224792785E+04  0.18514990294E+04 0.  0.
        3    1    3    3  502    0 -0.25207725179E+03 -0.13003147817E+03 -0.55567386464E+03  0.62387865826E+03  0.10100000352E+00 0. -1.
       -3    1    3    3    0  502  0.25207725179E+03  0.13003147817E+03  0.13695373520E+04  0.13986006202E+04  0.10100000352E+00 0.  1.
</event>
<event>
 5   0  0.1007187E-03  0.1700362E+04  0.7818609E-02  0.8761158E-01
       -2   -1    0    0    0  501  0.00000000000E+00  0.00000000000E+00  0.31384977694E+03  0.31384977695E+03  0.25500000920E-02 0.  1.
        2   -1    0    0  501    0  0.00000000000E+00  0.00000000000E+00 -0.23030365206E+04  0.23030365206E+04  0.25500000920E-02 0. -1.
    10030    2    1    2    0    0  0.00000000000E+00  0.00000000000E+00 -0.19891867437E+04  0.26168862975E+04  0.17003617242E+04 0.  0.
        5    1    3    3  502    0  0.69410207189E+03 -0.22224853924E+03 -0.32090916209E+03  0.79635223345E+03  0.46999998093E+01 0.  1.
       -5    1    3    3    0  502 -0.69410207189E+03  0.22224853924E+03 -0.16682775816E+04  0.18205340641E+04  0.46999998093E+01 0. -1.
</event>
<event>
 5   0  0.9625225E-04  0.1683261E+04  0.7818609E-02  0.8770969E-01
       -2   -1    0    0    0  501  0.00000000000E+00  0.00000000000E+00  0.55976634783E+03  0.55976634784E+03  0.25500000920E-02 0.  1.
        2   -1    0    0  501    0  0.00000000000E+00  0.00000000000E+00 -0.12654240111E+04  0.12654240111E+04  0.25500000920E-02 0. -1.
    10030    2    1    2    0    0  0.00000000000E+00  0.00000000000E+00 -0.70565766325E+03  0.18251903589E+04  0.16832608558E+04 0.  0.
        1    1    3    3  502    0 -0.19963404672E+03 -0.78378311663E+03 -0.60520269718E+03  0.10101683183E+04  0.50400001928E-02 0. -1.
       -1    1    3    3    0  502  0.19963404672E+03  0.78378311663E+03 -0.10045496608E+03  0.81502204066E+03  0.50400001928E-02 0.  1.
</event>
<event>
 5   0  0.5074133E-04  0.1713468E+04  0.7818609E-02  0.8753720E-01
        1   -1    0    0  501    0  0.00000000000E+00  0.00000000000E+00  0.15193303181E+04  0.15193303181E+04  0.50400001928E-02 0. -1.
       -1   -1    0    0    0  501  0.00000000000E+00  0.00000000000E+00 -0.48310281816E+03  0.48310281818E+03  0.50400001928E-02 0.  1.
    10030    2    1    2    0    0  0.00000000000E+00  0.00000000000E+00  0.10362275000E+04  0.20024331363E+04  0.17134675467E+04 0.  0.
        1    1    3    3  502    0 -0.67417926817E+03 -0.33628778794E+03  0.41419400452E+02  0.75453477634E+03  0.50400001928E-02 0.  1.
       -1    1    3    3    0  502  0.67417926817E+03  0.33628778794E+03  0.99480809950E+03  0.12478983600E+04  0.50400001928E-02 0. -1.
</event>
<event>
 5   0  0.9610114E-04  0.1355600E+04  0.7818609E-02  0.8986600E-01
        2   -1    0    0  501    0  0.00000000000E+00  0.00000000000E+00  0.48537582104E+03  0.48537582104E+03  0.25500000920E-02 0.  1.
       -2   -1    0    0    0  501  0.00000000000E+00  0.00000000000E+00 -0.94650980407E+03  0.94650980407E+03  0.25500000920E-02 0. -1.
    10030    2    1    2    0    0  0.00000000000E+00  0.00000000000E+00 -0.46113398303E+03  0.14318856251E+04  0.13556001966E+04 0.  0.
        2    1    3    3  502    0 -0.75507793744E+01  0.50443278972E+02  0.48334584224E+03  0.48602956893E+03  0.25500000920E-02 0.  1.
       -2    1    3    3    0  502  0.75507793744E+01 -0.50443278972E+02 -0.94447982527E+03  0.94585605618E+03  0.25500000920E-02 0. -1.
</event>
<event>
 5   0  0.1007187E-03  0.1713497E+04  0.7818609E-02  0.8753704E-01
       -2   -1    0    0    0  501  0.00000000000E+00  0.00000000000E+00  0.62657950896E+03  0.62657950896E+03  0.25500000920E-02 0.  1.
        2   -1    0    0  501    0  0.00000000000E+00  0.00000000000E+00 -0.11714680465E+04  0.11714680465E+04  0.25500000920E-02 0. -1.
    10030    2    1    2    0    0  0.00000000000E+00  0.00000000000E+00 -0.54488853755E+03  0.17980475555E+04  0.17134968612E+04 0.  0.
        5    1    3    3  502    0  0.83823338781E+02 -0.53820252362E+03  0.42147877708E+03  0.68873417084E+03  0.46999998093E+01 0.  1.
       -5    1    3    3    0  502 -0.83823338781E+02  0.53820252362E+03 -0.96636731463E+03  0.11093133846E+04  0.46999998093E+01 0. -1.
</event>
<event>
 5   0  0.4947006E-04  0.1691371E+04  0.7818609E-02  0.8766301E-01
       -1   -1    0    0    0  501  0.00000000000E+00  0.00000000000E+00  0.58373902994E+03  0.58373902996E+03  0.50400001928E-02 0. -1.
        1   -1    0    0  501    0  0.00000000000E+00  0.00000000000E+00 -0.12251775393E+04  0.12251775393E+04  0.50400001928E-02 0.  1.
    10030    2    1    2    0    0  0.00000000000E+00  0.00000000000E+00 -0.64143850934E+03  0.18089165692E+04  0.16913709804E+04 0.  0.
        2    1    3    3  502    0 -0.21575335851E+03 -0.81231021854E+03 -0.22046824811E+03  0.86890946092E+03  0.25500000920E-02 0.  1.
       -2    1    3    3    0  502  0.21575335851E+03  0.81231021854E+03 -0.42097026123E+03  0.94000710832E+03  0.25500000920E-02 0. -1.
</event>
<event>
 5   0  0.9610114E-04  0.1683039E+04  0.7818609E-02  0.8771097E-01
       -2   -1    0    0    0  501  0.00000000000E+00  0.00000000000E+00  0.43460936887E+03  0.43460936887E+03  0.25500000920E-02 0.  1.
        2   -1    0    0  501    0  0.00000000000E+00  0.00000000000E+00 -0.16294057136E+04  0.16294057136E+04  0.25500000920E-02 0. -1.
    10030    2    1    2    0    0  0.00000000000E+00  0.00000000000E+00 -0.11947963447E+04  0.20640150825E+04  0.16830389049E+04 0.  0.
        2    1    3    3  502    0 -0.14250407312E+03  0.18575893165E+03  0.39386445651E+03  0.45819537498E+03  0.25500000920E-02 0.  1.
       -2    1    3    3    0  502  0.14250407312E+03 -0.18575893165E+03 -0.15886608012E+04  0.16058197075E+04  0.25500000920E-02 0. -1.
</event>
<event>
 5   0  0.9312096E-04  0.1762924E+04  0.7818609E-02  0.8726269E-01
       -2   -1    0    0    0  501  0.00000000000E+00  0.00000000000E+00  0.10771239894E+04  0.10771239894E+04  0.25500000920E-02 0. -1.
        2   -1    0    0  501    0  0.00000000000E+00  0.00000000000E+00 -0.72134212964E+03  0.72134212965E+03  0.25500000920E-02 0.  1.
    10030    2    1    2    0    0  0.00000000000E+00  0.00000000000E+00  0.35578185975E+03  0.17984661190E+04  0.17629236086E+04 0.  0.
        3    1    3    3  502    0 -0.81683543568E+03  0.21909782599E+03 -0.75616369360E+02  0.84908293580E+03  0.10100000352E+00 0.  1.
       -3    1    3    3    0  502  0.81683543568E+03 -0.21909782599E+03  0.43139822911E+03  0.94938318324E+03  0.10100000352E+00 0. -1.
</event>
<event>
 5   0  0.3523125E-04  0.1122981E+04  0.7818609E-02  0.9183078E-01
        3   -1    0    0  501    0  0.00000000000E+00  0.00000000000E+00  0.30287253479E+03  0.30287255163E+03  0.10100000352E+00 0.  1.
       -3   -1    0    0    0  501  0.00000000000E+00  0.00000000000E+00 -0.10409374591E+04  0.10409374640E+04  0.10100000352E+00 0. -1.
    10030    2    1    2    0    0  0.00000000000E+00  0.00000000000E+00 -0.73806492430E+03  0.13438100156E+04  0.11229806435E+04 0.  0.
        4    1    3    3  502    0  0.32321672546E+03 -0.23143132949E+03  0.10547983859E+03  0.41128715168E+03  0.12699999809E+01 0.  1.
       -4    1    3    3    0  502 -0.32321672546E+03  0.23143132949E+03 -0.84354476288E+03  0.93252286394E+03  0.12699999809E+01 0. -1.
</event>
<event>
 5   0  0.5059689E-04  0.1688691E+04  0.7818609E-02  0.8767840E-01
        1   -1    0    0  501    0  0.00000000000E+00  0.00000000000E+00  0.12415602985E+04  0.12415602986E+04  0.50400001928E-02 0.  1.
       -1   -1    0    0    0  501  0.00000000000E+00  0.00000000000E+00 -0.57421267901E+03  0.57421267904E+03  0.50400001928E-02 0. -1.
    10030    2    1    2    0    0  0.00000000000E+00  0.00000000000E+00  0.66734761953E+03  0.18157729776E+04  0.16886914049E+04 0.  0.
        5    1    3    3  502    0 -0.35101827601E+03  0.16372016198E+03  0.11403866208E+04  0.12043761275E+04  0.46999998093E+01 0.  1.
       -5    1    3    3    0  502  0.35101827601E+03 -0.16372016198E+03 -0.47303900131E+03  0.61139685008E+03  0.46999998093E+01 0. -1.
</event>
<event>
 5   0  0.9625225E-04  0.1681245E+04  0.7818609E-02  0.8772134E-01
        2   -1    0    0  501    0  0.00000000000E+00  0.00000000000E+00  0.14159829181E+04  0.14159829181E+04  0.25500000920E-02 0.  1.
       -2   -1    0    0    0  501  0.00000000000E+00  0.00000000000E+00 -0.49904975443E+03  0.49904975444E+03  0.25500000920E-02 0. -1.
    10030    2    1    2    0    0  0.00000000000E+00  0.00000000000E+00  0.91693316366E+03  0.19150326725E+04  0.16812446908E+04 0.  0.
        1    1    3    3  502    0 -0.10277746901E+03 -0.58771794267E+03 -0.21605333654E+03  0.63455073282E+03  0.50400001928E-02 0. -1.
       -1    1    3    3    0  502  0.10277746901E+03  0.58771794267E+03  0.11329865002E+04  0.12804819397E+04  0.50400001928E-02 0.  1.
</event>
<event>
 5   0  0.5035495E-04  0.1681266E+04  0.7818609E-02  0.8772122E-01
        1   -1    0    0  501    0  0.00000000000E+00  0.00000000000E+00  0.14321277444E+04  0.14321277444E+04  0.50400001928E-02 0.  1.
       -1   -1    0    0    0  501  0.00000000000E+00  0.00000000000E+00 -0.49343655524E+03  0.49343655527E+03  0.50400001928E-02 0. -1.
    10030    2    1    2    0    0  0.00000000000E+00  0.00000000000E+00  0.93869118917E+03  0.19255642997E+04  0.16812664047E+04 0.  0.
        4    1    3    3  502    0  0.19518678080E+03 -0.40112082934E+03 -0.34669329936E+03  0.56497226113E+03  0.12699999809E+01 0. -1.
       -4    1    3    3    0  502 -0.19518678080E+03  0.40112082934E+03  0.12853844885E+04  0.13605920386E+04  0.12699999809E+01 0.  1.
</event>
<event>
 5   0  0.4947006E-04  0.1689883E+04  0.7818609E-02  0.8767156E-01
       -1   -1    0    0    0  501  0.00000000000E+00  0.00000000000E+00  0.26754477187E+03  0.26754477192E+03  0.50400001928E-02 0.  1.
        1   -1    0    0  501    0  0.00000000000E+00  0.00000000000E+00 -0.26684346757E+04  0.26684346757E+04  0.50400001928E-02 0. -1.
    10030    2    1    2    0    0  0.00000000000E+00  0.00000000000E+00 -0.24008899038E+04  0.29359794476E+04  0.16898825363E+04 0.  0.
        2    1    3    3  502    0  0.58077640038E+03 -0.47815941060E+03 -0.18688040845E+04  0.20145387451E+04  0.25500000920E-02 0. -1.
       -2    1    3    3    0  502 -0.58077640038E+03  0.47815941060E+03 -0.53208581936E+03  0.92144070257E+03  0.25500000920E-02 0.  1.
</event>
<event>
 5   0  0.9284971E-04  0.1667873E+04  0.7818609E-02  0.8779903E-01
       -2   -1    0    0    0  501  0.00000000000E+00  0.00000000000E+00  0.65240523657E+03  0.65240523657E+03  0.25500000920E-02 0. -1.
        2   -1    0    0  501    0  0.00000000000E+00  0.00000000000E+00 -0.10659783571E+04  0.10659783571E+04  0.25500000920E-02 0.  1.
    10030    2    1    2    0    0  0.00000000000E+00  0.00000000000E+00 -0.41357312052E+03  0.17183835937E+04  0.16678727316E+04 0.  0.
        4    1    3    3  502    0  0.35671606006E+03 -0.63278287241E+03  0.21523760458E+03  0.75762084874E+03  0.12699999809E+01 0. -1.
       -4    1    3    3    0  502 -0.35671606006E+03  0.63278287241E+03 -0.62881072509E+03  0.96076274492E+03  0.12699999809E+01 0.  1.
</event>
<event>
 5   0  0.9610114E-04  0.1750677E+04  0.7818609E-02  0.8732978E-01
       -2   -1    0    0    0  501  0.00000000000E+00  0.00000000000E+00  0.10545082538E+04  0.10545082538E+04  0.25500000920E-02 0.  1.
        2   -1    0    0  501    0  0.00000000000E+00  0.00000000000E+00 -0.72661123010E+03  0.72661123011E+03  0.25500000920E-02 0. -1.
    10030    2    1    2    0    0  0.00000000000E+00  0.00000000000E+00  0.32789702369E+03  0.17811194839E+04  0.17506770570E+04 0.  0.
        2    1    3    3  502    0  0.76006901862E+03 -0.28057048237E+03  0.50106035149E+03  0.95262069287E+03  0.25500000920E-02 0.  1.
       -2    1    3    3    0  502 -0.76006901862E+03  0.28057048237E+03 -0.17316332780E+03  0.82849879104E+03  0.25500000920E-02 0. -1.
</event>
<event>
 5   0  0.9312096E-04  0.1709063E+04  0.7818609E-02  0.8756212E-01
       -2   -1    0    0    0  501  0.00000000000E+00  0.00000000000E+00  0.46970436517E+03  0.46970436518E+03  0.25500000920E-02 0. -1.
        2   -1    0    0  501    0  0.00000000000E+00  0.00000000000E+00 -0.15546457667E+04  0.15546457667E+04  0.25500000920E-02 0.  1.
    10030    2    1    2    0    0  0.00000000000E+00  0.00000000000E+00 -0.10849414016E+04  0.20243501319E+04  0.17090627875E+04 0.  0.
        3    1    3    3  502    0  0.78623793476E+03  0.33304609937E+03 -0.58235968488E+03  0.10335533886E+04  0.10100000352E+00 0. -1.
       -3    1    3    3    0  502 -0.78623793476E+03 -0.33304609937E+03 -0.50258171669E+03  0.99079674329E+03  0.10100000352E+00 0.  1.
</event>
<event>
 5   0  0.3523125E-04  0.1689407E+04  0.7818609E-02  0.8767429E-01
       -4   -1    0    0    0  501  0.00000000000E+00  0.00000000000E+00  0.18629798384E+04  0.18629802713E+04  0.12699999809E+01 0. -1.
        4   -1    0    0  501    0  0.00000000000E+00  0.00000000000E+00 -0.38300004222E+03  0.38300214783E+03  0.12699999809E+01 0.  1.
    10030    2    1    2    0    0  0.00000000000E+00  0.00000000000E+00  0.14799797962E+04  0.22459824191E+04  0.16894072422E+04 0.  0.
        5    1    3    3  502    0  0.56431044049E+03  0.24064681088E+03 -0.31944394458E+02  0.61432865404E+03  0.46999998093E+01 0.  1.
       -5    1    3    3    0  502 -0.56431044049E+03 -0.24064681088E+03  0.15119241906E+04  0.16316537651E+04  0.46999998093E+01 0. -1.
</event>
<event>
 5   0  0.9284971E-04  0.1722101E+04  0.7818609E-02  0.8748859E-01
        2   -1    0    0  501    0  0.00000000000E+00  0.00000000000E+00  0.64386396489E+03  0.64386396490E+03  0.25500000920E-02 0. -1.
       -2   -1    0    0    0  501  0.00000000000E+00  0.00000000000E+00 -0.11514981055E+04  0.11514981055E+04  0.25500000920E-02 0.  1.
    10030    2    1    2    0    0  0.00000000000E+00  0.00000000000E+00 -0.50763414064E+03  0.17953620704E+04  0.17221012000E+04 0.  0.
        4    1    3    3  502    0  0.79645075365E+03  0.17352178705E+02  0.86843050592E+02  0.80136023699E+03  0.12699999809E+01 0.  1.
       -4    1    3    3    0  502 -0.79645075365E+03 -0.17352178705E+02 -0.59447719123E+03  0.99400183344E+03  0.12699999809E+01 0. -1.
</event>
<event>
 5   0  0.9312096E-04  0.8514226E+03  0.7818609E-02  0.9488430E-01
       -2   -1    0    0    0  501  0.00000000000E+00  0.00000000000E+00  0.19753750229E+03  0.19753750231E+03  0.25500000920E-02 0.  1.
        2   -1    0    0  501    0  0.00000000000E+00  0.00000000000E+00 -0.91744649858E+03  0.91744649859E+03  0.25500000920E-02 0. -1.
    10030    2    1    2    0    0  0.00000000000E+00  0.00000000000E+00 -0.71990899629E+03  0.11149840009E+04  0.85142255038E+03 0.  0.
        3    1    3    3  502    0 -0.14353546256E+03  0.33783028416E+03 -0.64233990986E+03  0.73981909945E+03  0.10100000352E+00 0. -1.
       -3    1    3    3    0  502  0.14353546256E+03 -0.33783028416E+03 -0.77569086434E+02  0.37516490145E+03  0.10100000352E+00 0.  1.
</event>
<event>
 5   0  0.5009762E-04  0.1672031E+04  0.7818609E-02  0.8777479E-01
       -1   -1    0    0    0  501  0.00000000000E+00  0.00000000000E+00  0.49421886582E+03  0.49421886585E+03  0.50400001928E-02 0.  1.
        1   -1    0    0  501    0  0.00000000000E+00  0.00000000000E+00 -0.14141955156E+04  0.14141955156E+04  0.50400001928E-02 0. -1.
    10030    2    1    2    0    0  0.00000000000E+00  0.00000000000E+00 -0.91997664978E+03  0.19084143815E+04  0.16720312244E+04 0.  0.
        3    1    3    3  502    0 -0.43110384283E+02  0.18631368848E+03  0.46891887515E+03  0.50641506437E+03  0.10100000352E+00 0.  1.
       -3    1    3    3    0  502  0.43110384283E+02 -0.18631368848E+03 -0.13888955249E+04  0.14019993171E+04  0.10100000352E+00 0. -1.
</event>
<event>
 5   0  0.9312096E-04  0.1676010E+04  0.7818609E-02  0.8775166E-01
        2   -1    0    0  501    0  0.00000000000E+00  0.00000000000E+00  0.87553419364E+03  0.87553419365E+03  0.25500000920E-02 0. -1.
       -2   -1    0    0    0  501  0.00000000000E+00  0.00000000000E+00 -0.80208479773E+03  0.80208479774E+03  0.25500000920E-02 0.  1.
    10030    2    1    2    0    0  0.00000000000E+00  0.00000000000E+00  0.73449395910E+02  0.16776189914E+04  0.16760103420E+04 0.  0.
        3    1    3    3  502    0 -0.17812362807E+02 -0.76117026272E+03  0.38713956540E+03  0.85415133461E+03  0.10100000352E+00 0. -1.
       -3    1    3    3    0  502  0.17812362807E+02  0.76117026272E+03 -0.31369016949E+03  0.82346765677E+03  0.10100000352E+00 0.  1.
</event>
<event>
 5   0  0.4947006E-04  0.1667114E+04  0.7818609E-02  0.8780346E-01
       -1   -1    0    0    0  501  0.00000000000E+00  0.00000000000E+00  0.51053672735E+03  0.51053672737E+03  0.50400001928E-02 0.  1.
        1   -1    0    0  501    0  0.00000000000E+00  0.00000000000E+00 -0.13609541902E+04  0.13609541902E+04  0.50400001928E-02 0. -1.
    10030    2    1    2    0    0  0.00000000000E+00  0.00000000000E+00 -0.85041746286E+03  0.18714909176E+04  0.16671137914E+04 0.  0.
        2    1    3    3  502    0  0.78912618938E+03 -0.17561684547E+03 -0.19719324203E+03  0.83213375961E+03  0.25500000920E-02 0.  1.
       -2    1    3    3    0  502 -0.78912618938E+03  0.17561684547E+03 -0.65322422084E+03  0.10393571580E+04  0.25500000920E-02 0. -1.
</event>
<event>
 5   0  0.5074133E-04  0.1692141E+04  0.7818609E-02  0.8765859E-01
       -1   -1    0    0    0  501  0.00000000000E+00  0.00000000000E+00  0.89920324770E+03  0.89920324771E+03  0.50400001928E-02 0. -1.
        1   -1    0    0  501    0  0.00000000000E+00  0.00000000000E+00 -0.79607713545E+03  0.79607713546E+03  0.50400001928E-02 0.  1.
    10030    2    1    2    0    0  0.00000000000E+00  0.00000000000E+00  0.10312611225E+03  0.16952803832E+04  0.16921408282E+04 0.  0.
        1    1    3    3  502    0 -0.83485610681E+03  0.12374961000E+03 -0.80154270316E+01  0.84401595491E+03  0.50400001928E-02 0.  1.
       -1    1    3    3    0  502  0.83485610681E+03 -0.12374961000E+03  0.11114153929E+03  0.85126442826E+03  0.50400001928E-02 0. -1.
</event>
<event>
 5   0  0.9284971E-04  0.1707478E+04  0.7818609E-02  0.8757111E-01
       -2   -1    0    0    0  501  0.00000000000E+00  0.00000000000E+00  0.87594994576E+03  0.87594994577E+03  0.25500000920E-02 0.  1.
        2   -1    0    0  501    0  0.00000000000E+00  0.00000000000E+00 -0.83209166891E+03  0.83209166891E+03  0.25500000920E-02 0. -1.
    10030    2    1    2    0    0  0.00000000000E+00  0.00000000000E+00  0.43858276853E+02  0.17080416147E+04  0.17074784359E+04 0.  0.
        4    1    3    3  502    0  0.79638139740E+03 -0.30758399017E+03  0.28079192446E+02  0.85417872549E+03  0.12699999809E+01 0.  1.
       -4    1    3    3    0  502 -0.79638139740E+03  0.30758399017E+03  0.15779084407E+02  0.85386288919E+03  0.12699999809E+01 0. -1.
</event>
<event>
 5   0  0.9284971E-04  0.1257720E+04  0.7818609E-02  0.9063782E-01
        2   -1    0    0  501    0  0.00000000000E+00  0.00000000000E+00  0.30345354218E+03  0.30345354220E+03  0.25500000920E-02 0.  1.
       -2   -1    0    0    0  501  0.00000000000E+00  0.00000000000E+00 -0.13032147881E+04  0.13032147881E+04  0.25500000920E-02 0. -1.
    10030    2    1    2    0    0  0.00000000000E+00  0.00000000000E+00 -0.99976124589E+03  0.16066683303E+04  0.12577203881E+04 0.  0.
        4    1    3    3  502    0  0.49724956549E+03  0.21826288555E+01 -0.81031489745E+01  0.49732199647E+03  0.12699999809E+01 0.  1.
       -4    1    3    3    0  502 -0.49724956549E+03 -0.21826288555E+01 -0.99165809691E+03  0.11093463338E+04  0.12699999809E+01 0. -1.
</event>
<event>
 5   0  0.9284971E-04  0.1694339E+04  0.7818609E-02  0.8764599E-01
       -2   -1    0    0    0  501  0.00000000000E+00  0.00000000000E+00  0.94762283216E+03  0.94762283216E+03  0.25500000920E-02 0. -1.
        2   -1    0    0  501    0  0.00000000000E+00  0.00000000000E+00 -0.75736499837E+03  0.75736499837E+03  0.25500000920E-02 0.  1.
    10030    2    1    2    0    0  0.00000000000E+00  0.00000000000E+00  0.19025783379E+03  0.17049878305E+04  0.16943392396E+04 0.  0.
        4    1    3    3  502    0  0.50244112841E+02 -0.61770377035E+03 -0.48609297441E+03  0.78763596379E+03  0.12699999809E+01 0.  1.
       -4    1    3    3    0  502 -0.50244112841E+02  0.61770377035E+03  0.67635080820E+03  0.91735186675E+03  0.12699999809E+01 0. -1.
</event>
<event>
 5   0  0.5074133E-04  0.1558608E+04  0.7818609E-02  0.8846388E-01
        1   -1    0    0  501    0  0.00000000000E+00  0.00000000000E+00  0.71668647511E+03  0.71668647513E+03  0.50400001928E-02 0.  1.
       -1   -1    0    0    0  501  0.00000000000E+00  0.00000000000E+00 -0.84739260449E+03  0.84739260450E+03  0.50400001928E-02 0. -1.
    10030    2    1    2    0    0  0.00000000000E+00  0.00000000000E+00 -0.13070612938E+03  0.15640790796E+04  0.15586081211E+04 0.  0.
        1    1    3    3  502    0 -0.57131106407E+03 -0.36868783186E+03 -0.44746223159E+03  0.81397143562E+03  0.50400001928E-02 0. -1.
       -1    1    3    3    0  502  0.57131106407E+03  0.36868783186E+03  0.31675610221E+03  0.75010764401E+03  0.50400001928E-02 0.  1.
</event>
<event>
 5   0  0.9312096E-04  0.1695855E+04  0.7818609E-02  0.8763732E-01
        2   -1    0    0  501    0  0.00000000000E+00  0.00000000000E+00  0.15453675633E+04  0.15453675633E+04  0.25500000920E-02 0.  1.
       -2   -1    0    0    0  501  0.00000000000E+00  0.00000000000E+00 -0.46524945665E+03  0.46524945666E+03  0.25500000920E-02 0. -1.
    10030    2    1    2    0    0  0.00000000000E+00  0.00000000000E+00  0.10801181066E+04  0.20106170199E+04  0.16958554409E+04 0.  0.
        3    1    3    3  502    0  0.50244153736E+03  0.61895559994E+03  0.88250822365E+03  0.11892746984E+04  0.10100000352E+00 0. -1.
       -3    1    3    3    0  502 -0.50244153736E+03 -0.61895559994E+03  0.19760988299E+03  0.82134232158E+03  0.10100000352E+00 0.  1.
</event>
<event>
 5   0  0.9625225E-04  0.1764456E+04  0.7818609E-02  0.8725433E-01
        2   -1    0    0  501    0  0.00000000000E+00  0.00000000000E+00  0.88573061757E+03  0.88573061758E+03  0.25500000920E-02 0.  1.
       -2   -1    0    0    0  501  0.00000000000E+00  0.00000000000E+00 -0.87873886170E+03  0.87873886170E+03  0.25500000920E-02 0. -1.
    10030    2    1    2    0    0  0.00000000000E+00  0.00000000000E+00  0.69917558777E+01  0.17644694793E+04  0.17644556267E+04 0.  0.
        1    1    3    3  502    0 -0.18585274551E+03 -0.59937180534E+03  0.62361211587E+03  0.88469196624E+03  0.50400001928E-02 0.  1.
       -1    1    3    3    0  502  0.18585274551E+03  0.59937180534E+03 -0.61662035999E+03  0.87977751303E+03  0.50400001928E-02 0. -1.
</event>
<event>
 5   0  0.3523125E-04  0.1742820E+04  0.7818609E-02  0.8737312E-01
       -4   -1    0    0    0  501  0.00000000000E+00  0.00000000000E+00  0.96585118477E+03  0.96585201974E+03  0.12699999809E+01 0.  1.
        4   -1    0    0  501    0  0.00000000000E+00  0.00000000000E+00 -0.78620183344E+03  0.78620285919E+03  0.12699999809E+01 0. -1.
    10030    2    1    2    0    0  0.00000000000E+00  0.00000000000E+00  0.17964935133E+03  0.17520548789E+04  0.17428202459E+04 0.  0.
        5    1    3    3  502    0  0.21918299227E+03  0.46837458232E+03 -0.61526000709E+03  0.80373061394E+03  0.46999998093E+01 0. -1.
       -5    1    3    3    0  502 -0.21918299227E+03 -0.46837458232E+03  0.79490935842E+03  0.94832426499E+03  0.46999998093E+01 0.  1.
</event>
<event>
 5   0  0.5074133E-04  0.1680140E+04  0.7818609E-02  0.8772773E-01
       -1   -1    0    0    0  501  0.00000000000E+00  0.00000000000E+00  0.50897612011E+03  0.50897612014E+03  0.50400001928E-02 0. -1.
        1   -1    0    0  501    0  0.00000000000E+00  0.00000000000E+00 -0.13865438121E+04  0.13865438121E+04  0.50400001928E-02 0.  1.
    10030    2    1    2    0    0  0.00000000000E+00  0.00000000000E+00 -0.87756769200E+03  0.18955199323E+04  0.16801401012E+04 0.  0.
        1    1    3    3  502    0 -0.17121796285E+03 -0.28274522118E+03 -0.13100934778E+04  0.13511496481E+04  0.50400001928E-02 0.  1.
       -1    1    3    3    0  502  0.17121796285E+03  0.28274522118E+03  0.43252578579E+03  0.54437028419E+03  0.50400001928E-02 0. -1.
</event>
<event>
 5   0  0.4947006E-04  0.1688457E+04  0.7818609E-02  0.8767975E-01
       -1   -1    0    0    0  501  0.00000000000E+00  0.00000000000E+00  0.15957513470E+04  0.15957513470E+04  0.50400001928E-02 0.  1.
        1   -1    0    0  501    0  0.00000000000E+00  0.00000000000E+00 -0.44663710610E+03  0.44663710613E+03  0.50400001928E-02 0. -1.
    10030    2    1    2    0    0  0.00000000000E+00  0.00000000000E+00  0.11491142409E+04  0.20423884531E+04  0.16884570041E+04 0.  0.
        2    1    3    3  502    0  0.51000794984E+03 -0.49855123918E+03  0.11209784185E+04  0.13286286395E+04  0.25500000920E-02 0.  1.
       -2    1    3    3    0  502 -0.51000794984E+03  0.49855123918E+03  0.28135822381E+02  0.71375981360E+03  0.25500000920E-02 0. -1.
</event>
<event>
 5   0  0.9312096E-04  0.1705829E+04  0.7818609E-02  0.8758047E-01
        2   -1    0    0  501    0  0.00000000000E+00  0.00000000000E+00  0.18750736122E+04  0.18750736122E+04  0.25500000920E-02 0.  1.
       -2   -1    0    0    0  501  0.00000000000E+00  0.00000000000E+00 -0.38796511062E+03  0.38796511062E+03  0.25500000920E-02 0. -1.
    10030    2    1    2    0    0  0.00000000000E+00  0.00000000000E+00  0.14871085016E+04  0.22630387228E+04  0.17058289966E+04 0.  0.
        3    1    3    3  502    0  0.46511548120E+03 -0.68256948286E+03  0.46141210244E+03  0.94611555756E+03  0.10100000352E+00 0.  1.
       -3    1    3    3    0  502 -0.46511548120E+03  0.68256948286E+03  0.10256963991E+04  0.13169231653E+04  0.10100000352E+00 0. -1.
</event>
<event>
 5   0  0.4947006E-04  0.1475972E+04  0.7818609E-02  0.8900590E-01
        1   -1    0    0  501    0  0.00000000000E+00  0.00000000000E+00  0.94819294199E+03  0.94819294200E+03  0.50400001928E-02 0. -1.
       -1   -1    0    0    0  501  0.00000000000E+00  0.00000000000E+00 -0.57438014088E+03  0.57438014090E+03  0.50400001928E-02 0.  1.
    10030    2    1    2    0    0  0.00000000000E+00  0.00000000000E+00  0.37381280111E+03  0.15225730829E+04  0.14759718095E+04 0.  0.
        2    1    3    3  502    0 -0.64711393092E+03 -0.12575854637E+03  0.52912070198E+03  0.84530489698E+03  0.25500000920E-02 0. -1.
       -2    1    3    3    0  502  0.64711393092E+03  0.12575854637E+03 -0.15530790088E+03  0.67726818592E+03  0.25500000920E-02 0.  1.
</event>
<event>
 5   0  0.9284971E-04  0.1706712E+04  0.7818609E-02  0.8757545E-01
       -2   -1    0    0    0  501  0.00000000000E+00  0.00000000000E+00  0.70528698694E+03  0.70528698694E+03  0.25500000920E-02 0.  1.
        2   -1    0    0  501    0  0.00000000000E+00  0.00000000000E+00 -0.10325110323E+04  0.10325110323E+04  0.25500000920E-02 0. -1.
    10030    2    1    2    0    0  0.00000000000E+00  0.00000000000E+00 -0.32722404531E+03  0.17377980192E+04  0.17067121549E+04 0.  0.
        4    1    3    3  502    0  0.55947999667E+03 -0.45151345436E+03  0.30447045460E+03  0.78075997384E+03  0.12699999809E+01 0.  1.
       -4    1    3    3    0  502 -0.55947999667E+03  0.45151345436E+03 -0.63169449991E+03  0.95703804535E+03  0.12699999809E+01 0. -1.
</event>
<event>
 5   0  0.5009762E-04  0.1151869E+04  0.7818609E-02  0.9156061E-01
        1   -1    0    0  501    0  0.00000000000E+00  0.00000000000E+00  0.12166801322E+04  0.12166801322E+04  0.50400001928E-02 0. -1.
       -1   -1    0    0    0  501  0.00000000000E+00  0.00000000000E+00 -0.27262736262E+03  0.27262736266E+03  0.50400001928E-02 0.  1.
    10030    2    1    2    0    0  0.00000000000E+00  0.00000000000E+00  0.94405276957E+03  0.14893074949E+04  0.11518685613E+04 0.  0.
        3    1    3    3  502    0 -0.35349564919E+03  0.42386608478E+03  0.25926393439E+03  0.60978638038E+03  0.10100000352E+00 0.  1.
       -3    1    3    3    0  502  0.35349564919E+03 -0.42386608478E+03  0.68478883518E+03  0.87952111448E+03  0.10100000352E+00 0. -1.
</event>
<event>
 5   0  0.5074133E-04  0.1551091E+04  0.7818609E-02  0.8851171E-01
        1   -1    0    0  501    0  0.00000000000E+00  0.00000000000E+00  0.13675306147E+04  0.13675306147E+04  0.50400001928E-02 0.  1.
       -1   -1    0    0    0  501  0.00000000000E+00  0.00000000000E+00 -0.43982265604E+03  0.43982265607E+03  0.50400001928E-02 0. -1.
    10030    2    1    2    0    0  0.00000000000E+00  0.00000000000E+00  0.92770795862E+03  0.18073532707E+04  0.15510911607E+04 0.  0.
        1    1    3    3  502    0 -0.23058912844E+03  0.27049946789E+03 -0.33932399064E+03  0.49140826096E+03  0.50400001928E-02 0. -1.
       -1    1    3    3    0  502  0.23058912844E+03 -0.27049946789E+03  0.12670319493E+04  0.13159450098E+04  0.50400001928E-02 0.  1.
</event>
<event>
 5   0  0.9284971E-04  0.1752923E+04  0.7818609E-02  0.8731743E-01
       -2   -1    0    0    0  501  0.00000000000E+00  0.00000000000E+00  0.12443112660E+04  0.12443112660E+04  0.25500000920E-02 0. -1.
        2   -1    0    0  501    0  0.00000000000E+00  0.00000000000E+00 -0.61735754793E+03  0.61735754794E+03  0.25500000920E-02 0.  1.
    10030    2    1    2    0    0  0.00000000000E+00  0.00000000000E+00  0.62695371809E+03  0.18616688140E+04  0.17529232180E+04 0.  0.
        4    1    3    3  502    0  0.65208115864E+03 -0.22952513486E+03  0.88568871268E+03  0.11235380428E+04  0.12699999809E+01 0. -1.
       -4    1    3    3    0  502 -0.65208115864E+03  0.22952513486E+03 -0.25873499459E+03  0.73813077114E+03  0.12699999809E+01 0.  1.
</event>
<event>
 5   0  0.1007187E-03  0.1665125E+04  0.7818609E-02  0.8781508E-01
        2   -1    0    0  501    0  0.00000000000E+00  0.00000000000E+00  0.22177543319E+04  0.22177543319E+04  0.25500000920E-02 0.  1.
       -2   -1    0    0    0  501  0.00000000000E+00  0.00000000000E+00 -0.31255070450E+03  0.31255070451E+03  0.25500000920E-02 0. -1.
    10030    2    1    2    0    0  0.00000000000E+00  0.00000000000E+00  0.19052036274E+04  0.25303050364E+04  0.16651254353E+04 0.  0.
        5    1    3    3  502    0 -0.42140565140E+03  0.18484015972E+03  0.20069266782E+04  0.20590107793E+04  0.46999998093E+01 0.  1.
       -5    1    3    3    0  502  0.42140565140E+03 -0.18484015972E+03 -0.10172305083E+03  0.47129425707E+03  0.46999998093E+01 0. -1.
</event>
<event>
 5   0  0.4947006E-04  0.1688558E+04  0.7818609E-02  0.8767917E-01
       -1   -1    0    0    0  501  0.00000000000E+00  0.00000000000E+00  0.72492118552E+03  0.72492118554E+03  0.50400001928E-02 0.  1.
        1   -1    0    0  501    0  0.00000000000E+00  0.00000000000E+00 -0.98328908150E+03  0.98328908152E+03  0.50400001928E-02 0. -1.
    10030    2    1    2    0    0  0.00000000000E+00  0.00000000000E+00 -0.25836789598E+03  0.17082102671E+04  0.16885580673E+04 0.  0.
        2    1    3    3  502    0  0.62816273585E+03  0.44448645352E+03  0.22220638755E+03  0.80095712042E+03  0.25500000920E-02 0.  1.
       -2    1    3    3    0  502 -0.62816273585E+03 -0.44448645352E+03 -0.48057428353E+03  0.90725314663E+03  0.25500000920E-02 0. -1.
</event>
<event>
 5   0  0.4947006E-04  0.1702916E+04  0.7818609E-02  0.8759703E-01
        1   -1    0    0  501    0  0.00000000000E+00  0.00000000000E+00  0.90155843113E+03  0.90155843115E+03  0.50400001928E-02 0.  1.
       -1   -1    0    0    0  501  0.00000000000E+00  0.00000000000E+00 -0.80414206614E+03  0.80414206616E+03  0.50400001928E-02 0. -1.
    10030    2    1    2    0    0  0.00000000000E+00  0.00000000000E+00  0.97416364992E+02  0.17057004973E+04  0.17029163921E+04 0.  0.
        2    1    3    3  502    0 -0.15751540552E+03  0.71172580878E+03  0.48944612681E+03  0.87802177702E+03  0.25500000920E-02 0.  1.
       -2    1    3    3    0  502  0.15751540552E+03 -0.71172580878E+03 -0.39202976182E+03  0.82767872029E+03  0.25500000920E-02 0. -1.
</event>
<event>
 5   0  0.5074133E-04  0.1721901E+04  0.7818609E-02  0.8748971E-01
       -1   -1    0    0    0  501  0.00000000000E+00  0.00000000000E+00  0.34031180239E+03  0.34031180243E+03  0.50400001928E-02 0. -1.
        1   -1    0    0  501    0  0.00000000000E+00  0.00000000000E+00 -0.21781085875E+04  0.21781085875E+04  0.50400001928E-02 0.  1.
    10030    2    1    2    0    0  0.00000000000E+00  0.00000000000E+00 -0.18377967851E+04  0.25184203899E+04  0.17219013436E+04 0.  0.
        1    1    3    3  502    0  0.65725916694E+03  0.54909201567E+03 -0.79018788837E+03  0.11652847520E+04  0.50400001928E-02 0.  1.
       -1    1    3    3    0  502 -0.65725916694E+03 -0.54909201567E+03 -0.10476088967E+04  0.13531356380E+04  0.50400001928E-02 0. -1.
</event>
<event>
 5   0  0.5059689E-04  0.1692059E+04  0.7818609E-02  0.8765906E-01
        1   -1    0    0  501    0  0.00000000000E+00  0.00000000000E+00  0.12247768476E+04  0.12247768476E+04  0.50400001928E-02 0.  1.
       -1   -1    0    0    0  501  0.00000000000E+00  0.00000000000E+00 -0.58440536036E+03  0.58440536038E+03  0.50400001928E-02 0. -1.
    10030    2    1    2    0    0  0.00000000000E+00  0.00000000000E+00  0.64037148723E+03  0.18091822080E+04  0.16920592838E+04 0.  0.
        5    1    3    3  502    0  0.17257624414E+03 -0.78466400227E+03  0.60360730426E+03  0.10049099583E+04  0.46999998093E+01 0.  1.
       -5    1    3    3    0  502 -0.17257624414E+03  0.78466400227E+03  0.36764182974E+02  0.80427224971E+03  0.46999998093E+01 0. -1.
</event>
<event>
 5   0  0.5009762E-04  0.1071875E+04  0.7818609E-02  0.9233046E-01
       -1   -1    0    0    0  501  0.00000000000E+00  0.00000000000E+00  0.91974007742E+03  0.91974007743E+03  0.50400001928E-02 0.  1.
        1   -1    0    0  501    0  0.00000000000E+00  0.00000000000E+00 -0.31229390379E+03  0.31229390384E+03  0.50400001928E-02 0. -1.
    10030    2    1    2    0    0  0.00000000000E+00  0.00000000000E+00  0.60744617362E+03  0.12320339813E+04  0.10718754019E+04 0.  0.
        3    1    3    3  502    0 -0.11846683647E+03  0.17568291169E+03  0.86954826754E+03  0.89499333885E+03  0.10100000352E+00 0.  1.
       -3    1    3    3    0  502  0.11846683647E+03 -0.17568291169E+03 -0.26210209392E+03  0.33704064242E+03  0.10100000352E+00 0. -1.
</event>
<event>
 5   0  0.9625225E-04  0.1191238E+04  0.7818609E-02  0.9120561E-01
       -2   -1    0    0    0  501  0.00000000000E+00  0.00000000000E+00  0.52277641372E+03  0.52277641372E+03  0.25500000920E-02 0.  1.
        2   -1    0    0  501    0  0.00000000000E+00  0.00000000000E+00 -0.67861076798E+03  0.67861076798E+03  0.25500000920E-02 0. -1.
    10030    2    1    2    0    0  0.00000000000E+00  0.00000000000E+00 -0.15583435426E+03  0.12013871817E+04  0.11912375138E+04 0.  0.
        1    1    3    3  502    0 -0.11872744882E+03 -0.54401562635E+03 -0.29117210888E+03  0.62835531814E+03  0.50400001928E-02 0. -1.
       -1    1    3    3    0  502  0.11872744882E+03  0.54401562635E+03  0.13533775462E+03  0.57303186357E+03  0.50400001928E-02 0.  1.
</event>
<event>
 5   0  0.5059689E-04  0.1538550E+04  0.7818609E-02  0.8859215E-01
        1   -1    0    0  501    0  0.00000000000E+00  0.00000000000E+00  0.12727996303E+04  0.12727996304E+04  0.50400001928E-02 0. -1.
       -1   -1    0    0    0  501  0.00000000000E+00  0.00000000000E+00 -0.46494675174E+03  0.46494675177E+03  0.50400001928E-02 0.  1.
    10030    2    1    2    0    0  0.00000000000E+00  0.00000000000E+00  0.80785287860E+03  0.17377463821E+04  0.15385500366E+04 0.  0.
        5    1    3    3  502    0  0.34403983378E+03  0.64538944442E+03  0.67327848783E+03  0.99409101916E+03  0.46999998093E+01 0.  1.
       -5    1    3    3    0  502 -0.34403983378E+03 -0.64538944442E+03  0.13457439077E+03  0.74365536295E+03  0.46999998093E+01 0. -1.
</event>
<event>
 5   0  0.5074133E-04  0.1606863E+04  0.7818609E-02  0.8816343E-01
        1   -1    0    0  501    0  0.00000000000E+00  0.00000000000E+00  0.14641843496E+04  0.14641843496E+04  0.50400001928E-02 0.  1.
       -1   -1    0    0    0  501  0.00000000000E+00  0.00000000000E+00 -0.44086100552E+03  0.44086100555E+03  0.50400001928E-02 0. -1.
    10030    2    1    2    0    0  0.00000000000E+00  0.00000000000E+00  0.10233233441E+04  0.19050453552E+04  0.16068625139E+04 0.  0.
        1    1    3    3  502    0 -0.23504579449E+03 -0.26480422037E+03  0.13666973081E+04  0.14118177406E+04  0.50400001928E-02 0.  1.
       -1    1    3    3    0  502  0.23504579449E+03  0.26480422037E+03 -0.34337396399E+03  0.49322761460E+03  0.50400001928E-02 0. -1.
</event>
<event>
 5   0  0.5074133E-04  0.1135122E+04  0.7818609E-02  0.9171620E-01
        1   -1    0    0  501    0  0.00000000000E+00  0.00000000000E+00  0.14208407789E+04  0.14208407789E+04  0.50400001928E-02 0.  1.
       -1   -1    0    0    0  501  0.00000000000E+00  0.00000000000E+00 -0.22671479526E+03  0.22671479531E+03  0.50400001928E-02 0. -1.
    10030    2    1    2    0    0  0.00000000000E+00  0.00000000000E+00  0.11941259837E+04  0.16475555742E+04  0.11351222425E+04 0.  0.
        1    1    3    3  502    0  0.45675495813E+03  0.24840353856E+03  0.92739180589E+03  0.10631956412E+04  0.50400001928E-02 0.  1.
       -1    1    3    3    0  502 -0.45675495813E+03 -0.24840353856E+03  0.26673417776E+03  0.58435993306E+03  0.50400001928E-02 0. -1.
</event>
<event>
 5   0  0.5035495E-04  0.1689400E+04  0.7818609E-02  0.8767433E-01
       -1   -1    0    0    0  501  0.00000000000E+00  0.00000000000E+00  0.69893222640E+03  0.69893222642E+03  0.50400001928E-02 0. -1.
        1   -1    0    0  501    0  0.00000000000E+00  0.00000000000E+00 -0.10208691436E+04  0.10208691436E+04  0.50400001928E-02 0.  1.
    10030    2    1    2    0    0  0.00000000000E+00  0.00000000000E+00 -0.32193691722E+03  0.17198013701E+04  0.16894003000E+04 0.  0.
        4    1    3    3  502    0  0.28159005358E+03 -0.67548879161E+02 -0.96875961419E+03  0.10111145397E+04  0.12699999809E+01 0.  1.
       -4    1    3    3    0  502 -0.28159005358E+03  0.67548879161E+02  0.64682269697E+03  0.70868683039E+03  0.12699999809E+01 0. -1.
</event>
<event>
 5   0  0.5009762E-04  0.1723905E+04  0.7818609E-02  0.8747847E-01
       -1   -1    0    0    0  501  0.00000000000E+00  0.00000000000E+00  0.57589115643E+03  0.57589115645E+03  0.50400001928E-02 0. -1.
        1   -1    0    0  501    0  0.00000000000E+00  0.00000000000E+00 -0.12901088217E+04  0.12901088218E+04  0.50400001928E-02 0.  1.
    10030    2    1    2    0    0  0.00000000000E+00  0.00000000000E+00 -0.71421766532E+03  0.18659999782E+04  0.17239051729E+04 0.  0.
        3    1    3    3  502    0  0.59574897235E+02 -0.40542344515E+03  0.46371346281E+03  0.61882753982E+03  0.10100000352E+00 0. -1.
       -3    1    3    3    0  502 -0.59574897235E+02  0.40542344515E+03 -0.11779311281E+04  0.12471724384E+04  0.10100000352E+00 0.  1.
</event>
<event>
 5   0  0.9625225E-04  0.1649338E+04  0.7818609E-02  0.8790798E-01
       -2   -1    0    0    0  501  0.00000000000E+00  0.00000000000E+00  0.13189666916E+04  0.13189666916E+04  0.25500000920E-02 0. -1.
        2   -1    0    0  501    0  0.00000000000E+00  0.00000000000E+00 -0.51561479867E+03  0.51561479868E+03  0.25500000920E-02 0.  1.
    10030    2    1    2    0    0  0.00000000000E+00  0.00000000000E+00  0.80335189290E+03  0.18345814903E+04  0.16493377400E+04 0.  0.
        1    1    3    3  502    0  0.16291137526E+02  0.55379080471E+03  0.10811251040E+04  0.12148173308E+04  0.50400001928E-02 0. -1.
       -1    1    3    3    0  502 -0.16291137526E+02 -0.55379080471E+03 -0.27777321113E+03  0.61976415949E+03  0.50400001928E-02 0.  1.
</event>
<event>
 5   0  0.9312096E-04  0.1695592E+04  0.7818609E-02  0.8763882E-01
        2   -1    0    0  501    0  0.00000000000E+00  0.00000000000E+00  0.10821277689E+04  0.10821277689E+04  0.25500000920E-02 0. -1.
       -2   -1    0    0    0  501  0.00000000000E+00  0.00000000000E+00 -0.66420838521E+03  0.66420838522E+03  0.25500000920E-02 0.  1.
    10030    2    1    2    0    0  0.00000000000E+00  0.00000000000E+00  0.41791938368E+03  0.17463361541E+04  0.16955923307E+04 0.  0.
        3    1    3    3  502    0 -0.30822192119E+03  0.78856393970E+03  0.25414154241E+03  0.88398064089E+03  0.10100000352E+00 0.  1.
       -3    1    3    3    0  502  0.30822192119E+03 -0.78856393970E+03  0.16377784128E+03  0.86235551322E+03  0.10100000352E+00 0. -1.
</event>
<event>
 5   0  0.5009762E-04  0.1698272E+04  0.7818609E-02  0.8762350E-01
       -1   -1    0    0    0  501  0.00000000000E+00  0.00000000000E+00  0.28086753284E+03  0.28086753288E+03  0.50400001928E-02 0.  1.
        1   -1    0    0  501    0  0.00000000000E+00  0.00000000000E+00 -0.25671607283E+04  0.25671607283E+04  0.50400001928E-02 0. -1.
    10030    2    1    2    0    0  0.00000000000E+00  0.00000000000E+00 -0.22862931954E+04  0.28480282612E+04  0.16982721810E+04 0.  0.
        3    1    3    3  502    0  0.19317636938E+03 -0.60441878573E+03 -0.19686870454E+03  0.66437675701E+03  0.10100000352E+00 0.  1.
       -3    1    3    3    0  502 -0.19317636938E+03  0.60441878573E+03 -0.20894244909E+04  0.21836515041E+04  0.10100000352E+00 0. -1.
</event>
<event>
 5   0  0.3523125E-04  0.1601305E+04  0.7818609E-02  0.8819747E-01
        4   -1    0    0  501    0  0.00000000000E+00  0.00000000000E+00  0.11078723473E+04  0.11078730752E+04  0.12699999809E+01 0.  1.
       -4   -1    0    0    0  501  0.00000000000E+00  0.00000000000E+00 -0.57862485781E+03  0.57862625154E+03  0.12699999809E+01 0. -1.
    10030    2    1    2    0    0  0.00000000000E+00  0.00000000000E+00  0.52924748949E+03  0.16864993268E+04  0.16013048036E+04 0.  0.
        2    1    3    3  502    0  0.41716087944E+02  0.74466440488E+03 -0.42035604426E+02  0.74701559551E+03  0.25500000920E-02 0. -1.
       -2    1    3    3    0  502 -0.41716087944E+02 -0.74466440488E+03  0.57128309392E+03  0.93948373125E+03  0.25500000920E-02 0.  1.
</event>
<event>
 5   0  0.5035495E-04  0.1767897E+04  0.7818609E-02  0.8723560E-01
       -1   -1    0    0    0  501  0.00000000000E+00  0.00000000000E+00  0.54237481482E+03  0.54237481485E+03  0.50400001928E-02 0. -1.
        1   -1    0    0  501    0  0.00000000000E+00  0.00000000000E+00 -0.14406372852E+04  0.14406372852E+04  0.50400001928E-02 0.  1.
    10030    2    1    2    0    0  0.00000000000E+00  0.00000000000E+00 -0.89826247033E+03  0.19830121000E+04  0.17678974866E+04 0.  0.
        4    1    3    3  502    0  0.35724673284E+03  0.79975333846E+03 -0.58247956367E+03  0.10519100178E+04  0.12699999809E+01 0. -1.
       -4    1    3    3    0  502 -0.35724673284E+03 -0.79975333846E+03 -0.31578290666E+03  0.93110208223E+03  0.12699999809E+01 0.  1.
</event>
<event>
 5   0  0.4947006E-04  0.1667996E+04  0.7818609E-02  0.8779831E-01
       -1   -1    0    0    0  501  0.00000000000E+00  0.00000000000E+00  0.84117582547E+03  0.84117582549E+03  0.50400001928E-02 0.  1.
        1   -1    0    0  501    0  0.00000000000E+00  0.00000000000E+00 -0.82688105126E+03  0.82688105127E+03  0.50400001928E-02 0. -1.
    10030    2    1    2    0    0  0.00000000000E+00  0.00000000000E+00  0.14294774220E+02  0.16680568768E+04  0.16679956246E+04 0.  0.
        2    1    3    3  502    0 -0.66462479002E+03  0.23777908430E+03  0.45133410044E+03  0.83783499250E+03  0.25500000920E-02 0.  1.
       -2    1    3    3    0  502  0.66462479002E+03 -0.23777908430E+03 -0.43703932622E+03  0.83022188426E+03  0.25500000920E-02 0. -1.
</event>
<event>
 5   0  0.5074133E-04  0.1583164E+04  0.7818609E-02  0.8830958E-01
       -1   -1    0    0    0  501  0.00000000000E+00  0.00000000000E+00  0.12637959257E+04  0.12637959257E+04  0.50400001928E-02 0. -1.
        1   -1    0    0  501    0  0.00000000000E+00  0.00000000000E+00 -0.49580973990E+03  0.49580973992E+03  0.50400001928E-02 0.  1.
    10030    2    1    2    0    0  0.00000000000E+00  0.00000000000E+00  0.76798618579E+03  0.17596056656E+04  0.15831643367E+04 0.  0.
        1    1    3    3  502    0 -0.69097433527E+03 -0.65377816835E+02  0.80704862308E+03  0.10644469320E+04  0.50400001928E-02 0. -1.
       -1    1    3    3    0  502  0.69097433527E+03  0.65377816835E+02 -0.39062437281E+02  0.69515873365E+03  0.50400001928E-02 0.  1.
</event>
<event>
 5   0  0.5059689E-04  0.1325273E+04  0.7818609E-02  0.9009760E-01
       -1   -1    0    0    0  501  0.00000000000E+00  0.00000000000E+00  0.32054949108E+03  0.32054949112E+03  0.50400001928E-02 0.  1.
        1   -1    0    0  501    0  0.00000000000E+00  0.00000000000E+00 -0.13697959915E+04  0.13697959915E+04  0.50400001928E-02 0. -1.
    10030    2    1    2    0    0  0.00000000000E+00  0.00000000000E+00 -0.10492465004E+04  0.16903454826E+04  0.13252734178E+04 0.  0.
        5    1    3    3  502    0  0.24635664987E+03  0.34623645000E+03  0.12385476501E+03  0.44264361631E+03  0.46999998093E+01 0.  1.
       -5    1    3    3    0  502 -0.24635664987E+03 -0.34623645000E+03 -0.11731012654E+04  0.12477018663E+04  0.46999998093E+01 0. -1.
</event>
<event>
 5   0  0.1007187E-03  0.1760520E+04  0.7818609E-02  0.8727581E-01
       -2   -1    0    0    0  501  0.00000000000E+00  0.00000000000E+00  0.12690979224E+04  0.12690979224E+04  0.25500000920E-02 0. -1.
        2   -1    0    0  501    0  0.00000000000E+00  0.00000000000E+00 -0.61055750383E+03  0.61055750383E+03  0.25500000920E-02 0.  1.
    10030    2    1    2    0    0  0.00000000000E+00  0.00000000000E+00  0.65854041855E+03  0.18796554262E+04  0.17605195365E+04 0.  0.
        5    1    3    3  502    0 -0.59978913294E+03  0.39481279247E+03  0.87285103406E+03  0.11302721631E+04  0.46999998093E+01 0.  1.
       -5    1    3    3    0  502  0.59978913294E+03 -0.39481279247E+03 -0.21431061551E+03  0.74938326309E+03  0.46999998093E+01 0. -1.
</event>
<event>
 5   0  0.9284971E-04  0.1692248E+04  0.7818609E-02  0.8765798E-01
        2   -1    0    0  501    0  0.00000000000E+00  0.00000000000E+00  0.22948060716E+04  0.22948060716E+04  0.25500000920E-02 0.  1.
       -2   -1    0    0    0  501  0.00000000000E+00  0.00000000000E+00 -0.31197668103E+03  0.31197668104E+03  0.25500000920E-02 0. -1.
    10030    2    1    2    0    0  0.00000000000E+00  0.00000000000E+00  0.19828293906E+04  0.26067827527E+04  0.16922481873E+04 0.  0.
        4    1    3    3  502    0 -0.49291226040E+03 -0.68767705532E+03  0.97927167559E+03  0.12941548811E+04  0.12699999809E+01 0. -1.
       -4    1    3    3    0  502  0.49291226040E+03  0.68767705532E+03  0.10035577150E+04  0.13126278715E+04  0.12699999809E+01 0.  1.
</event>
<event>
 5   0  0.5059689E-04  0.1667681E+04  0.7818609E-02  0.8780014E-01
       -1   -1    0    0    0  501  0.00000000000E+00  0.00000000000E+00  0.11241978586E+04  0.11241978586E+04  0.50400001928E-02 0.  1.
        1   -1    0    0  501    0  0.00000000000E+00  0.00000000000E+00 -0.61847687878E+03  0.61847687880E+03  0.50400001928E-02 0. -1.
    10030    2    1    2    0    0  0.00000000000E+00  0.00000000000E+00  0.50572097984E+03  0.17426747374E+04  0.16676814837E+04 0.  0.
        5    1    3    3  502    0 -0.17126231025E+03  0.53624548371E+03  0.89564638265E+03  0.10578726438E+04  0.46999998093E+01 0.  1.
       -5    1    3    3    0  502  0.17126231025E+03 -0.53624548371E+03 -0.38992540281E+03  0.68480209365E+03  0.46999998093E+01 0. -1.
</event>
<event>
 5   0  0.3523125E-04  0.1728260E+04  0.7818609E-02  0.8745409E-01
       -3   -1    0    0    0  501  0.00000000000E+00  0.00000000000E+00  0.11769320605E+04  0.11769320648E+04  0.10100000352E+00 0.  1.
        3   -1    0    0  501    0  0.00000000000E+00  0.00000000000E+00 -0.63446365702E+03  0.63446366506E+03  0.10100000352E+00 0. -1.
    10030    2    1    2    0    0  0.00000000000E+00  0.00000000000E+00  0.54246840346E+03  0.18113957299E+04  0.17282599693E+04 0.  0.
        1    1    3    3  502    0 -0.25408347273E+03 -0.71101674948E+03  0.71170894784E+03  0.10376092018E+04  0.50400001928E-02 0.  1.
       -1    1    3    3    0  502  0.25408347273E+03  0.71101674948E+03 -0.16924054438E+03  0.77378652809E+03  0.50400001928E-02 0. -1.
</event>
<event>
 5   0  0.9625225E-04  0.1732505E+04  0.7818609E-02  0.8743039E-01
       -2   -1    0    0    0  501  0.00000000000E+00  0.00000000000E+00  0.14933235115E+04  0.14933235115E+04  0.25500000920E-02 0.  1.
        2   -1    0    0  501    0  0.00000000000E+00  0.00000000000E+00 -0.50249908300E+03  0.50249908300E+03  0.25500000920E-02 0. -1.
    10030    2    1    2    0    0  0.00000000000E+00  0.00000000000E+00  0.99082442847E+03  0.19958225945E+04  0.17325053479E+04 0.  0.
        1    1    3    3  502    0  0.71658829142E+03 -0.43147362149E+03  0.75486612322E+03  0.11267169695E+04  0.50400001928E-02 0.  1.
       -1    1    3    3    0  502 -0.71658829142E+03  0.43147362149E+03  0.23595830525E+03  0.86910562493E+03  0.50400001928E-02 0. -1.
</event>
<event>
 5   0  0.9284971E-04  0.1674341E+04  0.7818609E-02  0.8776135E-01
       -2   -1    0    0    0  501  0.00000000000E+00  0.00000000000E+00  0.64511386553E+03  0.64511386553E+03  0.25500000920E-02 0.  1.
        2   -1    0    0  501    0  0.00000000000E+00  0.00000000000E+00 -0.10864041320E+04  0.10864041320E+04  0.25500000920E-02 0. -1.
    10030    2    1    2    0    0  0.00000000000E+00  0.00000000000E+00 -0.44129026646E+03  0.17315179975E+04  0.16743409081E+04 0.  0.
        4    1    3    3  502    0  0.54583704966E+03  0.50252798985E+03 -0.62167672127E+03  0.96796488782E+03  0.12699999809E+01 0.  1.
       -4    1    3    3    0  502 -0.54583704966E+03 -0.50252798985E+03  0.18038645481E+03  0.76355310971E+03  0.12699999809E+01 0. -1.
</event>
<event>
 5   0  0.9284971E-04  0.1698750E+04  0.7818609E-02  0.8762077E-01
       -2   -1    0    0    0  501  0.00000000000E+00  0.00000000000E+00  0.89299062357E+03  0.89299062358E+03  0.25500000920E-02 0. -1.
        2   -1    0    0  501    0  0.00000000000E+00  0.00000000000E+00 -0.80789001236E+03  0.80789001237E+03  0.25500000920E-02 0.  1.
    10030    2    1    2    0    0  0.00000000000E+00  0.00000000000E+00  0.85100611210E+02  0.17008806359E+04  0.16987503712E+04 0.  0.
        4    1    3    3  502    0  0.29405413823E+02  0.79509393567E+03  0.34024039864E+03  0.86533472522E+03  0.12699999809E+01 0. -1.
       -4    1    3    3    0  502 -0.29405413823E+02 -0.79509393567E+03 -0.25513978743E+03  0.83554591073E+03  0.12699999809E+01 0.  1.
</event>
<event>
 5   0  0.5035495E-04  0.1720292E+04  0.7818609E-02  0.8749875E-01
        1   -1    0    0  501    0  0.00000000000E+00  0.00000000000E+00  0.63063395330E+03  0.63063395332E+03  0.50400001928E-02 0.  1.
       -1   -1    0    0    0  501  0.00000000000E+00  0.00000000000E+00 -0.11731859971E+04  0.11731859971E+04  0.50400001928E-02 0. -1.
    10030    2    1    2    0    0  0.00000000000E+00  0.00000000000E+00 -0.54255204376E+03  0.18038199504E+04  0.17202917465E+04 0.  0.
        4    1    3    3  502    0  0.10432307919E+03 -0.84258268181E+03 -0.41588699355E+03  0.94540598942E+03  0.12699999809E+01 0. -1.
       -4    1    3    3    0  502 -0.10432307919E+03  0.84258268181E+03 -0.12666505021E+03  0.85841396096E+03  0.12699999809E+01 0.  1.
</event>
<event>
 5   0  0.5009762E-04  0.1713039E+04  0.7818609E-02  0.8753963E-01
        1   -1    0    0  501    0  0.00000000000E+00  0.00000000000E+00  0.15369444442E+04  0.15369444442E+04  0.50400001928E-02 0. -1.
       -1   -1    0    0    0  501  0.00000000000E+00  0.00000000000E+00 -0.47732722309E+03  0.47732722311E+03  0.50400001928E-02 0.  1.
    10030    2    1    2    0    0  0.00000000000E+00  0.00000000000E+00  0.10596172212E+04  0.20142716674E+04  0.17130387312E+04 0.  0.
        3    1    3    3  502    0  0.43674179136E+03 -0.65123985915E+03  0.93503880948E+03  0.12203091133E+04  0.10100000352E+00 0. -1.
       -3    1    3    3    0  502 -0.43674179136E+03  0.65123985915E+03  0.12457841167E+03  0.79396255410E+03  0.10100000352E+00 0.  1.
</event>
<event>
 5   0  0.5009762E-04  0.1695927E+04  0.7818609E-02  0.8763691E-01
        1   -1    0    0  501    0  0.00000000000E+00  0.00000000000E+00  0.11078958775E+04  0.11078958775E+04  0.50400001928E-02 0. -1.
       -1   -1    0    0    0  501  0.00000000000E+00  0.00000000000E+00 -0.64901583150E+03  0.64901583152E+03  0.50400001928E-02 0.  1.
    10030    2    1    2    0    0  0.00000000000E+00  0.00000000000E+00  0.45888004597E+03  0.17569117090E+04  0.16959268430E+04 0.  0.
        3    1    3    3  502    0  0.91024397678E+02  0.64572713957E+03  0.79095782049E+03  0.10251162196E+04  0.10100000352E+00 0. -1.
       -3    1    3    3    0  502 -0.91024397678E+02 -0.64572713957E+03 -0.33207777451E+03  0.73179548938E+03  0.10100000352E+00 0.  1.
</event>
<event>
 5   0  0.9284971E-04  0.1694479E+04  0.7818609E-02  0.8764519E-01
        2   -1    0    0  501    0  0.00000000000E+00  0.00000000000E+00  0.10370107111E+04  0.10370107111E+04  0.25500000920E-02 0. -1.
       -2   -1    0    0    0  501  0.00000000000E+00  0.00000000000E+00 -0.69219642995E+03  0.69219642996E+03  0.25500000920E-02 0.  1.
    10030    2    1    2    0    0  0.00000000000E+00  0.00000000000E+00  0.34481428115E+03  0.17292071411E+04  0.16944794033E+04 0.  0.
        4    1    3    3  502    0  0.20789412915E+03 -0.30625400713E+03 -0.60531557273E+03  0.70952099427E+03  0.12699999809E+01 0.  1.
       -4    1    3    3    0  502 -0.20789412915E+03  0.30625400713E+03  0.95012985389E+03  0.10196861468E+04  0.12699999809E+01 0. -1.
</event>
<event>
 5   0  0.5035495E-04  0.1590377E+04  0.7818609E-02  0.8826482E-01
        1   -1    0    0  501    0  0.00000000000E+00  0.00000000000E+00  0.11800036767E+04  0.11800036767E+04  0.50400001928E-02 0. -1.
       -1   -1    0    0    0  501  0.00000000000E+00  0.00000000000E+00 -0.53586646146E+03  0.53586646149E+03  0.50400001928E-02 0.  1.
    10030    2    1    2    0    0  0.00000000000E+00  0.00000000000E+00  0.64413721522E+03  0.17158701382E+04  0.15903765526E+04 0.  0.
        4    1    3    3  502    0 -0.73562092511E+03 -0.25502395357E+03  0.49652981323E+03  0.92342776149E+03  0.12699999809E+01 0. -1.
       -4    1    3    3    0  502  0.73562092511E+03  0.25502395357E+03  0.14760740199E+03  0.79244237669E+03  0.12699999809E+01 0.  1.
</event>
<event>
 5   0  0.9625225E-04  0.1707686E+04  0.7818609E-02  0.8756993E-01
        2   -1    0    0  501    0  0.00000000000E+00  0.00000000000E+00  0.11711042526E+04  0.11711042526E+04  0.25500000920E-02 0.  1.
       -2   -1    0    0    0  501  0.00000000000E+00  0.00000000000E+00 -0.62253009225E+03  0.62253009226E+03  0.25500000920E-02 0. -1.
    10030    2    1    2    0    0  0.00000000000E+00  0.00000000000E+00  0.54857416036E+03  0.17936343449E+04  0.17076857304E+04 0.  0.
        1    1    3    3  502    0 -0.65801541459E+03  0.52727367740E+03  0.41538294722E+03  0.93997064294E+03  0.50400001928E-02 0. -1.
       -1    1    3    3    0  502  0.65801541459E+03 -0.52727367740E+03  0.13319121315E+03  0.85366370194E+03  0.50400001928E-02 0.  1.
</event>
<event>
 5   0  0.5059689E-04  0.9094218E+03  0.7818609E-02  0.9413880E-01
       -1   -1    0    0    0  501  0.00000000000E+00  0.00000000000E+00  0.10927755841E+03  0.10927755852E+03  0.50400001928E-02 0. -1.
        1   -1    0    0  501    0  0.00000000000E+00  0.00000000000E+00 -0.18920810061E+04  0.18920810061E+04  0.50400001928E-02 0.  1.
    10030    2    1    2    0    0  0.00000000000E+00  0.00000000000E+00 -0.17828034477E+04  0.20013585646E+04  0.90942177844E+03 0.  0.
        5    1    3    3  502    0 -0.14086727418E+03 -0.32927513262E+03 -0.15078874204E+04  0.15498426580E+04  0.46999998093E+01 0.  1.
       -5    1    3    3    0  502  0.14086727418E+03  0.32927513262E+03 -0.27491602730E+03  0.45151590665E+03  0.46999998093E+01 0. -1.
</event>
<event>
 5   0  0.9312096E-04  0.1675105E+04  0.7818609E-02  0.8775692E-01
        2   -1    0    0  501    0  0.00000000000E+00  0.00000000000E+00  0.86759258457E+03  0.86759258457E+03  0.25500000920E-02 0.  1.
       -2   -1    0    0    0  501  0.00000000000E+00  0.00000000000E+00 -0.80855228195E+03  0.80855228196E+03  0.25500000920E-02 0. -1.
    10030    2    1    2    0    0  0.00000000000E+00  0.00000000000E+00  0.59040302616E+02  0.16761448665E+04  0.16751047299E+04 0.  0.
        3    1    3    3  502    0  0.23504317929E+03 -0.59829978534E+03  0.56677628332E+03  0.85699667141E+03  0.10100000352E+00 0.  1.
       -3    1    3    3    0  502 -0.23504317929E+03  0.59829978534E+03 -0.50773598070E+03  0.81914819512E+03  0.10100000352E+00 0. -1.
</event>
<event>
 5   0  0.9625225E-04  0.1763740E+04  0.7818609E-02  0.8725824E-01
       -2   -1    0    0    0  501  0.00000000000E+00  0.00000000000E+00  0.88045945980E+03  0.88045945980E+03  0.25500000920E-02 0. -1.
        2   -1    0    0  501    0  0.00000000000E+00  0.00000000000E+00 -0.88328248982E+03  0.88328248982E+03  0.25500000920E-02 0.  1.
    10030    2    1    2    0    0  0.00000000000E+00  0.00000000000E+00 -0.28230300228E+01  0.17637419496E+04  0.17637396904E+04 0.  0.
        1    1    3    3  502    0  0.17714590467E+03  0.41510191360E+03 -0.75904310367E+03  0.88308363334E+03  0.50400001928E-02 0.  1.
       -1    1    3    3    0  502 -0.17714590467E+03 -0.41510191360E+03  0.75622007365E+03  0.88065831628E+03  0.50400001928E-02 0. -1.
</event>
<event>
 5   0  0.5059689E-04  0.1727720E+04  0.7818609E-02  0.8745711E-01
       -1   -1    0    0    0  501  0.00000000000E+00  0.00000000000E+00  0.11779859057E+04  0.11779859057E+04  0.50400001928E-02 0. -1.
        1   -1    0    0  501    0  0.00000000000E+00  0.00000000000E+00 -0.63349994235E+03  0.63349994237E+03  0.50400001928E-02 0.  1.
    10030    2    1    2    0    0  0.00000000000E+00  0.00000000000E+00  0.54448596332E+03  0.18114858480E+04  0.17277198886E+04 0.  0.
        5    1    3    3  502    0 -0.15540370071E+03 -0.84576943368E+03  0.35842085433E+03  0.93164577171E+03  0.46999998093E+01 0.  1.
       -5    1    3    3    0  502  0.15540370071E+03  0.84576943368E+03  0.18606510899E+03  0.87984007633E+03  0.46999998093E+01 0. -1.
</event>
<event>
 5   0  0.4947006E-04  0.1717732E+04  0.7818609E-02  0.8751315E-01
       -1   -1    0    0    0  501  0.00000000000E+00  0.00000000000E+00  0.42721721601E+03  0.42721721604E+03  0.50400001928E-02 0.  1.
        1   -1    0    0  501    0  0.00000000000E+00  0.00000000000E+00 -0.17266406741E+04  0.17266406741E+04  0.50400001928E-02 0. -1.
    10030    2    1    2    0    0  0.00000000000E+00  0.00000000000E+00 -0.12994234581E+04  0.21538578902E+04  0.17177317857E+04 0.  0.
        2    1    3    3  502    0 -0.83634451030E+03 -0.14257154588E+03 -0.81724579980E+03  0.11780023272E+04  0.25500000920E-02 0. -1.
       -2    1    3    3    0  502  0.83634451030E+03  0.14257154588E+03 -0.48217765833E+03  0.97585556298E+03  0.25500000920E-02 0.  1.
</event>
<event>
 5   0  0.9610114E-04  0.1495272E+04  0.7818609E-02  0.8887603E-01
       -2   -1    0    0    0  501  0.00000000000E+00  0.00000000000E+00  0.56234554483E+03  0.56234554484E+03  0.25500000920E-02 0. -1.
        2   -1    0    0  501    0  0.00000000000E+00  0.00000000000E+00 -0.99397893911E+03  0.99397893911E+03  0.25500000920E-02 0.  1.
    10030    2    1    2    0    0  0.00000000000E+00  0.00000000000E+00 -0.43163339428E+03  0.15563244840E+04  0.14952720529E+04 0.  0.
        2    1    3    3  502    0 -0.28835231020E+03  0.19793441722E+03 -0.90357996487E+03  0.96890755041E+03  0.25500000920E-02 0.  1.
       -2    1    3    3    0  502  0.28835231020E+03 -0.19793441722E+03  0.47194657059E+03  0.58741693354E+03  0.25500000920E-02 0. -1.
</event>
<event>
 5   0  0.9610114E-04  0.1662654E+04  0.7818609E-02  0.8782955E-01
        2   -1    0    0  501    0  0.00000000000E+00  0.00000000000E+00  0.83915428836E+03  0.83915428836E+03  0.25500000920E-02 0. -1.
       -2   -1    0    0    0  501  0.00000000000E+00  0.00000000000E+00 -0.82357314351E+03  0.82357314352E+03  0.25500000920E-02 0.  1.
    10030    2    1    2    0    0  0.00000000000E+00  0.00000000000E+00  0.15581144841E+02  0.16627274319E+04  0.16626544261E+04 0.  0.
        2    1    3    3  502    0  0.13986068316E+03 -0.29066239826E+03  0.77402216300E+03  0.83854394594E+03  0.25500000920E-02 0. -1.
       -2    1    3    3    0  502 -0.13986068316E+03  0.29066239826E+03 -0.75844101816E+03  0.82418348593E+03  0.25500000920E-02 0.  1.
</event>
<event>
 5   0  0.5009762E-04  0.1564455E+04  0.7818609E-02  0.8842687E-01
        1   -1    0    0  501    0  0.00000000000E+00  0.00000000000E+00  0.99120353711E+03  0.99120353712E+03  0.50400001928E-02 0. -1.
       -1   -1    0    0    0  501  0.00000000000E+00  0.00000000000E+00 -0.61730964993E+03  0.61730964995E+03  0.50400001928E-02 0.  1.
    10030    2    1    2    0    0  0.00000000000E+00  0.00000000000E+00  0.37389388717E+03  0.16085131871E+04  0.15644545484E+04 0.  0.
        3    1    3    3  502    0  0.30800741656E+03  0.66082236586E+03  0.47834477399E+03  0.87199111284E+03  0.10100000352E+00 0. -1.
       -3    1    3    3    0  502 -0.30800741656E+03 -0.66082236586E+03 -0.10445088682E+03  0.73652207423E+03  0.10100000352E+00 0.  1.
</event>
<event>
 5   0  0.4947006E-04  0.1690332E+04  0.7818609E-02  0.8766898E-01
        1   -1    0    0  501    0  0.00000000000E+00  0.00000000000E+00  0.72889986357E+03  0.72889986359E+03  0.50400001928E-02 0. -1.
       -1   -1    0    0    0  501  0.00000000000E+00  0.00000000000E+00 -0.97997710528E+03  0.97997710530E+03  0.50400001928E-02 0.  1.
    10030    2    1    2    0    0  0.00000000000E+00  0.00000000000E+00 -0.25107724172E+03  0.17088769689E+04  0.16903315395E+04 0.  0.
        2    1    3    3  502    0  0.43730527674E+03  0.71128995862E+03  0.68016309356E+01  0.83499435476E+03  0.25500000920E-02 0. -1.
       -2    1    3    3    0  502 -0.43730527674E+03 -0.71128995862E+03 -0.25787887265E+03  0.87388261412E+03  0.25500000920E-02 0.  1.
</event>
<event>
 5   0  0.9625225E-04  0.1709817E+04  0.7818609E-02  0.8755785E-01
        2   -1    0    0  501    0  0.00000000000E+00  0.00000000000E+00  0.51530605639E+03  0.51530605640E+03  0.25500000920E-02 0. -1.
       -2   -1    0    0    0  501  0.00000000000E+00  0.00000000000E+00 -0.14183191862E+04  0.14183191862E+04  0.25500000920E-02 0.  1.
    10030    2    1    2    0    0  0.00000000000E+00  0.00000000000E+00 -0.90301312977E+03  0.19336252426E+04  0.17098169101E+04 0.  0.
        1    1    3    3  502    0  0.50312721453E+03  0.40148423138E+03  0.18475881128E+03  0.66967335352E+03  0.50400001928E-02 0. -1.
       -1    1    3    3    0  502 -0.50312721453E+03 -0.40148423138E+03 -0.10877719411E+04  0.12639518890E+04  0.50400001928E-02 0.  1.
</event>
<event>
 5   0  0.5035495E-04  0.1812975E+04  0.7818609E-02  0.8699430E-01
        1   -1    0    0  501    0  0.00000000000E+00  0.00000000000E+00  0.16938495378E+04  0.16938495378E+04  0.50400001928E-02 0. -1.
       -1   -1    0    0    0  501  0.00000000000E+00  0.00000000000E+00 -0.48511958788E+03  0.48511958791E+03  0.50400001928E-02 0.  1.
    10030    2    1    2    0    0  0.00000000000E+00  0.00000000000E+00  0.12087299499E+04  0.21789691257E+04  0.18129750023E+04 0.  0.
        4    1    3    3  502    0  0.49954839163E+03 -0.73575416371E+03  0.81541362972E+03  0.12065586539E+04  0.12699999809E+01 0. -1.
       -4    1    3    3    0  502 -0.49954839163E+03  0.73575416371E+03  0.39331632023E+03  0.97241047179E+03  0.12699999809E+01 0.  1.
</event>
<event>
 5   0  0.9625225E-04  0.1718355E+04  0.7818609E-02  0.8750965E-01
        2   -1    0    0  501    0  0.00000000000E+00  0.00000000000E+00  0.24305506304E+04  0.24305506304E+04  0.25500000920E-02 0. -1.
       -2   -1    0    0    0  501  0.00000000000E+00  0.00000000000E+00 -0.30371138039E+03  0.30371138040E+03  0.25500000920E-02 0.  1.
    10030    2    1    2    0    0  0.00000000000E+00  0.00000000000E+00  0.21268392500E+04  0.27342620108E+04  0.17183548959E+04 0.  0.
        1    1    3    3  502    0 -0.71842809204E+03 -0.40100182522E+03  0.66963313721E+03  0.10608251155E+04  0.50400001928E-02 0.  1.
       -1    1    3    3    0  502  0.71842809204E+03  0.40100182522E+03  0.14572061128E+04  0.16734368953E+04  0.50400001928E-02 0. -1.
</event>
<event>
 5   0  0.5074133E-04  0.1677208E+04  0.7818609E-02  0.8774471E-01
        1   -1    0    0  501    0  0.00000000000E+00  0.00000000000E+00  0.16745064505E+04  0.16745064505E+04  0.50400001928E-02 0.  1.
       -1   -1    0    0    0  501  0.00000000000E+00  0.00000000000E+00 -0.41997831635E+03  0.41997831638E+03  0.50400001928E-02 0. -1.
    10030    2    1    2    0    0  0.00000000000E+00  0.00000000000E+00  0.12545281341E+04  0.20944847668E+04  0.16772076792E+04 0.  0.
        1    1    3    3  502    0  0.58436967057E+03  0.16918239111E+03 -0.93523919041E+02  0.61551386402E+03  0.50400001928E-02 0. -1.
       -1    1    3    3    0  502 -0.58436967057E+03 -0.16918239111E+03  0.13480520531E+04  0.14789709028E+04  0.50400001928E-02 0.  1.
</event>
<event>
 5   0  0.9284971E-04  0.1680211E+04  0.7818609E-02  0.8772732E-01
        2   -1    0    0  501    0  0.00000000000E+00  0.00000000000E+00  0.10593722235E+04  0.10593722235E+04  0.25500000920E-02 0.  1.
       -2   -1    0    0    0  501  0.00000000000E+00  0.00000000000E+00 -0.66622206953E+03  0.66622206954E+03  0.25500000920E-02 0. -1.
    10030    2    1    2    0    0  0.00000000000E+00  0.00000000000E+00  0.39315015400E+03  0.17255942931E+04  0.16802108858E+04 0.  0.
        4    1    3    3  502    0  0.11446998306E+03 -0.45123008140E+03 -0.52164503531E+03  0.69916172603E+03  0.12699999809E+01 0. -1.
       -4    1    3    3    0  502 -0.11446998306E+03  0.45123008140E+03  0.91479518931E+03  0.10264325670E+04  0.12699999809E+01 0.  1.
</event>
<event>
 5   0  0.3523125E-04  0.1705519E+04  0.7818609E-02  0.8758223E-01
        3   -1    0    0  501    0  0.00000000000E+00  0.00000000000E+00  0.11810483780E+04  0.11810483823E+04  0.10100000352E+00 0. -1.
       -3   -1    0    0    0  501  0.00000000000E+00  0.00000000000E+00 -0.61572290629E+03  0.61572291457E+03  0.10100000352E+00 0.  1.
    10030    2    1    2    0    0  0.00000000000E+00  0.00000000000E+00  0.56532547174E+03  0.17967712969E+04  0.17055187494E+04 0.  0.
        4    1    3    3  502    0 -0.60242840180E+03 -0.57329195135E+03  0.83850826391E+02  0.83583264758E+03  0.12699999809E+01 0.  1.
       -4    1    3    3    0  502  0.60242840180E+03  0.57329195135E+03  0.48147464535E+03  0.96093864934E+03  0.12699999809E+01 0. -1.
</event>
<event>
 5   0  0.9312096E-04  0.1713191E+04  0.7818609E-02  0.8753877E-01
        2   -1    0    0  501    0  0.00000000000E+00  0.00000000000E+00  0.78286390674E+03  0.78286390674E+03  0.25500000920E-02 0.  1.
       -2   -1    0    0    0  501  0.00000000000E+00  0.00000000000E+00 -0.93727132172E+03  0.93727132172E+03  0.25500000920E-02 0. -1.
    10030    2    1    2    0    0  0.00000000000E+00  0.00000000000E+00 -0.15440741498E+03  0.17201352285E+04  0.17131910443E+04 0.  0.
        3    1    3    3  502    0  0.85301002620E+03 -0.37334357759E+02 -0.81067471571E+01  0.85386514663E+03  0.10100000352E+00 0. -1.
       -3    1    3    3    0  502 -0.85301002620E+03  0.37334357759E+02 -0.14630066782E+03  0.86627008183E+03  0.10100000352E+00 0.  1.
</event>
<event>
 5   0  0.9610114E-04  0.1699211E+04  0.7818609E-02  0.8761814E-01
        2   -1    0    0  501    0  0.00000000000E+00  0.00000000000E+00  0.96522317918E+03  0.96522317919E+03  0.25500000920E-02 0.  1.
       -2   -1    0    0    0  501  0.00000000000E+00  0.00000000000E+00 -0.74783729863E+03  0.74783729863E+03  0.25500000920E-02 0. -1.
    10030    2    1    2    0    0  0.00000000000E+00  0.00000000000E+00  0.21738588055E+03  0.17130604778E+04  0.16992114582E+04 0.  0.
        2    1    3    3  502    0  0.81673458502E+03 -0.19749760426E+03  0.23529192417E+03  0.87259553955E+03  0.25500000920E-02 0.  1.
       -2    1    3    3    0  502 -0.81673458502E+03  0.19749760426E+03 -0.17906043620E+02  0.84046493827E+03  0.25500000920E-02 0. -1.
</event>
<event>
 5   0  0.9625225E-04  0.1664941E+04  0.7818609E-02  0.8781616E-01
        2   -1    0    0  501    0  0.00000000000E+00  0.00000000000E+00  0.57899360251E+03  0.57899360252E+03  0.25500000920E-02 0. -1.
       -2   -1    0    0    0  501  0.00000000000E+00  0.00000000000E+00 -0.11969167088E+04  0.11969167088E+04  0.25500000920E-02 0.  1.
    10030    2    1    2    0    0  0.00000000000E+00  0.00000000000E+00 -0.61792310624E+03  0.17759103113E+04  0.16649409805E+04 0.  0.
        1    1    3    3  502    0  0.10088645227E+03  0.24758015267E+03  0.53195774651E+03  0.59535959919E+03  0.50400001928E-02 0. -1.
       -1    1    3    3    0  502 -0.10088645227E+03 -0.24758015267E+03 -0.11498808528E+04  0.11805507121E+04  0.50400001928E-02 0.  1.
</event>
<event>
 5   0  0.4947006E-04  0.1663659E+04  0.7818609E-02  0.8782367E-01
        1   -1    0    0  501    0  0.00000000000E+00  0.00000000000E+00  0.11730142786E+04  0.11730142786E+04  0.50400001928E-02 0. -1.
       -1   -1    0    0    0  501  0.00000000000E+00  0.00000000000E+00 -0.58988227132E+03  0.58988227135E+03  0.50400001928E-02 0.  1.
    10030    2    1    2    0    0  0.00000000000E+00  0.00000000000E+00  0.58313200728E+03  0.17628965500E+04  0.16636590119E+04 0.  0.
        2    1    3    3  502    0  0.27739923713E+03 -0.22423916513E+03 -0.50472904383E+03  0.61804930842E+03  0.25500000920E-02 0.  1.
       -2    1    3    3    0  502 -0.27739923713E+03  0.22423916513E+03  0.10878610511E+04  0.11448472415E+04  0.25500000920E-02 0. -1.
</event>
<event>
 5   0  0.9610114E-04  0.1668236E+04  0.7818609E-02  0.8779691E-01
       -2   -1    0    0    0  501  0.00000000000E+00  0.00000000000E+00  0.43100125771E+03  0.43100125772E+03  0.25500000920E-02 0. -1.
        2   -1    0    0  501    0  0.00000000000E+00  0.00000000000E+00 -0.16142705395E+04  0.16142705395E+04  0.25500000920E-02 0.  1.
    10030    2    1    2    0    0  0.00000000000E+00  0.00000000000E+00 -0.11832692818E+04  0.20452717972E+04  0.16682357541E+04 0.  0.
        2    1    3    3  502    0 -0.34390827101E+01 -0.38797593668E+02  0.42988572640E+03  0.43164663596E+03  0.25500000920E-02 0. -1.
       -2    1    3    3    0  502  0.34390827101E+01  0.38797593668E+02 -0.16131550082E+04  0.16136251612E+04  0.25500000920E-02 0.  1.
</event>
<event>
 5   0  0.5009762E-04  0.1713325E+04  0.7818609E-02  0.8753801E-01
       -1   -1    0    0    0  501  0.00000000000E+00  0.00000000000E+00  0.12190239836E+04  0.12190239836E+04  0.50400001928E-02 0.  1.
        1   -1    0    0  501    0  0.00000000000E+00  0.00000000000E+00 -0.60201502947E+03  0.60201502950E+03  0.50400001928E-02 0. -1.
    10030    2    1    2    0    0  0.00000000000E+00  0.00000000000E+00  0.61700895409E+03  0.18210390131E+04  0.17133251407E+04 0.  0.
        3    1    3    3  502    0 -0.53966090636E+03 -0.27811361764E+03  0.95089357004E+03  0.11281753720E+04  0.10100000352E+00 0.  1.
       -3    1    3    3    0  502  0.53966090636E+03  0.27811361764E+03 -0.33388461596E+03  0.69286364109E+03  0.10100000352E+00 0. -1.
</event>
<event>
 5   0  0.5035495E-04  0.1678328E+04  0.7818609E-02  0.8773822E-01
       -1   -1    0    0    0  501  0.00000000000E+00  0.00000000000E+00  0.61417405859E+03  0.61417405861E+03  0.50400001928E-02 0. -1.
        1   -1    0    0  501    0  0.00000000000E+00  0.00000000000E+00 -0.11465746082E+04  0.11465746082E+04  0.50400001928E-02 0.  1.
    10030    2    1    2    0    0  0.00000000000E+00  0.00000000000E+00 -0.53240054962E+03  0.17607486668E+04  0.16783281927E+04 0.  0.
        4    1    3    3  502    0  0.57035734860E+03  0.59852723829E+03 -0.41696711151E+03  0.92596195659E+03  0.12699999809E+01 0.  1.
       -4    1    3    3    0  502 -0.57035734860E+03 -0.59852723829E+03 -0.11543343812E+03  0.83478671025E+03  0.12699999809E+01 0. -1.
</event>
<event>
 5   0  0.4947006E-04  0.1735203E+04  0.7818609E-02  0.8741538E-01
        1   -1    0    0  501    0  0.00000000000E+00  0.00000000000E+00  0.11592333855E+04  0.11592333855E+04  0.50400001928E-02 0.  1.
       -1   -1    0    0    0  501  0.00000000000E+00  0.00000000000E+00 -0.64933618991E+03  0.64933618993E+03  0.50400001928E-02 0. -1.
    10030    2    1    2    0    0  0.00000000000E+00  0.00000000000E+00  0.50989719556E+03  0.18085695754E+04  0.17352028006E+04 0.  0.
        2    1    3    3  502    0 -0.23757425596E+02  0.56423569856E+03 -0.43153898066E+03  0.71074062121E+03  0.25500000920E-02 0. -1.
       -2    1    3    3    0  502  0.23757425596E+02 -0.56423569856E+03  0.94143617622E+03  0.10978289542E+04  0.25500000920E-02 0.  1.
</event>
<event>
 5   0  0.5059689E-04  0.1663124E+04  0.7818609E-02  0.8782680E-01
        1   -1    0    0  501    0  0.00000000000E+00  0.00000000000E+00  0.11083665650E+04  0.11083665650E+04  0.50400001928E-02 0.  1.
       -1   -1    0    0    0  501  0.00000000000E+00  0.00000000000E+00 -0.62388694649E+03  0.62388694651E+03  0.50400001928E-02 0. -1.
    10030    2    1    2    0    0  0.00000000000E+00  0.00000000000E+00  0.48447961851E+03  0.17322535115E+04  0.16631240866E+04 0.  0.
        5    1    3    3  502    0 -0.25669456281E+03 -0.77385153139E+03  0.41254477155E+03  0.91375793827E+03  0.46999998093E+01 0.  1.
       -5    1    3    3    0  502  0.25669456281E+03  0.77385153139E+03  0.71934846958E+02  0.81849557324E+03  0.46999998093E+01 0. -1.
</event>
<event>
 5   0  0.9625225E-04  0.1572396E+04  0.7818609E-02  0.8837688E-01
        2   -1    0    0  501    0  0.00000000000E+00  0.00000000000E+00  0.13132369829E+04  0.13132369829E+04  0.25500000920E-02 0.  1.
       -2   -1    0    0    0  501  0.00000000000E+00  0.00000000000E+00 -0.47067431118E+03  0.47067431118E+03  0.25500000920E-02 0. -1.
    10030    2    1    2    0    0  0.00000000000E+00  0.00000000000E+00  0.84256267167E+03  0.17839112940E+04  0.15723955130E+04 0.  0.
        1    1    3    3  502    0  0.31677979548E+02 -0.58324922329E+03  0.10183050339E+04  0.11739370907E+04  0.50400001928E-02 0.  1.
       -1    1    3    3    0  502 -0.31677979548E+02  0.58324922329E+03 -0.17574236220E+03  0.60997420335E+03  0.50400001928E-02 0. -1.
</event>
<event>
 5   0  0.9284971E-04  0.1750446E+04  0.7818609E-02  0.8733105E-01
       -2   -1    0    0    0  501  0.00000000000E+00  0.00000000000E+00  0.59576514371E+03  0.59576514372E+03  0.25500000920E-02 0. -1.
        2   -1    0    0  501    0  0.00000000000E+00  0.00000000000E+00 -0.12857670279E+04  0.12857670279E+04  0.25500000920E-02 0.  1.
    10030    2    1    2    0    0  0.00000000000E+00  0.00000000000E+00 -0.69000188418E+03  0.18815321716E+04  0.17504458611E+04 0.  0.
        4    1    3    3  502    0  0.34118156108E+03  0.59812914473E+03  0.23568724088E+03  0.72781413823E+03  0.12699999809E+01 0. -1.
       -4    1    3    3    0  502 -0.34118156108E+03 -0.59812914473E+03 -0.92568912506E+03  0.11537180334E+04  0.12699999809E+01 0.  1.
</event>
<event>
 5   0  0.9312096E-04  0.1926641E+04  0.7818609E-02  0.8641708E-01
        2   -1    0    0  501    0  0.00000000000E+00  0.00000000000E+00  0.13318093924E+04  0.13318093924E+04  0.25500000920E-02 0. -1.
       -2   -1    0    0    0  501  0.00000000000E+00  0.00000000000E+00 -0.69678636869E+03  0.69678636869E+03  0.25500000920E-02 0.  1.
    10030    2    1    2    0    0  0.00000000000E+00  0.00000000000E+00  0.63502302376E+03  0.20285957611E+04  0.19266412539E+04 0.  0.
        3    1    3    3  502    0 -0.44000421319E+03  0.71230379326E+03  0.81917620370E+03  0.11713368706E+04  0.10100000352E+00 0. -1.
       -3    1    3    3    0  502  0.44000421319E+03 -0.71230379326E+03 -0.18415317994E+03  0.85725889054E+03  0.10100000352E+00 0.  1.
</event>
<event>
 5   0  0.4947006E-04  0.1713420E+04  0.7818609E-02  0.8753748E-01
       -1   -1    0    0    0  501  0.00000000000E+00  0.00000000000E+00  0.33118297686E+03  0.33118297690E+03  0.50400001928E-02 0. -1.
        1   -1    0    0  501    0  0.00000000000E+00  0.00000000000E+00 -0.22161513458E+04  0.22161513458E+04  0.50400001928E-02 0.  1.
    10030    2    1    2    0    0  0.00000000000E+00  0.00000000000E+00 -0.18849683689E+04  0.25473343227E+04  0.17134195049E+04 0.  0.
        2    1    3    3  502    0  0.35913731757E+03  0.15107722689E+02  0.21364917584E+03  0.41815526602E+03  0.25500000920E-02 0. -1.
       -2    1    3    3    0  502 -0.35913731757E+03 -0.15107722689E+02 -0.20986175448E+04  0.21291790567E+04  0.25500000920E-02 0.  1.
</event>
<event>
 5   0  0.3523125E-04  0.1100803E+04  0.7818609E-02  0.9204410E-01
        4   -1    0    0  501    0  0.00000000000E+00  0.00000000000E+00  0.10259216666E+04  0.10259224527E+04  0.12699999809E+01 0.  1.
       -4   -1    0    0    0  501  0.00000000000E+00  0.00000000000E+00 -0.29528498749E+03  0.29528771857E+03  0.12699999809E+01 0. -1.
    10030    2    1    2    0    0  0.00000000000E+00  0.00000000000E+00  0.73063667916E+03  0.13212101713E+04  0.11008025980E+04 0.  0.
        5    1    3    3  502    0 -0.14603290360E+03 -0.94903793337E+02  0.99195407915E+03  0.10071381852E+04  0.46999998093E+01 0.  1.
       -5    1    3    3    0  502  0.14603290360E+03  0.94903793337E+02 -0.26131739999E+03  0.31407198611E+03  0.46999998093E+01 0. -1.
</event>
<event>
 5   0  0.3523125E-04  0.1677288E+04  0.7818609E-02  0.8774425E-01
       -3   -1    0    0    0  501  0.00000000000E+00  0.00000000000E+00  0.30082009335E+03  0.30082011030E+03  0.10100000352E+00 0. -1.
        3   -1    0    0  501    0  0.00000000000E+00  0.00000000000E+00 -0.23380206164E+04  0.23380206186E+04  0.10100000352E+00 0.  1.
    10030    2    1    2    0    0  0.00000000000E+00  0.00000000000E+00 -0.20372005230E+04  0.26388407289E+04  0.16772878171E+04 0.  0.
        3    1    3    3  502    0  0.12956267150E+03  0.38465585703E+03 -0.21731947493E+04  0.22107740822E+04  0.10100000352E+00 0.  1.
       -3    1    3    3    0  502 -0.12956267150E+03 -0.38465585703E+03  0.13599422623E+03  0.42806664664E+03  0.10100000352E+00 0. -1.
</event>
<event>
 5   0  0.3523125E-04  0.1679585E+04  0.7818609E-02  0.8773094E-01
       -3   -1    0    0    0  501  0.00000000000E+00  0.00000000000E+00  0.91450127535E+03  0.91450128093E+03  0.10100000352E+00 0.  1.
        3   -1    0    0  501    0  0.00000000000E+00  0.00000000000E+00 -0.77118701439E+03  0.77118702101E+03  0.10100000352E+00 0. -1.
    10030    2    1    2    0    0  0.00000000000E+00  0.00000000000E+00  0.14331426096E+03  0.16856883019E+04  0.16795850898E+04 0.  0.
        1    1    3    3  502    0  0.77616191261E+03 -0.16181859980E+01 -0.25016611497E+03  0.81548330345E+03  0.50400001928E-02 0. -1.
       -1    1    3    3    0  502 -0.77616191261E+03  0.16181859980E+01  0.39348037593E+03  0.87020499848E+03  0.50400001928E-02 0.  1.
</event>
<event>
 5   0  0.5035495E-04  0.1676989E+04  0.7818609E-02  0.8774598E-01
       -1   -1    0    0    0  501  0.00000000000E+00  0.00000000000E+00  0.81776726916E+03  0.81776726918E+03  0.50400001928E-02 0. -1.
        1   -1    0    0  501    0  0.00000000000E+00  0.00000000000E+00 -0.85974737045E+03  0.85974737046E+03  0.50400001928E-02 0.  1.
    10030    2    1    2    0    0  0.00000000000E+00  0.00000000000E+00 -0.41980101288E+02  0.16775146396E+04  0.16769892776E+04 0.  0.
        4    1    3    3  502    0 -0.29135519917E+03 -0.70324583357E+03  0.33072938913E+03  0.82995547848E+03  0.12699999809E+01 0. -1.
       -4    1    3    3    0  502  0.29135519917E+03  0.70324583357E+03 -0.37270949042E+03  0.84755916116E+03  0.12699999809E+01 0.  1.
</event>
<event>
 5   0  0.5074133E-04  0.1705229E+04  0.7818609E-02  0.8758387E-01
       -1   -1    0    0    0  501  0.00000000000E+00  0.00000000000E+00  0.27810077295E+03  0.27810077300E+03  0.50400001928E-02 0.  1.
        1   -1    0    0  501    0  0.00000000000E+00  0.00000000000E+00 -0.26139871812E+04  0.26139871812E+04  0.50400001928E-02 0. -1.
    10030    2    1    2    0    0  0.00000000000E+00  0.00000000000E+00 -0.23358864082E+04  0.28920879542E+04  0.17052294340E+04 0.  0.
        1    1    3    3  502    0 -0.56859116160E+03 -0.31064373822E+03 -0.21079012524E+04  0.22052308566E+04  0.50400001928E-02 0. -1.
       -1    1    3    3    0  502  0.56859116160E+03  0.31064373822E+03 -0.22798515582E+03  0.68685709754E+03  0.50400001928E-02 0.  1.
</event>
<event>
 5   0  0.9284971E-04  0.1674666E+04  0.7818609E-02  0.8775946E-01
       -2   -1    0    0    0  501  0.00000000000E+00  0.00000000000E+00  0.70993543256E+03  0.70993543257E+03  0.25500000920E-02 0. -1.
        2   -1    0    0  501    0  0.00000000000E+00  0.00000000000E+00 -0.98759225877E+03  0.98759225877E+03  0.25500000920E-02 0.  1.
    10030    2    1    2    0    0  0.00000000000E+00  0.00000000000E+00 -0.27765682621E+03  0.16975276913E+04  0.16746662204E+04 0.  0.
        4    1    3    3  502    0  0.45667197019E+03 -0.65616663531E+03 -0.39126867946E+03  0.89005434333E+03  0.12699999809E+01 0.  1.
       -4    1    3    3    0  502 -0.45667197019E+03  0.65616663531E+03  0.11361185326E+03  0.80747334801E+03  0.12699999809E+01 0. -1.
</event>
<event>
 5   0  0.1007187E-03  0.1686304E+04  0.7818609E-02  0.8769214E-01
        2   -1    0    0  501    0  0.00000000000E+00  0.00000000000E+00  0.92127219418E+03  0.92127219419E+03  0.25500000920E-02 0. -1.
       -2   -1    0    0    0  501  0.00000000000E+00  0.00000000000E+00 -0.77165602344E+03  0.77165602344E+03  0.25500000920E-02 0.  1.
    10030    2    1    2    0    0  0.00000000000E+00  0.00000000000E+00  0.14961617074E+03  0.16929282176E+04  0.16863039321E+04 0.  0.
        5    1    3    3  502    0  0.51755015552E+03  0.66551785382E+03  0.64232443499E+02  0.84552946373E+03  0.46999998093E+01 0. -1.
       -5    1    3    3    0  502 -0.51755015552E+03 -0.66551785382E+03  0.85383727245E+02  0.84739875390E+03  0.46999998093E+01 0.  1.
</event>
<event>
 5   0  0.5059689E-04  0.1665997E+04  0.7818609E-02  0.8780999E-01
       -1   -1    0    0    0  501  0.00000000000E+00  0.00000000000E+00  0.11089516175E+04  0.11089516175E+04  0.50400001928E-02 0.  1.
        1   -1    0    0  501    0  0.00000000000E+00  0.00000000000E+00 -0.62571395262E+03  0.62571395264E+03  0.50400001928E-02 0. -1.
    10030    2    1    2    0    0  0.00000000000E+00  0.00000000000E+00  0.48323766487E+03  0.17346655701E+04  0.16659969986E+04 0.  0.
        5    1    3    3  502    0  0.25038252314E+02 -0.60916879222E+03  0.83259668266E+03  0.10319655311E+04  0.46999998093E+01 0.  1.
       -5    1    3    3    0  502 -0.25038252314E+02  0.60916879222E+03 -0.34935901779E+03  0.70270003900E+03  0.46999998093E+01 0. -1.
</event>
<event>
 5   0  0.9625225E-04  0.1691447E+04  0.7818609E-02  0.8766258E-01
        2   -1    0    0  501    0  0.00000000000E+00  0.00000000000E+00  0.55970752434E+03  0.55970752434E+03  0.25500000920E-02 0. -1.
       -2   -1    0    0    0  501  0.00000000000E+00  0.00000000000E+00 -0.12778960977E+04  0.12778960977E+04  0.25500000920E-02 0.  1.
    10030    2    1    2    0    0  0.00000000000E+00  0.00000000000E+00 -0.71818857333E+03  0.18376036220E+04  0.16914467904E+04 0.  0.
        1    1    3    3  502    0  0.61772821456E+03  0.64185224644E+01 -0.98660146986E+03  0.11640497433E+04  0.50400001928E-02 0.  1.
       -1    1    3    3    0  502 -0.61772821456E+03 -0.64185224644E+01  0.26841289653E+03  0.67355387872E+03  0.50400001928E-02 0. -1.
</event>
<event>
 5   0  0.9610114E-04  0.1690521E+04  0.7818609E-02  0.8766789E-01
        2   -1    0    0  501    0  0.00000000000E+00  0.00000000000E+00  0.23807208987E+04  0.23807208987E+04  0.25500000920E-02 0. -1.
       -2   -1    0    0    0  501  0.00000000000E+00  0.00000000000E+00 -0.30010470963E+03  0.30010470964E+03  0.25500000920E-02 0.  1.
    10030    2    1    2    0    0  0.00000000000E+00  0.00000000000E+00  0.20806161891E+04  0.26808256084E+04  0.16905212853E+04 0.  0.
        2    1    3    3  502    0 -0.30708455477E+03 -0.56100338205E+03  0.19167250253E+04  0.20206089530E+04  0.25500000920E-02 0. -1.
       -2    1    3    3    0  502  0.30708455477E+03  0.56100338205E+03  0.16389116384E+03  0.66021665538E+03  0.25500000920E-02 0.  1.
</event>
<event>
 5   0  0.9610114E-04  0.1699984E+04  0.7818609E-02  0.8761374E-01
       -2   -1    0    0    0  501  0.00000000000E+00  0.00000000000E+00  0.39494670466E+03  0.39494670467E+03  0.25500000920E-02 0. -1.
        2   -1    0    0  501    0  0.00000000000E+00  0.00000000000E+00 -0.18293257916E+04  0.18293257916E+04  0.25500000920E-02 0.  1.
    10030    2    1    2    0    0  0.00000000000E+00  0.00000000000E+00 -0.14343790869E+04  0.22242724962E+04  0.16999837566E+04 0.  0.
        2    1    3    3  502    0  0.97197996558E+02  0.81227031813E+03 -0.10191333725E+04  0.13068524596E+04  0.25500000920E-02 0. -1.
       -2    1    3    3    0  502 -0.97197996558E+02 -0.81227031813E+03 -0.41524571440E+03  0.91742003662E+03  0.25500000920E-02 0.  1.
</event>
<event>
 5   0  0.5035495E-04  0.1708726E+04  0.7818609E-02  0.8756403E-01
        1   -1    0    0  501    0  0.00000000000E+00  0.00000000000E+00  0.13586933239E+04  0.13586933239E+04  0.50400001928E-02 0.  1.
       -1   -1    0    0    0  501  0.00000000000E+00  0.00000000000E+00 -0.53723389750E+03  0.53723389753E+03  0.50400001928E-02 0. -1.
    10030    2    1    2    0    0  0.00000000000E+00  0.00000000000E+00  0.82145942640E+03  0.18959272214E+04  0.17087259698E+04 0.  0.
        4    1    3    3  502    0  0.20927193647E+03  0.64381245436E+03 -0.16756646421E+03  0.69740185876E+03  0.12699999809E+01 0. -1.
       -4    1    3    3    0  502 -0.20927193647E+03 -0.64381245436E+03  0.98902589062E+03  0.11985253627E+04  0.12699999809E+01 0.  1.
</event>
<event>
 5   0  0.5074133E-04  0.1686623E+04  0.7818609E-02  0.8769031E-01
       -1   -1    0    0    0  501  0.00000000000E+00  0.00000000000E+00  0.69274812417E+03  0.69274812419E+03  0.50400001928E-02 0.  1.
        1   -1    0    0  501    0  0.00000000000E+00  0.00000000000E+00 -0.10265989379E+04  0.10265989379E+04  0.50400001928E-02 0. -1.
    10030    2    1    2    0    0  0.00000000000E+00  0.00000000000E+00 -0.33385081372E+03  0.17193470621E+04  0.16866232401E+04 0.  0.
        1    1    3    3  502    0 -0.32813989184E+03 -0.71682121448E+03  0.13832726998E+03  0.80040169652E+03  0.50400001928E-02 0. -1.
       -1    1    3    3    0  502  0.32813989184E+03  0.71682121448E+03 -0.47217808371E+03  0.91894536557E+03  0.50400001928E-02 0.  1.
</event>
<event>
 5   0  0.1007187E-03  0.8572061E+03  0.7818609E-02  0.9480716E-01
       -2   -1    0    0    0  501  0.00000000000E+00  0.00000000000E+00  0.80269574579E+02  0.80269574619E+02  0.25500000920E-02 0.  1.
        2   -1    0    0  501    0  0.00000000000E+00  0.00000000000E+00 -0.22885456615E+04  0.22885456615E+04  0.25500000920E-02 0. -1.
    10030    2    1    2    0    0  0.00000000000E+00  0.00000000000E+00 -0.22082760869E+04  0.23688152361E+04  0.85720612854E+03 0.  0.
        5    1    3    3  502    0  0.33930481583E+03 -0.60512975649E+02 -0.40020526561E+03  0.52818171389E+03  0.46999998093E+01 0.  1.
       -5    1    3    3    0  502 -0.33930481583E+03  0.60512975649E+02 -0.18080708213E+04  0.18406335222E+04  0.46999998093E+01 0. -1.
</event>
<event>
 5   0  0.5059689E-04  0.1488499E+04  0.7818609E-02  0.8892137E-01
        1   -1    0    0  501    0  0.00000000000E+00  0.00000000000E+00  0.49591168353E+03  0.49591168356E+03  0.50400001928E-02 0. -1.
       -1   -1    0    0    0  501  0.00000000000E+00  0.00000000000E+00 -0.11169472643E+04  0.11169472643E+04  0.50400001928E-02 0.  1.
    10030    2    1    2    0    0  0.00000000000E+00  0.00000000000E+00 -0.62103558077E+03  0.16128589479E+04  0.14884988388E+04 0.  0.
        5    1    3    3  502    0 -0.29858811709E+03  0.14922329927E+03 -0.10312703553E+04  0.10839571451E+04  0.46999998093E+01 0.  1.
       -5    1    3    3    0  502  0.29858811709E+03 -0.14922329927E+03  0.41023477454E+03  0.52890180275E+03  0.46999998093E+01 0. -1.
</event>
<event>
 5   0  0.9610114E-04  0.1654540E+04  0.7818609E-02  0.8787725E-01
       -2   -1    0    0    0  501  0.00000000000E+00  0.00000000000E+00  0.30383876245E+03  0.30383876246E+03  0.25500000920E-02 0.  1.
        2   -1    0    0  501    0  0.00000000000E+00  0.00000000000E+00 -0.22524291477E+04  0.22524291477E+04  0.25500000920E-02 0. -1.
    10030    2    1    2    0    0  0.00000000000E+00  0.00000000000E+00 -0.19485903853E+04  0.25562679102E+04  0.16545395550E+04 0.  0.
        2    1    3    3  502    0 -0.63942137091E+03  0.27341441769E+03 -0.16665531733E+04  0.18058279577E+04  0.25500000920E-02 0. -1.
       -2    1    3    3    0  502  0.63942137091E+03 -0.27341441769E+03 -0.28203721202E+03  0.75043995253E+03  0.25500000920E-02 0.  1.
</event>
<event>
 5   0  0.9284971E-04  0.1704622E+04  0.7818609E-02  0.8758733E-01
       -2   -1    0    0    0  501  0.00000000000E+00  0.00000000000E+00  0.62733398981E+03  0.62733398982E+03  0.25500000920E-02 0.  1.
        2   -1    0    0  501    0  0.00000000000E+00  0.00000000000E+00 -0.11579704255E+04  0.11579704255E+04  0.25500000920E-02 0. -1.
    10030    2    1    2    0    0  0.00000000000E+00  0.00000000000E+00 -0.53063643567E+03  0.17853044153E+04  0.17046221952E+04 0.  0.
        4    1    3    3  502    0  0.34031633521E+03  0.98873017415E+02  0.54650993067E+03  0.65135689050E+03  0.12699999809E+01 0.  1.
       -4    1    3    3    0  502 -0.34031633521E+03 -0.98873017415E+02 -0.10771463663E+04  0.11339475248E+04  0.12699999809E+01 0. -1.
</event>
<event>
 5   0  0.5035495E-04  0.1692468E+04  0.7818609E-02  0.8765672E-01
       -1   -1    0    0    0  501  0.00000000000E+00  0.00000000000E+00  0.12863554226E+04  0.12863554226E+04  0.50400001928E-02 0.  1.
        1   -1    0    0  501    0  0.00000000000E+00  0.00000000000E+00 -0.55669865167E+03  0.55669865169E+03  0.50400001928E-02 0. -1.
    10030    2    1    2    0    0  0.00000000000E+00  0.00000000000E+00  0.72965677095E+03  0.18430540743E+04  0.16924684096E+04 0.  0.
        4    1    3    3  502    0  0.73376077585E+03 -0.29076908129E+03  0.69720490717E+03  0.10531133986E+04  0.12699999809E+01 0.  1.
       -4    1    3    3    0  502 -0.73376077585E+03  0.29076908129E+03  0.32451863784E+02  0.78994067573E+03  0.12699999809E+01 0. -1.
</event>
<event>
 5   0  0.1007187E-03  0.1651917E+04  0.7818609E-02  0.8789273E-01
        2   -1    0    0  501    0  0.00000000000E+00  0.00000000000E+00  0.10516083942E+04  0.10516083942E+04  0.25500000920E-02 0. -1.
       -2   -1    0    0    0  501  0.00000000000E+00  0.00000000000E+00 -0.64872770532E+03  0.64872770532E+03  0.25500000920E-02 0.  1.
    10030    2    1    2    0    0  0.00000000000E+00  0.00000000000E+00  0.40288068891E+03  0.17003360996E+04  0.16519170687E+04 0.  0.
        5    1    3    3  502    0  0.73605736629E+03  0.20526199074E+02  0.58655068025E+03  0.94141678433E+03  0.46999998093E+01 0. -1.
       -5    1    3    3    0  502 -0.73605736629E+03 -0.20526199074E+02 -0.18366999134E+03  0.75891931523E+03  0.46999998093E+01 0.  1.
</event>
<event>
 5   0  0.9312096E-04  0.1704806E+04  0.7818609E-02  0.8758628E-01
        2   -1    0    0  501    0  0.00000000000E+00  0.00000000000E+00  0.16591935042E+04  0.16591935042E+04  0.25500000920E-02 0.  1.
       -2   -1    0    0    0  501  0.00000000000E+00  0.00000000000E+00 -0.43791823304E+03  0.43791823305E+03  0.25500000920E-02 0. -1.
    10030    2    1    2    0    0  0.00000000000E+00  0.00000000000E+00  0.12212752712E+04  0.20971117373E+04  0.17048062502E+04 0.  0.
        3    1    3    3  502    0 -0.23535194853E+03  0.20566939602E+03  0.15861607393E+04  0.16166620987E+04  0.10100000352E+00 0.  1.
       -3    1    3    3    0  502  0.23535194853E+03 -0.20566939602E+03 -0.36488546816E+03  0.48044963858E+03  0.10100000352E+00 0. -1.
</event>
<event>
 5   0  0.9284971E-04  0.1680922E+04  0.7818609E-02  0.8772320E-01
       -2   -1    0    0    0  501  0.00000000000E+00  0.00000000000E+00  0.84933871535E+03  0.84933871535E+03  0.25500000920E-02 0. -1.
        2   -1    0    0  501    0  0.00000000000E+00  0.00000000000E+00 -0.83167644815E+03  0.83167644815E+03  0.25500000920E-02 0.  1.
    10030    2    1    2    0    0  0.00000000000E+00  0.00000000000E+00  0.17662267202E+02  0.16810151635E+04  0.16809223731E+04 0.  0.
        4    1    3    3  502    0 -0.76131301188E+03 -0.96478948158E+01 -0.34711380025E+03  0.83676770202E+03  0.12699999809E+01 0.  1.
       -4    1    3    3    0  502  0.76131301188E+03  0.96478948158E+01  0.36477606745E+03  0.84424746148E+03  0.12699999809E+01 0. -1.
</event>
<event>
 5   0  0.4947006E-04  0.1011522E+04  0.7818609E-02  0.9295998E-01
       -1   -1    0    0    0  501  0.00000000000E+00  0.00000000000E+00  0.40242600601E+03  0.40242600604E+03  0.50400001928E-02 0. -1.
        1   -1    0    0  501    0  0.00000000000E+00  0.00000000000E+00 -0.63562981453E+03  0.63562981455E+03  0.50400001928E-02 0.  1.
    10030    2    1    2    0    0  0.00000000000E+00  0.00000000000E+00 -0.23320380852E+03  0.10380558206E+04  0.10115215620E+04 0.  0.
        2    1    3    3  502    0 -0.27622105069E+03 -0.16958927490E+03 -0.51503293809E+03  0.60853719552E+03  0.25500000920E-02 0.  1.
       -2    1    3    3    0  502  0.27622105069E+03  0.16958927490E+03  0.28182912957E+03  0.42951862507E+03  0.25500000920E-02 0. -1.
</event>
<event>
 5   0  0.9312096E-04  0.1636095E+04  0.7818609E-02  0.8798676E-01
        2   -1    0    0  501    0  0.00000000000E+00  0.00000000000E+00  0.20362566108E+04  0.20362566108E+04  0.25500000920E-02 0.  1.
       -2   -1    0    0    0  501  0.00000000000E+00  0.00000000000E+00 -0.32864291342E+03  0.32864291343E+03  0.25500000920E-02 0. -1.
    10030    2    1    2    0    0  0.00000000000E+00  0.00000000000E+00  0.17076136974E+04  0.23648995242E+04  0.16360945022E+04 0.  0.
        3    1    3    3  502    0  0.50420870496E+03 -0.39160880375E+03  0.11447802320E+03  0.64860550517E+03  0.10100000352E+00 0. -1.
       -3    1    3    3    0  502 -0.50420870496E+03  0.39160880375E+03  0.15931356742E+04  0.17162940190E+04  0.10100000352E+00 0.  1.
</event>
<event>
 5   0  0.5059689E-04  0.1719355E+04  0.7818609E-02  0.8750402E-01
       -1   -1    0    0    0  501  0.00000000000E+00  0.00000000000E+00  0.37137012247E+03  0.37137012250E+03  0.50400001928E-02 0.  1.
        1   -1    0    0  501    0  0.00000000000E+00  0.00000000000E+00 -0.19900496946E+04  0.19900496946E+04  0.50400001928E-02 0. -1.
    10030    2    1    2    0    0  0.00000000000E+00  0.00000000000E+00 -0.16186795722E+04  0.23614198171E+04  0.17193545287E+04 0.  0.
        5    1    3    3  502    0  0.36519924348E+03  0.69888275104E+02  0.25519824350E+03  0.45100231919E+03  0.46999998093E+01 0.  1.
       -5    1    3    3    0  502 -0.36519924348E+03 -0.69888275104E+02 -0.18738778157E+04  0.19104174980E+04  0.46999998093E+01 0. -1.
</event>
<event>
 5   0  0.9284971E-04  0.1850688E+04  0.7818609E-02  0.8679799E-01
        2   -1    0    0  501    0  0.00000000000E+00  0.00000000000E+00  0.15009420637E+04  0.15009420637E+04  0.25500000920E-02 0.  1.
       -2   -1    0    0    0  501  0.00000000000E+00  0.00000000000E+00 -0.57048252242E+03  0.57048252243E+03  0.25500000920E-02 0. -1.
    10030    2    1    2    0    0  0.00000000000E+00  0.00000000000E+00  0.93045954131E+03  0.20714245862E+04  0.18506876717E+04 0.  0.
        4    1    3    3  502    0  0.38025436022E+03  0.24060087925E+03  0.13702347316E+04  0.14422298687E+04  0.12699999809E+01 0.  1.
       -4    1    3    3    0  502 -0.38025436022E+03 -0.24060087925E+03 -0.43977519031E+03  0.62919471746E+03  0.12699999809E+01 0. -1.
</event>
<event>
 5   0  0.5074133E-04  0.1514547E+04  0.7818609E-02  0.8874837E-01
       -1   -1    0    0    0  501  0.00000000000E+00  0.00000000000E+00  0.46240081346E+03  0.46240081349E+03  0.50400001928E-02 0.  1.
        1   -1    0    0  501    0  0.00000000000E+00  0.00000000000E+00 -0.12401860023E+04  0.12401860023E+04  0.50400001928E-02 0. -1.
    10030    2    1    2    0    0  0.00000000000E+00  0.00000000000E+00 -0.77778518880E+03  0.17025868158E+04  0.15145468185E+04 0.  0.
        1    1    3    3  502    0 -0.20244855520E+03  0.64012473577E+03 -0.78269698912E+03  0.10311933241E+04  0.50400001928E-02 0. -1.
       -1    1    3    3    0  502  0.20244855520E+03 -0.64012473577E+03  0.49118003195E+01  0.67139349167E+03  0.50400001928E-02 0.  1.
</event>
<event>
 5   0  0.1007187E-03  0.1671599E+04  0.7818609E-02  0.8777731E-01
       -2   -1    0    0    0  501  0.00000000000E+00  0.00000000000E+00  0.42032567610E+03  0.42032567610E+03  0.25500000920E-02 0.  1.
        2   -1    0    0  501    0  0.00000000000E+00  0.00000000000E+00 -0.16619503206E+04  0.16619503206E+04  0.25500000920E-02 0. -1.
    10030    2    1    2    0    0  0.00000000000E+00  0.00000000000E+00 -0.12416246445E+04  0.20822759967E+04  0.16715985070E+04 0.  0.
        5    1    3    3  502    0  0.20830362344E+02  0.82917846547E+03 -0.49275870767E+03  0.96478187461E+03  0.46999998093E+01 0.  1.
       -5    1    3    3    0  502 -0.20830362344E+02 -0.82917846547E+03 -0.74886593687E+03  0.11174941221E+04  0.46999998093E+01 0. -1.
</event>
<event>
 5   0  0.5059689E-04  0.1670590E+04  0.7818609E-02  0.8778318E-01
       -1   -1    0    0    0  501  0.00000000000E+00  0.00000000000E+00  0.27182893703E+04  0.27182893703E+04  0.50400001928E-02 0. -1.
        1   -1    0    0  501    0  0.00000000000E+00  0.00000000000E+00 -0.25667517399E+03  0.25667517404E+03  0.50400001928E-02 0.  1.
    10030    2    1    2    0    0  0.00000000000E+00  0.00000000000E+00  0.24616141963E+04  0.29749645443E+04  0.16705895931E+04 0.  0.
        5    1    3    3  502    0  0.27068814163E+03 -0.10698147236E+03  0.26250374659E+04  0.26411287157E+04  0.46999998093E+01 0. -1.
       -5    1    3    3    0  502 -0.27068814163E+03  0.10698147236E+03 -0.16342326959E+03  0.33383582865E+03  0.46999998093E+01 0.  1.
</event>
<event>
 5   0  0.5059689E-04  0.1718599E+04  0.7818609E-02  0.8750827E-01
        1   -1    0    0  501    0  0.00000000000E+00  0.00000000000E+00  0.10114936248E+04  0.10114936249E+04  0.50400001928E-02 0. -1.
       -1   -1    0    0    0  501  0.00000000000E+00  0.00000000000E+00 -0.73000564459E+03  0.73000564461E+03  0.50400001928E-02 0.  1.
    10030    2    1    2    0    0  0.00000000000E+00  0.00000000000E+00  0.28148798025E+03  0.17414992695E+04  0.17185994945E+04 0.  0.
        5    1    3    3  502    0 -0.46962740261E+03  0.35111064562E+03  0.77724207260E+03  0.97363027488E+03  0.46999998093E+01 0. -1.
       -5    1    3    3    0  502  0.46962740261E+03 -0.35111064562E+03 -0.49575409235E+03  0.76786899457E+03  0.46999998093E+01 0.  1.
</event>
<event>
 5   0  0.1007187E-03  0.1775264E+04  0.7818609E-02  0.8719565E-01
       -2   -1    0    0    0  501  0.00000000000E+00  0.00000000000E+00  0.52917305299E+03  0.52917305299E+03  0.25500000920E-02 0.  1.
        2   -1    0    0  501    0  0.00000000000E+00  0.00000000000E+00 -0.14889096378E+04  0.14889096378E+04  0.25500000920E-02 0. -1.
    10030    2    1    2    0    0  0.00000000000E+00  0.00000000000E+00 -0.95973658477E+03  0.20180826907E+04  0.17752643281E+04 0.  0.
        5    1    3    3  502    0 -0.40383346580E+03  0.28828000037E+03 -0.13165265654E+04  0.14069296763E+04  0.46999998093E+01 0. -1.
       -5    1    3    3    0  502  0.40383346580E+03 -0.28828000037E+03  0.35678998066E+03  0.61115301440E+03  0.46999998093E+01 0.  1.
</event>
<event>
 5   0  0.5035495E-04  0.1113360E+04  0.7818609E-02  0.9192268E-01
       -1   -1    0    0    0  501  0.00000000000E+00  0.00000000000E+00  0.88566935716E+03  0.88566935717E+03  0.50400001928E-02 0. -1.
        1   -1    0    0  501    0  0.00000000000E+00  0.00000000000E+00 -0.34989626146E+03  0.34989626150E+03  0.50400001928E-02 0.  1.
    10030    2    1    2    0    0  0.00000000000E+00  0.00000000000E+00  0.53577309569E+03  0.12355656187E+04  0.11133595951E+04 0.  0.
        4    1    3    3  502    0 -0.39165585904E+03 -0.38159754775E+02 -0.16908450301E+03  0.42830089991E+03  0.12699999809E+01 0.  1.
       -4    1    3    3    0  502  0.39165585904E+03  0.38159754775E+02  0.70485759870E+03  0.80726471876E+03  0.12699999809E+01 0. -1.
</event>
<event>
 5   0  0.5035495E-04  0.1724758E+04  0.7818609E-02  0.8747369E-01
        1   -1    0    0  501    0  0.00000000000E+00  0.00000000000E+00  0.82609364494E+03  0.82609364496E+03  0.50400001928E-02 0.  1.
       -1   -1    0    0    0  501  0.00000000000E+00  0.00000000000E+00 -0.90025798833E+03  0.90025798834E+03  0.50400001928E-02 0. -1.
    10030    2    1    2    0    0  0.00000000000E+00  0.00000000000E+00 -0.74164343388E+02  0.17263516333E+04  0.17247578415E+04 0.  0.
        4    1    3    3  502    0 -0.61064349632E+02 -0.46780382394E+03 -0.75964017919E+03  0.89421702468E+03  0.12699999809E+01 0. -1.
       -4    1    3    3    0  502  0.61064349632E+02  0.46780382394E+03  0.68547583581E+03  0.83213460862E+03  0.12699999809E+01 0.  1.
</event>
<event>
 5   0  0.5059689E-04  0.2220498E+04  0.7818609E-02  0.8509945E-01
       -1   -1    0    0    0  501  0.00000000000E+00  0.00000000000E+00  0.83862468929E+03  0.83862468930E+03  0.50400001928E-02 0. -1.
        1   -1    0    0  501    0  0.00000000000E+00  0.00000000000E+00 -0.14698502982E+04  0.14698502982E+04  0.50400001928E-02 0.  1.
    10030    2    1    2    0    0  0.00000000000E+00  0.00000000000E+00 -0.63122560891E+03  0.23084749875E+04  0.22204979168E+04 0.  0.
        5    1    3    3  502    0  0.10917108576E+04  0.94546793777E+02 -0.13005011979E+03  0.11034975380E+04  0.46999998093E+01 0. -1.
       -5    1    3    3    0  502 -0.10917108576E+04 -0.94546793777E+02 -0.50117548912E+03  0.12049774495E+04  0.46999998093E+01 0.  1.
</event>
<event>
 5   0  0.5035495E-04  0.1729648E+04  0.7818609E-02  0.8744633E-01
       -1   -1    0    0    0  501  0.00000000000E+00  0.00000000000E+00  0.96257107327E+03  0.96257107328E+03  0.50400001928E-02 0. -1.
        1   -1    0    0  501    0  0.00000000000E+00  0.00000000000E+00 -0.77700313627E+03  0.77700313628E+03  0.50400001928E-02 0.  1.
    10030    2    1    2    0    0  0.00000000000E+00  0.00000000000E+00  0.18556793700E+03  0.17395742096E+04  0.17296482218E+04 0.  0.
        4    1    3    3  502    0  0.65081312507E+03 -0.26040008995E+03 -0.41663357002E+03  0.81544532323E+03  0.12699999809E+01 0.  1.
       -4    1    3    3    0  502 -0.65081312507E+03  0.26040008995E+03  0.60220150702E+03  0.92412888634E+03  0.12699999809E+01 0. -1.
</event>
<event>
 5   0  0.5035495E-04  0.1767421E+04  0.7818609E-02  0.8723819E-01
        1   -1    0    0  501    0  0.00000000000E+00  0.00000000000E+00  0.13178610621E+04  0.13178610621E+04  0.50400001928E-02 0. -1.
       -1   -1    0    0    0  501  0.00000000000E+00  0.00000000000E+00 -0.59258436564E+03  0.59258436566E+03  0.50400001928E-02 0.  1.
    10030    2    1    2    0    0  0.00000000000E+00  0.00000000000E+00  0.72527669644E+03  0.19104454278E+04  0.17674205629E+04 0.  0.
        4    1    3    3  502    0 -0.52021591433E+03 -0.31015166942E+02 -0.40880728100E+03  0.66235303578E+03  0.12699999809E+01 0.  1.
       -4    1    3    3    0  502  0.52021591433E+03  0.31015166942E+02  0.11340839774E+04  0.12480923920E+04  0.12699999809E+01 0. -1.
</event>
<event>
 5   0  0.5035495E-04  0.1452789E+04  0.7818609E-02  0.8916469E-01
        1   -1    0    0  501    0  0.00000000000E+00  0.00000000000E+00  0.12039785004E+04  0.12039785004E+04  0.50400001928E-02 0.  1.
       -1   -1    0    0    0  501  0.00000000000E+00  0.00000000000E+00 -0.43825477385E+03  0.43825477388E+03  0.50400001928E-02 0. -1.
    10030    2    1    2    0    0  0.00000000000E+00  0.00000000000E+00  0.76572372653E+03  0.16422332743E+04  0.14527894898E+04 0.  0.
        4    1    3    3  502    0  0.44742141652E+03 -0.85168787153E+01  0.10296534565E+04  0.11226960028E+04  0.12699999809E+01 0.  1.
       -4    1    3    3    0  502 -0.44742141652E+03  0.85168787153E+01 -0.26392973001E+03  0.51953727149E+03  0.12699999809E+01 0. -1.
</event>
<event>
 5   0  0.5074133E-04  0.1657668E+04  0.7818609E-02  0.8785883E-01
        1   -1    0    0  501    0  0.00000000000E+00  0.00000000000E+00  0.19324800935E+04  0.19324800935E+04  0.50400001928E-02 0. -1.
       -1   -1    0    0    0  501  0.00000000000E+00  0.00000000000E+00 -0.35548399193E+03  0.35548399196E+03  0.50400001928E-02 0.  1.
    10030    2    1    2    0    0  0.00000000000E+00  0.00000000000E+00  0.15769961016E+04  0.22879640855E+04  0.16576679257E+04 0.  0.
        1    1    3    3  502    0 -0.28240947920E+02 -0.48572793659E+03 -0.13763215005E+03  0.50563997892E+03  0.50400001928E-02 0.  1.
       -1    1    3    3    0  502  0.28240947920E+02  0.48572793659E+03  0.17146282516E+04  0.17823241065E+04  0.50400001928E-02 0. -1.
</event>
<event>
 5   0  0.9610114E-04  0.1736000E+04  0.7818609E-02  0.8741094E-01
        2   -1    0    0  501    0  0.00000000000E+00  0.00000000000E+00  0.19240580135E+04  0.19240580135E+04  0.25500000920E-02 0. -1.
       -2   -1    0    0    0  501  0.00000000000E+00  0.00000000000E+00 -0.39158088971E+03  0.39158088972E+03  0.25500000920E-02 0.  1.
    10030    2    1    2    0    0  0.00000000000E+00  0.00000000000E+00  0.15324771238E+04  0.23156389032E+04  0.17360004018E+04 0.  0.
        2    1    3    3  502    0  0.23164314255E+03  0.51582770362E+03 -0.11219619283E+03  0.57647614955E+03  0.25500000920E-02 0.  1.
       -2    1    3    3    0  502 -0.23164314255E+03 -0.51582770362E+03  0.16446733166E+04  0.17391627536E+04  0.25500000920E-02 0. -1.
</event>
<event>
 5   0  0.5074133E-04  0.1683807E+04  0.7818609E-02  0.8770654E-01
       -1   -1    0    0    0  501  0.00000000000E+00  0.00000000000E+00  0.68627462951E+03  0.68627462953E+03  0.50400001928E-02 0.  1.
        1   -1    0    0  501    0  0.00000000000E+00  0.00000000000E+00 -0.10328244690E+04  0.10328244690E+04  0.50400001928E-02 0. -1.
    10030    2    1    2    0    0  0.00000000000E+00  0.00000000000E+00 -0.34654983947E+03  0.17190990985E+04  0.16838066752E+04 0.  0.
        1    1    3    3  502    0 -0.40773085514E+03 -0.27719770530E+03 -0.87001420118E+03  0.10000038642E+04  0.50400001928E-02 0. -1.
       -1    1    3    3    0  502  0.40773085514E+03  0.27719770530E+03  0.52346436171E+03  0.71909523435E+03  0.50400001928E-02 0.  1.
</event>
<event>
 5   0  0.5035495E-04  0.1706674E+04  0.7818609E-02  0.8757567E-01
        1   -1    0    0  501    0  0.00000000000E+00  0.00000000000E+00  0.13371203178E+04  0.13371203178E+04  0.50400001928E-02 0.  1.
       -1   -1    0    0    0  501  0.00000000000E+00  0.00000000000E+00 -0.54459136396E+03  0.54459136398E+03  0.50400001928E-02 0. -1.
    10030    2    1    2    0    0  0.00000000000E+00  0.00000000000E+00  0.79252895381E+03  0.18817116818E+04  0.17066741665E+04 0.  0.
        4    1    3    3  502    0  0.12930853483E+03 -0.32970138184E+03 -0.45973651914E+03  0.58033005979E+03  0.12699999809E+01 0. -1.
       -4    1    3    3    0  502 -0.12930853483E+03  0.32970138184E+03  0.12522654729E+04  0.13013816220E+04  0.12699999809E+01 0.  1.
</event>
<event>
 5   0  0.1007187E-03  0.1712289E+04  0.7818609E-02  0.8754386E-01
        2   -1    0    0  501    0  0.00000000000E+00  0.00000000000E+00  0.61157114785E+03  0.61157114786E+03  0.25500000920E-02 0. -1.
       -2   -1    0    0    0  501  0.00000000000E+00  0.00000000000E+00 -0.11985256924E+04  0.11985256924E+04  0.25500000920E-02 0.  1.
    10030    2    1    2    0    0  0.00000000000E+00  0.00000000000E+00 -0.58695454458E+03  0.18100968403E+04  0.17122893838E+04 0.  0.
        5    1    3    3  502    0  0.54709182565E+03 -0.32028898950E+03  0.31477352293E+03  0.70781280239E+03  0.46999998093E+01 0. -1.
       -5    1    3    3    0  502 -0.54709182565E+03  0.32028898950E+03 -0.90172806751E+03  0.11022840379E+04  0.46999998093E+01 0.  1.
</event>
<event>
 5   0  0.3523125E-04  0.1745023E+04  0.7818609E-02  0.8736095E-01
        4   -1    0    0  501    0  0.00000000000E+00  0.00000000000E+00  0.59700637721E+03  0.59700772804E+03  0.12699999809E+01 0.  1.
       -4   -1    0    0    0  501  0.00000000000E+00  0.00000000000E+00 -0.12751523100E+04  0.12751529424E+04  0.12699999809E+01 0. -1.
    10030    2    1    2    0    0  0.00000000000E+00  0.00000000000E+00 -0.67814593275E+03  0.18721606704E+04  0.17450225413E+04 0.  0.
        4    1    3    3  502    0  0.94568849563E+02 -0.74965015370E+03  0.12901233221E+03  0.76652750440E+03  0.12699999809E+01 0.  1.
       -4    1    3    3    0  502 -0.94568849563E+02  0.74965015370E+03 -0.80715826496E+03  0.11056331660E+04  0.12699999809E+01 0. -1.
</event>
<event>
 5   0  0.5009762E-04  0.1742596E+04  0.7818609E-02  0.8737437E-01
        1   -1    0    0  501    0  0.00000000000E+00  0.00000000000E+00  0.74234496493E+03  0.74234496495E+03  0.50400001928E-02 0.  1.
       -1   -1    0    0    0  501  0.00000000000E+00  0.00000000000E+00 -0.10226512020E+04  0.10226512020E+04  0.50400001928E-02 0. -1.
    10030    2    1    2    0    0  0.00000000000E+00  0.00000000000E+00 -0.28030623706E+03  0.17649961669E+04  0.17425957313E+04 0.  0.
        3    1    3    3  502    0 -0.51451210567E+03 -0.59261543603E+03 -0.52349444539E+03  0.94337808245E+03  0.10100000352E+00 0.  1.
       -3    1    3    3    0  502  0.51451210567E+03  0.59261543603E+03  0.24318820833E+03  0.82161808450E+03  0.10100000352E+00 0. -1.
</event>
<event>
 5   0  0.5035495E-04  0.1670297E+04  0.7818609E-02  0.8778489E-01
       -1   -1    0    0    0  501  0.00000000000E+00  0.00000000000E+00  0.90778543864E+03  0.90778543865E+03  0.50400001928E-02 0. -1.
        1   -1    0    0  501    0  0.00000000000E+00  0.00000000000E+00 -0.76832354867E+03  0.76832354869E+03  0.50400001928E-02 0.  1.
    10030    2    1    2    0    0  0.00000000000E+00  0.00000000000E+00  0.13946188996E+03  0.16761089873E+04  0.16702968954E+04 0.  0.
        4    1    3    3  502    0  0.45646867246E+03 -0.66583883159E+03  0.28440599300E+03  0.85591669008E+03  0.12699999809E+01 0. -1.
       -4    1    3    3    0  502 -0.45646867246E+03  0.66583883159E+03 -0.14494410304E+03  0.82019229727E+03  0.12699999809E+01 0.  1.
</event>
<event>
 5   0  0.5035495E-04  0.1303872E+04  0.7818609E-02  0.9026500E-01
        1   -1    0    0  501    0  0.00000000000E+00  0.00000000000E+00  0.15264445239E+04  0.15264445239E+04  0.50400001928E-02 0.  1.
       -1   -1    0    0    0  501  0.00000000000E+00  0.00000000000E+00 -0.27843812635E+03  0.27843812639E+03  0.50400001928E-02 0. -1.
    10030    2    1    2    0    0  0.00000000000E+00  0.00000000000E+00  0.12480063975E+04  0.18048826503E+04  0.13038717011E+04 0.  0.
        4    1    3    3  502    0  0.47910187669E+03 -0.41115823786E+03  0.84904063325E+03  0.10580459889E+04  0.12699999809E+01 0.  1.
       -4    1    3    3    0  502 -0.47910187669E+03  0.41115823786E+03  0.39896576428E+03  0.74683666138E+03  0.12699999809E+01 0. -1.
</event>
<event>
 5   0  0.9284971E-04  0.1680495E+04  0.7818609E-02  0.8772568E-01
        2   -1    0    0  501    0  0.00000000000E+00  0.00000000000E+00  0.13990829321E+04  0.13990829321E+04  0.25500000920E-02 0.  1.
       -2   -1    0    0    0  501  0.00000000000E+00  0.00000000000E+00 -0.50462761891E+03  0.50462761892E+03  0.25500000920E-02 0. -1.
    10030    2    1    2    0    0  0.00000000000E+00  0.00000000000E+00  0.89445531314E+03  0.19037105510E+04  0.16804950326E+04 0.  0.
        4    1    3    3  502    0 -0.11992055053E+03  0.80263517441E+03  0.69388791615E+03  0.10677481982E+04  0.12699999809E+01 0. -1.
       -4    1    3    3    0  502  0.11992055053E+03 -0.80263517441E+03  0.20056739700E+03  0.83596235279E+03  0.12699999809E+01 0.  1.
</event>
<event>
 5   0  0.3523125E-04  0.1700990E+04  0.7818609E-02  0.8760800E-01
       -3   -1    0    0    0  501  0.00000000000E+00  0.00000000000E+00  0.43361760995E+03  0.43361762171E+03  0.10100000352E+00 0.  1.
        3   -1    0    0  501    0  0.00000000000E+00  0.00000000000E+00 -0.16681567017E+04  0.16681567047E+04  0.10100000352E+00 0. -1.
    10030    2    1    2    0    0  0.00000000000E+00  0.00000000000E+00 -0.12345390917E+04  0.21017743264E+04  0.17009904616E+04 0.  0.
        3    1    3    3  502    0 -0.80967360736E+02  0.69660918782E+03 -0.12118085991E+04  0.14001071977E+04  0.10100000352E+00 0. -1.
       -3    1    3    3    0  502  0.80967360736E+02 -0.69660918782E+03 -0.22730492653E+02  0.70166712875E+03  0.10100000352E+00 0.  1.
</event>
<event>
 5   0  0.5009762E-04  0.1725237E+04  0.7818609E-02  0.8747100E-01
       -1   -1    0    0    0  501  0.00000000000E+00  0.00000000000E+00  0.30942103346E+03  0.30942103350E+03  0.50400001928E-02 0.  1.
        1   -1    0    0  501    0  0.00000000000E+00  0.00000000000E+00 -0.24048494179E+04  0.24048494179E+04  0.50400001928E-02 0. -1.
    10030    2    1    2    0    0  0.00000000000E+00  0.00000000000E+00 -0.20954283845E+04  0.27142704514E+04  0.17252373660E+04 0.  0.
        3    1    3    3  502    0 -0.48269778966E+03  0.69139275750E+03 -0.13339024853E+04  0.15780738106E+04  0.10100000352E+00 0.  1.
       -3    1    3    3    0  502  0.48269778966E+03 -0.69139275750E+03 -0.76152589914E+03  0.11361966408E+04  0.10100000352E+00 0. -1.
</event>
<event>
 5   0  0.9610114E-04  0.1533180E+04  0.7818609E-02  0.8862684E-01
        2   -1    0    0  501    0  0.00000000000E+00  0.00000000000E+00  0.43101374552E+03  0.43101374553E+03  0.25500000920E-02 0.  1.
       -2   -1    0    0    0  501  0.00000000000E+00  0.00000000000E+00 -0.13634370154E+04  0.13634370154E+04  0.25500000920E-02 0. -1.
    10030    2    1    2    0    0  0.00000000000E+00  0.00000000000E+00 -0.93242326987E+03  0.17944507609E+04  0.15331798261E+04 0.  0.
        2    1    3    3  502    0 -0.30812755309E+03 -0.47424420460E+03  0.13948030735E+03  0.58249885040E+03  0.25500000920E-02 0.  1.
       -2    1    3    3    0  502  0.30812755309E+03  0.47424420460E+03 -0.10719035772E+04  0.12119519105E+04  0.25500000920E-02 0. -1.
</event>
<event>
 5   0  0.1007187E-03  0.1894911E+04  0.7818609E-02  0.8657394E-01
       -2   -1    0    0    0  501  0.00000000000E+00  0.00000000000E+00  0.73094220088E+03  0.73094220088E+03  0.25500000920E-02 0.  1.
        2   -1    0    0  501    0  0.00000000000E+00  0.00000000000E+00 -0.12281026159E+04  0.12281026159E+04  0.25500000920E-02 0. -1.
    10030    2    1    2    0    0  0.00000000000E+00  0.00000000000E+00 -0.49716041501E+03  0.19590448168E+04  0.18949111103E+04 0.  0.
        5    1    3    3  502    0  0.71760089977E+03 -0.61284593323E+03 -0.33580850416E+03  0.10016589393E+04  0.46999998093E+01 0. -1.
       -5    1    3    3    0  502 -0.71760089977E+03  0.61284593323E+03 -0.16135191085E+03  0.95738587746E+03  0.46999998093E+01 0.  1.
</event>
<event>
 5   0  0.9312096E-04  0.1694966E+04  0.7818609E-02  0.8764241E-01
        2   -1    0    0  501    0  0.00000000000E+00  0.00000000000E+00  0.12420832402E+04  0.12420832402E+04  0.25500000920E-02 0.  1.
       -2   -1    0    0    0  501  0.00000000000E+00  0.00000000000E+00 -0.57824408691E+03  0.57824408691E+03  0.25500000920E-02 0. -1.
    10030    2    1    2    0    0  0.00000000000E+00  0.00000000000E+00  0.66383915326E+03  0.18203273271E+04  0.16949658275E+04 0.  0.
        3    1    3    3  502    0 -0.10138081537E+02 -0.48193013549E+03  0.10805157800E+04  0.11831626250E+04  0.10100000352E+00 0.  1.
       -3    1    3    3    0  502  0.10138081537E+02  0.48193013549E+03 -0.41667662669E+03  0.63716470212E+03  0.10100000352E+00 0. -1.
</event>
<event>
 5   0  0.4947006E-04  0.1624706E+04  0.7818609E-02  0.8805512E-01
       -1   -1    0    0    0  501  0.00000000000E+00  0.00000000000E+00  0.49918378596E+03  0.49918378598E+03  0.50400001928E-02 0. -1.
        1   -1    0    0  501    0  0.00000000000E+00  0.00000000000E+00 -0.13219933274E+04  0.13219933274E+04  0.50400001928E-02 0.  1.
    10030    2    1    2    0    0  0.00000000000E+00  0.00000000000E+00 -0.82280954140E+03  0.18211771133E+04  0.16247062925E+04 0.  0.
        2    1    3    3  502    0  0.11074212623E+03 -0.14931795442E+03  0.47501955153E+03  0.51010120994E+03  0.25500000920E-02 0. -1.
       -2    1    3    3    0  502 -0.11074212623E+03  0.14931795442E+03 -0.12978290929E+04  0.13110759034E+04  0.25500000920E-02 0.  1.
</event>
<event>
 5   0  0.9312096E-04  0.1691290E+04  0.7818609E-02  0.8766348E-01
       -2   -1    0    0    0  501  0.00000000000E+00  0.00000000000E+00  0.70485038656E+03  0.70485038657E+03  0.25500000920E-02 0.  1.
        2   -1    0    0  501    0  0.00000000000E+00  0.00000000000E+00 -0.10145633153E+04  0.10145633153E+04  0.25500000920E-02 0. -1.
    10030    2    1    2    0    0  0.00000000000E+00  0.00000000000E+00 -0.30971292872E+03  0.17194137018E+04  0.16912898569E+04 0.  0.
        3    1    3    3  502    0 -0.10042008582E+03  0.53352968006E+03 -0.81400292850E+03  0.97843696320E+03  0.10100000352E+00 0. -1.
       -3    1    3    3    0  502  0.10042008582E+03 -0.53352968006E+03  0.50428999978E+03  0.74097673865E+03  0.10100000352E+00 0.  1.
</event>
<event>
 5   0  0.5059689E-04  0.1719130E+04  0.7818609E-02  0.8750528E-01
       -1   -1    0    0    0  501  0.00000000000E+00  0.00000000000E+00  0.14564155857E+04  0.14564155857E+04  0.50400001928E-02 0. -1.
        1   -1    0    0  501    0  0.00000000000E+00  0.00000000000E+00 -0.50730864872E+03  0.50730864875E+03  0.50400001928E-02 0.  1.
    10030    2    1    2    0    0  0.00000000000E+00  0.00000000000E+00  0.94910693695E+03  0.19637242344E+04  0.17191302717E+04 0.  0.
        5    1    3    3  502    0  0.13842129252E+03 -0.58490666734E+03 -0.22732379574E+03  0.64263089081E+03  0.46999998093E+01 0.  1.
       -5    1    3    3    0  502 -0.13842129252E+03  0.58490666734E+03  0.11764307327E+04  0.13210933436E+04  0.46999998093E+01 0. -1.
</event>
<event>
 5   0  0.5009762E-04  0.1844858E+04  0.7818609E-02  0.8682802E-01
       -1   -1    0    0    0  501  0.00000000000E+00  0.00000000000E+00  0.90204249287E+03  0.90204249288E+03  0.50400001928E-02 0.  1.
        1   -1    0    0  501    0  0.00000000000E+00  0.00000000000E+00 -0.94327584312E+03  0.94327584313E+03  0.50400001928E-02 0. -1.
    10030    2    1    2    0    0  0.00000000000E+00  0.00000000000E+00 -0.41233350251E+02  0.18453183360E+04  0.18448576021E+04 0.  0.
        3    1    3    3  502    0 -0.58947858512E+03 -0.56321128285E+03 -0.45221363696E+03  0.93230313477E+03  0.10100000352E+00 0. -1.
       -3    1    3    3    0  502  0.58947858512E+03  0.56321128285E+03  0.41098028670E+03  0.91301520125E+03  0.10100000352E+00 0.  1.
</event>
<event>
 5   0  0.5035495E-04  0.1608672E+04  0.7818609E-02  0.8815238E-01
       -1   -1    0    0    0  501  0.00000000000E+00  0.00000000000E+00  0.97796291649E+03  0.97796291651E+03  0.50400001928E-02 0. -1.
        1   -1    0    0  501    0  0.00000000000E+00  0.00000000000E+00 -0.66153447491E+03  0.66153447493E+03  0.50400001928E-02 0.  1.
    10030    2    1    2    0    0  0.00000000000E+00  0.00000000000E+00  0.31642844159E+03  0.16394973914E+04  0.16086717309E+04 0.  0.
        4    1    3    3  502    0  0.39138225600E+03  0.22643323698E+02  0.87399829830E+03  0.95789739991E+03  0.12699999809E+01 0. -1.
       -4    1    3    3    0  502 -0.39138225600E+03 -0.22643323698E+02 -0.55756985671E+03  0.68159999152E+03  0.12699999809E+01 0.  1.
</event>
<event>
 5   0  0.9284971E-04  0.1752353E+04  0.7818609E-02  0.8732056E-01
        2   -1    0    0  501    0  0.00000000000E+00  0.00000000000E+00  0.19236775974E+04  0.19236775974E+04  0.25500000920E-02 0. -1.
       -2   -1    0    0    0  501  0.00000000000E+00  0.00000000000E+00 -0.39907166833E+03  0.39907166833E+03  0.25500000920E-02 0.  1.
    10030    2    1    2    0    0  0.00000000000E+00  0.00000000000E+00  0.15246059291E+04  0.23227492658E+04  0.17523529646E+04 0.  0.
        4    1    3    3  502    0 -0.43059806365E+03 -0.11144880245E+02 -0.24903479661E+03  0.49755285508E+03  0.12699999809E+01 0.  1.
       -4    1    3    3    0  502  0.43059806365E+03  0.11144880245E+02  0.17736407257E+04  0.18251964107E+04  0.12699999809E+01 0. -1.
</event>
<event>
 5   0  0.5035495E-04  0.1488138E+04  0.7818609E-02  0.8892379E-01
       -1   -1    0    0    0  501  0.00000000000E+00  0.00000000000E+00  0.44745070151E+03  0.44745070154E+03  0.50400001928E-02 0. -1.
        1   -1    0    0  501    0  0.00000000000E+00  0.00000000000E+00 -0.12373180625E+04  0.12373180625E+04  0.50400001928E-02 0.  1.
    10030    2    1    2    0    0  0.00000000000E+00  0.00000000000E+00 -0.78986736099E+03  0.16847687641E+04  0.14881382128E+04 0.  0.
        4    1    3    3  502    0 -0.50746400443E+03  0.47981960734E+03 -0.10432476629E+03  0.70613868408E+03  0.12699999809E+01 0. -1.
       -4    1    3    3    0  502  0.50746400443E+03 -0.47981960734E+03 -0.68554259470E+03  0.97863007997E+03  0.12699999809E+01 0.  1.
</event>
<event>
 5   0  0.1007187E-03  0.1701291E+04  0.7818609E-02  0.8760629E-01
        2   -1    0    0  501    0  0.00000000000E+00  0.00000000000E+00  0.86696110262E+03  0.86696110263E+03  0.25500000920E-02 0.  1.
       -2   -1    0    0    0  501  0.00000000000E+00  0.00000000000E+00 -0.83463676528E+03  0.83463676528E+03  0.25500000920E-02 0. -1.
    10030    2    1    2    0    0  0.00000000000E+00  0.00000000000E+00  0.32324337349E+02  0.17015978679E+04  0.17012908162E+04 0.  0.
        5    1    3    3  502    0  0.57206194587E+02 -0.27186471329E+03 -0.78796835200E+03  0.83552329997E+03  0.46999998093E+01 0. -1.
       -5    1    3    3    0  502 -0.57206194587E+02  0.27186471329E+03  0.82029268935E+03  0.86607456794E+03  0.46999998093E+01 0.  1.
</event>
<event>
 5   0  0.5009762E-04  0.1727752E+04  0.7818609E-02  0.8745693E-01
       -1   -1    0    0    0  501  0.00000000000E+00  0.00000000000E+00  0.78539278180E+03  0.78539278182E+03  0.50400001928E-02 0.  1.
        1   -1    0    0  501    0  0.00000000000E+00  0.00000000000E+00 -0.95020140618E+03  0.95020140619E+03  0.50400001928E-02 0. -1.
    10030    2    1    2    0    0  0.00000000000E+00  0.00000000000E+00 -0.16480862438E+03  0.17355941880E+04  0.17277515165E+04 0.  0.
        3    1    3    3  502    0  0.81924842440E+03 -0.74826732388E+02  0.18244811956E+03  0.84264722588E+03  0.10100000352E+00 0. -1.
       -3    1    3    3    0  502 -0.81924842440E+03  0.74826732388E+02 -0.34725674394E+03  0.89294696213E+03  0.10100000352E+00 0.  1.
</event>
<event>
 5   0  0.9610114E-04  0.1723396E+04  0.7818609E-02  0.8748132E-01
       -2   -1    0    0    0  501  0.00000000000E+00  0.00000000000E+00  0.76476245762E+03  0.76476245762E+03  0.25500000920E-02 0. -1.
        2   -1    0    0  501    0  0.00000000000E+00  0.00000000000E+00 -0.97092029512E+03  0.97092029512E+03  0.25500000920E-02 0.  1.
    10030    2    1    2    0    0  0.00000000000E+00  0.00000000000E+00 -0.20615783750E+03  0.17356827527E+04  0.17233959395E+04 0.  0.
        2    1    3    3  502    0 -0.73812147477E+03  0.31777139341E+03 -0.41629685011E+03  0.90504421848E+03  0.25500000920E-02 0.  1.
       -2    1    3    3    0  502  0.73812147477E+03 -0.31777139341E+03  0.21013901260E+03  0.83063853427E+03  0.25500000920E-02 0. -1.
</event>
<event>
 5   0  0.9284971E-04  0.1641230E+04  0.7818609E-02  0.8795612E-01
       -2   -1    0    0    0  501  0.00000000000E+00  0.00000000000E+00  0.94276907736E+03  0.94276907736E+03  0.25500000920E-02 0.  1.
        2   -1    0    0  501    0  0.00000000000E+00  0.00000000000E+00 -0.71428835165E+03  0.71428835166E+03  0.25500000920E-02 0. -1.
    10030    2    1    2    0    0  0.00000000000E+00  0.00000000000E+00  0.22848072571E+03  0.16570574290E+04  0.16412299903E+04 0.  0.
        4    1    3    3  502    0 -0.65569362128E+03 -0.49112941969E+03  0.66188055122E+02  0.82190309855E+03  0.12699999809E+01 0. -1.
       -4    1    3    3    0  502  0.65569362128E+03  0.49112941969E+03  0.16229267059E+03  0.83515433047E+03  0.12699999809E+01 0.  1.
</event>
<event>
 5   0  0.9610114E-04  0.1973942E+04  0.7818609E-02  0.8618901E-01
       -2   -1    0    0    0  501  0.00000000000E+00  0.00000000000E+00  0.78122238832E+03  0.78122238832E+03  0.25500000920E-02 0. -1.
        2   -1    0    0  501    0  0.00000000000E+00  0.00000000000E+00 -0.12469069803E+04  0.12469069803E+04  0.25500000920E-02 0.  1.
    10030    2    1    2    0    0  0.00000000000E+00  0.00000000000E+00 -0.46568459202E+03  0.20281293687E+04  0.19739418930E+04 0.  0.
        2    1    3    3  502    0 -0.78893128079E+03 -0.54921918422E+03 -0.29654083895E+01  0.96128199389E+03  0.25500000920E-02 0. -1.
       -2    1    3    3    0  502  0.78893128079E+03  0.54921918422E+03 -0.46271918363E+03  0.10668473748E+04  0.25500000920E-02 0.  1.
</event>
<event>
 5   0  0.5035495E-04  0.1675981E+04  0.7818609E-02  0.8775183E-01
       -1   -1    0    0    0  501  0.00000000000E+00  0.00000000000E+00  0.56968289331E+03  0.56968289334E+03  0.50400001928E-02 0. -1.
        1   -1    0    0  501    0  0.00000000000E+00  0.00000000000E+00 -0.12326645337E+04  0.12326645337E+04  0.50400001928E-02 0.  1.
    10030    2    1    2    0    0  0.00000000000E+00  0.00000000000E+00 -0.66298164041E+03  0.18023474271E+04  0.16759807852E+04 0.  0.
        4    1    3    3  502    0 -0.51793952793E+02 -0.96279618078E+02  0.56197965152E+03  0.57251648014E+03  0.12699999809E+01 0. -1.
       -4    1    3    3    0  502  0.51793952793E+02  0.96279618078E+02 -0.12249612919E+04  0.12298309469E+04  0.12699999809E+01 0.  1.
</event>
<event>
 5   0  0.1007187E-03  0.1700745E+04  0.7818609E-02  0.8760940E-01
        2   -1    0    0  501    0  0.00000000000E+00  0.00000000000E+00  0.12879190583E+04  0.12879190583E+04  0.25500000920E-02 0.  1.
       -2   -1    0    0    0  501  0.00000000000E+00  0.00000000000E+00 -0.56147423811E+03  0.56147423812E+03  0.25500000920E-02 0. -1.
    10030    2    1    2    0    0  0.00000000000E+00  0.00000000000E+00  0.72644482023E+03  0.18493932965E+04  0.17007449803E+04 0.  0.
        5    1    3    3  502    0  0.13607594009E+03 -0.55037314254E+03 -0.32595710645E+03  0.65398576646E+03  0.46999998093E+01 0. -1.
       -5    1    3    3    0  502 -0.13607594009E+03  0.55037314254E+03  0.10524019267E+04  0.11954075300E+04  0.46999998093E+01 0.  1.
</event>
<event>
 5   0  0.4947006E-04  0.1629530E+04  0.7818609E-02  0.8802609E-01
        1   -1    0    0  501    0  0.00000000000E+00  0.00000000000E+00  0.59653404604E+03  0.59653404606E+03  0.50400001928E-02 0. -1.
       -1   -1    0    0    0  501  0.00000000000E+00  0.00000000000E+00 -0.11128313068E+04  0.11128313068E+04  0.50400001928E-02 0.  1.
    10030    2    1    2    0    0  0.00000000000E+00  0.00000000000E+00 -0.51629726076E+03  0.17093653529E+04  0.16295297015E+04 0.  0.
        2    1    3    3  502    0  0.47558167762E+03  0.45399205972E+03 -0.76292583588E+03  0.10071457459E+04  0.25500000920E-02 0.  1.
       -2    1    3    3    0  502 -0.47558167762E+03 -0.45399205972E+03  0.24662857511E+03  0.70221960700E+03  0.25500000920E-02 0. -1.
</event>
<event>
 5   0  0.5074133E-04  0.1675011E+04  0.7818609E-02  0.8775746E-01
       -1   -1    0    0    0  501  0.00000000000E+00  0.00000000000E+00  0.38828458463E+03  0.38828458467E+03  0.50400001928E-02 0.  1.
        1   -1    0    0  501    0  0.00000000000E+00  0.00000000000E+00 -0.18064472022E+04  0.18064472022E+04  0.50400001928E-02 0. -1.
    10030    2    1    2    0    0  0.00000000000E+00  0.00000000000E+00 -0.14181626176E+04  0.21947317869E+04  0.16750111661E+04 0.  0.
        1    1    3    3  502    0 -0.13765170563E+03 -0.26504297392E+03  0.31613957438E+03  0.43490228857E+03  0.50400001928E-02 0.  1.
       -1    1    3    3    0  502  0.13765170563E+03  0.26504297392E+03 -0.17343021920E+04  0.17598294983E+04  0.50400001928E-02 0. -1.
</event>
<event>
 5   0  0.5059689E-04  0.1660790E+04  0.7818609E-02  0.8784049E-01
       -1   -1    0    0    0  501  0.00000000000E+00  0.00000000000E+00  0.41115499435E+03  0.41115499438E+03  0.50400001928E-02 0.  1.
        1   -1    0    0  501    0  0.00000000000E+00  0.00000000000E+00 -0.16771188246E+04  0.16771188246E+04  0.50400001928E-02 0. -1.
    10030    2    1    2    0    0  0.00000000000E+00  0.00000000000E+00 -0.12659638302E+04  0.20882738190E+04  0.16607899095E+04 0.  0.
        5    1    3    3  502    0 -0.48949228471E+03  0.66860048711E+03 -0.70074601424E+03  0.10852172016E+04  0.46999998093E+01 0. -1.
       -5    1    3    3    0  502  0.48949228471E+03 -0.66860048711E+03 -0.56521781600E+03  0.10030566174E+04  0.46999998093E+01 0.  1.
</event>
<event>
 5   0  0.5035495E-04  0.1649869E+04  0.7818609E-02  0.8790484E-01
        1   -1    0    0  501    0  0.00000000000E+00  0.00000000000E+00  0.48134802181E+03  0.48134802183E+03  0.50400001928E-02 0.  1.
       -1   -1    0    0    0  501  0.00000000000E+00  0.00000000000E+00 -0.14137731029E+04  0.14137731029E+04  0.50400001928E-02 0. -1.
    10030    2    1    2    0    0  0.00000000000E+00  0.00000000000E+00 -0.93242508112E+03  0.18951211248E+04  0.16498689480E+04 0.  0.
        4    1    3    3  502    0 -0.42117282618E+03 -0.68848494448E+03 -0.27020969902E+03  0.85112452828E+03  0.12699999809E+01 0.  1.
       -4    1    3    3    0  502  0.42117282618E+03  0.68848494448E+03 -0.66221538210E+03  0.10439965965E+04  0.12699999809E+01 0. -1.
</event>
<event>
 5   0  0.9625225E-04  0.1730098E+04  0.7818609E-02  0.8744382E-01
       -2   -1    0    0    0  501  0.00000000000E+00  0.00000000000E+00  0.43335631136E+03  0.43335631137E+03  0.25500000920E-02 0.  1.
        2   -1    0    0  501    0  0.00000000000E+00  0.00000000000E+00 -0.17267780133E+04  0.17267780133E+04  0.25500000920E-02 0. -1.
    10030    2    1    2    0    0  0.00000000000E+00  0.00000000000E+00 -0.12934217020E+04  0.21601343247E+04  0.17300984370E+04 0.  0.
        1    1    3    3  502    0 -0.35980869302E+03 -0.42939947690E+03 -0.14696861765E+04  0.15728393636E+04  0.50400001928E-02 0. -1.
       -1    1    3    3    0  502  0.35980869302E+03  0.42939947690E+03  0.17626447451E+03  0.58729496110E+03  0.50400001928E-02 0.  1.
</event>
<event>
 5   0  0.5074133E-04  0.1687825E+04  0.7818609E-02  0.8768339E-01
       -1   -1    0    0    0  501  0.00000000000E+00  0.00000000000E+00  0.58696229720E+03  0.58696229722E+03  0.50400001928E-02 0. -1.
        1   -1    0    0  501    0  0.00000000000E+00  0.00000000000E+00 -0.12133458883E+04  0.12133458883E+04  0.50400001928E-02 0.  1.
    10030    2    1    2    0    0  0.00000000000E+00  0.00000000000E+00 -0.62638359110E+03  0.18003081855E+04  0.16878249790E+04 0.  0.
        1    1    3    3  502    0 -0.18280607438E+03 -0.79727465660E+03 -0.53469279845E+03  0.97722122757E+03  0.50400001928E-02 0.  1.
       -1    1    3    3    0  502  0.18280607438E+03  0.79727465660E+03 -0.91690792652E+02  0.82308695796E+03  0.50400001928E-02 0. -1.
</event>
<event>
 5   0  0.9312096E-04  0.1687391E+04  0.7818609E-02  0.8768589E-01
        2   -1    0    0  501    0  0.00000000000E+00  0.00000000000E+00  0.14576182170E+04  0.14576182170E+04  0.25500000920E-02 0. -1.
       -2   -1    0    0    0  501  0.00000000000E+00  0.00000000000E+00 -0.48834611301E+03  0.48834611302E+03  0.25500000920E-02 0.  1.
    10030    2    1    2    0    0  0.00000000000E+00  0.00000000000E+00  0.96927210399E+03  0.19459643300E+04  0.16873911112E+04 0.  0.
        3    1    3    3  502    0  0.26096402710E+03  0.70292704120E+03  0.93070763316E+03  0.11951675018E+04  0.10100000352E+00 0. -1.
       -3    1    3    3    0  502 -0.26096402710E+03 -0.70292704120E+03  0.38564470826E+02  0.75079682824E+03  0.10100000352E+00 0.  1.
</event>
<event>
 5   0  0.9625225E-04  0.1705003E+04  0.7818609E-02  0.8758516E-01
       -2   -1    0    0    0  501  0.00000000000E+00  0.00000000000E+00  0.11470332539E+04  0.11470332539E+04  0.25500000920E-02 0. -1.
        2   -1    0    0  501    0  0.00000000000E+00  0.00000000000E+00 -0.63359855122E+03  0.63359855123E+03  0.25500000920E-02 0.  1.
    10030    2    1    2    0    0  0.00000000000E+00  0.00000000000E+00  0.51343470269E+03  0.17806318052E+04  0.17050027659E+04 0.  0.
        1    1    3    3  502    0 -0.68341001426E+03 -0.37766794167E+03 -0.10062419069E+03  0.78727857174E+03  0.50400001928E-02 0.  1.
       -1    1    3    3    0  502  0.68341001426E+03  0.37766794167E+03  0.61405889338E+03  0.99335323341E+03  0.50400001928E-02 0. -1.
</event>
<event>
 5   0  0.9625225E-04  0.1662820E+04  0.7818609E-02  0.8782858E-01
       -2   -1    0    0    0  501  0.00000000000E+00  0.00000000000E+00  0.68462102890E+03  0.68462102891E+03  0.25500000920E-02 0. -1.
        2   -1    0    0  501    0  0.00000000000E+00  0.00000000000E+00 -0.10096723997E+04  0.10096723997E+04  0.25500000920E-02 0.  1.
    10030    2    1    2    0    0  0.00000000000E+00  0.00000000000E+00 -0.32505137083E+03  0.16942934286E+04  0.16628204439E+04 0.  0.
        1    1    3    3  502    0 -0.56053028684E+03 -0.40516617249E+03  0.30760653004E+03  0.75695152232E+03  0.50400001928E-02 0. -1.
       -1    1    3    3    0  502  0.56053028684E+03  0.40516617249E+03 -0.63265790087E+03  0.93734190633E+03  0.50400001928E-02 0.  1.
</event>
<event>
 5   0  0.1007187E-03  0.1531808E+04  0.7818609E-02  0.8863572E-01
       -2   -1    0    0    0  501  0.00000000000E+00  0.00000000000E+00  0.91770829989E+03  0.91770829989E+03  0.25500000920E-02 0.  1.
        2   -1    0    0  501    0  0.00000000000E+00  0.00000000000E+00 -0.63921079712E+03  0.63921079712E+03  0.25500000920E-02 0. -1.
    10030    2    1    2    0    0  0.00000000000E+00  0.00000000000E+00  0.27849750277E+03  0.15569190970E+04  0.15318081523E+04 0.  0.
        5    1    3    3  502    0  0.49289337647E+02 -0.49289417477E+03 -0.45446124750E+03  0.67225829991E+03  0.46999998093E+01 0. -1.
       -5    1    3    3    0  502 -0.49289337647E+02  0.49289417477E+03  0.73295875028E+03  0.88466079710E+03  0.46999998093E+01 0.  1.
</event>
<event>
 5   0  0.5059689E-04  0.1651130E+04  0.7818609E-02  0.8789738E-01
        1   -1    0    0  501    0  0.00000000000E+00  0.00000000000E+00  0.13406906043E+04  0.13406906043E+04  0.50400001928E-02 0. -1.
       -1   -1    0    0    0  501  0.00000000000E+00  0.00000000000E+00 -0.50836302760E+03  0.50836302762E+03  0.50400001928E-02 0.  1.
    10030    2    1    2    0    0  0.00000000000E+00  0.00000000000E+00  0.83232757672E+03  0.18490536319E+04  0.16511299582E+04 0.  0.
        5    1    3    3  502    0  0.58586875083E+03  0.37610688931E+03 -0.80681830065E+02  0.70087818705E+03  0.46999998093E+01 0.  1.
       -5    1    3    3    0  502 -0.58586875083E+03 -0.37610688931E+03  0.91300940678E+03  0.11481754449E+04  0.46999998093E+01 0. -1.
</event>
<event>
 5   0  0.9312096E-04  0.1723377E+04  0.7818609E-02  0.8748143E-01
       -2   -1    0    0    0  501  0.00000000000E+00  0.00000000000E+00  0.57870791203E+03  0.57870791203E+03  0.25500000920E-02 0.  1.
        2   -1    0    0  501    0  0.00000000000E+00  0.00000000000E+00 -0.12830426611E+04  0.12830426611E+04  0.25500000920E-02 0. -1.
    10030    2    1    2    0    0  0.00000000000E+00  0.00000000000E+00 -0.70433474908E+03  0.18617505731E+04  0.17233768473E+04 0.  0.
        3    1    3    3  502    0 -0.63085314232E+03 -0.93055731278E+02 -0.97824482230E+03  0.11677319893E+04  0.10100000352E+00 0. -1.
       -3    1    3    3    0  502  0.63085314232E+03  0.93055731278E+02  0.27391007322E+03  0.69401858383E+03  0.10100000352E+00 0.  1.
</event>
<event>
 5   0  0.4947006E-04  0.1242652E+04  0.7818609E-02  0.9076321E-01
        1   -1    0    0  501    0  0.00000000000E+00  0.00000000000E+00  0.13784915357E+04  0.13784915357E+04  0.50400001928E-02 0.  1.
       -1   -1    0    0    0  501  0.00000000000E+00  0.00000000000E+00 -0.28004957209E+03  0.28004957214E+03  0.50400001928E-02 0. -1.
    10030    2    1    2    0    0  0.00000000000E+00  0.00000000000E+00  0.10984419636E+04  0.16585411078E+04  0.12426519460E+04 0.  0.
        2    1    3    3  502    0 -0.40822487016E+03 -0.46836932823E+03  0.54208419441E+03  0.82454390185E+03  0.25500000920E-02 0.  1.
       -2    1    3    3    0  502  0.40822487016E+03  0.46836932823E+03  0.55635776918E+03  0.83399720598E+03  0.25500000920E-02 0. -1.
</event>
<event>
 5   0  0.5074133E-04  0.1715072E+04  0.7818609E-02  0.8752815E-01
       -1   -1    0    0    0  501  0.00000000000E+00  0.00000000000E+00  0.78945444117E+03  0.78945444118E+03  0.50400001928E-02 0.  1.
        1   -1    0    0  501    0  0.00000000000E+00  0.00000000000E+00 -0.93148864077E+03  0.93148864078E+03  0.50400001928E-02 0. -1.
    10030    2    1    2    0    0  0.00000000000E+00  0.00000000000E+00 -0.14203419960E+03  0.17209430820E+04  0.17150718287E+04 0.  0.
        1    1    3    3  502    0  0.63446800914E+03 -0.43481785307E+03  0.30942675536E+03  0.82907245578E+03  0.50400001928E-02 0.  1.
       -1    1    3    3    0  502 -0.63446800914E+03  0.43481785307E+03 -0.45146095497E+03  0.89187062619E+03  0.50400001928E-02 0. -1.
</event>
<event>
 5   0  0.5009762E-04  0.1688045E+04  0.7818609E-02  0.8768212E-01
       -1   -1    0    0    0  501  0.00000000000E+00  0.00000000000E+00  0.60521492162E+03  0.60521492164E+03  0.50400001928E-02 0. -1.
        1   -1    0    0  501    0  0.00000000000E+00  0.00000000000E+00 -0.11770597508E+04  0.11770597508E+04  0.50400001928E-02 0.  1.
    10030    2    1    2    0    0  0.00000000000E+00  0.00000000000E+00 -0.57184482915E+03  0.17822746724E+04  0.16880451710E+04 0.  0.
        3    1    3    3  502    0  0.22272683377E+03  0.79189110900E+03 -0.86499686007E+02  0.82715232991E+03  0.10100000352E+00 0. -1.
       -3    1    3    3    0  502 -0.22272683377E+03 -0.79189110900E+03 -0.48534514315E+03  0.95512234251E+03  0.10100000352E+00 0.  1.
</event>
<event>
 5   0  0.5009762E-04  0.1727789E+04  0.7818609E-02  0.8745672E-01
       -1   -1    0    0    0  501  0.00000000000E+00  0.00000000000E+00  0.40849366632E+03  0.40849366635E+03  0.50400001928E-02 0. -1.
        1   -1    0    0  501    0  0.00000000000E+00  0.00000000000E+00 -0.18269904389E+04  0.18269904389E+04  0.50400001928E-02 0.  1.
    10030    2    1    2    0    0  0.00000000000E+00  0.00000000000E+00 -0.14184967725E+04  0.22354841052E+04  0.17277893653E+04 0.  0.
        3    1    3    3  502    0  0.43607836858E+02  0.69695256094E+03 -0.13672900609E+04  0.15352936646E+04  0.10100000352E+00 0.  1.
       -3    1    3    3    0  502 -0.43607836858E+02 -0.69695256094E+03 -0.51206711620E+02  0.70019044063E+03  0.10100000352E+00 0. -1.
</event>
<event>
 5   0  0.9610114E-04  0.1703622E+04  0.7818609E-02  0.8759301E-01
       -2   -1    0    0    0  501  0.00000000000E+00  0.00000000000E+00  0.56513219588E+03  0.56513219589E+03  0.25500000920E-02 0. -1.
        2   -1    0    0  501    0  0.00000000000E+00  0.00000000000E+00 -0.12839152794E+04  0.12839152794E+04  0.25500000920E-02 0.  1.
    10030    2    1    2    0    0  0.00000000000E+00  0.00000000000E+00 -0.71878308353E+03  0.18490474753E+04  0.17036218608E+04 0.  0.
        2    1    3    3  502    0 -0.10741072950E+03  0.14514909074E+03 -0.12629039541E+04  0.12757475144E+04  0.25500000920E-02 0.  1.
       -2    1    3    3    0  502  0.10741072950E+03 -0.14514909074E+03  0.54412087055E+03  0.57329996087E+03  0.25500000920E-02 0. -1.
</event>
<event>
 5   0  0.5059689E-04  0.1738363E+04  0.7818609E-02  0.8739782E-01
        1   -1    0    0  501    0  0.00000000000E+00  0.00000000000E+00  0.86698082168E+03  0.86698082169E+03  0.50400001928E-02 0.  1.
       -1   -1    0    0    0  501  0.00000000000E+00  0.00000000000E+00 -0.87138817785E+03  0.87138817786E+03  0.50400001928E-02 0. -1.
    10030    2    1    2    0    0  0.00000000000E+00  0.00000000000E+00 -0.44073561737E+01  0.17383689996E+04  0.17383634125E+04 0.  0.
        5    1    3    3  502    0  0.21180107390E+03 -0.73271630447E+03 -0.41900457467E+03  0.87024123169E+03  0.46999998093E+01 0. -1.
       -5    1    3    3    0  502 -0.21180107390E+03  0.73271630447E+03  0.41459721850E+03  0.86812776786E+03  0.46999998093E+01 0.  1.
</event>
<event>
 5   0  0.1007187E-03  0.1713084E+04  0.7818609E-02  0.8753937E-01
        2   -1    0    0  501    0  0.00000000000E+00  0.00000000000E+00  0.10525721394E+04  0.10525721394E+04  0.25500000920E-02 0.  1.
       -2   -1    0    0    0  501  0.00000000000E+00  0.00000000000E+00 -0.69701996454E+03  0.69701996454E+03  0.25500000920E-02 0. -1.
    10030    2    1    2    0    0  0.00000000000E+00  0.00000000000E+00  0.35555217481E+03  0.17495921039E+04  0.17130835301E+04 0.  0.
        5    1    3    3  502    0 -0.31806623236E+03 -0.50325405562E+03  0.80670085080E+03  0.10026061666E+04  0.46999998093E+01 0.  1.
       -5    1    3    3    0  502  0.31806623236E+03  0.50325405562E+03 -0.45114867598E+03  0.74698593728E+03  0.46999998093E+01 0. -1.
</event>
<event>
 5   0  0.4947006E-04  0.1603575E+04  0.7818609E-02  0.8818355E-01
       -1   -1    0    0    0  501  0.00000000000E+00  0.00000000000E+00  0.52021151808E+03  0.52021151810E+03  0.50400001928E-02 0.  1.
        1   -1    0    0  501    0  0.00000000000E+00  0.00000000000E+00 -0.12357726527E+04  0.12357726527E+04  0.50400001928E-02 0. -1.
    10030    2    1    2    0    0  0.00000000000E+00  0.00000000000E+00 -0.71556113464E+03  0.17559841708E+04  0.16035749657E+04 0.  0.
        2    1    3    3  502    0  0.45621861705E+03 -0.62812757565E+03 -0.57729099446E+03  0.96744228258E+03  0.25500000920E-02 0.  1.
       -2    1    3    3    0  502 -0.45621861705E+03  0.62812757565E+03 -0.13827014018E+03  0.78854188824E+03  0.25500000920E-02 0. -1.
</event>
<event>
 5   0  0.3523125E-04  0.1780850E+04  0.7818609E-02  0.8716550E-01
        4   -1    0    0  501    0  0.00000000000E+00  0.00000000000E+00  0.11498911263E+04  0.11498918276E+04  0.12699999809E+01 0. -1.
       -4   -1    0    0    0  501  0.00000000000E+00  0.00000000000E+00 -0.68950446534E+03  0.68950563495E+03  0.12699999809E+01 0.  1.
    10030    2    1    2    0    0  0.00000000000E+00  0.00000000000E+00  0.46038666093E+03  0.18393974626E+04  0.17808501194E+04 0.  0.
        1    1    3    3  502    0 -0.48611388409E+03 -0.74555552794E+03  0.20292396749E+03  0.91287342504E+03  0.50400001928E-02 0.  1.
       -1    1    3    3    0  502  0.48611388409E+03  0.74555552794E+03  0.25746269344E+03  0.92652403751E+03  0.50400001928E-02 0. -1.
</event>
<event>
 5   0  0.5074133E-04  0.1709774E+04  0.7818609E-02  0.8755809E-01
       -1   -1    0    0    0  501  0.00000000000E+00  0.00000000000E+00  0.65262011300E+03  0.65262011302E+03  0.50400001928E-02 0.  1.
        1   -1    0    0  501    0  0.00000000000E+00  0.00000000000E+00 -0.11198426429E+04  0.11198426429E+04  0.50400001928E-02 0. -1.
    10030    2    1    2    0    0  0.00000000000E+00  0.00000000000E+00 -0.46722252990E+03  0.17724627559E+04  0.17097740578E+04 0.  0.
        1    1    3    3  502    0 -0.50638566275E+03  0.25921134086E+03 -0.89514228112E+03  0.10606114567E+04  0.50400001928E-02 0. -1.
       -1    1    3    3    0  502  0.50638566275E+03 -0.25921134086E+03  0.42791975122E+03  0.71185129920E+03  0.50400001928E-02 0.  1.
</event>
<event>
 5   0  0.4947006E-04  0.1138235E+04  0.7818609E-02  0.9168706E-01
        1   -1    0    0  501    0  0.00000000000E+00  0.00000000000E+00  0.83427886037E+03  0.83427886038E+03  0.50400001928E-02 0. -1.
       -1   -1    0    0    0  501  0.00000000000E+00  0.00000000000E+00 -0.38823324423E+03  0.38823324427E+03  0.50400001928E-02 0.  1.
    10030    2    1    2    0    0  0.00000000000E+00  0.00000000000E+00  0.44604561613E+03  0.12225121046E+04  0.11382351050E+04 0.  0.
        2    1    3    3  502    0 -0.44891792895E+03 -0.12790355678E+03  0.57271895253E+03  0.73884614458E+03  0.25500000920E-02 0. -1.
       -2    1    3    3    0  502  0.44891792895E+03  0.12790355678E+03 -0.12667333640E+03  0.48366596007E+03  0.25500000920E-02 0.  1.
</event>
<event>
 5   0  0.9625225E-04  0.1699683E+04  0.7818609E-02  0.8761545E-01
       -2   -1    0    0    0  501  0.00000000000E+00  0.00000000000E+00  0.12003214735E+04  0.12003214735E+04  0.25500000920E-02 0.  1.
        2   -1    0    0  501    0  0.00000000000E+00  0.00000000000E+00 -0.60169738320E+03  0.60169738321E+03  0.25500000920E-02 0. -1.
    10030    2    1    2    0    0  0.00000000000E+00  0.00000000000E+00  0.59862409030E+03  0.18020188567E+04  0.16996826640E+04 0.  0.
        1    1    3    3  502    0 -0.52527164269E+03  0.11588921601E+03  0.99686969031E+03  0.11327355333E+04  0.50400001928E-02 0.  1.
       -1    1    3    3    0  502  0.52527164269E+03 -0.11588921601E+03 -0.39824560001E+03  0.66928332338E+03  0.50400001928E-02 0. -1.
</event>
<event>
 5   0  0.9625225E-04  0.1688162E+04  0.7818609E-02  0.8768145E-01
       -2   -1    0    0    0  501  0.00000000000E+00  0.00000000000E+00  0.52637486776E+03  0.52637486776E+03  0.25500000920E-02 0. -1.
        2   -1    0    0  501    0  0.00000000000E+00  0.00000000000E+00 -0.13535461961E+04  0.13535461961E+04  0.25500000920E-02 0.  1.
    10030    2    1    2    0    0  0.00000000000E+00  0.00000000000E+00 -0.82717132837E+03  0.18799210639E+04  0.16881619591E+04 0.  0.
        1    1    3    3  502    0 -0.25806259674E+03 -0.37775326901E+03 -0.12035121932E+04  0.12875307512E+04  0.50400001928E-02 0. -1.
       -1    1    3    3    0  502  0.25806259674E+03  0.37775326901E+03  0.37634086478E+03  0.59239031273E+03  0.50400001928E-02 0.  1.
</event>
<event>
 5   0  0.3523125E-04  0.1787015E+04  0.7818609E-02  0.8713235E-01
       -3   -1    0    0    0  501  0.00000000000E+00  0.00000000000E+00  0.57233951920E+03  0.57233952811E+03  0.10100000352E+00 0. -1.
        3   -1    0    0  501    0  0.00000000000E+00  0.00000000000E+00 -0.13948992179E+04  0.13948992216E+04  0.10100000352E+00 0.  1.
    10030    2    1    2    0    0  0.00000000000E+00  0.00000000000E+00 -0.82255969874E+03  0.19672387497E+04  0.17870153442E+04 0.  0.
        3    1    3    3  502    0 -0.12300723765E+03  0.81054079911E+03 -0.80242899665E+03  0.11471702020E+04  0.10100000352E+00 0. -1.
       -3    1    3    3    0  502  0.12300723765E+03 -0.81054079911E+03 -0.20130702086E+02  0.82006854769E+03  0.10100000352E+00 0.  1.
</event>
<event>
 5   0  0.5035495E-04  0.1734442E+04  0.7818609E-02  0.8741961E-01
       -1   -1    0    0    0  501  0.00000000000E+00  0.00000000000E+00  0.65589194527E+03  0.65589194529E+03  0.50400001928E-02 0.  1.
        1   -1    0    0  501    0  0.00000000000E+00  0.00000000000E+00 -0.11466404624E+04  0.11466404624E+04  0.50400001928E-02 0. -1.
    10030    2    1    2    0    0  0.00000000000E+00  0.00000000000E+00 -0.49074851712E+03  0.18025324077E+04  0.17344419776E+04 0.  0.
        4    1    3    3  502    0 -0.20662669449E+03  0.56272713014E+03  0.40589655732E+03  0.72395444747E+03  0.12699999809E+01 0.  1.
       -4    1    3    3    0  502  0.20662669449E+03 -0.56272713014E+03 -0.89664507444E+03  0.10785779602E+04  0.12699999809E+01 0. -1.
</event>
<event>
 5   0  0.1007187E-03  0.1718568E+04  0.7818609E-02  0.8750845E-01
        2   -1    0    0  501    0  0.00000000000E+00  0.00000000000E+00  0.14720622103E+04  0.14720622103E+04  0.25500000920E-02 0. -1.
       -2   -1    0    0    0  501  0.00000000000E+00  0.00000000000E+00 -0.50158817751E+03  0.50158817751E+03  0.25500000920E-02 0.  1.
    10030    2    1    2    0    0  0.00000000000E+00  0.00000000000E+00  0.97047403275E+03  0.19736503878E+04  0.17185680100E+04 0.  0.
        5    1    3    3  502    0 -0.67614862366E+03 -0.46546244487E+03  0.77693452191E+03  0.11302573115E+04  0.46999998093E+01 0. -1.
       -5    1    3    3    0  502  0.67614862366E+03  0.46546244487E+03  0.19353951084E+03  0.84339307628E+03  0.46999998093E+01 0.  1.
</event>
<event>
 5   0  0.5059689E-04  0.1802548E+04  0.7818609E-02  0.8704946E-01
        1   -1    0    0  501    0  0.00000000000E+00  0.00000000000E+00  0.47634879473E+03  0.47634879476E+03  0.50400001928E-02 0.  1.
       -1   -1    0    0    0  501  0.00000000000E+00  0.00000000000E+00 -0.17052525909E+04  0.17052525909E+04  0.50400001928E-02 0. -1.
    10030    2    1    2    0    0  0.00000000000E+00  0.00000000000E+00 -0.12289037962E+04  0.21816013857E+04  0.18025482145E+04 0.  0.
        5    1    3    3  502    0  0.49850795315E+03  0.51729310130E+02 -0.15210264970E+04  0.16014773790E+04  0.46999998093E+01 0. -1.
       -5    1    3    3    0  502 -0.49850795315E+03 -0.51729310130E+02  0.29212270077E+03  0.58012400673E+03  0.46999998093E+01 0.  1.
</event>
<event>
 5   0  0.4947006E-04  0.1698010E+04  0.7818609E-02  0.8762500E-01
        1   -1    0    0  501    0  0.00000000000E+00  0.00000000000E+00  0.13840679988E+04  0.13840679988E+04  0.50400001928E-02 0.  1.
       -1   -1    0    0    0  501  0.00000000000E+00  0.00000000000E+00 -0.52079079341E+03  0.52079079343E+03  0.50400001928E-02 0. -1.
    10030    2    1    2    0    0  0.00000000000E+00  0.00000000000E+00  0.86327720539E+03  0.19048587922E+04  0.16980104490E+04 0.  0.
        2    1    3    3  502    0  0.21385354716E+03  0.13743634724E+02 -0.48995227435E+03  0.53476673258E+03  0.25500000920E-02 0. -1.
       -2    1    3    3    0  502 -0.21385354716E+03 -0.13743634724E+02  0.13532294797E+04  0.13700920597E+04  0.25500000920E-02 0.  1.
</event>
<event>
 5   0  0.1007187E-03  0.1697226E+04  0.7818609E-02  0.8762948E-01
        2   -1    0    0  501    0  0.00000000000E+00  0.00000000000E+00  0.10473056056E+04  0.10473056056E+04  0.25500000920E-02 0.  1.
       -2   -1    0    0    0  501  0.00000000000E+00  0.00000000000E+00 -0.68761589206E+03  0.68761589206E+03  0.25500000920E-02 0. -1.
    10030    2    1    2    0    0  0.00000000000E+00  0.00000000000E+00  0.35968971350E+03  0.17349214976E+04  0.16972259463E+04 0.  0.
        5    1    3    3  502    0 -0.20333144021E+03  0.47191300901E+03 -0.51048861391E+03  0.72433851036E+03  0.46999998093E+01 0. -1.
       -5    1    3    3    0  502  0.20333144021E+03 -0.47191300901E+03  0.87017832742E+03  0.10105829873E+04  0.46999998093E+01 0.  1.
</event>
<event>
 5   0  0.9625225E-04  0.1672769E+04  0.7818609E-02  0.8777049E-01
        2   -1    0    0  501    0  0.00000000000E+00  0.00000000000E+00  0.17367427193E+04  0.17367427193E+04  0.25500000920E-02 0.  1.
       -2   -1    0    0    0  501  0.00000000000E+00  0.00000000000E+00 -0.40278809303E+03  0.40278809304E+03  0.25500000920E-02 0. -1.
    10030    2    1    2    0    0  0.00000000000E+00  0.00000000000E+00  0.13339546263E+04  0.21395308124E+04  0.16727693063E+04 0.  0.
        1    1    3    3  502    0 -0.45248427874E+03 -0.62988910721E+03  0.26650042987E+03  0.82007608735E+03  0.50400001928E-02 0. -1.
       -1    1    3    3    0  502  0.45248427874E+03  0.62988910721E+03  0.10674541964E+04  0.13194547250E+04  0.50400001928E-02 0.  1.
</event>
<event>
 5   0  0.4947006E-04  0.1688008E+04  0.7818609E-02  0.8768233E-01
       -1   -1    0    0    0  501  0.00000000000E+00  0.00000000000E+00  0.84860590609E+03  0.84860590611E+03  0.50400001928E-02 0.  1.
        1   -1    0    0  501    0  0.00000000000E+00  0.00000000000E+00 -0.83942717805E+03  0.83942717807E+03  0.50400001928E-02 0. -1.
    10030    2    1    2    0    0  0.00000000000E+00  0.00000000000E+00  0.91787280414E+01  0.16880330842E+04  0.16880081292E+04 0.  0.
        2    1    3    3  502    0 -0.80496870405E+03  0.17928358959E+03 -0.17492830611E+03  0.84304040964E+03  0.25500000920E-02 0. -1.
       -2    1    3    3    0  502  0.80496870405E+03 -0.17928358959E+03  0.18410703415E+03  0.84499267454E+03  0.25500000920E-02 0.  1.
</event>
<event>
 5   0  0.5059689E-04  0.1716652E+04  0.7818609E-02  0.8751924E-01
        1   -1    0    0  501    0  0.00000000000E+00  0.00000000000E+00  0.52636017016E+03  0.52636017018E+03  0.50400001928E-02 0. -1.
       -1   -1    0    0    0  501  0.00000000000E+00  0.00000000000E+00 -0.13996570607E+04  0.13996570607E+04  0.50400001928E-02 0.  1.
    10030    2    1    2    0    0  0.00000000000E+00  0.00000000000E+00 -0.87329689054E+03  0.19260172309E+04  0.17166522405E+04 0.  0.
        5    1    3    3  502    0 -0.83163255417E+02  0.27178355074E+02 -0.13946265035E+04  0.13973760998E+04  0.46999998093E+01 0.  1.
       -5    1    3    3    0  502  0.83163255417E+02 -0.27178355074E+02  0.52132961300E+03  0.52864113104E+03  0.46999998093E+01 0. -1.
</event>
<event>
 5   0  0.5009762E-04  0.1701549E+04  0.7818609E-02  0.8760481E-01
        1   -1    0    0  501    0  0.00000000000E+00  0.00000000000E+00  0.15028089767E+04  0.15028089767E+04  0.50400001928E-02 0.  1.
       -1   -1    0    0    0  501  0.00000000000E+00  0.00000000000E+00 -0.48164304403E+03  0.48164304406E+03  0.50400001928E-02 0. -1.
    10030    2    1    2    0    0  0.00000000000E+00  0.00000000000E+00  0.10211659327E+04  0.19844520208E+04  0.17015492825E+04 0.  0.
        3    1    3    3  502    0  0.26329944437E+03 -0.53120398469E+03 -0.20104055323E+03  0.62603640869E+03  0.10100000352E+00 0. -1.
       -3    1    3    3    0  502 -0.26329944437E+03  0.53120398469E+03  0.12222064859E+04  0.13584156121E+04  0.10100000352E+00 0.  1.
</event>
<event>
 5   0  0.5009762E-04  0.1578968E+04  0.7818609E-02  0.8833574E-01
       -1   -1    0    0    0  501  0.00000000000E+00  0.00000000000E+00  0.71283689015E+03  0.71283689016E+03  0.50400001928E-02 0. -1.
        1   -1    0    0  501    0  0.00000000000E+00  0.00000000000E+00 -0.87437235792E+03  0.87437235794E+03  0.50400001928E-02 0.  1.
    10030    2    1    2    0    0  0.00000000000E+00  0.00000000000E+00 -0.16153546778E+03  0.15872092481E+04  0.15789678559E+04 0.  0.
        3    1    3    3  502    0  0.66956540061E+03  0.19073657480E+03  0.29344754005E+03  0.75551951373E+03  0.10100000352E+00 0. -1.
       -3    1    3    3    0  502 -0.66956540061E+03 -0.19073657480E+03 -0.45498300782E+03  0.83168973438E+03  0.10100000352E+00 0.  1.
</event>
<event>
 5   0  0.5059689E-04  0.1593015E+04  0.7818609E-02  0.8824851E-01
       -1   -1    0    0    0  501  0.00000000000E+00  0.00000000000E+00  0.13087326527E+04  0.13087326527E+04  0.50400001928E-02 0. -1.
        1   -1    0    0  501    0  0.00000000000E+00  0.00000000000E+00 -0.48476216974E+03  0.48476216976E+03  0.50400001928E-02 0.  1.
    10030    2    1    2    0    0  0.00000000000E+00  0.00000000000E+00  0.82397048297E+03  0.17934948225E+04  0.15930148529E+04 0.  0.
        5    1    3    3  502    0  0.42666843504E+03  0.43222344805E+03 -0.16817024130E+03  0.63021137927E+03  0.46999998093E+01 0.  1.
       -5    1    3    3    0  502 -0.42666843504E+03 -0.43222344805E+03  0.99214072427E+03  0.11632834432E+04  0.46999998093E+01 0. -1.
</event>
<event>
 5   0  0.5035495E-04  0.1693162E+04  0.7818609E-02  0.8765274E-01
       -1   -1    0    0    0  501  0.00000000000E+00  0.00000000000E+00  0.59997212658E+03  0.59997212660E+03  0.50400001928E-02 0. -1.
        1   -1    0    0  501    0  0.00000000000E+00  0.00000000000E+00 -0.11945542010E+04  0.11945542011E+04  0.50400001928E-02 0.  1.
    10030    2    1    2    0    0  0.00000000000E+00  0.00000000000E+00 -0.59458207447E+03  0.17945263276E+04  0.16931618048E+04 0.  0.
        4    1    3    3  502    0  0.15255458080E+03 -0.28477869375E+03 -0.11266502115E+04  0.11720555091E+04  0.12699999809E+01 0.  1.
       -4    1    3    3    0  502 -0.15255458080E+03  0.28477869375E+03  0.53206813704E+03  0.62247081850E+03  0.12699999809E+01 0. -1.
</event>
<event>
 5   0  0.5059689E-04  0.1816811E+04  0.7818609E-02  0.8697411E-01
       -1   -1    0    0    0  501  0.00000000000E+00  0.00000000000E+00  0.18532787337E+04  0.18532787338E+04  0.50400001928E-02 0. -1.
        1   -1    0    0  501    0  0.00000000000E+00  0.00000000000E+00 -0.44526497704E+03  0.44526497707E+03  0.50400001928E-02 0.  1.
    10030    2    1    2    0    0  0.00000000000E+00  0.00000000000E+00  0.14080137567E+04  0.22985437108E+04  0.18168105161E+04 0.  0.
        5    1    3    3  502    0 -0.80048036962E+03 -0.13449078840E+02  0.12470337628E+04  0.14819126140E+04  0.46999998093E+01 0. -1.
       -5    1    3    3    0  502  0.80048036962E+03  0.13449078840E+02  0.16097999387E+03  0.81663109682E+03  0.46999998093E+01 0.  1.
</event>
<event>
 5   0  0.9284971E-04  0.1725674E+04  0.7818609E-02  0.8746855E-01
        2   -1    0    0  501    0  0.00000000000E+00  0.00000000000E+00  0.45205082783E+03  0.45205082784E+03  0.25500000920E-02 0. -1.
       -2   -1    0    0    0  501  0.00000000000E+00  0.00000000000E+00 -0.16469118080E+04  0.16469118080E+04  0.25500000920E-02 0.  1.
    10030    2    1    2    0    0  0.00000000000E+00  0.00000000000E+00 -0.11948609802E+04  0.20989626358E+04  0.17256741827E+04 0.  0.
        4    1    3    3  502    0 -0.40209835532E+03 -0.54711464229E+03 -0.12450180132E+04  0.14181286913E+04  0.12699999809E+01 0.  1.
       -4    1    3    3    0  502  0.40209835532E+03  0.54711464229E+03  0.50157032983E+02  0.68083394452E+03  0.12699999809E+01 0. -1.
</event>
<event>
 5   0  0.5059689E-04  0.1633971E+04  0.7818609E-02  0.8799946E-01
        1   -1    0    0  501    0  0.00000000000E+00  0.00000000000E+00  0.11198838878E+04  0.11198838878E+04  0.50400001928E-02 0.  1.
       -1   -1    0    0    0  501  0.00000000000E+00  0.00000000000E+00 -0.59601266638E+03  0.59601266640E+03  0.50400001928E-02 0. -1.
    10030    2    1    2    0    0  0.00000000000E+00  0.00000000000E+00  0.52387122138E+03  0.17158965542E+04  0.16339706020E+04 0.  0.
        5    1    3    3  502    0  0.76487908685E+03  0.16259427581E+03  0.51036839368E+03  0.93379596449E+03  0.46999998093E+01 0.  1.
       -5    1    3    3    0  502 -0.76487908685E+03 -0.16259427581E+03  0.13502827705E+02  0.78210058969E+03  0.46999998093E+01 0. -1.
</event>
<event>
 5   0  0.9312096E-04  0.1496445E+04  0.7818609E-02  0.8886820E-01
       -2   -1    0    0    0  501  0.00000000000E+00  0.00000000000E+00  0.38469721610E+03  0.38469721611E+03  0.25500000920E-02 0.  1.
        2   -1    0    0  501    0  0.00000000000E+00  0.00000000000E+00 -0.14552663281E+04  0.14552663281E+04  0.25500000920E-02 0. -1.
    10030    2    1    2    0    0  0.00000000000E+00  0.00000000000E+00 -0.10705691120E+04  0.18399635442E+04  0.14964449941E+04 0.  0.
        3    1    3    3  502    0 -0.54133662994E+03  0.51590334446E+03 -0.56627540704E+03  0.93801356843E+03  0.10100000352E+00 0.  1.
       -3    1    3    3    0  502  0.54133662994E+03 -0.51590334446E+03 -0.50429370495E+03  0.90194997577E+03  0.10100000352E+00 0. -1.
</event>
<event>
 5   0  0.9312096E-04  0.1671409E+04  0.7818609E-02  0.8777841E-01
        2   -1    0    0  501    0  0.00000000000E+00  0.00000000000E+00  0.71256730700E+03  0.71256730700E+03  0.25500000920E-02 0. -1.
       -2   -1    0    0    0  501  0.00000000000E+00  0.00000000000E+00 -0.98012052423E+03  0.98012052424E+03  0.25500000920E-02 0.  1.
    10030    2    1    2    0    0  0.00000000000E+00  0.00000000000E+00 -0.26755321724E+03  0.16926878312E+04  0.16714087980E+04 0.  0.
        3    1    3    3  502    0  0.82051803342E+03  0.14260979335E+03 -0.63507103459E+02  0.83523682793E+03  0.10100000352E+00 0.  1.
       -3    1    3    3    0  502 -0.82051803342E+03 -0.14260979335E+03 -0.20404611378E+03  0.85745100331E+03  0.10100000352E+00 0. -1.
</event>
<event>
 5   0  0.3523125E-04  0.2003148E+04  0.7818609E-02  0.8605150E-01
       -4   -1    0    0    0  501  0.00000000000E+00  0.00000000000E+00  0.20029045194E+04  0.20029049220E+04  0.12699999809E+01 0. -1.
        4   -1    0    0  501    0  0.00000000000E+00  0.00000000000E+00 -0.50084678816E+03  0.50084839833E+03  0.12699999809E+01 0.  1.
    10030    2    1    2    0    0  0.00000000000E+00  0.00000000000E+00  0.15020577312E+04  0.25037533203E+04  0.20031483373E+04 0.  0.
        3    1    3    3  502    0 -0.56508396308E+03  0.74949511064E+03  0.11877607656E+04  0.15138819151E+04  0.10100000352E+00 0.  1.
       -3    1    3    3    0  502  0.56508396308E+03 -0.74949511064E+03  0.31429696558E+03  0.98987140527E+03  0.10100000352E+00 0. -1.
</event>
<event>
 5   0  0.1007187E-03  0.1678429E+04  0.7818609E-02  0.8773763E-01
       -2   -1    0    0    0  501  0.00000000000E+00  0.00000000000E+00  0.11493382280E+04  0.11493382280E+04  0.25500000920E-02 0. -1.
        2   -1    0    0  501    0  0.00000000000E+00  0.00000000000E+00 -0.61277119842E+03  0.61277119843E+03  0.25500000920E-02 0.  1.
    10030    2    1    2    0    0  0.00000000000E+00  0.00000000000E+00  0.53656702954E+03  0.17621094264E+04  0.16784294604E+04 0.  0.
        5    1    3    3  502    0  0.31618654629E+03 -0.36294030011E+03  0.98998585317E+03  0.11008150040E+04  0.46999998093E+01 0. -1.
       -5    1    3    3    0  502 -0.31618654629E+03  0.36294030011E+03 -0.45341882363E+03  0.66129442242E+03  0.46999998093E+01 0.  1.
</event>
<event>
 5   0  0.5059689E-04  0.1151733E+04  0.7818609E-02  0.9156186E-01
        1   -1    0    0  501    0  0.00000000000E+00  0.00000000000E+00  0.58079202727E+03  0.58079202729E+03  0.50400001928E-02 0. -1.
       -1   -1    0    0    0  501  0.00000000000E+00  0.00000000000E+00 -0.57098296079E+03  0.57098296081E+03  0.50400001928E-02 0.  1.
    10030    2    1    2    0    0  0.00000000000E+00  0.00000000000E+00  0.98090664799E+01  0.11517749881E+04  0.11517332180E+04 0.  0.
        5    1    3    3  502    0  0.87601768944E+02 -0.47856140357E+03 -0.30317347388E+03  0.57326375445E+03  0.46999998093E+01 0.  1.
       -5    1    3    3    0  502 -0.87601768944E+02  0.47856140357E+03  0.31298254035E+03  0.57851123366E+03  0.46999998093E+01 0. -1.
</event>
<event>
 5   0  0.4947006E-04  0.1782032E+04  0.7818609E-02  0.8715913E-01
        1   -1    0    0  501    0  0.00000000000E+00  0.00000000000E+00  0.39356362870E+03  0.39356362873E+03  0.50400001928E-02 0. -1.
       -1   -1    0    0    0  501  0.00000000000E+00  0.00000000000E+00 -0.20172338983E+04  0.20172338983E+04  0.50400001928E-02 0.  1.
    10030    2    1    2    0    0  0.00000000000E+00  0.00000000000E+00 -0.16236702696E+04  0.24107975270E+04  0.17820324273E+04 0.  0.
        2    1    3    3  502    0  0.68574608130E+03  0.51475493589E+03 -0.11395722035E+04  0.14261294258E+04  0.25500000920E-02 0. -1.
       -2    1    3    3    0  502 -0.68574608130E+03 -0.51475493589E+03 -0.48409806607E+03  0.98466810125E+03  0.25500000920E-02 0.  1.
</event>
<event>
 5   0  0.1007187E-03  0.1664126E+04  0.7818609E-02  0.8782093E-01
        2   -1    0    0  501    0  0.00000000000E+00  0.00000000000E+00  0.53702849408E+03  0.53702849409E+03  0.25500000920E-02 0. -1.
       -2   -1    0    0    0  501  0.00000000000E+00  0.00000000000E+00 -0.12891840497E+04  0.12891840497E+04  0.25500000920E-02 0.  1.
    10030    2    1    2    0    0  0.00000000000E+00  0.00000000000E+00 -0.75215555564E+03  0.18262125438E+04  0.16641256789E+04 0.  0.
        5    1    3    3  502    0  0.47465084676E+03 -0.19340626858E+02  0.37356733196E+03  0.60435265175E+03  0.46999998093E+01 0. -1.
       -5    1    3    3    0  502 -0.47465084676E+03  0.19340626858E+02 -0.11257228876E+04  0.12218598921E+04  0.46999998093E+01 0.  1.
</event>
<event>
 5   0  0.9625225E-04  0.1665336E+04  0.7818609E-02  0.8781385E-01
       -2   -1    0    0    0  501  0.00000000000E+00  0.00000000000E+00  0.44460968728E+03  0.44460968729E+03  0.25500000920E-02 0.  1.
        2   -1    0    0  501    0  0.00000000000E+00  0.00000000000E+00 -0.15594270702E+04  0.15594270702E+04  0.25500000920E-02 0. -1.
    10030    2    1    2    0    0  0.00000000000E+00  0.00000000000E+00 -0.11148173829E+04  0.20040367575E+04  0.16653364609E+04 0.  0.
        1    1    3    3  502    0 -0.45522905376E+03  0.46727310290E+03 -0.11801038922E+04  0.13484149363E+04  0.50400001928E-02 0. -1.
       -1    1    3    3    0  502  0.45522905376E+03 -0.46727310290E+03  0.65286509271E+02  0.65562182117E+03  0.50400001928E-02 0.  1.
</event>
<event>
 5   0  0.4947006E-04  0.1703870E+04  0.7818609E-02  0.8759160E-01
        1   -1    0    0  501    0  0.00000000000E+00  0.00000000000E+00  0.97499500692E+03  0.97499500694E+03  0.50400001928E-02 0. -1.
       -1   -1    0    0    0  501  0.00000000000E+00  0.00000000000E+00 -0.74440688998E+03  0.74440688999E+03  0.50400001928E-02 0.  1.
    10030    2    1    2    0    0  0.00000000000E+00  0.00000000000E+00  0.23058811695E+03  0.17194018969E+04  0.17038697144E+04 0.  0.
        2    1    3    3  502    0 -0.14803962452E+03  0.41884739898E+03  0.84886235846E+03  0.95807942138E+03  0.25500000920E-02 0. -1.
       -2    1    3    3    0  502  0.14803962452E+03 -0.41884739898E+03 -0.61827424151E+03  0.76132247555E+03  0.25500000920E-02 0.  1.
</event>
<event>
 5   0  0.9625225E-04  0.1734015E+04  0.7818609E-02  0.8742199E-01
       -2   -1    0    0    0  501  0.00000000000E+00  0.00000000000E+00  0.77337402868E+03  0.77337402869E+03  0.25500000920E-02 0.  1.
        2   -1    0    0  501    0  0.00000000000E+00  0.00000000000E+00 -0.97197742621E+03  0.97197742621E+03  0.25500000920E-02 0. -1.
    10030    2    1    2    0    0  0.00000000000E+00  0.00000000000E+00 -0.19860339752E+03  0.17453514549E+04  0.17340151071E+04 0.  0.
        1    1    3    3  502    0 -0.45366088879E+03  0.65873477526E+03  0.23749366087E+03  0.83435181137E+03  0.50400001928E-02 0. -1.
       -1    1    3    3    0  502  0.45366088879E+03 -0.65873477526E+03 -0.43609705839E+03  0.91099964353E+03  0.50400001928E-02 0.  1.
</event>
<event>
 5   0  0.5035495E-04  0.1698791E+04  0.7818609E-02  0.8762054E-01
        1   -1    0    0  501    0  0.00000000000E+00  0.00000000000E+00  0.14375466446E+04  0.14375466446E+04  0.50400001928E-02 0. -1.
       -1   -1    0    0    0  501  0.00000000000E+00  0.00000000000E+00 -0.50187765114E+03  0.50187765116E+03  0.50400001928E-02 0.  1.
    10030    2    1    2    0    0  0.00000000000E+00  0.00000000000E+00  0.93566899345E+03  0.19394242958E+04  0.16987907857E+04 0.  0.
        4    1    3    3  502    0 -0.13522565832E+03 -0.54707554078E+03  0.11933826761E+04  0.13197505259E+04  0.12699999809E+01 0. -1.
       -4    1    3    3    0  502  0.13522565832E+03  0.54707554078E+03 -0.25771368264E+03  0.61967376991E+03  0.12699999809E+01 0.  1.
</event>
<event>
 5   0  0.9312096E-04  0.9871942E+03  0.7818609E-02  0.9322703E-01
       -2   -1    0    0    0  501  0.00000000000E+00  0.00000000000E+00  0.37277685427E+03  0.37277685428E+03  0.25500000920E-02 0. -1.
        2   -1    0    0  501    0  0.00000000000E+00  0.00000000000E+00 -0.65357622861E+03  0.65357622861E+03  0.25500000920E-02 0.  1.
    10030    2    1    2    0    0  0.00000000000E+00  0.00000000000E+00 -0.28079937434E+03  0.10263530829E+04  0.98719418664E+03 0.  0.
        3    1    3    3  502    0 -0.12903836318E+03  0.38346776318E+03  0.15355158142E+03  0.43275457586E+03  0.10100000352E+00 0. -1.
       -3    1    3    3    0  502  0.12903836318E+03 -0.38346776318E+03 -0.43435095576E+03  0.59359850703E+03  0.10100000352E+00 0.  1.
</event>
<event>
 5   0  0.5035495E-04  0.1695179E+04  0.7818609E-02  0.8764118E-01
       -1   -1    0    0    0  501  0.00000000000E+00  0.00000000000E+00  0.84711772857E+03  0.84711772859E+03  0.50400001928E-02 0. -1.
        1   -1    0    0  501    0  0.00000000000E+00  0.00000000000E+00 -0.84806200012E+03  0.84806200013E+03  0.50400001928E-02 0.  1.
    10030    2    1    2    0    0  0.00000000000E+00  0.00000000000E+00 -0.94427154525E+00  0.16951797287E+04  0.16951794657E+04 0.  0.
        4    1    3    3  502    0  0.14154449071E+02  0.82456264008E+03 -0.19618329637E+03  0.84769888199E+03  0.12699999809E+01 0.  1.
       -4    1    3    3    0  502 -0.14154449071E+02 -0.82456264008E+03  0.19523902483E+03  0.84748084673E+03  0.12699999809E+01 0. -1.
</event>
<event>
 5   0  0.9312096E-04  0.1678402E+04  0.7818609E-02  0.8773779E-01
       -2   -1    0    0    0  501  0.00000000000E+00  0.00000000000E+00  0.37585437756E+03  0.37585437757E+03  0.25500000920E-02 0. -1.
        2   -1    0    0  501    0  0.00000000000E+00  0.00000000000E+00 -0.18737524465E+04  0.18737524465E+04  0.25500000920E-02 0.  1.
    10030    2    1    2    0    0  0.00000000000E+00  0.00000000000E+00 -0.14978980689E+04  0.22496068241E+04  0.16784016915E+04 0.  0.
        3    1    3    3  502    0  0.62058256704E+03  0.51066864943E+03 -0.42517518012E+03  0.90921897034E+03  0.10100000352E+00 0. -1.
       -3    1    3    3    0  502 -0.62058256704E+03 -0.51066864943E+03 -0.10727228888E+04  0.13403878537E+04  0.10100000352E+00 0.  1.
</event>
<event>
 5   0  0.9284971E-04  0.1670094E+04  0.7818609E-02  0.8778607E-01
        2   -1    0    0  501    0  0.00000000000E+00  0.00000000000E+00  0.84993442509E+03  0.84993442509E+03  0.25500000920E-02 0.  1.
       -2   -1    0    0    0  501  0.00000000000E+00  0.00000000000E+00 -0.82042079892E+03  0.82042079892E+03  0.25500000920E-02 0. -1.
    10030    2    1    2    0    0  0.00000000000E+00  0.00000000000E+00  0.29513626168E+02  0.16703552240E+04  0.16700944645E+04 0.  0.
        4    1    3    3  502    0  0.38888641506E+02  0.12104603943E+03 -0.81068277407E+03  0.82059286078E+03  0.12699999809E+01 0. -1.
       -4    1    3    3    0  502 -0.38888641506E+02 -0.12104603943E+03  0.84019640023E+03  0.84976236323E+03  0.12699999809E+01 0.  1.
</event>
<event>
 5   0  0.9610114E-04  0.1675961E+04  0.7818609E-02  0.8775195E-01
       -2   -1    0    0    0  501  0.00000000000E+00  0.00000000000E+00  0.26481205995E+03  0.26481205997E+03  0.25500000920E-02 0. -1.
        2   -1    0    0  501    0  0.00000000000E+00  0.00000000000E+00 -0.26517333582E+04  0.26517333582E+04  0.25500000920E-02 0.  1.
    10030    2    1    2    0    0  0.00000000000E+00  0.00000000000E+00 -0.23869212983E+04  0.29165454182E+04  0.16759605879E+04 0.  0.
        2    1    3    3  502    0  0.48418724566E+03 -0.18285887021E+02 -0.23832430998E+04  0.24319990410E+04  0.25500000920E-02 0.  1.
       -2    1    3    3    0  502 -0.48418724566E+03  0.18285887021E+02 -0.36781984634E+01  0.48454637721E+03  0.25500000920E-02 0. -1.
</event>
<event>
 5   0  0.9610114E-04  0.1710643E+04  0.7818609E-02  0.8755318E-01
        2   -1    0    0  501    0  0.00000000000E+00  0.00000000000E+00  0.12286208712E+04  0.12286208712E+04  0.25500000920E-02 0.  1.
       -2   -1    0    0    0  501  0.00000000000E+00  0.00000000000E+00 -0.59544369734E+03  0.59544369735E+03  0.25500000920E-02 0. -1.
    10030    2    1    2    0    0  0.00000000000E+00  0.00000000000E+00  0.63317717388E+03  0.18240645686E+04  0.17106426327E+04 0.  0.
        2    1    3    3  502    0  0.71823752665E+03 -0.28657591514E+03 -0.73135794300E+02  0.77674947328E+03  0.25500000920E-02 0. -1.
       -2    1    3    3    0  502 -0.71823752665E+03  0.28657591514E+03  0.70631296818E+03  0.10473150953E+04  0.25500000920E-02 0.  1.
</event>
<event>
 5   0  0.5035495E-04  0.1704673E+04  0.7818609E-02  0.8758704E-01
       -1   -1    0    0    0  501  0.00000000000E+00  0.00000000000E+00  0.75814452159E+03  0.75814452161E+03  0.50400001928E-02 0. -1.
        1   -1    0    0  501    0  0.00000000000E+00  0.00000000000E+00 -0.95823039892E+03  0.95823039894E+03  0.50400001928E-02 0.  1.
    10030    2    1    2    0    0  0.00000000000E+00  0.00000000000E+00 -0.20008587733E+03  0.17163749205E+04  0.17046725520E+04 0.  0.
        4    1    3    3  502    0  0.65370601273E+03 -0.47253091399E+03 -0.37735790818E+03  0.89051536737E+03  0.12699999809E+01 0.  1.
       -4    1    3    3    0  502 -0.65370601273E+03  0.47253091399E+03  0.17727203085E+03  0.82585955318E+03  0.12699999809E+01 0. -1.
</event>
<event>
 5   0  0.9610114E-04  0.1495612E+04  0.7818609E-02  0.8887376E-01
       -2   -1    0    0    0  501  0.00000000000E+00  0.00000000000E+00  0.41201668402E+03  0.41201668403E+03  0.25500000920E-02 0.  1.
        2   -1    0    0  501    0  0.00000000000E+00  0.00000000000E+00 -0.13572598122E+04  0.13572598122E+04  0.25500000920E-02 0. -1.
    10030    2    1    2    0    0  0.00000000000E+00  0.00000000000E+00 -0.94524312815E+03  0.17692764962E+04  0.14956118309E+04 0.  0.
        2    1    3    3  502    0 -0.70566247872E+02  0.53088241128E+03  0.14479565806E+03  0.55478059856E+03  0.25500000920E-02 0.  1.
       -2    1    3    3    0  502  0.70566247872E+02 -0.53088241128E+03 -0.10900387862E+04  0.12144958976E+04  0.25500000920E-02 0. -1.
</event>
<event>
 5   0  0.1007187E-03  0.1430845E+04  0.7818609E-02  0.8931789E-01
       -2   -1    0    0    0  501  0.00000000000E+00  0.00000000000E+00  0.10498914314E+04  0.10498914314E+04  0.25500000920E-02 0. -1.
        2   -1    0    0  501    0  0.00000000000E+00  0.00000000000E+00 -0.48750679410E+03  0.48750679411E+03  0.25500000920E-02 0.  1.
    10030    2    1    2    0    0  0.00000000000E+00  0.00000000000E+00  0.56238463728E+03  0.15373982255E+04  0.14308447936E+04 0.  0.
        5    1    3    3  502    0  0.56488832184E+02  0.17018774109E+03  0.10253365092E+04  0.10409091711E+04  0.46999998093E+01 0. -1.
       -5    1    3    3    0  502 -0.56488832184E+02 -0.17018774109E+03 -0.46295187194E+03  0.49648905437E+03  0.46999998093E+01 0.  1.
</event>
<event>
 5   0  0.1007187E-03  0.1700808E+04  0.7818609E-02  0.8760904E-01
        2   -1    0    0  501    0  0.00000000000E+00  0.00000000000E+00  0.74325770419E+03  0.74325770419E+03  0.25500000920E-02 0.  1.
       -2   -1    0    0    0  501  0.00000000000E+00  0.00000000000E+00 -0.97299621162E+03  0.97299621162E+03  0.25500000920E-02 0. -1.
    10030    2    1    2    0    0  0.00000000000E+00  0.00000000000E+00 -0.22973850743E+03  0.17162539158E+04  0.17008079615E+04 0.  0.
        5    1    3    3  502    0  0.61922173452E+02  0.69273475187E+03 -0.60864848447E+03  0.92422446389E+03  0.46999998093E+01 0. -1.
       -5    1    3    3    0  502 -0.61922173452E+02 -0.69273475187E+03  0.37890997704E+03  0.79202945192E+03  0.46999998093E+01 0.  1.
</event>
<event>
 5   0  0.9312096E-04  0.1716526E+04  0.7818609E-02  0.8751995E-01
        2   -1    0    0  501    0  0.00000000000E+00  0.00000000000E+00  0.10344775396E+04  0.10344775396E+04  0.25500000920E-02 0. -1.
       -2   -1    0    0    0  501  0.00000000000E+00  0.00000000000E+00 -0.71206496168E+03  0.71206496168E+03  0.25500000920E-02 0.  1.
    10030    2    1    2    0    0  0.00000000000E+00  0.00000000000E+00  0.32241257790E+03  0.17465425013E+04  0.17165258047E+04 0.  0.
        3    1    3    3  502    0 -0.18677681240E+03  0.53219875566E+03 -0.49701737986E+03  0.75176284775E+03  0.10100000352E+00 0.  1.
       -3    1    3    3    0  502  0.18677681240E+03 -0.53219875566E+03  0.81942995775E+03  0.99477965351E+03  0.10100000352E+00 0. -1.
</event>
<event>
 5   0  0.5059689E-04  0.1688990E+04  0.7818609E-02  0.8767669E-01
       -1   -1    0    0    0  501  0.00000000000E+00  0.00000000000E+00  0.53011695921E+03  0.53011695924E+03  0.50400001928E-02 0.  1.
        1   -1    0    0  501    0  0.00000000000E+00  0.00000000000E+00 -0.13453101599E+04  0.13453101600E+04  0.50400001928E-02 0. -1.
    10030    2    1    2    0    0  0.00000000000E+00  0.00000000000E+00 -0.81519320073E+03  0.18754271192E+04  0.16889899126E+04 0.  0.
        5    1    3    3  502    0 -0.82654025333E+03  0.16779089391E+03 -0.36013412935E+03  0.91708301455E+03  0.46999998093E+01 0. -1.
       -5    1    3    3    0  502  0.82654025333E+03 -0.16779089391E+03 -0.45505907138E+03  0.95834410464E+03  0.46999998093E+01 0.  1.
</event>
<event>
 5   0  0.5074133E-04  0.9056231E+03  0.7818609E-02  0.9418579E-01
        1   -1    0    0  501    0  0.00000000000E+00  0.00000000000E+00  0.57640064126E+03  0.57640064128E+03  0.50400001928E-02 0.  1.
       -1   -1    0    0    0  501  0.00000000000E+00  0.00000000000E+00 -0.35572187240E+03  0.35572187243E+03  0.50400001928E-02 0. -1.
    10030    2    1    2    0    0  0.00000000000E+00  0.00000000000E+00  0.22067876886E+03  0.93212251371E+03  0.90562313439E+03 0.  0.
        1    1    3    3  502    0  0.41797619735E+03 -0.14850237795E+03  0.20400358596E+03  0.48823613234E+03  0.50400001928E-02 0.  1.
       -1    1    3    3    0  502 -0.41797619735E+03  0.14850237795E+03  0.16675182897E+02  0.44388638137E+03  0.50400001928E-02 0. -1.
</event>
<event>
 5   0  0.9312096E-04  0.1720045E+04  0.7818609E-02  0.8750014E-01
        2   -1    0    0  501    0  0.00000000000E+00  0.00000000000E+00  0.14158267431E+04  0.14158267431E+04  0.25500000920E-02 0.  1.
       -2   -1    0    0    0  501  0.00000000000E+00  0.00000000000E+00 -0.52240776655E+03  0.52240776655E+03  0.25500000920E-02 0. -1.
    10030    2    1    2    0    0  0.00000000000E+00  0.00000000000E+00  0.89341897657E+03  0.19382345097E+04  0.17200452165E+04 0.  0.
        3    1    3    3  502    0  0.39879798952E+03 -0.15219219090E+03 -0.39461627680E+03  0.58131257989E+03  0.10100000352E+00 0. -1.
       -3    1    3    3    0  502 -0.39879798952E+03  0.15219219090E+03  0.12880352534E+04  0.13569219298E+04  0.10100000352E+00 0.  1.
</event>
<event>
 5   0  0.4947006E-04  0.1673484E+04  0.7818609E-02  0.8776633E-01
       -1   -1    0    0    0  501  0.00000000000E+00  0.00000000000E+00  0.43469358305E+03  0.43469358308E+03  0.50400001928E-02 0. -1.
        1   -1    0    0  501    0  0.00000000000E+00  0.00000000000E+00 -0.16106457693E+04  0.16106457694E+04  0.50400001928E-02 0.  1.
    10030    2    1    2    0    0  0.00000000000E+00  0.00000000000E+00 -0.11759521863E+04  0.20453393524E+04  0.16734842462E+04 0.  0.
        2    1    3    3  502    0 -0.55097794898E+03 -0.52924432526E+03 -0.17088181180E+03  0.78286451554E+03  0.25500000920E-02 0. -1.
       -2    1    3    3    0  502  0.55097794898E+03  0.52924432526E+03 -0.10050703745E+04  0.12624748369E+04  0.25500000920E-02 0.  1.
</event>
<event>
 5   0  0.9284971E-04  0.1041092E+04  0.7818609E-02  0.9264589E-01
       -2   -1    0    0    0  501  0.00000000000E+00  0.00000000000E+00  0.22067113590E+03  0.22067113591E+03  0.25500000920E-02 0.  1.
        2   -1    0    0  501    0  0.00000000000E+00  0.00000000000E+00 -0.12279285328E+04  0.12279285329E+04  0.25500000920E-02 0. -1.
    10030    2    1    2    0    0  0.00000000000E+00  0.00000000000E+00 -0.10072573970E+04  0.14485996688E+04  0.10410924727E+04 0.  0.
        4    1    3    3  502    0 -0.33418048872E+03  0.20664693805E+03 -0.28529235445E+02  0.39394807554E+03  0.12699999809E+01 0.  1.
       -4    1    3    3    0  502  0.33418048872E+03 -0.20664693805E+03 -0.97872816151E+03  0.10546515932E+04  0.12699999809E+01 0. -1.
</event>
<event>
 5   0  0.5035495E-04  0.1701453E+04  0.7818609E-02  0.8760536E-01
        1   -1    0    0  501    0  0.00000000000E+00  0.00000000000E+00  0.75316889272E+03  0.75316889273E+03  0.50400001928E-02 0. -1.
       -1   -1    0    0    0  501  0.00000000000E+00  0.00000000000E+00 -0.96092020607E+03  0.96092020608E+03  0.50400001928E-02 0.  1.
    10030    2    1    2    0    0  0.00000000000E+00  0.00000000000E+00 -0.20775131335E+03  0.17140890988E+04  0.17014525649E+04 0.  0.
        4    1    3    3  502    0  0.57496262416E+03 -0.32775762884E+03 -0.64237951225E+03  0.92231238369E+03  0.12699999809E+01 0.  1.
       -4    1    3    3    0  502 -0.57496262416E+03  0.32775762884E+03  0.43462819890E+03  0.79177671513E+03  0.12699999809E+01 0. -1.
</event>
<event>
 5   0  0.9284971E-04  0.1695032E+04  0.7818609E-02  0.8764203E-01
       -2   -1    0    0    0  501  0.00000000000E+00  0.00000000000E+00  0.11760185164E+04  0.11760185164E+04  0.25500000920E-02 0.  1.
        2   -1    0    0  501    0  0.00000000000E+00  0.00000000000E+00 -0.61077528839E+03  0.61077528839E+03  0.25500000920E-02 0. -1.
    10030    2    1    2    0    0  0.00000000000E+00  0.00000000000E+00  0.56524322801E+03  0.17867938048E+04  0.16950316204E+04 0.  0.
        4    1    3    3  502    0 -0.33453432473E+02 -0.81219550887E+03  0.29847019831E+02  0.81343293163E+03  0.12699999809E+01 0. -1.
       -4    1    3    3    0  502  0.33453432473E+02  0.81219550887E+03  0.53539620818E+03  0.97336087317E+03  0.12699999809E+01 0.  1.
</event>
<event>
 5   0  0.9625225E-04  0.1286525E+04  0.7818609E-02  0.9040320E-01
        2   -1    0    0  501    0  0.00000000000E+00  0.00000000000E+00  0.76225084423E+03  0.76225084423E+03  0.25500000920E-02 0. -1.
       -2   -1    0    0    0  501  0.00000000000E+00  0.00000000000E+00 -0.54284800174E+03  0.54284800175E+03  0.25500000920E-02 0.  1.
    10030    2    1    2    0    0  0.00000000000E+00  0.00000000000E+00  0.21940284249E+03  0.13050988460E+04  0.12865245394E+04 0.  0.
        1    1    3    3  502    0 -0.43154449678E+03  0.46416564164E+03 -0.19141548912E+01  0.63378549967E+03  0.50400001928E-02 0. -1.
       -1    1    3    3    0  502  0.43154449678E+03 -0.46416564164E+03  0.22131699738E+03  0.67131334631E+03  0.50400001928E-02 0.  1.
</event>
<event>
 5   0  0.9610114E-04  0.1691271E+04  0.7818609E-02  0.8766359E-01
       -2   -1    0    0    0  501  0.00000000000E+00  0.00000000000E+00  0.11195491736E+04  0.11195491736E+04  0.25500000920E-02 0. -1.
        2   -1    0    0  501    0  0.00000000000E+00  0.00000000000E+00 -0.63873839997E+03  0.63873839998E+03  0.25500000920E-02 0.  1.
    10030    2    1    2    0    0  0.00000000000E+00  0.00000000000E+00  0.48081077362E+03  0.17582875736E+04  0.16912705849E+04 0.  0.
        2    1    3    3  502    0 -0.54164511048E+03 -0.63410644304E+03  0.94751550620E+02  0.83931416238E+03  0.25500000920E-02 0.  1.
       -2    1    3    3    0  502  0.54164511048E+03  0.63410644304E+03  0.38605922300E+03  0.91897341120E+03  0.25500000920E-02 0. -1.
</event>
<event>
 5   0  0.5009762E-04  0.1708366E+04  0.7818609E-02  0.8756607E-01
       -1   -1    0    0    0  501  0.00000000000E+00  0.00000000000E+00  0.52271639778E+03  0.52271639780E+03  0.50400001928E-02 0. -1.
        1   -1    0    0  501    0  0.00000000000E+00  0.00000000000E+00 -0.13958399269E+04  0.13958399269E+04  0.50400001928E-02 0.  1.
    10030    2    1    2    0    0  0.00000000000E+00  0.00000000000E+00 -0.87312352909E+03  0.19185563247E+04  0.17083657904E+04 0.  0.
        3    1    3    3  502    0 -0.60804326956E+03  0.17925060603E+03 -0.10795241737E+04  0.12518865161E+04  0.10100000352E+00 0.  1.
       -3    1    3    3    0  502  0.60804326956E+03 -0.17925060603E+03  0.20640064457E+03  0.66666980860E+03  0.10100000352E+00 0. -1.
</event>
<event>
 5   0  0.5074133E-04  0.1720860E+04  0.7818609E-02  0.8749556E-01
        1   -1    0    0  501    0  0.00000000000E+00  0.00000000000E+00  0.82811799731E+03  0.82811799733E+03  0.50400001928E-02 0. -1.
       -1   -1    0    0    0  501  0.00000000000E+00  0.00000000000E+00 -0.89400296417E+03  0.89400296418E+03  0.50400001928E-02 0.  1.
    10030    2    1    2    0    0  0.00000000000E+00  0.00000000000E+00 -0.65884966859E+02  0.17221209615E+04  0.17208601853E+04 0.  0.
        1    1    3    3  502    0 -0.33166100250E+03  0.78833235116E+03  0.61323279698E+02  0.85745405773E+03  0.50400001928E-02 0. -1.
       -1    1    3    3    0  502  0.33166100250E+03 -0.78833235116E+03 -0.12720824656E+03  0.86466690378E+03  0.50400001928E-02 0.  1.
</event>
<event>
 5   0  0.4947006E-04  0.1697664E+04  0.7818609E-02  0.8762698E-01
        1   -1    0    0  501    0  0.00000000000E+00  0.00000000000E+00  0.17085121552E+04  0.17085121552E+04  0.50400001928E-02 0. -1.
       -1   -1    0    0    0  501  0.00000000000E+00  0.00000000000E+00 -0.42172129656E+03  0.42172129659E+03  0.50400001928E-02 0.  1.
    10030    2    1    2    0    0  0.00000000000E+00  0.00000000000E+00  0.12867908587E+04  0.21302334518E+04  0.16976642322E+04 0.  0.
        2    1    3    3  502    0 -0.12292157269E+03  0.57571431355E+03 -0.12394407569E+03  0.60159688976E+03  0.25500000920E-02 0.  1.
       -2    1    3    3    0  502  0.12292157269E+03 -0.57571431355E+03  0.14107349344E+04  0.15286365621E+04  0.25500000920E-02 0. -1.
</event>
<event>
 5   0  0.9610114E-04  0.1727313E+04  0.7818609E-02  0.8745938E-01
        2   -1    0    0  501    0  0.00000000000E+00  0.00000000000E+00  0.58438506184E+03  0.58438506185E+03  0.25500000920E-02 0. -1.
       -2   -1    0    0    0  501  0.00000000000E+00  0.00000000000E+00 -0.12763883549E+04  0.12763883549E+04  0.25500000920E-02 0.  1.
    10030    2    1    2    0    0  0.00000000000E+00  0.00000000000E+00 -0.69200329305E+03  0.18607734167E+04  0.17273126963E+04 0.  0.
        2    1    3    3  502    0  0.12070504045E+03 -0.39496357689E+03 -0.11631171228E+04  0.12342639001E+04  0.25500000920E-02 0.  1.
       -2    1    3    3    0  502 -0.12070504045E+03  0.39496357689E+03  0.47111382972E+03  0.62650951662E+03  0.25500000920E-02 0. -1.
</event>
<event>
 5   0  0.1007187E-03  0.1727411E+04  0.7818609E-02  0.8745883E-01
       -2   -1    0    0    0  501  0.00000000000E+00  0.00000000000E+00  0.36943886662E+03  0.36943886663E+03  0.25500000920E-02 0. -1.
        2   -1    0    0  501    0  0.00000000000E+00  0.00000000000E+00 -0.20192441252E+04  0.20192441252E+04  0.25500000920E-02 0.  1.
    10030    2    1    2    0    0  0.00000000000E+00  0.00000000000E+00 -0.16498052586E+04  0.23886829919E+04  0.17274110814E+04 0.  0.
        5    1    3    3  502    0  0.55579230186E+03  0.65566544491E+03 -0.70786981670E+03  0.11135097781E+04  0.46999998093E+01 0. -1.
       -5    1    3    3    0  502 -0.55579230186E+03 -0.65566544491E+03 -0.94193544193E+03  0.12751732138E+04  0.46999998093E+01 0.  1.
</event>
<event>
 5   0  0.5074133E-04  0.1647334E+04  0.7818609E-02  0.8791985E-01
       -1   -1    0    0    0  501  0.00000000000E+00  0.00000000000E+00  0.69299299078E+03  0.69299299079E+03  0.50400001928E-02 0. -1.
        1   -1    0    0  501    0  0.00000000000E+00  0.00000000000E+00 -0.97898165825E+03  0.97898165826E+03  0.50400001928E-02 0.  1.
    10030    2    1    2    0    0  0.00000000000E+00  0.00000000000E+00 -0.28598866747E+03  0.16719746491E+04  0.16473341219E+04 0.  0.
        1    1    3    3  502    0  0.18944294630E+03 -0.34867303200E+03  0.58958160213E+03  0.71068134824E+03  0.50400001928E-02 0. -1.
       -1    1    3    3    0  502 -0.18944294630E+03  0.34867303200E+03 -0.87557026960E+03  0.96129330081E+03  0.50400001928E-02 0.  1.
</event>
<event>
 5   0  0.9625225E-04  0.1699810E+04  0.7818609E-02  0.8761473E-01
       -2   -1    0    0    0  501  0.00000000000E+00  0.00000000000E+00  0.75450369065E+03  0.75450369065E+03  0.25500000920E-02 0.  1.
        2   -1    0    0  501    0  0.00000000000E+00  0.00000000000E+00 -0.95736922114E+03  0.95736922115E+03  0.25500000920E-02 0. -1.
    10030    2    1    2    0    0  0.00000000000E+00  0.00000000000E+00 -0.20286553050E+03  0.17118729118E+04  0.16998101196E+04 0.  0.
        1    1    3    3  502    0 -0.75774122717E+03  0.38417346611E+03 -0.77229085157E+02  0.85306819835E+03  0.50400001928E-02 0. -1.
       -1    1    3    3    0  502  0.75774122717E+03 -0.38417346611E+03 -0.12563644534E+03  0.85880471345E+03  0.50400001928E-02 0.  1.
</event>
<event>
 5   0  0.5074133E-04  0.1713098E+04  0.7818609E-02  0.8753929E-01
       -1   -1    0    0    0  501  0.00000000000E+00  0.00000000000E+00  0.70865450096E+03  0.70865450097E+03  0.50400001928E-02 0.  1.
        1   -1    0    0  501    0  0.00000000000E+00  0.00000000000E+00 -0.10353081886E+04  0.10353081886E+04  0.50400001928E-02 0. -1.
    10030    2    1    2    0    0  0.00000000000E+00  0.00000000000E+00 -0.32665368765E+03  0.17439626896E+04  0.17130975544E+04 0.  0.
        1    1    3    3  502    0  0.56697776170E+03  0.59246645479E+03  0.88507483582E+02  0.82481140692E+03  0.50400001928E-02 0.  1.
       -1    1    3    3    0  502 -0.56697776170E+03 -0.59246645479E+03 -0.41516117124E+03  0.91915128267E+03  0.50400001928E-02 0. -1.
</event>
<event>
 5   0  0.1007187E-03  0.1709054E+04  0.7818609E-02  0.8756217E-01
       -2   -1    0    0    0  501  0.00000000000E+00  0.00000000000E+00  0.15791786324E+04  0.15791786324E+04  0.25500000920E-02 0. -1.
        2   -1    0    0  501    0  0.00000000000E+00  0.00000000000E+00 -0.46240284455E+03  0.46240284456E+03  0.25500000920E-02 0.  1.
    10030    2    1    2    0    0  0.00000000000E+00  0.00000000000E+00  0.11167757879E+04  0.20415814770E+04  0.17090543487E+04 0.  0.
        5    1    3    3  502    0 -0.62292857370E+03  0.45887564308E+03  0.99171769123E+03  0.12578286580E+04  0.46999998093E+01 0. -1.
       -5    1    3    3    0  502  0.62292857370E+03 -0.45887564308E+03  0.12505809663E+03  0.78375281899E+03  0.46999998093E+01 0.  1.
</event>
<event>
 5   0  0.9284971E-04  0.1690672E+04  0.7818609E-02  0.8766702E-01
        2   -1    0    0  501    0  0.00000000000E+00  0.00000000000E+00  0.70403972324E+03  0.70403972324E+03  0.25500000920E-02 0. -1.
       -2   -1    0    0    0  501  0.00000000000E+00  0.00000000000E+00 -0.10149895455E+04  0.10149895455E+04  0.25500000920E-02 0.  1.
    10030    2    1    2    0    0  0.00000000000E+00  0.00000000000E+00 -0.31094982225E+03  0.17190292687E+04  0.16906720069E+04 0.  0.
        4    1    3    3  502    0 -0.59279915780E+03 -0.52245920506E+03 -0.46087405775E+03  0.91475732982E+03  0.12699999809E+01 0.  1.
       -4    1    3    3    0  502  0.59279915780E+03  0.52245920506E+03  0.14992423550E+03  0.80427193892E+03  0.12699999809E+01 0. -1.
</event>
<event>
 5   0  0.1007187E-03  0.1672172E+04  0.7818609E-02  0.8777397E-01
        2   -1    0    0  501    0  0.00000000000E+00  0.00000000000E+00  0.13061418743E+04  0.13061418743E+04  0.25500000920E-02 0. -1.
       -2   -1    0    0    0  501  0.00000000000E+00  0.00000000000E+00 -0.53519420076E+03  0.53519420076E+03  0.25500000920E-02 0.  1.
    10030    2    1    2    0    0  0.00000000000E+00  0.00000000000E+00  0.77094767356E+03  0.18413360751E+04  0.16721717095E+04 0.  0.
        5    1    3    3  502    0  0.72906125727E+03  0.20449874382E+03  0.77583223603E+03  0.10841069143E+04  0.46999998093E+01 0. -1.
       -5    1    3    3    0  502 -0.72906125727E+03 -0.20449874382E+03 -0.48845624654E+01  0.75722916084E+03  0.46999998093E+01 0.  1.
</event>
<event>
 5   0  0.1007187E-03  0.1619052E+04  0.7818609E-02  0.8808928E-01
       -2   -1    0    0    0  501  0.00000000000E+00  0.00000000000E+00  0.82846262521E+03  0.82846262522E+03  0.25500000920E-02 0.  1.
        2   -1    0    0  501    0  0.00000000000E+00  0.00000000000E+00 -0.79102268158E+03  0.79102268158E+03  0.25500000920E-02 0. -1.
    10030    2    1    2    0    0  0.00000000000E+00  0.00000000000E+00  0.37439943638E+02  0.16194853068E+04  0.16190524728E+04 0.  0.
        5    1    3    3  502    0  0.40627883612E+03 -0.62116113252E+03 -0.30448711893E+03  0.80227061570E+03  0.46999998093E+01 0. -1.
       -5    1    3    3    0  502 -0.40627883612E+03  0.62116113252E+03  0.34192706257E+03  0.81721469110E+03  0.46999998093E+01 0.  1.
</event>
<event>
 5   0  0.3523125E-04  0.1671645E+04  0.7818609E-02  0.8777703E-01
        4   -1    0    0  501    0  0.00000000000E+00  0.00000000000E+00  0.69978024112E+03  0.69978139355E+03  0.12699999809E+01 0. -1.
       -4   -1    0    0    0  501  0.00000000000E+00  0.00000000000E+00 -0.99831037202E+03  0.99831117983E+03  0.12699999809E+01 0.  1.
    10030    2    1    2    0    0  0.00000000000E+00  0.00000000000E+00 -0.29853013089E+03  0.16980925734E+04  0.16716453418E+04 0.  0.
        3    1    3    3  502    0 -0.68357575375E+02 -0.46723708535E+02  0.69560479022E+03  0.70051545124E+03  0.10100000352E+00 0. -1.
       -3    1    3    3    0  502  0.68357575375E+02  0.46723708535E+02 -0.99413492111E+03  0.99757712214E+03  0.10100000352E+00 0.  1.
</event>
<event>
 5   0  0.9625225E-04  0.1714895E+04  0.7818609E-02  0.8752915E-01
       -2   -1    0    0    0  501  0.00000000000E+00  0.00000000000E+00  0.32191776561E+03  0.32191776562E+03  0.25500000920E-02 0. -1.
        2   -1    0    0  501    0  0.00000000000E+00  0.00000000000E+00 -0.22838623466E+04  0.22838623466E+04  0.25500000920E-02 0.  1.
    10030    2    1    2    0    0  0.00000000000E+00  0.00000000000E+00 -0.19619445810E+04  0.26057801123E+04  0.17148945899E+04 0.  0.
        1    1    3    3  502    0 -0.71257368135E+03 -0.38023171894E+03 -0.14184149675E+04  0.16322495004E+04  0.50400001928E-02 0.  1.
       -1    1    3    3    0  502  0.71257368135E+03  0.38023171894E+03 -0.54352961349E+03  0.97353061185E+03  0.50400001928E-02 0. -1.
</event>
<event>
 5   0  0.4947006E-04  0.1719886E+04  0.7818609E-02  0.8750103E-01
       -1   -1    0    0    0  501  0.00000000000E+00  0.00000000000E+00  0.74050051736E+03  0.74050051738E+03  0.50400001928E-02 0.  1.
        1   -1    0    0  501    0  0.00000000000E+00  0.00000000000E+00 -0.99865136438E+03  0.99865136439E+03  0.50400001928E-02 0. -1.
    10030    2    1    2    0    0  0.00000000000E+00  0.00000000000E+00 -0.25815084702E+03  0.17391518818E+04  0.17198858706E+04 0.  0.
        2    1    3    3  502    0 -0.46896584978E+03 -0.50095142230E+03  0.39501654502E+03  0.79178239852E+03  0.25500000920E-02 0.  1.
       -2    1    3    3    0  502  0.46896584978E+03  0.50095142230E+03 -0.65316739205E+03  0.94736948325E+03  0.25500000920E-02 0. -1.
</event>
<event>
 5   0  0.9284971E-04  0.1673091E+04  0.7818609E-02  0.8776862E-01
       -2   -1    0    0    0  501  0.00000000000E+00  0.00000000000E+00  0.51675005026E+03  0.51675005027E+03  0.25500000920E-02 0.  1.
        2   -1    0    0  501    0  0.00000000000E+00  0.00000000000E+00 -0.13542490677E+04  0.13542490677E+04  0.25500000920E-02 0. -1.
    10030    2    1    2    0    0  0.00000000000E+00  0.00000000000E+00 -0.83749901744E+03  0.18709991180E+04  0.16730908808E+04 0.  0.
        4    1    3    3  502    0  0.10766650758E+02 -0.68392030871E+03  0.11982449815E+03  0.69442237341E+03  0.12699999809E+01 0.  1.
       -4    1    3    3    0  502 -0.10766650758E+02  0.68392030871E+03 -0.95732351559E+03  0.11765767446E+04  0.12699999809E+01 0. -1.
</event>
<event>
 5   0  0.5009762E-04  0.1778108E+04  0.7818609E-02  0.8718029E-01
       -1   -1    0    0    0  501  0.00000000000E+00  0.00000000000E+00  0.12628298041E+04  0.12628298041E+04  0.50400001928E-02 0. -1.
        1   -1    0    0  501    0  0.00000000000E+00  0.00000000000E+00 -0.62590959357E+03  0.62590959359E+03  0.50400001928E-02 0.  1.
    10030    2    1    2    0    0  0.00000000000E+00  0.00000000000E+00  0.63692021051E+03  0.18887393977E+04  0.17781083088E+04 0.  0.
        3    1    3    3  502    0  0.61308840644E+03  0.13236169423E+03 -0.35083888021E+03  0.71866886831E+03  0.10100000352E+00 0.  1.
       -3    1    3    3    0  502 -0.61308840644E+03 -0.13236169423E+03  0.98775909072E+03  0.11700705294E+04  0.10100000352E+00 0. -1.
</event>
<event>
 5   0  0.9312096E-04  0.1695720E+04  0.7818609E-02  0.8763809E-01
        2   -1    0    0  501    0  0.00000000000E+00  0.00000000000E+00  0.15796381017E+04  0.15796381017E+04  0.25500000920E-02 0. -1.
       -2   -1    0    0    0  501  0.00000000000E+00  0.00000000000E+00 -0.45508310082E+03  0.45508310083E+03  0.25500000920E-02 0.  1.
    10030    2    1    2    0    0  0.00000000000E+00  0.00000000000E+00  0.11245550009E+04  0.20347212025E+04  0.16957200306E+04 0.  0.
        3    1    3    3  502    0  0.84027103553E+02 -0.14397521973E+03 -0.43522509805E+03  0.46605827339E+03  0.10100000352E+00 0.  1.
       -3    1    3    3    0  502 -0.84027103553E+02  0.14397521973E+03  0.15597800989E+04  0.15686629292E+04  0.10100000352E+00 0. -1.
</event>
<event>
 5   0  0.5035495E-04  0.1754106E+04  0.7818609E-02  0.8731094E-01
       -1   -1    0    0    0  501  0.00000000000E+00  0.00000000000E+00  0.62599984719E+03  0.62599984721E+03  0.50400001928E-02 0. -1.
        1   -1    0    0  501    0  0.00000000000E+00  0.00000000000E+00 -0.12287888415E+04  0.12287888415E+04  0.50400001928E-02 0.  1.
    10030    2    1    2    0    0  0.00000000000E+00  0.00000000000E+00 -0.60278899429E+03  0.18547886887E+04  0.17541056149E+04 0.  0.
        4    1    3    3  502    0 -0.69717665006E+03 -0.46715905728E+03 -0.31960829504E+02  0.83983091972E+03  0.12699999809E+01 0.  1.
       -4    1    3    3    0  502  0.69717665006E+03  0.46715905728E+03 -0.57082816478E+03  0.10149577690E+04  0.12699999809E+01 0. -1.
</event>
<event>
 5   0  0.9625225E-04  0.1658943E+04  0.7818609E-02  0.8785134E-01
       -2   -1    0    0    0  501  0.00000000000E+00  0.00000000000E+00  0.53273061360E+03  0.53273061360E+03  0.25500000920E-02 0.  1.
        2   -1    0    0  501    0  0.00000000000E+00  0.00000000000E+00 -0.12915019972E+04  0.12915019972E+04  0.25500000920E-02 0. -1.
    10030    2    1    2    0    0  0.00000000000E+00  0.00000000000E+00 -0.75877138357E+03  0.18242326108E+04  0.16589426168E+04 0.  0.
        1    1    3    3  502    0 -0.70067998927E+03 -0.32872102692E+03 -0.70746195920E+03  0.10485763609E+04  0.50400001928E-02 0. -1.
       -1    1    3    3    0  502  0.70067998927E+03  0.32872102692E+03 -0.51309424369E+02  0.77565624987E+03  0.50400001928E-02 0.  1.
</event>
<event>
 5   0  0.5059689E-04  0.1722493E+04  0.7818609E-02  0.8748639E-01
        1   -1    0    0  501    0  0.00000000000E+00  0.00000000000E+00  0.83685890417E+03  0.83685890419E+03  0.50400001928E-02 0. -1.
       -1   -1    0    0    0  501  0.00000000000E+00  0.00000000000E+00 -0.88634525121E+03  0.88634525122E+03  0.50400001928E-02 0.  1.
    10030    2    1    2    0    0  0.00000000000E+00  0.00000000000E+00 -0.49486347038E+02  0.17232041554E+04  0.17224934434E+04 0.  0.
        5    1    3    3  502    0  0.64603197344E+03  0.27532632408E+03 -0.52350873877E+03  0.87592544489E+03  0.46999998093E+01 0.  1.
       -5    1    3    3    0  502 -0.64603197344E+03 -0.27532632408E+03  0.47402239174E+03  0.84727871052E+03  0.46999998093E+01 0. -1.
</event>
<event>
 5   0  0.5035495E-04  0.1587953E+04  0.7818609E-02  0.8827983E-01
        1   -1    0    0  501    0  0.00000000000E+00  0.00000000000E+00  0.79935759865E+03  0.79935759867E+03  0.50400001928E-02 0.  1.
       -1   -1    0    0    0  501  0.00000000000E+00  0.00000000000E+00 -0.78863136118E+03  0.78863136120E+03  0.50400001928E-02 0. -1.
    10030    2    1    2    0    0  0.00000000000E+00  0.00000000000E+00  0.10726237473E+02  0.15879889599E+04  0.15879527337E+04 0.  0.
        4    1    3    3  502    0  0.40651229288E+03  0.67046693815E+03  0.13034076251E+03  0.79483865450E+03  0.12699999809E+01 0.  1.
       -4    1    3    3    0  502 -0.40651229288E+03 -0.67046693815E+03 -0.11961452504E+03  0.79315030537E+03  0.12699999809E+01 0. -1.
</event>
<event>
 5   0  0.9312096E-04  0.1665510E+04  0.7818609E-02  0.8781283E-01
        2   -1    0    0  501    0  0.00000000000E+00  0.00000000000E+00  0.15095691083E+04  0.15095691084E+04  0.25500000920E-02 0.  1.
       -2   -1    0    0    0  501  0.00000000000E+00  0.00000000000E+00 -0.45939014968E+03  0.45939014969E+03  0.25500000920E-02 0. -1.
    10030    2    1    2    0    0  0.00000000000E+00  0.00000000000E+00  0.10501789587E+04  0.19689592580E+04  0.16655103466E+04 0.  0.
        3    1    3    3  502    0  0.66020822889E+03 -0.42175991299E+03  0.85888939262E+03  0.11625176681E+04  0.10100000352E+00 0.  1.
       -3    1    3    3    0  502 -0.66020822889E+03  0.42175991299E+03  0.19128956605E+03  0.80644158994E+03  0.10100000352E+00 0. -1.
</event>
<event>
 5   0  0.5059689E-04  0.1599270E+04  0.7818609E-02  0.8820997E-01
       -1   -1    0    0    0  501  0.00000000000E+00  0.00000000000E+00  0.10086558463E+04  0.10086558463E+04  0.50400001928E-02 0. -1.
        1   -1    0    0  501    0  0.00000000000E+00  0.00000000000E+00 -0.63392889985E+03  0.63392889987E+03  0.50400001928E-02 0.  1.
    10030    2    1    2    0    0  0.00000000000E+00  0.00000000000E+00  0.37472694646E+03  0.16425847462E+04  0.15992699472E+04 0.  0.
        5    1    3    3  502    0  0.47248644440E+03  0.49605985617E+03  0.61093472733E+03  0.91792273754E+03  0.46999998093E+01 0. -1.
       -5    1    3    3    0  502 -0.47248644440E+03 -0.49605985617E+03 -0.23620778087E+03  0.72466200865E+03  0.46999998093E+01 0.  1.
</event>
<event>
 5   0  0.5009762E-04  0.1694464E+04  0.7818609E-02  0.8764528E-01
       -1   -1    0    0    0  501  0.00000000000E+00  0.00000000000E+00  0.72695400024E+03  0.72695400026E+03  0.50400001928E-02 0.  1.
        1   -1    0    0  501    0  0.00000000000E+00  0.00000000000E+00 -0.98741019192E+03  0.98741019193E+03  0.50400001928E-02 0. -1.
    10030    2    1    2    0    0  0.00000000000E+00  0.00000000000E+00 -0.26045619168E+03  0.17143641922E+04  0.16944636779E+04 0.  0.
        3    1    3    3  502    0  0.39129838122E+03 -0.34062966003E+02  0.62927266746E+03  0.74179431718E+03  0.10100000352E+00 0.  1.
       -3    1    3    3    0  502 -0.39129838122E+03  0.34062966003E+02 -0.88972885913E+03  0.97256987501E+03  0.10100000352E+00 0. -1.
</event>
<event>
 5   0  0.4947006E-04  0.1684554E+04  0.7818609E-02  0.8770223E-01
       -1   -1    0    0    0  501  0.00000000000E+00  0.00000000000E+00  0.97370364594E+03  0.97370364595E+03  0.50400001928E-02 0. -1.
        1   -1    0    0  501    0  0.00000000000E+00  0.00000000000E+00 -0.72858977529E+03  0.72858977530E+03  0.50400001928E-02 0.  1.
    10030    2    1    2    0    0  0.00000000000E+00  0.00000000000E+00  0.24511387065E+03  0.17022934213E+04  0.16845539714E+04 0.  0.
        2    1    3    3  502    0  0.30253775729E+03 -0.38493990218E+03  0.81513744256E+03  0.95087163863E+03  0.25500000920E-02 0. -1.
       -2    1    3    3    0  502 -0.30253775729E+03  0.38493990218E+03 -0.57002357191E+03  0.75142178263E+03  0.25500000920E-02 0.  1.
</event>
<event>
 5   0  0.9610114E-04  0.1647517E+04  0.7818609E-02  0.8791877E-01
        2   -1    0    0  501    0  0.00000000000E+00  0.00000000000E+00  0.55378096814E+03  0.55378096815E+03  0.25500000920E-02 0.  1.
       -2   -1    0    0    0  501  0.00000000000E+00  0.00000000000E+00 -0.12253551500E+04  0.12253551500E+04  0.25500000920E-02 0. -1.
    10030    2    1    2    0    0  0.00000000000E+00  0.00000000000E+00 -0.67157418188E+03  0.17791361182E+04  0.16475173581E+04 0.  0.
        2    1    3    3  502    0 -0.17122317693E+03  0.74845278360E+03 -0.65809269530E+03  0.10112294207E+04  0.25500000920E-02 0. -1.
       -2    1    3    3    0  502  0.17122317693E+03 -0.74845278360E+03 -0.13481486582E+02  0.76790669751E+03  0.25500000920E-02 0.  1.
</event>
<event>
 5   0  0.4947006E-04  0.1694026E+04  0.7818609E-02  0.8764779E-01
       -1   -1    0    0    0  501  0.00000000000E+00  0.00000000000E+00  0.82474968178E+03  0.82474968180E+03  0.50400001928E-02 0. -1.
        1   -1    0    0  501    0  0.00000000000E+00  0.00000000000E+00 -0.86987755514E+03  0.86987755516E+03  0.50400001928E-02 0.  1.
    10030    2    1    2    0    0  0.00000000000E+00  0.00000000000E+00 -0.45127873361E+02  0.16946272370E+04  0.16940262534E+04 0.  0.
        2    1    3    3  502    0  0.66957744362E+03 -0.52242988570E+02  0.49372763236E+03  0.83356478922E+03  0.25500000920E-02 0. -1.
       -2    1    3    3    0  502 -0.66957744362E+03  0.52242988570E+02 -0.53885550572E+03  0.86106244774E+03  0.25500000920E-02 0.  1.
</event>
<event>
 5   0  0.4947006E-04  0.1669665E+04  0.7818609E-02  0.8778857E-01
       -1   -1    0    0    0  501  0.00000000000E+00  0.00000000000E+00  0.38218655503E+03  0.38218655506E+03  0.50400001928E-02 0.  1.
        1   -1    0    0  501    0  0.00000000000E+00  0.00000000000E+00 -0.18235733345E+04  0.18235733345E+04  0.50400001928E-02 0. -1.
    10030    2    1    2    0    0  0.00000000000E+00  0.00000000000E+00 -0.14413867794E+04  0.22057598895E+04  0.16696648892E+04 0.  0.
        2    1    3    3  502    0 -0.78088977803E+02 -0.64707359178E+03 -0.14098653119E+04  0.15532296415E+04  0.25500000920E-02 0. -1.
       -2    1    3    3    0  502  0.78088977803E+02  0.64707359178E+03 -0.31521467542E+02  0.65253024800E+03  0.25500000920E-02 0.  1.
</event>
<event>
 5   0  0.5009762E-04  0.1670295E+04  0.7818609E-02  0.8778490E-01
       -1   -1    0    0    0  501  0.00000000000E+00  0.00000000000E+00  0.48011240149E+03  0.48011240151E+03  0.50400001928E-02 0. -1.
        1   -1    0    0  501    0  0.00000000000E+00  0.00000000000E+00 -0.14527242587E+04  0.14527242587E+04  0.50400001928E-02 0.  1.
    10030    2    1    2    0    0  0.00000000000E+00  0.00000000000E+00 -0.97261185720E+03  0.19328366602E+04  0.16702945041E+04 0.  0.
        3    1    3    3  502    0 -0.57200668779E+03 -0.16276775401E+03  0.19218828978E+03  0.62499707324E+03  0.10100000352E+00 0. -1.
       -3    1    3    3    0  502  0.57200668779E+03  0.16276775401E+03 -0.11648001470E+04  0.13078395870E+04  0.10100000352E+00 0.  1.
</event>
<event>
 5   0  0.9625225E-04  0.1223458E+04  0.7818609E-02  0.9092568E-01
        2   -1    0    0  501    0  0.00000000000E+00  0.00000000000E+00  0.13012828979E+04  0.13012828979E+04  0.25500000920E-02 0.  1.
       -2   -1    0    0    0  501  0.00000000000E+00  0.00000000000E+00 -0.28757188184E+03  0.28757188185E+03  0.25500000920E-02 0. -1.
    10030    2    1    2    0    0  0.00000000000E+00  0.00000000000E+00  0.10137110161E+04  0.15888547797E+04  0.12234580038E+04 0.  0.
        1    1    3    3  502    0 -0.16820719080E+03  0.18219396669E+03  0.12330881981E+04  0.12577737495E+04  0.50400001928E-02 0.  1.
       -1    1    3    3    0  502  0.16820719080E+03 -0.18219396669E+03 -0.21937718209E+03  0.33108103023E+03  0.50400001928E-02 0. -1.
</event>
<event>
 5   0  0.9284971E-04  0.1715708E+04  0.7818609E-02  0.8752456E-01
        2   -1    0    0  501    0  0.00000000000E+00  0.00000000000E+00  0.57496648530E+03  0.57496648531E+03  0.25500000920E-02 0.  1.
       -2   -1    0    0    0  501  0.00000000000E+00  0.00000000000E+00 -0.12799242072E+04  0.12799242072E+04  0.25500000920E-02 0. -1.
    10030    2    1    2    0    0  0.00000000000E+00  0.00000000000E+00 -0.70495772190E+03  0.18548906925E+04  0.17157080438E+04 0.  0.
        4    1    3    3  502    0  0.78949048577E+03  0.10789770174E+03 -0.69602207024E+03  0.10580101494E+04  0.12699999809E+01 0. -1.
       -4    1    3    3    0  502 -0.78949048577E+03 -0.10789770174E+03 -0.89356516630E+01  0.79688054307E+03  0.12699999809E+01 0.  1.
</event>
<event>
 5   0  0.5074133E-04  0.1715433E+04  0.7818609E-02  0.8752611E-01
        1   -1    0    0  501    0  0.00000000000E+00  0.00000000000E+00  0.10963513497E+04  0.10963513497E+04  0.50400001928E-02 0. -1.
       -1   -1    0    0    0  501  0.00000000000E+00  0.00000000000E+00 -0.67102395429E+03  0.67102395430E+03  0.50400001928E-02 0.  1.
    10030    2    1    2    0    0  0.00000000000E+00  0.00000000000E+00  0.42532739542E+03  0.17673753040E+04  0.17154334939E+04 0.  0.
        1    1    3    3  502    0  0.22945295172E+03  0.12062085648E+03  0.10550263360E+04  0.10864062858E+04  0.50400001928E-02 0. -1.
       -1    1    3    3    0  502 -0.22945295172E+03 -0.12062085648E+03 -0.62969894057E+03  0.68096901827E+03  0.50400001928E-02 0.  1.
</event>
<event>
 5   0  0.9625225E-04  0.1651448E+04  0.7818609E-02  0.8789550E-01
       -2   -1    0    0    0  501  0.00000000000E+00  0.00000000000E+00  0.42405882339E+03  0.42405882340E+03  0.25500000920E-02 0.  1.
        2   -1    0    0  501    0  0.00000000000E+00  0.00000000000E+00 -0.16078438656E+04  0.16078438656E+04  0.25500000920E-02 0. -1.
    10030    2    1    2    0    0  0.00000000000E+00  0.00000000000E+00 -0.11837850422E+04  0.20319026890E+04  0.16514483072E+04 0.  0.
        1    1    3    3  502    0  0.12286339137E+03 -0.37786997222E+03 -0.14824836965E+04  0.15348091214E+04  0.50400001928E-02 0. -1.
       -1    1    3    3    0  502 -0.12286339137E+03  0.37786997222E+03  0.29869865427E+03  0.49709356758E+03  0.50400001928E-02 0.  1.
</event>
<event>
 5   0  0.9284971E-04  0.1637340E+04  0.7818609E-02  0.8797931E-01
       -2   -1    0    0    0  501  0.00000000000E+00  0.00000000000E+00  0.33176496592E+03  0.33176496593E+03  0.25500000920E-02 0.  1.
        2   -1    0    0  501    0  0.00000000000E+00  0.00000000000E+00 -0.20201676202E+04  0.20201676202E+04  0.25500000920E-02 0. -1.
    10030    2    1    2    0    0  0.00000000000E+00  0.00000000000E+00 -0.16884026543E+04  0.23519325862E+04  0.16373403332E+04 0.  0.
        4    1    3    3  502    0 -0.50764229064E+03  0.16738118434E+03 -0.17349091197E+04  0.18153865766E+04  0.12699999809E+01 0. -1.
       -4    1    3    3    0  502  0.50764229064E+03 -0.16738118434E+03  0.46506465379E+02  0.53654600953E+03  0.12699999809E+01 0.  1.
</event>
<event>
 5   0  0.1007187E-03  0.1570453E+04  0.7818609E-02  0.8838908E-01
        2   -1    0    0  501    0  0.00000000000E+00  0.00000000000E+00  0.64751649053E+03  0.64751649054E+03  0.25500000920E-02 0. -1.
       -2   -1    0    0    0  501  0.00000000000E+00  0.00000000000E+00 -0.95222415025E+03  0.95222415025E+03  0.25500000920E-02 0.  1.
    10030    2    1    2    0    0  0.00000000000E+00  0.00000000000E+00 -0.30470765972E+03  0.15997406408E+04  0.15704532339E+04 0.  0.
        5    1    3    3  502    0 -0.89642006123E+02 -0.10767037436E+03 -0.93937484256E+03  0.94977670198E+03  0.46999998093E+01 0.  1.
       -5    1    3    3    0  502  0.89642006123E+02  0.10767037436E+03  0.63466718285E+03  0.64996393881E+03  0.46999998093E+01 0. -1.
</event>
<event>
 5   0  0.9625225E-04  0.1521454E+04  0.7818609E-02  0.8870311E-01
        2   -1    0    0  501    0  0.00000000000E+00  0.00000000000E+00  0.19111796826E+04  0.19111796826E+04  0.25500000920E-02 0. -1.
       -2   -1    0    0    0  501  0.00000000000E+00  0.00000000000E+00 -0.30279999616E+03  0.30279999618E+03  0.25500000920E-02 0.  1.
    10030    2    1    2    0    0  0.00000000000E+00  0.00000000000E+00  0.16083796864E+04  0.22139796788E+04  0.15214535163E+04 0.  0.
        1    1    3    3  502    0  0.67599348155E+03  0.36157406130E+02  0.29919904214E+03  0.74013148289E+03  0.50400001928E-02 0. -1.
       -1    1    3    3    0  502 -0.67599348155E+03 -0.36157406130E+02  0.13091806443E+04  0.14738481959E+04  0.50400001928E-02 0.  1.
</event>
<event>
 5   0  0.1007187E-03  0.1690577E+04  0.7818609E-02  0.8766757E-01
        2   -1    0    0  501    0  0.00000000000E+00  0.00000000000E+00  0.18562119909E+04  0.18562119909E+04  0.25500000920E-02 0.  1.
       -2   -1    0    0    0  501  0.00000000000E+00  0.00000000000E+00 -0.38493050508E+03  0.38493050509E+03  0.25500000920E-02 0. -1.
    10030    2    1    2    0    0  0.00000000000E+00  0.00000000000E+00  0.14712814858E+04  0.22411424960E+04  0.16905769657E+04 0.  0.
        5    1    3    3  502    0  0.49782876371E+03  0.54046675859E+03  0.12894980008E+04  0.14841714790E+04  0.46999998093E+01 0.  1.
       -5    1    3    3    0  502 -0.49782876371E+03 -0.54046675859E+03  0.18178348504E+03  0.75697101698E+03  0.46999998093E+01 0. -1.
</event>
<event>
 5   0  0.9625225E-04  0.1691201E+04  0.7818609E-02  0.8766399E-01
        2   -1    0    0  501    0  0.00000000000E+00  0.00000000000E+00  0.21576457787E+04  0.21576457787E+04  0.25500000920E-02 0. -1.
       -2   -1    0    0    0  501  0.00000000000E+00  0.00000000000E+00 -0.33139828810E+03  0.33139828811E+03  0.25500000920E-02 0.  1.
    10030    2    1    2    0    0  0.00000000000E+00  0.00000000000E+00  0.18262474906E+04  0.24890440668E+04  0.16912008957E+04 0.  0.
        1    1    3    3  502    0 -0.40294692660E+03 -0.30443058388E+03 -0.85068913023E+02  0.51213369939E+03  0.50400001928E-02 0.  1.
       -1    1    3    3    0  502  0.40294692660E+03  0.30443058388E+03  0.19113164036E+04  0.19769103674E+04  0.50400001928E-02 0. -1.
</event>
<event>
 5   0  0.5035495E-04  0.1613279E+04  0.7818609E-02  0.8812432E-01
        1   -1    0    0  501    0  0.00000000000E+00  0.00000000000E+00  0.11816697219E+04  0.11816697219E+04  0.50400001928E-02 0.  1.
       -1   -1    0    0    0  501  0.00000000000E+00  0.00000000000E+00 -0.55063350448E+03  0.55063350451E+03  0.50400001928E-02 0. -1.
    10030    2    1    2    0    0  0.00000000000E+00  0.00000000000E+00  0.63103621745E+03  0.17323032265E+04  0.16132785750E+04 0.  0.
        4    1    3    3  502    0 -0.27865451909E+02  0.57529658015E+03 -0.29087918780E+03  0.64525572709E+03  0.12699999809E+01 0. -1.
       -4    1    3    3    0  502  0.27865451909E+02 -0.57529658015E+03  0.92191540525E+03  0.10870474994E+04  0.12699999809E+01 0.  1.
</event>
<event>
 5   0  0.5009762E-04  0.1622543E+04  0.7818609E-02  0.8806817E-01
       -1   -1    0    0    0  501  0.00000000000E+00  0.00000000000E+00  0.94064420265E+03  0.94064420266E+03  0.50400001928E-02 0.  1.
        1   -1    0    0  501    0  0.00000000000E+00  0.00000000000E+00 -0.69969248745E+03  0.69969248747E+03  0.50400001928E-02 0. -1.
    10030    2    1    2    0    0  0.00000000000E+00  0.00000000000E+00  0.24095171520E+03  0.16403366901E+04  0.16225432900E+04 0.  0.
        3    1    3    3  502    0 -0.48374679445E+03  0.60697554870E+03 -0.11818800169E+03  0.78511062393E+03  0.10100000352E+00 0. -1.
       -3    1    3    3    0  502  0.48374679445E+03 -0.60697554870E+03  0.35913971688E+03  0.85522606620E+03  0.10100000352E+00 0.  1.
</event>
<event>
 5   0  0.9625225E-04  0.2264900E+04  0.7818609E-02  0.8491891E-01
        2   -1    0    0  501    0  0.00000000000E+00  0.00000000000E+00  0.13198383811E+04  0.13198383811E+04  0.25500000920E-02 0. -1.
       -2   -1    0    0    0  501  0.00000000000E+00  0.00000000000E+00 -0.97166646550E+03  0.97166646550E+03  0.25500000920E-02 0.  1.
    10030    2    1    2    0    0  0.00000000000E+00  0.00000000000E+00  0.34817191563E+03  0.22915048466E+04  0.22648997283E+04 0.  0.
        1    1    3    3  502    0  0.68947914263E+03  0.40829489958E+03  0.98370871194E+03  0.12687667410E+04  0.50400001928E-02 0. -1.
       -1    1    3    3    0  502 -0.68947914263E+03 -0.40829489958E+03 -0.63553679632E+03  0.10227381056E+04  0.50400001928E-02 0.  1.
</event>
<event>
 5   0  0.4947006E-04  0.1468931E+04  0.7818609E-02  0.8905380E-01
       -1   -1    0    0    0  501  0.00000000000E+00  0.00000000000E+00  0.38893232301E+03  0.38893232304E+03  0.50400001928E-02 0. -1.
        1   -1    0    0  501    0  0.00000000000E+00  0.00000000000E+00 -0.13869760310E+04  0.13869760310E+04  0.50400001928E-02 0.  1.
    10030    2    1    2    0    0  0.00000000000E+00  0.00000000000E+00 -0.99804370802E+03  0.17759083541E+04  0.14689313255E+04 0.  0.
        2    1    3    3  502    0  0.68779343979E+03  0.25358939612E+03 -0.55405915362E+03  0.91888461918E+03  0.25500000920E-02 0. -1.
       -2    1    3    3    0  502 -0.68779343979E+03 -0.25358939612E+03 -0.44398455440E+03  0.85702373491E+03  0.25500000920E-02 0.  1.
</event>
<event>
 5   0  0.9610114E-04  0.1609876E+04  0.7818609E-02  0.8814504E-01
       -2   -1    0    0    0  501  0.00000000000E+00  0.00000000000E+00  0.65669550229E+03  0.65669550229E+03  0.25500000920E-02 0.  1.
        2   -1    0    0  501    0  0.00000000000E+00  0.00000000000E+00 -0.98664425901E+03  0.98664425901E+03  0.25500000920E-02 0. -1.
    10030    2    1    2    0    0  0.00000000000E+00  0.00000000000E+00 -0.32994875673E+03  0.16433397613E+04  0.16098755818E+04 0.  0.
        2    1    3    3  502    0 -0.22173948408E+03  0.75510507862E+03 -0.33752288813E+03  0.85631406539E+03  0.25500000920E-02 0. -1.
       -2    1    3    3    0  502  0.22173948408E+03 -0.75510507862E+03  0.75741314002E+01  0.78702569592E+03  0.25500000920E-02 0.  1.
</event>
<event>
 5   0  0.5035495E-04  0.1675343E+04  0.7818609E-02  0.8775553E-01
        1   -1    0    0  501    0  0.00000000000E+00  0.00000000000E+00  0.63702511435E+03  0.63702511437E+03  0.50400001928E-02 0.  1.
       -1   -1    0    0    0  501  0.00000000000E+00  0.00000000000E+00 -0.11015167830E+04  0.11015167830E+04  0.50400001928E-02 0. -1.
    10030    2    1    2    0    0  0.00000000000E+00  0.00000000000E+00 -0.46449166867E+03  0.17385418974E+04  0.16753433734E+04 0.  0.
        4    1    3    3  502    0 -0.43779044658E+03 -0.53608205126E+03 -0.72190121833E+03  0.10000937070E+04  0.12699999809E+01 0. -1.
       -4    1    3    3    0  502  0.43779044658E+03  0.53608205126E+03  0.25740954965E+03  0.73844819044E+03  0.12699999809E+01 0.  1.
</event>
<event>
 5   0  0.1007187E-03  0.1687085E+04  0.7818609E-02  0.8768765E-01
       -2   -1    0    0    0  501  0.00000000000E+00  0.00000000000E+00  0.32195891843E+03  0.32195891844E+03  0.25500000920E-02 0. -1.
        2   -1    0    0  501    0  0.00000000000E+00  0.00000000000E+00 -0.22101077981E+04  0.22101077981E+04  0.25500000920E-02 0.  1.
    10030    2    1    2    0    0  0.00000000000E+00  0.00000000000E+00 -0.18881488797E+04  0.25320667166E+04  0.16870849609E+04 0.  0.
        5    1    3    3  502    0 -0.32100451362E+03  0.59260673167E+03 -0.18274801683E+03  0.69831623484E+03  0.46999998093E+01 0. -1.
       -5    1    3    3    0  502  0.32100451362E+03 -0.59260673167E+03 -0.17054008629E+04  0.18337504817E+04  0.46999998093E+01 0.  1.
</event>
<event>
 5   0  0.5035495E-04  0.1568727E+04  0.7818609E-02  0.8839994E-01
        1   -1    0    0  501    0  0.00000000000E+00  0.00000000000E+00  0.80708907649E+03  0.80708907651E+03  0.50400001928E-02 0. -1.
       -1   -1    0    0    0  501  0.00000000000E+00  0.00000000000E+00 -0.76227766213E+03  0.76227766215E+03  0.50400001928E-02 0.  1.
    10030    2    1    2    0    0  0.00000000000E+00  0.00000000000E+00  0.44811414361E+02  0.15693667387E+04  0.15687268397E+04 0.  0.
        4    1    3    3  502    0  0.25363013844E+02 -0.77786388201E+03  0.11995886798E+03  0.78746888466E+03  0.12699999809E+01 0.  1.
       -4    1    3    3    0  502 -0.25363013844E+02  0.77786388201E+03 -0.75147453623E+02  0.78189785400E+03  0.12699999809E+01 0. -1.
</event>
<event>
 5   0  0.9625225E-04  0.1631585E+04  0.7818609E-02  0.8801376E-01
       -2   -1    0    0    0  501  0.00000000000E+00  0.00000000000E+00  0.76495343076E+03  0.76495343076E+03  0.25500000920E-02 0.  1.
        2   -1    0    0  501    0  0.00000000000E+00  0.00000000000E+00 -0.87001058592E+03  0.87001058592E+03  0.25500000920E-02 0. -1.
    10030    2    1    2    0    0  0.00000000000E+00  0.00000000000E+00 -0.10505715516E+03  0.16349640167E+04  0.16315852200E+04 0.  0.
        1    1    3    3  502    0  0.74728940211E+03 -0.26254254919E+03  0.14318984881E+03  0.80490581652E+03  0.50400001928E-02 0.  1.
       -1    1    3    3    0  502 -0.74728940211E+03  0.26254254919E+03 -0.24824700397E+03  0.83005820016E+03  0.50400001928E-02 0. -1.
</event>
<event>
 5   0  0.4947006E-04  0.1641610E+04  0.7818609E-02  0.8795386E-01
        1   -1    0    0  501    0  0.00000000000E+00  0.00000000000E+00  0.13984160762E+04  0.13984160763E+04  0.50400001928E-02 0.  1.
       -1   -1    0    0    0  501  0.00000000000E+00  0.00000000000E+00 -0.48177410841E+03  0.48177410844E+03  0.50400001928E-02 0. -1.
    10030    2    1    2    0    0  0.00000000000E+00  0.00000000000E+00  0.91664196783E+03  0.18801901847E+04  0.16416097689E+04 0.  0.
        2    1    3    3  502    0  0.11178674084E+03 -0.63229228768E+03  0.10439333883E+04  0.12255964800E+04  0.25500000920E-02 0.  1.
       -2    1    3    3    0  502 -0.11178674084E+03  0.63229228768E+03 -0.12729142050E+03  0.65459370470E+03  0.25500000920E-02 0. -1.
</event>
<event>
 5   0  0.4947006E-04  0.1701811E+04  0.7818609E-02  0.8760332E-01
       -1   -1    0    0    0  501  0.00000000000E+00  0.00000000000E+00  0.56521654849E+03  0.56521654852E+03  0.50400001928E-02 0.  1.
        1   -1    0    0  501    0  0.00000000000E+00  0.00000000000E+00 -0.12809955475E+04  0.12809955475E+04  0.50400001928E-02 0. -1.
    10030    2    1    2    0    0  0.00000000000E+00  0.00000000000E+00 -0.71577899902E+03  0.18462120960E+04  0.17018106617E+04 0.  0.
        2    1    3    3  502    0 -0.28389967088E+03 -0.46245884439E+03  0.35314173102E+03  0.64743825039E+03  0.25500000920E-02 0.  1.
       -2    1    3    3    0  502  0.28389967088E+03  0.46245884439E+03 -0.10689207300E+04  0.11987738456E+04  0.25500000920E-02 0. -1.
</event>
<event>
 5   0  0.5009762E-04  0.1677912E+04  0.7818609E-02  0.8774063E-01
        1   -1    0    0  501    0  0.00000000000E+00  0.00000000000E+00  0.95556053249E+03  0.95556053251E+03  0.50400001928E-02 0. -1.
       -1   -1    0    0    0  501  0.00000000000E+00  0.00000000000E+00 -0.73658026976E+03  0.73658026977E+03  0.50400001928E-02 0.  1.
    10030    2    1    2    0    0  0.00000000000E+00  0.00000000000E+00  0.21898026274E+03  0.16921408023E+04  0.16779118389E+04 0.  0.
        3    1    3    3  502    0  0.49155281071E+03  0.64261593563E+03  0.33333551524E+03  0.87503827480E+03  0.10100000352E+00 0. -1.
       -3    1    3    3    0  502 -0.49155281071E+03 -0.64261593563E+03 -0.11435525251E+03  0.81710252748E+03  0.10100000352E+00 0.  1.
</event>
<event>
 5   0  0.5059689E-04  0.1655815E+04  0.7818609E-02  0.8786974E-01
        1   -1    0    0  501    0  0.00000000000E+00  0.00000000000E+00  0.46088204150E+03  0.46088204152E+03  0.50400001928E-02 0.  1.
       -1   -1    0    0    0  501  0.00000000000E+00  0.00000000000E+00 -0.14872157103E+04  0.14872157104E+04  0.50400001928E-02 0. -1.
    10030    2    1    2    0    0  0.00000000000E+00  0.00000000000E+00 -0.10263336688E+04  0.19480977519E+04  0.16558152225E+04 0.  0.
        5    1    3    3  502    0  0.48947826506E+02 -0.78448143949E+03 -0.20726763619E+03  0.81288928006E+03  0.46999998093E+01 0.  1.
       -5    1    3    3    0  502 -0.48947826506E+02  0.78448143949E+03 -0.81906603266E+03  0.11352084718E+04  0.46999998093E+01 0. -1.
</event>
<event>
 5   0  0.5035495E-04  0.1730670E+04  0.7818609E-02  0.8744063E-01
        1   -1    0    0  501    0  0.00000000000E+00  0.00000000000E+00  0.48956615077E+03  0.48956615079E+03  0.50400001928E-02 0.  1.
       -1   -1    0    0    0  501  0.00000000000E+00  0.00000000000E+00 -0.15295276113E+04  0.15295276113E+04  0.50400001928E-02 0. -1.
    10030    2    1    2    0    0  0.00000000000E+00  0.00000000000E+00 -0.10399614605E+04  0.20190937621E+04  0.17306703270E+04 0.  0.
        4    1    3    3  502    0  0.15144438488E+03  0.52971410896E+03 -0.12984729793E+04  0.14105198084E+04  0.12699999809E+01 0. -1.
       -4    1    3    3    0  502 -0.15144438488E+03 -0.52971410896E+03  0.25851151876E+03  0.60857395374E+03  0.12699999809E+01 0.  1.
</event>
<event>
 5   0  0.9284971E-04  0.1690759E+04  0.7818609E-02  0.8766652E-01
        2   -1    0    0  501    0  0.00000000000E+00  0.00000000000E+00  0.21595166987E+04  0.21595166987E+04  0.25500000920E-02 0.  1.
       -2   -1    0    0    0  501  0.00000000000E+00  0.00000000000E+00 -0.33093830801E+03  0.33093830802E+03  0.25500000920E-02 0. -1.
    10030    2    1    2    0    0  0.00000000000E+00  0.00000000000E+00  0.18285783907E+04  0.24904550067E+04  0.16907593589E+04 0.  0.
        4    1    3    3  502    0  0.23544395806E+03  0.49205915525E+03 -0.37020105399E+02  0.54674324024E+03  0.12699999809E+01 0. -1.
       -4    1    3    3    0  502 -0.23544395806E+03 -0.49205915525E+03  0.18655984961E+04  0.19437117665E+04  0.12699999809E+01 0.  1.
</event>
<event>
 5   0  0.9625225E-04  0.1702586E+04  0.7818609E-02  0.8759891E-01
        2   -1    0    0  501    0  0.00000000000E+00  0.00000000000E+00  0.24785226599E+04  0.24785226599E+04  0.25500000920E-02 0.  1.
       -2   -1    0    0    0  501  0.00000000000E+00  0.00000000000E+00 -0.29239187136E+03  0.29239187137E+03  0.25500000920E-02 0. -1.
    10030    2    1    2    0    0  0.00000000000E+00  0.00000000000E+00  0.21861307886E+04  0.27709145313E+04  0.17025861256E+04 0.  0.
        1    1    3    3  502    0  0.79367334772E+03  0.12117173801E+03  0.15536718735E+04  0.17488557012E+04  0.50400001928E-02 0.  1.
       -1    1    3    3    0  502 -0.79367334772E+03 -0.12117173801E+03  0.63245891502E+03  0.10220588301E+04  0.50400001928E-02 0. -1.
</event>
<event>
 5   0  0.1007187E-03  0.1702720E+04  0.7818609E-02  0.8759814E-01
       -2   -1    0    0    0  501  0.00000000000E+00  0.00000000000E+00  0.33409300304E+03  0.33409300305E+03  0.25500000920E-02 0. -1.
        2   -1    0    0  501    0  0.00000000000E+00  0.00000000000E+00 -0.21694979928E+04  0.21694979928E+04  0.25500000920E-02 0.  1.
    10030    2    1    2    0    0  0.00000000000E+00  0.00000000000E+00 -0.18354049898E+04  0.25035909959E+04  0.17027202936E+04 0.  0.
        5    1    3    3  502    0 -0.23864673950E+02 -0.23492643546E+03 -0.21203643388E+04  0.21334776709E+04  0.46999998093E+01 0.  1.
       -5    1    3    3    0  502  0.23864673950E+02  0.23492643546E+03  0.28495934904E+03  0.37011332500E+03  0.46999998093E+01 0. -1.
</event>
<event>
 5   0  0.9610114E-04  0.2203204E+04  0.7818609E-02  0.8517096E-01
       -2   -1    0    0    0  501  0.00000000000E+00  0.00000000000E+00  0.96111830585E+03  0.96111830585E+03  0.25500000920E-02 0.  1.
        2   -1    0    0  501    0  0.00000000000E+00  0.00000000000E+00 -0.12626199481E+04  0.12626199481E+04  0.25500000920E-02 0. -1.
    10030    2    1    2    0    0  0.00000000000E+00  0.00000000000E+00 -0.30150164229E+03  0.22237382540E+04  0.22032041626E+04 0.  0.
        2    1    3    3  502    0  0.99656514374E+03 -0.37736336507E+03  0.13110432616E+03  0.10736542923E+04  0.25500000920E-02 0.  1.
       -2    1    3    3    0  502 -0.99656514374E+03  0.37736336507E+03 -0.43260596845E+03  0.11500839617E+04  0.25500000920E-02 0. -1.
</event>
<event>
 5   0  0.4947006E-04  0.1692405E+04  0.7818609E-02  0.8765708E-01
       -1   -1    0    0    0  501  0.00000000000E+00  0.00000000000E+00  0.86353659908E+03  0.86353659909E+03  0.50400001928E-02 0.  1.
        1   -1    0    0  501    0  0.00000000000E+00  0.00000000000E+00 -0.82921619307E+03  0.82921619308E+03  0.50400001928E-02 0. -1.
    10030    2    1    2    0    0  0.00000000000E+00  0.00000000000E+00  0.34320406014E+02  0.16927527922E+04  0.16924048349E+04 0.  0.
        2    1    3    3  502    0 -0.48340673028E+03  0.69271051585E+03  0.67455784336E+02  0.84739613434E+03  0.25500000920E-02 0.  1.
       -2    1    3    3    0  502  0.48340673028E+03 -0.69271051585E+03 -0.33135378322E+02  0.84535665784E+03  0.25500000920E-02 0. -1.
</event>
<event>
 5   0  0.5074133E-04  0.1697147E+04  0.7818609E-02  0.8762993E-01
       -1   -1    0    0    0  501  0.00000000000E+00  0.00000000000E+00  0.12368581715E+04  0.12368581715E+04  0.50400001928E-02 0. -1.
        1   -1    0    0  501    0  0.00000000000E+00  0.00000000000E+00 -0.58218263185E+03  0.58218263187E+03  0.50400001928E-02 0.  1.
    10030    2    1    2    0    0  0.00000000000E+00  0.00000000000E+00  0.65467553964E+03  0.18190408034E+04  0.16971474250E+04 0.  0.
        1    1    3    3  502    0 -0.33742429908E+03  0.62654858293E+03  0.82276917086E+03  0.10878269131E+04  0.50400001928E-02 0. -1.
       -1    1    3    3    0  502  0.33742429908E+03 -0.62654858293E+03 -0.16809363122E+03  0.73121389023E+03  0.50400001928E-02 0.  1.
</event>
<event>
 5   0  0.1007187E-03  0.1478128E+04  0.7818609E-02  0.8899129E-01
        2   -1    0    0  501    0  0.00000000000E+00  0.00000000000E+00  0.13452437292E+04  0.13452437292E+04  0.25500000920E-02 0.  1.
       -2   -1    0    0    0  501  0.00000000000E+00  0.00000000000E+00 -0.40603484945E+03  0.40603484946E+03  0.25500000920E-02 0. -1.
    10030    2    1    2    0    0  0.00000000000E+00  0.00000000000E+00  0.93920887973E+03  0.17512785786E+04  0.14781283233E+04 0.  0.
        5    1    3    3  502    0  0.14006903476E+02 -0.66642828044E+03  0.91450904087E+02  0.67283594150E+03  0.46999998093E+01 0. -1.
       -5    1    3    3    0  502 -0.14006903476E+02  0.66642828044E+03  0.84775797564E+03  0.10784426371E+04  0.46999998093E+01 0.  1.
</event>
<event>
 5   0  0.9625225E-04  0.1784592E+04  0.7818609E-02  0.8714536E-01
        2   -1    0    0  501    0  0.00000000000E+00  0.00000000000E+00  0.17141305185E+04  0.17141305185E+04  0.25500000920E-02 0. -1.
       -2   -1    0    0    0  501  0.00000000000E+00  0.00000000000E+00 -0.46448740632E+03  0.46448740632E+03  0.25500000920E-02 0.  1.
    10030    2    1    2    0    0  0.00000000000E+00  0.00000000000E+00  0.12496431122E+04  0.21786179248E+04  0.17845918734E+04 0.  0.
        1    1    3    3  502    0  0.87103262858E+03 -0.31512579414E+02  0.39158561749E+03  0.95552612657E+03  0.50400001928E-02 0.  1.
       -1    1    3    3    0  502 -0.87103262858E+03  0.31512579414E+02  0.85805749467E+03  0.12230917982E+04  0.50400001928E-02 0. -1.
</event>
<event>
 5   0  0.5059689E-04  0.1752674E+04  0.7818609E-02  0.8731880E-01
       -1   -1    0    0    0  501  0.00000000000E+00  0.00000000000E+00  0.60649328470E+03  0.60649328472E+03  0.50400001928E-02 0.  1.
        1   -1    0    0  501    0  0.00000000000E+00  0.00000000000E+00 -0.12662403419E+04  0.12662403419E+04  0.50400001928E-02 0. -1.
    10030    2    1    2    0    0  0.00000000000E+00  0.00000000000E+00 -0.65974705716E+03  0.18727336266E+04  0.17526736880E+04 0.  0.
        5    1    3    3  502    0  0.18767116938E+03  0.57330818084E+03  0.34931117281E+03  0.69709620820E+03  0.46999998093E+01 0.  1.
       -5    1    3    3    0  502 -0.18767116938E+03 -0.57330818084E+03 -0.10090582300E+04  0.11756374184E+04  0.46999998093E+01 0. -1.
</event>
<event>
 5   0  0.5009762E-04  0.1433288E+04  0.7818609E-02  0.8930070E-01
        1   -1    0    0  501    0  0.00000000000E+00  0.00000000000E+00  0.46323474136E+03  0.46323474139E+03  0.50400001928E-02 0.  1.
       -1   -1    0    0    0  501  0.00000000000E+00  0.00000000000E+00 -0.11086783149E+04  0.11086783149E+04  0.50400001928E-02 0. -1.
    10030    2    1    2    0    0  0.00000000000E+00  0.00000000000E+00 -0.64544357355E+03  0.15719130563E+04  0.14332875671E+04 0.  0.
        3    1    3    3  502    0 -0.47752914907E+03 -0.44028705758E+03  0.93712549921E+01  0.64959572959E+03  0.10100000352E+00 0.  1.
       -3    1    3    3    0  502  0.47752914907E+03  0.44028705758E+03 -0.65481482854E+03  0.92231732672E+03  0.10100000352E+00 0. -1.
</event>
<event>
 5   0  0.1007187E-03  0.1710734E+04  0.7818609E-02  0.8755266E-01
       -2   -1    0    0    0  501  0.00000000000E+00  0.00000000000E+00  0.43424109367E+03  0.43424109368E+03  0.25500000920E-02 0. -1.
        2   -1    0    0  501    0  0.00000000000E+00  0.00000000000E+00 -0.16848995120E+04  0.16848995120E+04  0.25500000920E-02 0.  1.
    10030    2    1    2    0    0  0.00000000000E+00  0.00000000000E+00 -0.12506584184E+04  0.21191406057E+04  0.17107338856E+04 0.  0.
        5    1    3    3  502    0  0.57619584154E+03 -0.37551569633E+03 -0.12552786694E+04  0.14313491237E+04  0.46999998093E+01 0.  1.
       -5    1    3    3    0  502 -0.57619584154E+03  0.37551569633E+03  0.46202510694E+01  0.68779148200E+03  0.46999998093E+01 0. -1.
</event>
<event>
 5   0  0.5009762E-04  0.1717228E+04  0.7818609E-02  0.8751599E-01
        1   -1    0    0  501    0  0.00000000000E+00  0.00000000000E+00  0.90786139823E+03  0.90786139825E+03  0.50400001928E-02 0.  1.
       -1   -1    0    0    0  501  0.00000000000E+00  0.00000000000E+00 -0.81203827907E+03  0.81203827908E+03  0.50400001928E-02 0. -1.
    10030    2    1    2    0    0  0.00000000000E+00  0.00000000000E+00  0.95823119162E+02  0.17198996773E+04  0.17172282405E+04 0.  0.
        3    1    3    3  502    0 -0.22609789941E+02 -0.79979534674E+03  0.35989960331E+03  0.87733205455E+03  0.10100000352E+00 0. -1.
       -3    1    3    3    0  502  0.22609789941E+02  0.79979534674E+03 -0.26407648415E+03  0.84256762278E+03  0.10100000352E+00 0.  1.
</event>
<event>
 5   0  0.9312096E-04  0.1691416E+04  0.7818609E-02  0.8766275E-01
        2   -1    0    0  501    0  0.00000000000E+00  0.00000000000E+00  0.24780980585E+04  0.24780980585E+04  0.25500000920E-02 0. -1.
       -2   -1    0    0    0  501  0.00000000000E+00  0.00000000000E+00 -0.28861729909E+03  0.28861729910E+03  0.25500000920E-02 0.  1.
    10030    2    1    2    0    0  0.00000000000E+00  0.00000000000E+00  0.21894807594E+04  0.27667153576E+04  0.16914159377E+04 0.  0.
        3    1    3    3  502    0  0.29588795729E+03 -0.32808855370E+03 -0.84842158696E+02  0.44987774388E+03  0.10100000352E+00 0.  1.
       -3    1    3    3    0  502 -0.29588795729E+03  0.32808855370E+03  0.22743229181E+04  0.23168376137E+04  0.10100000352E+00 0. -1.
</event>
<event>
 5   0  0.4947006E-04  0.1678802E+04  0.7818609E-02  0.8773547E-01
       -1   -1    0    0    0  501  0.00000000000E+00  0.00000000000E+00  0.11194247670E+04  0.11194247670E+04  0.50400001928E-02 0.  1.
        1   -1    0    0  501    0  0.00000000000E+00  0.00000000000E+00 -0.62942518295E+03  0.62942518297E+03  0.50400001928E-02 0. -1.
    10030    2    1    2    0    0  0.00000000000E+00  0.00000000000E+00  0.48999958405E+03  0.17488499500E+04  0.16788021191E+04 0.  0.
        2    1    3    3  502    0  0.51142132672E+03 -0.36161503405E+03  0.82713382845E+03  0.10375295545E+04  0.25500000920E-02 0.  1.
       -2    1    3    3    0  502 -0.51142132672E+03  0.36161503405E+03 -0.33713424440E+03  0.71132039549E+03  0.25500000920E-02 0. -1.
</event>
<event>
 5   0  0.9625225E-04  0.1720012E+04  0.7818609E-02  0.8750032E-01
       -2   -1    0    0    0  501  0.00000000000E+00  0.00000000000E+00  0.39985870299E+03  0.39985870300E+03  0.25500000920E-02 0. -1.
        2   -1    0    0  501    0  0.00000000000E+00  0.00000000000E+00 -0.18496801611E+04  0.18496801611E+04  0.25500000920E-02 0.  1.
    10030    2    1    2    0    0  0.00000000000E+00  0.00000000000E+00 -0.14498214582E+04  0.22495388641E+04  0.17200124537E+04 0.  0.
        1    1    3    3  502    0  0.51653959443E+03 -0.68254668971E+03 -0.61605469858E+03  0.10546120272E+04  0.50400001928E-02 0. -1.
       -1    1    3    3    0  502 -0.51653959443E+03  0.68254668971E+03 -0.83376675958E+03  0.11949268369E+04  0.50400001928E-02 0.  1.
</event>
<event>
 5   0  0.4947006E-04  0.1653676E+04  0.7818609E-02  0.8788235E-01
       -1   -1    0    0    0  501  0.00000000000E+00  0.00000000000E+00  0.54917423579E+03  0.54917423581E+03  0.50400001928E-02 0.  1.
        1   -1    0    0  501    0  0.00000000000E+00  0.00000000000E+00 -0.12448892406E+04  0.12448892406E+04  0.50400001928E-02 0. -1.
    10030    2    1    2    0    0  0.00000000000E+00  0.00000000000E+00 -0.69571500478E+03  0.17940634764E+04  0.16536760231E+04 0.  0.
        2    1    3    3  502    0 -0.37595675246E+03  0.73254127899E+03 -0.26594337859E+03  0.86526648252E+03  0.25500000920E-02 0.  1.
       -2    1    3    3    0  502  0.37595675246E+03 -0.73254127899E+03 -0.42977162619E+03  0.92879699387E+03  0.25500000920E-02 0. -1.
</event>
<event>
 5   0  0.9284971E-04  0.1504811E+04  0.7818609E-02  0.8881260E-01
       -2   -1    0    0    0  501  0.00000000000E+00  0.00000000000E+00  0.84086861259E+03  0.84086861259E+03  0.25500000920E-02 0.  1.
        2   -1    0    0  501    0  0.00000000000E+00  0.00000000000E+00 -0.67324897009E+03  0.67324897009E+03  0.25500000920E-02 0. -1.
    10030    2    1    2    0    0  0.00000000000E+00  0.00000000000E+00  0.16761964250E+03  0.15141175827E+04  0.15048108551E+04 0.  0.
        4    1    3    3  502    0  0.72911741003E+03  0.18469864004E+03  0.10359176140E+03  0.75924874130E+03  0.12699999809E+01 0.  1.
       -4    1    3    3    0  502 -0.72911741003E+03 -0.18469864004E+03  0.64027881101E+02  0.75486884139E+03  0.12699999809E+01 0. -1.
</event>
<event>
 5   0  0.5035495E-04  0.1723678E+04  0.7818609E-02  0.8747974E-01
       -1   -1    0    0    0  501  0.00000000000E+00  0.00000000000E+00  0.12183243432E+04  0.12183243432E+04  0.50400001928E-02 0.  1.
        1   -1    0    0  501    0  0.00000000000E+00  0.00000000000E+00 -0.60966243669E+03  0.60966243671E+03  0.50400001928E-02 0. -1.
    10030    2    1    2    0    0  0.00000000000E+00  0.00000000000E+00  0.60866190648E+03  0.18279867799E+04  0.17236781460E+04 0.  0.
        4    1    3    3  502    0  0.26524669489E+03 -0.65864421890E+03 -0.21369238582E+03  0.74150796684E+03  0.12699999809E+01 0. -1.
       -4    1    3    3    0  502 -0.26524669489E+03  0.65864421890E+03  0.82235429229E+03  0.10864788130E+04  0.12699999809E+01 0.  1.
</event>
<event>
 5   0  0.3523125E-04  0.1706144E+04  0.7818609E-02  0.8757868E-01
        4   -1    0    0  501    0  0.00000000000E+00  0.00000000000E+00  0.49262497787E+03  0.49262661492E+03  0.12699999809E+01 0.  1.
       -4   -1    0    0    0  501  0.00000000000E+00  0.00000000000E+00 -0.14772489952E+04  0.14772495411E+04  0.12699999809E+01 0. -1.
    10030    2    1    2    0    0  0.00000000000E+00  0.00000000000E+00 -0.98462401732E+03  0.19698761560E+04  0.17061440779E+04 0.  0.
        5    1    3    3  502    0 -0.71762285995E+02  0.74664693104E+03 -0.23208935774E+02  0.75046133146E+03  0.46999998093E+01 0.  1.
       -5    1    3    3    0  502  0.71762285995E+02 -0.74664693104E+03 -0.96141508155E+03  0.12194148246E+04  0.46999998093E+01 0. -1.
</event>
<event>
 5   0  0.5059689E-04  0.1713428E+04  0.7818609E-02  0.8753743E-01
        1   -1    0    0  501    0  0.00000000000E+00  0.00000000000E+00  0.10111352683E+04  0.10111352683E+04  0.50400001928E-02 0.  1.
       -1   -1    0    0    0  501  0.00000000000E+00  0.00000000000E+00 -0.72587622538E+03  0.72587622540E+03  0.50400001928E-02 0. -1.
    10030    2    1    2    0    0  0.00000000000E+00  0.00000000000E+00  0.28525904292E+03  0.17370114937E+04  0.17134282033E+04 0.  0.
        5    1    3    3  502    0  0.73965256075E+03 -0.33157269742E+03 -0.13851516120E+03  0.82233503159E+03  0.46999998093E+01 0. -1.
       -5    1    3    3    0  502 -0.73965256075E+03  0.33157269742E+03  0.42377420412E+03  0.91467646213E+03  0.46999998093E+01 0.  1.
</event>
<event>
 5   0  0.4947006E-04  0.1695208E+04  0.7818609E-02  0.8764102E-01
        1   -1    0    0  501    0  0.00000000000E+00  0.00000000000E+00  0.97567057665E+03  0.97567057666E+03  0.50400001928E-02 0. -1.
       -1   -1    0    0    0  501  0.00000000000E+00  0.00000000000E+00 -0.73634736999E+03  0.73634737001E+03  0.50400001928E-02 0.  1.
    10030    2    1    2    0    0  0.00000000000E+00  0.00000000000E+00  0.23932320666E+03  0.17120179467E+04  0.16952079083E+04 0.  0.
        2    1    3    3  502    0  0.15161126454E+03  0.59058212631E+03  0.71427779805E+03  0.93913044687E+03  0.25500000920E-02 0. -1.
       -2    1    3    3    0  502 -0.15161126454E+03 -0.59058212631E+03 -0.47495459139E+03  0.77288749980E+03  0.25500000920E-02 0.  1.
</event>
<event>
 5   0  0.5009762E-04  0.1684227E+04  0.7818609E-02  0.8770412E-01
        1   -1    0    0  501    0  0.00000000000E+00  0.00000000000E+00  0.14398525016E+04  0.14398525016E+04  0.50400001928E-02 0. -1.
       -1   -1    0    0    0  501  0.00000000000E+00  0.00000000000E+00 -0.49251904005E+03  0.49251904007E+03  0.50400001928E-02 0.  1.
    10030    2    1    2    0    0  0.00000000000E+00  0.00000000000E+00  0.94733346154E+03  0.19323715417E+04  0.16842265547E+04 0.  0.
        3    1    3    3  502    0  0.41622235692E+02  0.83364873923E+03  0.60169679384E+03  0.10289517349E+04  0.10100000352E+00 0. -1.
       -3    1    3    3    0  502 -0.41622235692E+02 -0.83364873923E+03  0.34563666770E+03  0.90341980672E+03  0.10100000352E+00 0.  1.
</event>
<event>
 5   0  0.5059689E-04  0.1581147E+04  0.7818609E-02  0.8832214E-01
       -1   -1    0    0    0  501  0.00000000000E+00  0.00000000000E+00  0.57156137225E+03  0.57156137227E+03  0.50400001928E-02 0. -1.
        1   -1    0    0  501    0  0.00000000000E+00  0.00000000000E+00 -0.10935077496E+04  0.10935077496E+04  0.50400001928E-02 0.  1.
    10030    2    1    2    0    0  0.00000000000E+00  0.00000000000E+00 -0.52194637739E+03  0.16650691219E+04  0.15811474188E+04 0.  0.
        5    1    3    3  502    0 -0.28946384938E+03  0.29524694750E+03 -0.97055031193E+03  0.10549644914E+04  0.46999998093E+01 0.  1.
       -5    1    3    3    0  502  0.28946384938E+03 -0.29524694750E+03  0.44860393454E+03  0.61010463053E+03  0.46999998093E+01 0. -1.
</event>
<event>
 5   0  0.5059689E-04  0.1717913E+04  0.7818609E-02  0.8751213E-01
        1   -1    0    0  501    0  0.00000000000E+00  0.00000000000E+00  0.76161739367E+03  0.76161739368E+03  0.50400001928E-02 0.  1.
       -1   -1    0    0    0  501  0.00000000000E+00  0.00000000000E+00 -0.96873661085E+03  0.96873661087E+03  0.50400001928E-02 0. -1.
    10030    2    1    2    0    0  0.00000000000E+00  0.00000000000E+00 -0.20711921718E+03  0.17303540045E+04  0.17179134469E+04 0.  0.
        5    1    3    3  502    0 -0.58882010561E+03 -0.34049460530E+03  0.42477572698E+03  0.80193653193E+03  0.46999998093E+01 0.  1.
       -5    1    3    3    0  502  0.58882010561E+03  0.34049460530E+03 -0.63189494416E+03  0.92841747262E+03  0.46999998093E+01 0. -1.
</event>
<event>
 5   0  0.5059689E-04  0.1514139E+04  0.7818609E-02  0.8875105E-01
        1   -1    0    0  501    0  0.00000000000E+00  0.00000000000E+00  0.58633643185E+03  0.58633643187E+03  0.50400001928E-02 0.  1.
       -1   -1    0    0    0  501  0.00000000000E+00  0.00000000000E+00 -0.97751747112E+03  0.97751747113E+03  0.50400001928E-02 0. -1.
    10030    2    1    2    0    0  0.00000000000E+00  0.00000000000E+00 -0.39118103927E+03  0.15638539030E+04  0.15141388392E+04 0.  0.
        5    1    3    3  502    0  0.12054930802E+03 -0.73638011584E+03 -0.32763260815E+03  0.81495584334E+03  0.46999998093E+01 0. -1.
       -5    1    3    3    0  502 -0.12054930802E+03  0.73638011584E+03 -0.63548431115E+02  0.74889805966E+03  0.46999998093E+01 0.  1.
</event>
<event>
 5   0  0.9284971E-04  0.1687122E+04  0.7818609E-02  0.8768743E-01
       -2   -1    0    0    0  501  0.00000000000E+00  0.00000000000E+00  0.87136388469E+03  0.87136388469E+03  0.25500000920E-02 0.  1.
        2   -1    0    0  501    0  0.00000000000E+00  0.00000000000E+00 -0.81664535090E+03  0.81664535090E+03  0.25500000920E-02 0. -1.
    10030    2    1    2    0    0  0.00000000000E+00  0.00000000000E+00  0.54718533794E+02  0.16880092356E+04  0.16871221241E+04 0.  0.
        4    1    3    3  502    0  0.17431715335E+03 -0.37113583992E+03  0.76494793542E+03  0.86791430362E+03  0.12699999809E+01 0.  1.
       -4    1    3    3    0  502 -0.17431715335E+03  0.37113583992E+03 -0.71022940162E+03  0.82009493198E+03  0.12699999809E+01 0. -1.
</event>
<event>
 5   0  0.5035495E-04  0.1722916E+04  0.7818609E-02  0.8748402E-01
        1   -1    0    0  501    0  0.00000000000E+00  0.00000000000E+00  0.46035341451E+03  0.46035341454E+03  0.50400001928E-02 0. -1.
       -1   -1    0    0    0  501  0.00000000000E+00  0.00000000000E+00 -0.16120433175E+04  0.16120433175E+04  0.50400001928E-02 0.  1.
    10030    2    1    2    0    0  0.00000000000E+00  0.00000000000E+00 -0.11516899030E+04  0.20723967320E+04  0.17229157212E+04 0.  0.
        4    1    3    3  502    0  0.98621314522E+01  0.85721560927E+03 -0.47383586806E+03  0.97950901230E+03  0.12699999809E+01 0.  1.
       -4    1    3    3    0  502 -0.98621314522E+01 -0.85721560927E+03 -0.67785403492E+03  0.10928877197E+04  0.12699999809E+01 0. -1.
</event>
<event>
 5   0  0.9312096E-04  0.1732733E+04  0.7818609E-02  0.8742913E-01
       -2   -1    0    0    0  501  0.00000000000E+00  0.00000000000E+00  0.33553989222E+03  0.33553989223E+03  0.25500000920E-02 0.  1.
        2   -1    0    0  501    0  0.00000000000E+00  0.00000000000E+00 -0.22369638480E+04  0.22369638480E+04  0.25500000920E-02 0. -1.
    10030    2    1    2    0    0  0.00000000000E+00  0.00000000000E+00 -0.19014239558E+04  0.25725037403E+04  0.17327326493E+04 0.  0.
        3    1    3    3  502    0  0.79128030297E+03 -0.30417640996E+03 -0.12160569686E+04  0.14823772689E+04  0.10100000352E+00 0. -1.
       -3    1    3    3    0  502 -0.79128030297E+03  0.30417640996E+03 -0.68536698723E+03  0.10901264714E+04  0.10100000352E+00 0.  1.
</event>
<event>
 5   0  0.9625225E-04  0.1672533E+04  0.7818609E-02  0.8777187E-01
       -2   -1    0    0    0  501  0.00000000000E+00  0.00000000000E+00  0.76748745545E+03  0.76748745545E+03  0.25500000920E-02 0.  1.
        2   -1    0    0  501    0  0.00000000000E+00  0.00000000000E+00 -0.91120951328E+03  0.91120951328E+03  0.25500000920E-02 0. -1.
    10030    2    1    2    0    0  0.00000000000E+00  0.00000000000E+00 -0.14372205783E+03  0.16786969687E+04  0.16725332532E+04 0.  0.
        1    1    3    3  502    0 -0.34752996950E+01 -0.83297891053E+02  0.76330598301E+03  0.76784545325E+03  0.50400001928E-02 0.  1.
       -1    1    3    3    0  502  0.34752996950E+01  0.83297891053E+02 -0.90702804083E+03  0.91085151548E+03  0.50400001928E-02 0. -1.
</event>
<event>
 5   0  0.5035495E-04  0.1577924E+04  0.7818609E-02  0.8834226E-01
        1   -1    0    0  501    0  0.00000000000E+00  0.00000000000E+00  0.13352994986E+04  0.13352994986E+04  0.50400001928E-02 0. -1.
       -1   -1    0    0    0  501  0.00000000000E+00  0.00000000000E+00 -0.46615820342E+03  0.46615820345E+03  0.50400001928E-02 0.  1.
    10030    2    1    2    0    0  0.00000000000E+00  0.00000000000E+00  0.86914129519E+03  0.18014577021E+04  0.15779237185E+04 0.  0.
        4    1    3    3  502    0  0.21342044251E+03  0.44128115445E+03  0.11403567459E+04  0.12412463347E+04  0.12699999809E+01 0. -1.
       -4    1    3    3    0  502 -0.21342044251E+03 -0.44128115445E+03 -0.27121545070E+03  0.56021136739E+03  0.12699999809E+01 0.  1.
</event>
<event>
 5   0  0.9625225E-04  0.1689790E+04  0.7818609E-02  0.8767209E-01
        2   -1    0    0  501    0  0.00000000000E+00  0.00000000000E+00  0.96825190555E+03  0.96825190555E+03  0.25500000920E-02 0. -1.
       -2   -1    0    0    0  501  0.00000000000E+00  0.00000000000E+00 -0.73725383934E+03  0.73725383935E+03  0.25500000920E-02 0.  1.
    10030    2    1    2    0    0  0.00000000000E+00  0.00000000000E+00  0.23099806621E+03  0.17055057449E+04  0.16897898506E+04 0.  0.
        1    1    3    3  502    0 -0.19044409261E+03 -0.69462300198E+03  0.56128247441E+03  0.91313092347E+03  0.50400001928E-02 0. -1.
       -1    1    3    3    0  502  0.19044409261E+03  0.69462300198E+03 -0.33028440820E+03  0.79237482142E+03  0.50400001928E-02 0.  1.
</event>
<event>
 5   0  0.9312096E-04  0.1709462E+04  0.7818609E-02  0.8755986E-01
        2   -1    0    0  501    0  0.00000000000E+00  0.00000000000E+00  0.19117662868E+04  0.19117662868E+04  0.25500000920E-02 0. -1.
       -2   -1    0    0    0  501  0.00000000000E+00  0.00000000000E+00 -0.38214120017E+03  0.38214120017E+03  0.25500000920E-02 0.  1.
    10030    2    1    2    0    0  0.00000000000E+00  0.00000000000E+00  0.15296250866E+04  0.22939074869E+04  0.17094615097E+04 0.  0.
        3    1    3    3  502    0  0.64554985306E+03 -0.80153214147E+01  0.13156123815E+02  0.64573365404E+03  0.10100000352E+00 0.  1.
       -3    1    3    3    0  502 -0.64554985306E+03  0.80153214147E+01  0.15164689628E+04  0.16481738329E+04  0.10100000352E+00 0. -1.
</event>
<event>
 5   0  0.4947006E-04  0.1196276E+04  0.7818609E-02  0.9116122E-01
        1   -1    0    0  501    0  0.00000000000E+00  0.00000000000E+00  0.16500798232E+04  0.16500798232E+04  0.50400001928E-02 0. -1.
       -1   -1    0    0    0  501  0.00000000000E+00  0.00000000000E+00 -0.21681921158E+03  0.21681921164E+03  0.50400001928E-02 0.  1.
    10030    2    1    2    0    0  0.00000000000E+00  0.00000000000E+00  0.14332606116E+04  0.18668990348E+04  0.11962758985E+04 0.  0.
        2    1    3    3  502    0  0.99916636422E+02 -0.99866963688E+02  0.16236718578E+04  0.16298058309E+04  0.25500000920E-02 0. -1.
       -2    1    3    3    0  502 -0.99916636422E+02  0.99866963688E+02 -0.19041124618E+03  0.23709320393E+03  0.25500000920E-02 0.  1.
</event>
<event>
 5   0  0.9312096E-04  0.1546149E+04  0.7818609E-02  0.8854332E-01
        2   -1    0    0  501    0  0.00000000000E+00  0.00000000000E+00  0.76436493984E+03  0.76436493985E+03  0.25500000920E-02 0. -1.
       -2   -1    0    0    0  501  0.00000000000E+00  0.00000000000E+00 -0.78188298385E+03  0.78188298385E+03  0.25500000920E-02 0.  1.
    10030    2    1    2    0    0  0.00000000000E+00  0.00000000000E+00 -0.17518044004E+02  0.15462479237E+04  0.15461486861E+04 0.  0.
        3    1    3    3  502    0 -0.76178125853E+03 -0.12973270420E+03  0.13662705491E+02  0.77286993738E+03  0.10100000352E+00 0. -1.
       -3    1    3    3    0  502  0.76178125853E+03  0.12973270420E+03 -0.31180749495E+02  0.77337798632E+03  0.10100000352E+00 0.  1.
</event>
<event>
 5   0  0.5035495E-04  0.1906259E+04  0.7818609E-02  0.8651747E-01
        1   -1    0    0  501    0  0.00000000000E+00  0.00000000000E+00  0.16879690630E+04  0.16879690630E+04  0.50400001928E-02 0. -1.
       -1   -1    0    0    0  501  0.00000000000E+00  0.00000000000E+00 -0.53819446056E+03  0.53819446058E+03  0.50400001928E-02 0.  1.
    10030    2    1    2    0    0  0.00000000000E+00  0.00000000000E+00  0.11497746025E+04  0.22261635236E+04  0.19062587436E+04 0.  0.
        4    1    3    3  502    0  0.46172323855E+03  0.23052408874E+03  0.15106910061E+04  0.15964080410E+04  0.12699999809E+01 0. -1.
       -4    1    3    3    0  502 -0.46172323855E+03 -0.23052408874E+03 -0.36091640368E+03  0.62975548259E+03  0.12699999809E+01 0.  1.
</event>
<event>
 5   0  0.4947006E-04  0.1701899E+04  0.7818609E-02  0.8760282E-01
        1   -1    0    0  501    0  0.00000000000E+00  0.00000000000E+00  0.19982846837E+04  0.19982846837E+04  0.50400001928E-02 0. -1.
       -1   -1    0    0    0  501  0.00000000000E+00  0.00000000000E+00 -0.36236836675E+03  0.36236836678E+03  0.50400001928E-02 0.  1.
    10030    2    1    2    0    0  0.00000000000E+00  0.00000000000E+00  0.16359163170E+04  0.23606530505E+04  0.17018991241E+04 0.  0.
        2    1    3    3  502    0  0.46253503221E+03  0.65332622171E+03  0.41752631054E+03  0.90283001057E+03  0.25500000920E-02 0.  1.
       -2    1    3    3    0  502 -0.46253503221E+03 -0.65332622171E+03  0.12183900064E+04  0.14578230400E+04  0.25500000920E-02 0. -1.
</event>
<event>
 5   0  0.5074133E-04  0.1750877E+04  0.7818609E-02  0.8732868E-01
        1   -1    0    0  501    0  0.00000000000E+00  0.00000000000E+00  0.12941962031E+04  0.12941962031E+04  0.50400001928E-02 0. -1.
       -1   -1    0    0    0  501  0.00000000000E+00  0.00000000000E+00 -0.59217654968E+03  0.59217654970E+03  0.50400001928E-02 0.  1.
    10030    2    1    2    0    0  0.00000000000E+00  0.00000000000E+00  0.70201965340E+03  0.18863727528E+04  0.17508770856E+04 0.  0.
        1    1    3    3  502    0  0.78055520575E+03  0.39638309048E+03  0.34822972544E+03  0.94215175282E+03  0.50400001928E-02 0.  1.
       -1    1    3    3    0  502 -0.78055520575E+03 -0.39638309048E+03  0.35378992795E+03  0.94422099997E+03  0.50400001928E-02 0. -1.
</event>
<event>
 5   0  0.9625225E-04  0.1712456E+04  0.7818609E-02  0.8754292E-01
        2   -1    0    0  501    0  0.00000000000E+00  0.00000000000E+00  0.95725303017E+03  0.95725303017E+03  0.25500000920E-02 0. -1.
       -2   -1    0    0    0  501  0.00000000000E+00  0.00000000000E+00 -0.76586474275E+03  0.76586474275E+03  0.25500000920E-02 0.  1.
    10030    2    1    2    0    0  0.00000000000E+00  0.00000000000E+00  0.19138828742E+03  0.17231177729E+04  0.17124559506E+04 0.  0.
        1    1    3    3  502    0 -0.70695331222E+03  0.28353926767E+02  0.58091989442E+03  0.91545336013E+03  0.50400001928E-02 0. -1.
       -1    1    3    3    0  502  0.70695331222E+03 -0.28353926767E+02 -0.38953160700E+03  0.80766441279E+03  0.50400001928E-02 0.  1.
</event>
<event>
 5   0  0.5074133E-04  0.1707564E+04  0.7818609E-02  0.8757062E-01
       -1   -1    0    0    0  501  0.00000000000E+00  0.00000000000E+00  0.42335784011E+03  0.42335784014E+03  0.50400001928E-02 0.  1.
        1   -1    0    0  501    0  0.00000000000E+00  0.00000000000E+00 -0.17218146322E+04  0.17218146322E+04  0.50400001928E-02 0. -1.
    10030    2    1    2    0    0  0.00000000000E+00  0.00000000000E+00 -0.12984567921E+04  0.21451724724E+04  0.17075640237E+04 0.  0.
        1    1    3    3  502    0  0.92553501622E+02  0.50234385395E+03 -0.15086796343E+04  0.15928056181E+04  0.50400001928E-02 0. -1.
       -1    1    3    3    0  502 -0.92553501622E+02 -0.50234385395E+03  0.21022284215E+03  0.55236685423E+03  0.50400001928E-02 0.  1.
</event>
<event>
 5   0  0.5035495E-04  0.1659701E+04  0.7818609E-02  0.8784688E-01
       -1   -1    0    0    0  501  0.00000000000E+00  0.00000000000E+00  0.98375378346E+03  0.98375378347E+03  0.50400001928E-02 0.  1.
        1   -1    0    0  501    0  0.00000000000E+00  0.00000000000E+00 -0.70002497549E+03  0.70002497551E+03  0.50400001928E-02 0. -1.
    10030    2    1    2    0    0  0.00000000000E+00  0.00000000000E+00  0.28372880796E+03  0.16837787590E+04  0.16597014408E+04 0.  0.
        4    1    3    3  502    0 -0.50162910442E+03 -0.65747010367E+03  0.71930279340E+02  0.83010497746E+03  0.12699999809E+01 0.  1.
       -4    1    3    3    0  502  0.50162910442E+03  0.65747010367E+03  0.21179852862E+03  0.85367378152E+03  0.12699999809E+01 0. -1.
</event>
<event>
 5   0  0.9610114E-04  0.1694138E+04  0.7818609E-02  0.8764715E-01
       -2   -1    0    0    0  501  0.00000000000E+00  0.00000000000E+00  0.36011750856E+03  0.36011750857E+03  0.25500000920E-02 0.  1.
        2   -1    0    0  501    0  0.00000000000E+00  0.00000000000E+00 -0.19924780549E+04  0.19924780549E+04  0.25500000920E-02 0. -1.
    10030    2    1    2    0    0  0.00000000000E+00  0.00000000000E+00 -0.16323605464E+04  0.23525955635E+04  0.16941384040E+04 0.  0.
        2    1    3    3  502    0 -0.21091769617E+03  0.69789265720E+03 -0.21730238707E+03  0.76076327656E+03  0.25500000920E-02 0.  1.
       -2    1    3    3    0  502  0.21091769617E+03 -0.69789265720E+03 -0.14150581593E+04  0.15918322869E+04  0.25500000920E-02 0. -1.
</event>
<event>
 5   0  0.9610114E-04  0.1701991E+04  0.7818609E-02  0.8760230E-01
        2   -1    0    0  501    0  0.00000000000E+00  0.00000000000E+00  0.13778181053E+04  0.13778181053E+04  0.25500000920E-02 0.  1.
       -2   -1    0    0    0  501  0.00000000000E+00  0.00000000000E+00 -0.52560862135E+03  0.52560862136E+03  0.25500000920E-02 0. -1.
    10030    2    1    2    0    0  0.00000000000E+00  0.00000000000E+00  0.85220948392E+03  0.19034267266E+04  0.17019906872E+04 0.  0.
        2    1    3    3  502    0  0.65613432826E+03  0.17998702883E+03  0.99776319265E+03  0.12076584682E+04  0.25500000920E-02 0.  1.
       -2    1    3    3    0  502 -0.65613432826E+03 -0.17998702883E+03 -0.14555370874E+03  0.69576825840E+03  0.25500000920E-02 0. -1.
</event>
<event>
 5   0  0.1007187E-03  0.1583235E+04  0.7818609E-02  0.8830914E-01
        2   -1    0    0  501    0  0.00000000000E+00  0.00000000000E+00  0.10620856841E+04  0.10620856841E+04  0.25500000920E-02 0.  1.
       -2   -1    0    0    0  501  0.00000000000E+00  0.00000000000E+00 -0.59002604397E+03  0.59002604398E+03  0.25500000920E-02 0. -1.
    10030    2    1    2    0    0  0.00000000000E+00  0.00000000000E+00  0.47205964016E+03  0.16521117281E+04  0.15832349346E+04 0.  0.
        5    1    3    3  502    0 -0.26876674777E+03 -0.32195248893E+03  0.93661435629E+03  0.10262346283E+04  0.46999998093E+01 0.  1.
       -5    1    3    3    0  502  0.26876674777E+03  0.32195248893E+03 -0.46455471613E+03  0.62587709985E+03  0.46999998093E+01 0. -1.
</event>
<event>
 5   0  0.9625225E-04  0.1734233E+04  0.7818609E-02  0.8742077E-01
        2   -1    0    0  501    0  0.00000000000E+00  0.00000000000E+00  0.11550998969E+04  0.11550998969E+04  0.25500000920E-02 0.  1.
       -2   -1    0    0    0  501  0.00000000000E+00  0.00000000000E+00 -0.65093179097E+03  0.65093179097E+03  0.25500000920E-02 0. -1.
    10030    2    1    2    0    0  0.00000000000E+00  0.00000000000E+00  0.50416810595E+03  0.18060316879E+04  0.17342332538E+04 0.  0.
        1    1    3    3  502    0 -0.73044315685E+03 -0.29815497339E+03 -0.12259977072E+03  0.79841987535E+03  0.50400001928E-02 0.  1.
       -1    1    3    3    0  502  0.73044315685E+03  0.29815497339E+03  0.62676787667E+03  0.10076118126E+04  0.50400001928E-02 0. -1.
</event>
<event>
 5   0  0.5009762E-04  0.1695070E+04  0.7818609E-02  0.8764181E-01
        1   -1    0    0  501    0  0.00000000000E+00  0.00000000000E+00  0.13431026070E+04  0.13431026070E+04  0.50400001928E-02 0.  1.
       -1   -1    0    0    0  501  0.00000000000E+00  0.00000000000E+00 -0.53481836061E+03  0.53481836064E+03  0.50400001928E-02 0. -1.
    10030    2    1    2    0    0  0.00000000000E+00  0.00000000000E+00  0.80828424642E+03  0.18779209677E+04  0.16950704227E+04 0.  0.
        3    1    3    3  502    0 -0.67541942302E+03 -0.12274164703E+03 -0.14652597618E+03  0.70194499841E+03  0.10100000352E+00 0. -1.
       -3    1    3    3    0  502  0.67541942302E+03  0.12274164703E+03  0.95481022259E+03  0.11759759693E+04  0.10100000352E+00 0.  1.
</event>
<event>
 5   0  0.9284971E-04  0.1691517E+04  0.7818609E-02  0.8766217E-01
       -2   -1    0    0    0  501  0.00000000000E+00  0.00000000000E+00  0.56056171321E+03  0.56056171322E+03  0.25500000920E-02 0.  1.
        2   -1    0    0  501    0  0.00000000000E+00  0.00000000000E+00 -0.12760544621E+04  0.12760544621E+04  0.25500000920E-02 0. -1.
    10030    2    1    2    0    0  0.00000000000E+00  0.00000000000E+00 -0.71549274887E+03  0.18366161753E+04  0.16915168050E+04 0.  0.
        4    1    3    3  502    0  0.18924623864E+03  0.75108872047E+03  0.11031239230E+02  0.77464295388E+03  0.12699999809E+01 0.  1.
       -4    1    3    3    0  502 -0.18924623864E+03 -0.75108872047E+03 -0.72652398810E+03  0.10619732214E+04  0.12699999809E+01 0. -1.
</event>
<event>
 5   0  0.1007187E-03  0.1664242E+04  0.7818609E-02  0.8782026E-01
       -2   -1    0    0    0  501  0.00000000000E+00  0.00000000000E+00  0.64131169152E+03  0.64131169152E+03  0.25500000920E-02 0.  1.
        2   -1    0    0  501    0  0.00000000000E+00  0.00000000000E+00 -0.10797013658E+04  0.10797013658E+04  0.25500000920E-02 0. -1.
    10030    2    1    2    0    0  0.00000000000E+00  0.00000000000E+00 -0.43838967425E+03  0.17210130573E+04  0.16642417003E+04 0.  0.
        5    1    3    3  502    0  0.79758156828E+03 -0.59105108350E+02  0.18365905874E+02  0.79999323022E+03  0.46999998093E+01 0.  1.
       -5    1    3    3    0  502 -0.79758156828E+03  0.59105108350E+02 -0.45675558012E+03  0.92101982708E+03  0.46999998093E+01 0. -1.
</event>
<event>
 5   0  0.9312096E-04  0.1568516E+04  0.7818609E-02  0.8840126E-01
       -2   -1    0    0    0  501  0.00000000000E+00  0.00000000000E+00  0.11067853955E+04  0.11067853955E+04  0.25500000920E-02 0. -1.
        2   -1    0    0  501    0  0.00000000000E+00  0.00000000000E+00 -0.55571830177E+03  0.55571830177E+03  0.25500000920E-02 0.  1.
    10030    2    1    2    0    0  0.00000000000E+00  0.00000000000E+00  0.55106709377E+03  0.16625036973E+04  0.15685163696E+04 0.  0.
        3    1    3    3  502    0 -0.44633915442E+03  0.63766773379E+03  0.17374738677E+03  0.79751297425E+03  0.10100000352E+00 0.  1.
       -3    1    3    3    0  502  0.44633915442E+03 -0.63766773379E+03  0.37731970700E+03  0.86499072306E+03  0.10100000352E+00 0. -1.
</event>
<event>
 5   0  0.5074133E-04  0.1650270E+04  0.7818609E-02  0.8790247E-01
       -1   -1    0    0    0  501  0.00000000000E+00  0.00000000000E+00  0.63926971214E+03  0.63926971216E+03  0.50400001928E-02 0.  1.
        1   -1    0    0  501    0  0.00000000000E+00  0.00000000000E+00 -0.10650393025E+04  0.10650393025E+04  0.50400001928E-02 0. -1.
    10030    2    1    2    0    0  0.00000000000E+00  0.00000000000E+00 -0.42576959032E+03  0.17043090146E+04  0.16502695154E+04 0.  0.
        1    1    3    3  502    0  0.52093931764E+03  0.59264810845E+02  0.44512692594E+03  0.68777036189E+03  0.50400001928E-02 0.  1.
       -1    1    3    3    0  502 -0.52093931764E+03 -0.59264810845E+02 -0.87089651626E+03  0.10165386527E+04  0.50400001928E-02 0. -1.
</event>
<event>
 5   0  0.3523125E-04  0.1808161E+04  0.7818609E-02  0.8701972E-01
        4   -1    0    0  501    0  0.00000000000E+00  0.00000000000E+00  0.18006781945E+04  0.18006786423E+04  0.12699999809E+01 0.  1.
       -4   -1    0    0    0  501  0.00000000000E+00  0.00000000000E+00 -0.45391737608E+03  0.45391915273E+03  0.12699999809E+01 0. -1.
    10030    2    1    2    0    0  0.00000000000E+00  0.00000000000E+00  0.13467608184E+04  0.22545977951E+04  0.18081610867E+04 0.  0.
        5    1    3    3  502    0 -0.21793874221E+03  0.83073495068E+02  0.17625047076E+04  0.17778761023E+04  0.46999998093E+01 0.  1.
       -5    1    3    3    0  502  0.21793874221E+03 -0.83073495068E+02 -0.41574388919E+03  0.47672169275E+03  0.46999998093E+01 0. -1.
</event>
<event>
 5   0  0.4947006E-04  0.1695865E+04  0.7818609E-02  0.8763726E-01
       -1   -1    0    0    0  501  0.00000000000E+00  0.00000000000E+00  0.95466729847E+03  0.95466729848E+03  0.50400001928E-02 0. -1.
        1   -1    0    0  501    0  0.00000000000E+00  0.00000000000E+00 -0.75313068647E+03  0.75313068649E+03  0.50400001928E-02 0.  1.
    10030    2    1    2    0    0  0.00000000000E+00  0.00000000000E+00  0.20153661200E+03  0.17077979850E+04  0.16958646619E+04 0.  0.
        2    1    3    3  502    0  0.60198291730E+03 -0.30361310143E+03  0.61860935321E+03  0.91500922398E+03  0.25500000920E-02 0. -1.
       -2    1    3    3    0  502 -0.60198291730E+03  0.30361310143E+03 -0.41707274121E+03  0.79278876099E+03  0.25500000920E-02 0.  1.
</event>
<event>
 5   0  0.9610114E-04  0.1716039E+04  0.7818609E-02  0.8752269E-01
        2   -1    0    0  501    0  0.00000000000E+00  0.00000000000E+00  0.14762010227E+04  0.14762010227E+04  0.25500000920E-02 0.  1.
       -2   -1    0    0    0  501  0.00000000000E+00  0.00000000000E+00 -0.49871076179E+03  0.49871076179E+03  0.25500000920E-02 0. -1.
    10030    2    1    2    0    0  0.00000000000E+00  0.00000000000E+00  0.97749026089E+03  0.19749117845E+04  0.17160388534E+04 0.  0.
        2    1    3    3  502    0 -0.64073911745E+02 -0.78569223132E+03  0.98845417445E+02  0.79447351440E+03  0.25500000920E-02 0. -1.
       -2    1    3    3    0  502  0.64073911745E+02  0.78569223132E+03  0.87864484344E+03  0.11804382701E+04  0.25500000920E-02 0.  1.
</event>
<event>
 5   0  0.9284971E-04  0.1694225E+04  0.7818609E-02  0.8764665E-01
        2   -1    0    0  501    0  0.00000000000E+00  0.00000000000E+00  0.15169040719E+04  0.15169040719E+04  0.25500000920E-02 0. -1.
       -2   -1    0    0    0  501  0.00000000000E+00  0.00000000000E+00 -0.47306855006E+03  0.47306855007E+03  0.25500000920E-02 0.  1.
    10030    2    1    2    0    0  0.00000000000E+00  0.00000000000E+00  0.10438355219E+04  0.19899726220E+04  0.16942250263E+04 0.  0.
        4    1    3    3  502    0 -0.53196587952E+03 -0.38943785762E+03  0.11467014345E+04  0.13227151374E+04  0.12699999809E+01 0. -1.
       -4    1    3    3    0  502  0.53196587952E+03  0.38943785762E+03 -0.10286591260E+03  0.66725748463E+03  0.12699999809E+01 0.  1.
</event>
<event>
 5   0  0.1007187E-03  0.1688737E+04  0.7818609E-02  0.8767814E-01
        2   -1    0    0  501    0  0.00000000000E+00  0.00000000000E+00  0.23878269487E+04  0.23878269487E+04  0.25500000920E-02 0. -1.
       -2   -1    0    0    0  501  0.00000000000E+00  0.00000000000E+00 -0.29858020920E+03  0.29858020921E+03  0.25500000920E-02 0.  1.
    10030    2    1    2    0    0  0.00000000000E+00  0.00000000000E+00  0.20892467395E+04  0.26864071579E+04  0.16887366519E+04 0.  0.
        5    1    3    3  502    0  0.84270371797E+03 -0.62121261472E+01  0.96123811160E+03  0.12783539979E+04  0.46999998093E+01 0. -1.
       -5    1    3    3    0  502 -0.84270371797E+03  0.62121261472E+01  0.11280086279E+04  0.14080531600E+04  0.46999998093E+01 0.  1.
</event>
<event>
 5   0  0.5074133E-04  0.1652226E+04  0.7818609E-02  0.8789091E-01
       -1   -1    0    0    0  501  0.00000000000E+00  0.00000000000E+00  0.73722858672E+03  0.73722858674E+03  0.50400001928E-02 0.  1.
        1   -1    0    0  501    0  0.00000000000E+00  0.00000000000E+00 -0.92571337643E+03  0.92571337645E+03  0.50400001928E-02 0. -1.
    10030    2    1    2    0    0  0.00000000000E+00  0.00000000000E+00 -0.18848478971E+03  0.16629419632E+04  0.16522256072E+04 0.  0.
        1    1    3    3  502    0 -0.29041272531E+03  0.23977497688E+03  0.64580259909E+03  0.74759119014E+03  0.50400001928E-02 0.  1.
       -1    1    3    3    0  502  0.29041272531E+03 -0.23977497688E+03 -0.83428738881E+03  0.91535077304E+03  0.50400001928E-02 0. -1.
</event>
<event>
 5   0  0.5035495E-04  0.1670966E+04  0.7818609E-02  0.8778099E-01
        1   -1    0    0  501    0  0.00000000000E+00  0.00000000000E+00  0.82217398471E+03  0.82217398472E+03  0.50400001928E-02 0. -1.
       -1   -1    0    0    0  501  0.00000000000E+00  0.00000000000E+00 -0.84900734785E+03  0.84900734787E+03  0.50400001928E-02 0.  1.
    10030    2    1    2    0    0  0.00000000000E+00  0.00000000000E+00 -0.26833363142E+02  0.16711813326E+04  0.16709658934E+04 0.  0.
        4    1    3    3  502    0  0.10590322468E+03  0.17268480582E+03  0.79723986157E+03  0.82257434007E+03  0.12699999809E+01 0. -1.
       -4    1    3    3    0  502 -0.10590322468E+03 -0.17268480582E+03 -0.82407322471E+03  0.84860699252E+03  0.12699999809E+01 0.  1.
</event>
<event>
 5   0  0.9610114E-04  0.1764723E+04  0.7818609E-02  0.8725288E-01
        2   -1    0    0  501    0  0.00000000000E+00  0.00000000000E+00  0.17650921395E+04  0.17650921395E+04  0.25500000920E-02 0. -1.
       -2   -1    0    0    0  501  0.00000000000E+00  0.00000000000E+00 -0.44108832524E+03  0.44108832525E+03  0.25500000920E-02 0.  1.
    10030    2    1    2    0    0  0.00000000000E+00  0.00000000000E+00  0.13240038143E+04  0.22061804648E+04  0.17647226816E+04 0.  0.
        2    1    3    3  502    0 -0.37318894720E+03 -0.75692597099E+03  0.98403473804E+03  0.12963530698E+04  0.25500000920E-02 0. -1.
       -2    1    3    3    0  502  0.37318894720E+03  0.75692597099E+03  0.33996907625E+03  0.90982739499E+03  0.25500000920E-02 0.  1.
</event>
<event>
 5   0  0.9625225E-04  0.1675230E+04  0.7818609E-02  0.8775619E-01
       -2   -1    0    0    0  501  0.00000000000E+00  0.00000000000E+00  0.36851633511E+03  0.36851633512E+03  0.25500000920E-02 0. -1.
        2   -1    0    0  501    0  0.00000000000E+00  0.00000000000E+00 -0.19038484875E+04  0.19038484875E+04  0.25500000920E-02 0.  1.
    10030    2    1    2    0    0  0.00000000000E+00  0.00000000000E+00 -0.15353321524E+04  0.22723648226E+04  0.16752304525E+04 0.  0.
        1    1    3    3  502    0  0.25543241108E+02  0.52791142319E+03  0.11377155455E+03  0.54063563937E+03  0.50400001928E-02 0. -1.
       -1    1    3    3    0  502 -0.25543241108E+02 -0.52791142319E+03 -0.16491037069E+04  0.17317291832E+04  0.50400001928E-02 0.  1.
</event>
<event>
 5   0  0.9625225E-04  0.1668048E+04  0.7818609E-02  0.8779800E-01
        2   -1    0    0  501    0  0.00000000000E+00  0.00000000000E+00  0.19158796524E+04  0.19158796524E+04  0.25500000920E-02 0.  1.
       -2   -1    0    0    0  501  0.00000000000E+00  0.00000000000E+00 -0.36306881150E+03  0.36306881151E+03  0.25500000920E-02 0. -1.
    10030    2    1    2    0    0  0.00000000000E+00  0.00000000000E+00  0.15528108409E+04  0.22789484639E+04  0.16680481389E+04 0.  0.
        1    1    3    3  502    0 -0.35660827923E+03 -0.21965243155E+03 -0.20897184414E+03  0.46806611410E+03  0.50400001928E-02 0. -1.
       -1    1    3    3    0  502  0.35660827923E+03  0.21965243155E+03  0.17617826850E+04  0.18108823498E+04  0.50400001928E-02 0.  1.
</event>
<event>
 5   0  0.4947006E-04  0.1719534E+04  0.7818609E-02  0.8750301E-01
       -1   -1    0    0    0  501  0.00000000000E+00  0.00000000000E+00  0.61623371246E+03  0.61623371248E+03  0.50400001928E-02 0.  1.
        1   -1    0    0  501    0  0.00000000000E+00  0.00000000000E+00 -0.11995433322E+04  0.11995433322E+04  0.50400001928E-02 0. -1.
    10030    2    1    2    0    0  0.00000000000E+00  0.00000000000E+00 -0.58330961976E+03  0.18157770447E+04  0.17195337053E+04 0.  0.
        2    1    3    3  502    0  0.53868281639E+03 -0.43264590352E+03 -0.83199547994E+03  0.10814703570E+04  0.25500000920E-02 0. -1.
       -2    1    3    3    0  502 -0.53868281639E+03  0.43264590352E+03  0.24868586018E+03  0.73430668767E+03  0.25500000920E-02 0.  1.
</event>
<event>
 5   0  0.1007187E-03  0.1702997E+04  0.7818609E-02  0.8759657E-01
        2   -1    0    0  501    0  0.00000000000E+00  0.00000000000E+00  0.13838152062E+04  0.13838152062E+04  0.25500000920E-02 0.  1.
       -2   -1    0    0    0  501  0.00000000000E+00  0.00000000000E+00 -0.52395006384E+03  0.52395006384E+03  0.25500000920E-02 0. -1.
    10030    2    1    2    0    0  0.00000000000E+00  0.00000000000E+00  0.85986514232E+03  0.19077652700E+04  0.17029974347E+04 0.  0.
        5    1    3    3  502    0 -0.72154347209E+03  0.31340145399E+03  0.79497005570E+03  0.11184117904E+04  0.46999998093E+01 0. -1.
       -5    1    3    3    0  502  0.72154347209E+03 -0.31340145399E+03  0.64895086623E+02  0.78935347959E+03  0.46999998093E+01 0.  1.
</event>
<event>
 5   0  0.5035495E-04  0.1677503E+04  0.7818609E-02  0.8774300E-01
        1   -1    0    0  501    0  0.00000000000E+00  0.00000000000E+00  0.20331379188E+04  0.20331379188E+04  0.50400001928E-02 0. -1.
       -1   -1    0    0    0  501  0.00000000000E+00  0.00000000000E+00 -0.34601904727E+03  0.34601904731E+03  0.50400001928E-02 0.  1.
    10030    2    1    2    0    0  0.00000000000E+00  0.00000000000E+00  0.16871188715E+04  0.23791569661E+04  0.16775034375E+04 0.  0.
        4    1    3    3  502    0  0.37783271074E+03  0.70089581964E+03  0.12174304963E+04  0.14546996712E+04  0.12699999809E+01 0. -1.
       -4    1    3    3    0  502 -0.37783271074E+03 -0.70089581964E+03  0.46968837518E+03  0.92445729483E+03  0.12699999809E+01 0.  1.
</event>
<event>
 5   0  0.5074133E-04  0.1705056E+04  0.7818609E-02  0.8758486E-01
       -1   -1    0    0    0  501  0.00000000000E+00  0.00000000000E+00  0.61005266651E+03  0.61005266653E+03  0.50400001928E-02 0. -1.
        1   -1    0    0  501    0  0.00000000000E+00  0.00000000000E+00 -0.11913790513E+04  0.11913790513E+04  0.50400001928E-02 0.  1.
    10030    2    1    2    0    0  0.00000000000E+00  0.00000000000E+00 -0.58132638476E+03  0.18014317178E+04  0.17050559722E+04 0.  0.
        1    1    3    3  502    0  0.50477537892E+03  0.59325487279E+03 -0.65673668072E+03  0.10188486615E+04  0.50400001928E-02 0.  1.
       -1    1    3    3    0  502 -0.50477537892E+03 -0.59325487279E+03  0.75410295957E+02  0.78258305630E+03  0.50400001928E-02 0. -1.
</event>
<event>
 5   0  0.5074133E-04  0.1720891E+04  0.7818609E-02  0.8749538E-01
       -1   -1    0    0    0  501  0.00000000000E+00  0.00000000000E+00  0.13519499968E+04  0.13519499968E+04  0.50400001928E-02 0.  1.
        1   -1    0    0  501    0  0.00000000000E+00  0.00000000000E+00 -0.54762847945E+03  0.54762847948E+03  0.50400001928E-02 0. -1.
    10030    2    1    2    0    0  0.00000000000E+00  0.00000000000E+00  0.80432151734E+03  0.18995784763E+04  0.17208908403E+04 0.  0.
        1    1    3    3  502    0 -0.20272812084E+03 -0.82632654749E+03  0.26057676721E+03  0.88983959549E+03  0.50400001928E-02 0. -1.
       -1    1    3    3    0  502  0.20272812084E+03  0.82632654749E+03  0.54374475013E+03  0.10097388808E+04  0.50400001928E-02 0.  1.
</event>
<event>
 5   0  0.4947006E-04  0.1726106E+04  0.7818609E-02  0.8746614E-01
       -1   -1    0    0    0  501  0.00000000000E+00  0.00000000000E+00  0.82833416542E+03  0.82833416544E+03  0.50400001928E-02 0. -1.
        1   -1    0    0  501    0  0.00000000000E+00  0.00000000000E+00 -0.89922722649E+03  0.89922722651E+03  0.50400001928E-02 0.  1.
    10030    2    1    2    0    0  0.00000000000E+00  0.00000000000E+00 -0.70893061070E+02  0.17275613919E+04  0.17261061777E+04 0.  0.
        2    1    3    3  502    0 -0.83608464583E+03  0.78002190749E+02 -0.23496041513E+03  0.87196804611E+03  0.25500000920E-02 0. -1.
       -2    1    3    3    0  502  0.83608464583E+03 -0.78002190749E+02  0.16406735406E+03  0.85559334583E+03  0.25500000920E-02 0.  1.
</event>
<event>
 5   0  0.5009762E-04  0.1563451E+04  0.7818609E-02  0.8843322E-01
        1   -1    0    0  501    0  0.00000000000E+00  0.00000000000E+00  0.11593453626E+04  0.11593453626E+04  0.50400001928E-02 0.  1.
       -1   -1    0    0    0  501  0.00000000000E+00  0.00000000000E+00 -0.52710314496E+03  0.52710314499E+03  0.50400001928E-02 0. -1.
    10030    2    1    2    0    0  0.00000000000E+00  0.00000000000E+00  0.63224221763E+03  0.16864485076E+04  0.15634507818E+04 0.  0.
        3    1    3    3  502    0 -0.33723506042E+03 -0.60630956638E+03  0.70467589391E+03  0.98889175440E+03  0.10100000352E+00 0.  1.
       -3    1    3    3    0  502  0.33723506042E+03  0.60630956638E+03 -0.72433676282E+02  0.69755675319E+03  0.10100000352E+00 0. -1.
</event>
<event>
 5   0  0.9312096E-04  0.1656689E+04  0.7818609E-02  0.8786459E-01
       -2   -1    0    0    0  501  0.00000000000E+00  0.00000000000E+00  0.37175262877E+03  0.37175262878E+03  0.25500000920E-02 0. -1.
        2   -1    0    0  501    0  0.00000000000E+00  0.00000000000E+00 -0.18457296404E+04  0.18457296404E+04  0.25500000920E-02 0.  1.
    10030    2    1    2    0    0  0.00000000000E+00  0.00000000000E+00 -0.14739770116E+04  0.22174822692E+04  0.16566892839E+04 0.  0.
        3    1    3    3  502    0  0.25262686099E+03  0.29676027232E+03  0.24137132104E+03  0.45841805696E+03  0.10100000352E+00 0. -1.
       -3    1    3    3    0  502 -0.25262686099E+03 -0.29676027232E+03 -0.17153483327E+04  0.17590642122E+04  0.10100000352E+00 0.  1.
</event>
<event>
 5   0  0.5009762E-04  0.1614473E+04  0.7818609E-02  0.8811706E-01
        1   -1    0    0  501    0  0.00000000000E+00  0.00000000000E+00  0.10423536274E+04  0.10423536274E+04  0.50400001928E-02 0. -1.
       -1   -1    0    0    0  501  0.00000000000E+00  0.00000000000E+00 -0.62515325650E+03  0.62515325652E+03  0.50400001928E-02 0.  1.
    10030    2    1    2    0    0  0.00000000000E+00  0.00000000000E+00  0.41720037090E+03  0.16675068839E+04  0.16144729971E+04 0.  0.
        3    1    3    3  502    0  0.18189457863E+03  0.14031664551E+03 -0.59067840745E+03  0.63377866008E+03  0.10100000352E+00 0.  1.
       -3    1    3    3    0  502 -0.18189457863E+03 -0.14031664551E+03  0.10078787784E+04  0.10337282239E+04  0.10100000352E+00 0. -1.
</event>
<event>
 5   0  0.9284971E-04  0.1723629E+04  0.7818609E-02  0.8748001E-01
       -2   -1    0    0    0  501  0.00000000000E+00  0.00000000000E+00  0.41466271326E+03  0.41466271327E+03  0.25500000920E-02 0. -1.
        2   -1    0    0  501    0  0.00000000000E+00  0.00000000000E+00 -0.17911534496E+04  0.17911534496E+04  0.25500000920E-02 0.  1.
    10030    2    1    2    0    0  0.00000000000E+00  0.00000000000E+00 -0.13764907363E+04  0.22058161629E+04  0.17236293677E+04 0.  0.
        4    1    3    3  502    0 -0.23661292202E+03 -0.68335077956E+03 -0.88304262074E+02  0.72852811778E+03  0.12699999809E+01 0. -1.
       -4    1    3    3    0  502  0.23661292202E+03  0.68335077956E+03 -0.12881864742E+04  0.14772880451E+04  0.12699999809E+01 0.  1.
</event>
<event>
 5   0  0.9312096E-04  0.1679561E+04  0.7818609E-02  0.8773108E-01
       -2   -1    0    0    0  501  0.00000000000E+00  0.00000000000E+00  0.52534133122E+03  0.52534133122E+03  0.25500000920E-02 0. -1.
        2   -1    0    0  501    0  0.00000000000E+00  0.00000000000E+00 -0.13424247566E+04  0.13424247566E+04  0.25500000920E-02 0.  1.
    10030    2    1    2    0    0  0.00000000000E+00  0.00000000000E+00 -0.81708342538E+03  0.18677660878E+04  0.16795609053E+04 0.  0.
        3    1    3    3  502    0  0.59296506841E+01  0.65367928900E+03  0.17769167982E+03  0.67742609700E+03  0.10100000352E+00 0. -1.
       -3    1    3    3    0  502 -0.59296506841E+01 -0.65367928900E+03 -0.99477510520E+03  0.11903399908E+04  0.10100000352E+00 0.  1.
</event>
<event>
 5   0  0.9610114E-04  0.1723157E+04  0.7818609E-02  0.8748266E-01
       -2   -1    0    0    0  501  0.00000000000E+00  0.00000000000E+00  0.44052082785E+03  0.44052082785E+03  0.25500000920E-02 0. -1.
        2   -1    0    0  501    0  0.00000000000E+00  0.00000000000E+00 -0.16850911908E+04  0.16850911908E+04  0.25500000920E-02 0.  1.
    10030    2    1    2    0    0  0.00000000000E+00  0.00000000000E+00 -0.12445703630E+04  0.21256120187E+04  0.17231572956E+04 0.  0.
        2    1    3    3  502    0 -0.72240736958E+03 -0.71961825055E+02 -0.11946166908E+04  0.13979127118E+04  0.25500000920E-02 0.  1.
       -2    1    3    3    0  502  0.72240736958E+03  0.71961825055E+02 -0.49953672206E+02  0.72769930690E+03  0.25500000920E-02 0. -1.
</event>
<event>
 5   0  0.5059689E-04  0.1685516E+04  0.7818609E-02  0.8769669E-01
       -1   -1    0    0    0  501  0.00000000000E+00  0.00000000000E+00  0.58512912510E+03  0.58512912513E+03  0.50400001928E-02 0.  1.
        1   -1    0    0  501    0  0.00000000000E+00  0.00000000000E+00 -0.12138190123E+04  0.12138190123E+04  0.50400001928E-02 0. -1.
    10030    2    1    2    0    0  0.00000000000E+00  0.00000000000E+00 -0.62868988717E+03  0.17989481374E+04  0.16855157747E+04 0.  0.
        5    1    3    3  502    0  0.60855804940E+02 -0.80196111380E+03 -0.45661821208E+02  0.80557566309E+03  0.46999998093E+01 0.  1.
       -5    1    3    3    0  502 -0.60855804940E+02  0.80196111380E+03 -0.58302806596E+03  0.99337247432E+03  0.46999998093E+01 0. -1.
</event>
<event>
 5   0  0.5074133E-04  0.1683442E+04  0.7818609E-02  0.8770865E-01
        1   -1    0    0  501    0  0.00000000000E+00  0.00000000000E+00  0.63079171948E+03  0.63079171950E+03  0.50400001928E-02 0. -1.
       -1   -1    0    0    0  501  0.00000000000E+00  0.00000000000E+00 -0.11231821380E+04  0.11231821380E+04  0.50400001928E-02 0.  1.
    10030    2    1    2    0    0  0.00000000000E+00  0.00000000000E+00 -0.49239041852E+03  0.17539738575E+04  0.16834417033E+04 0.  0.
        1    1    3    3  502    0  0.55732989797E+03  0.57069216294E+03 -0.52613010157E+03  0.95557262614E+03  0.50400001928E-02 0.  1.
       -1    1    3    3    0  502 -0.55732989797E+03 -0.57069216294E+03  0.33739683051E+02  0.79840123137E+03  0.50400001928E-02 0. -1.
</event>
<event>
 5   0  0.9284971E-04  0.1549894E+04  0.7818609E-02  0.8851936E-01
        2   -1    0    0  501    0  0.00000000000E+00  0.00000000000E+00  0.77490992189E+03  0.77490992190E+03  0.25500000920E-02 0. -1.
       -2   -1    0    0    0  501  0.00000000000E+00  0.00000000000E+00 -0.77498360763E+03  0.77498360764E+03  0.25500000920E-02 0.  1.
    10030    2    1    2    0    0  0.00000000000E+00  0.00000000000E+00 -0.73685739278E-01  0.15498935295E+04  0.15498935278E+04 0.  0.
        4    1    3    3  502    0 -0.35401997519E+03 -0.63990533571E+03 -0.25641916013E+03  0.77495895381E+03  0.12699999809E+01 0.  1.
       -4    1    3    3    0  502  0.35401997519E+03  0.63990533571E+03  0.25634547439E+03  0.77493457572E+03  0.12699999809E+01 0. -1.
</event>
<event>
 5   0  0.9284971E-04  0.1721629E+04  0.7818609E-02  0.8749124E-01
       -2   -1    0    0    0  501  0.00000000000E+00  0.00000000000E+00  0.59287989787E+03  0.59287989787E+03  0.25500000920E-02 0. -1.
        2   -1    0    0  501    0  0.00000000000E+00  0.00000000000E+00 -0.12498343095E+04  0.12498343095E+04  0.25500000920E-02 0.  1.
    10030    2    1    2    0    0  0.00000000000E+00  0.00000000000E+00 -0.65695441167E+03  0.18427142074E+04  0.17216290399E+04 0.  0.
        4    1    3    3  502    0 -0.29069038636E+03 -0.80389498302E+03 -0.22010390797E+03  0.88272044705E+03  0.12699999809E+01 0. -1.
       -4    1    3    3    0  502  0.29069038636E+03  0.80389498302E+03 -0.43685050370E+03  0.95999376036E+03  0.12699999809E+01 0.  1.
</event>
<event>
 5   0  0.1007187E-03  0.1849204E+04  0.7818609E-02  0.8680562E-01
        2   -1    0    0  501    0  0.00000000000E+00  0.00000000000E+00  0.11190020525E+04  0.11190020525E+04  0.25500000920E-02 0.  1.
       -2   -1    0    0    0  501  0.00000000000E+00  0.00000000000E+00 -0.76397398387E+03  0.76397398387E+03  0.25500000920E-02 0. -1.
    10030    2    1    2    0    0  0.00000000000E+00  0.00000000000E+00  0.35502806866E+03  0.18829760364E+04  0.18492035648E+04 0.  0.
        5    1    3    3  502    0  0.17891548248E+03 -0.71566041722E+03  0.74508577193E+03  0.10485015404E+04  0.46999998093E+01 0.  1.
       -5    1    3    3    0  502 -0.17891548248E+03  0.71566041722E+03 -0.39005770327E+03  0.83447449603E+03  0.46999998093E+01 0. -1.
</event>
<event>
 5   0  0.9312096E-04  0.1743959E+04  0.7818609E-02  0.8736683E-01
       -2   -1    0    0    0  501  0.00000000000E+00  0.00000000000E+00  0.37039515748E+03  0.37039515749E+03  0.25500000920E-02 0.  1.
        2   -1    0    0  501    0  0.00000000000E+00  0.00000000000E+00 -0.20528020256E+04  0.20528020256E+04  0.25500000920E-02 0. -1.
    10030    2    1    2    0    0  0.00000000000E+00  0.00000000000E+00 -0.16824068681E+04  0.24231971831E+04  0.17439586343E+04 0.  0.
        3    1    3    3  502    0 -0.60259085941E+02 -0.89225913008E+02  0.36112353360E+03  0.37683237349E+03  0.10100000352E+00 0.  1.
       -3    1    3    3    0  502  0.60259085941E+02  0.89225913008E+02 -0.20435304017E+04  0.20463648096E+04  0.10100000352E+00 0. -1.
</event>
<event>
 5   0  0.9284971E-04  0.1650239E+04  0.7818609E-02  0.8790265E-01
        2   -1    0    0  501    0  0.00000000000E+00  0.00000000000E+00  0.82133385917E+03  0.82133385918E+03  0.25500000920E-02 0.  1.
       -2   -1    0    0    0  501  0.00000000000E+00  0.00000000000E+00 -0.82892275976E+03  0.82892275977E+03  0.25500000920E-02 0. -1.
    10030    2    1    2    0    0  0.00000000000E+00  0.00000000000E+00 -0.75889005906E+01  0.16502566189E+04  0.16502391696E+04 0.  0.
        4    1    3    3  502    0  0.34229336279E+03  0.74812143002E+03  0.59216501408E+02  0.82483854615E+03  0.12699999809E+01 0. -1.
       -4    1    3    3    0  502 -0.34229336279E+03 -0.74812143002E+03 -0.66805401999E+02  0.82541807280E+03  0.12699999809E+01 0.  1.
</event>
<event>
 5   0  0.5059689E-04  0.1415248E+04  0.7818609E-02  0.8942854E-01
       -1   -1    0    0    0  501  0.00000000000E+00  0.00000000000E+00  0.21023682594E+03  0.21023682600E+03  0.50400001928E-02 0.  1.
        1   -1    0    0  501    0  0.00000000000E+00  0.00000000000E+00 -0.23817524320E+04  0.23817524320E+04  0.50400001928E-02 0. -1.
    10030    2    1    2    0    0  0.00000000000E+00  0.00000000000E+00 -0.21715156060E+04  0.25919892580E+04  0.14152484892E+04 0.  0.
        5    1    3    3  502    0  0.30191490695E+03 -0.63771559178E+03 -0.98753561011E+03  0.12137060840E+04  0.46999998093E+01 0. -1.
       -5    1    3    3    0  502 -0.30191490695E+03  0.63771559178E+03 -0.11839799959E+04  0.13782831740E+04  0.46999998093E+01 0.  1.
</event>
<event>
 5   0  0.4947006E-04  0.1652601E+04  0.7818609E-02  0.8788869E-01
       -1   -1    0    0    0  501  0.00000000000E+00  0.00000000000E+00  0.81017175248E+03  0.81017175250E+03  0.50400001928E-02 0. -1.
        1   -1    0    0  501    0  0.00000000000E+00  0.00000000000E+00 -0.84275071930E+03  0.84275071931E+03  0.50400001928E-02 0.  1.
    10030    2    1    2    0    0  0.00000000000E+00  0.00000000000E+00 -0.32578966817E+02  0.16529224718E+04  0.16526013762E+04 0.  0.
        2    1    3    3  502    0 -0.19373404064E+03 -0.12446329305E+03 -0.81001083112E+03  0.84210541879E+03  0.25500000920E-02 0.  1.
       -2    1    3    3    0  502  0.19373404064E+03  0.12446329305E+03  0.77743186430E+03  0.81081705302E+03  0.25500000920E-02 0. -1.
</event>
<event>
 5   0  0.9284971E-04  0.1604021E+04  0.7818609E-02  0.8818082E-01
        2   -1    0    0  501    0  0.00000000000E+00  0.00000000000E+00  0.97318009603E+03  0.97318009604E+03  0.25500000920E-02 0. -1.
       -2   -1    0    0    0  501  0.00000000000E+00  0.00000000000E+00 -0.66094706575E+03  0.66094706575E+03  0.25500000920E-02 0.  1.
    10030    2    1    2    0    0  0.00000000000E+00  0.00000000000E+00  0.31223303028E+03  0.16341271618E+04  0.16040206095E+04 0.  0.
        4    1    3    3  502    0 -0.13042756230E+03 -0.47043738868E+03 -0.49214131522E+03  0.69320081702E+03  0.12699999809E+01 0.  1.
       -4    1    3    3    0  502  0.13042756230E+03  0.47043738868E+03  0.80437434550E+03  0.94092634477E+03  0.12699999809E+01 0. -1.
</event>
<event>
 5   0  0.9312096E-04  0.1558419E+04  0.7818609E-02  0.8846508E-01
       -2   -1    0    0    0  501  0.00000000000E+00  0.00000000000E+00  0.71167093374E+03  0.71167093375E+03  0.25500000920E-02 0. -1.
        2   -1    0    0  501    0  0.00000000000E+00  0.00000000000E+00 -0.85315762810E+03  0.85315762810E+03  0.25500000920E-02 0.  1.
    10030    2    1    2    0    0  0.00000000000E+00  0.00000000000E+00 -0.14148669436E+03  0.15648285619E+04  0.15584190525E+04 0.  0.
        3    1    3    3  502    0 -0.42371203474E+03  0.36801808074E+03 -0.61352023006E+03  0.83149039623E+03  0.10100000352E+00 0.  1.
       -3    1    3    3    0  502  0.42371203474E+03 -0.36801808074E+03  0.47203353570E+03  0.73333816562E+03  0.10100000352E+00 0. -1.
</event>
<event>
 5   0  0.3523125E-04  0.1652434E+04  0.7818609E-02  0.8788968E-01
        3   -1    0    0  501    0  0.00000000000E+00  0.00000000000E+00  0.47502854968E+03  0.47502856042E+03  0.10100000352E+00 0.  1.
       -3   -1    0    0    0  501  0.00000000000E+00  0.00000000000E+00 -0.14370394058E+04  0.14370394093E+04  0.10100000352E+00 0. -1.
    10030    2    1    2    0    0  0.00000000000E+00  0.00000000000E+00 -0.96201085612E+03  0.19120679698E+04  0.16524342752E+04 0.  0.
        1    1    3    3  502    0 -0.25994612828E+03 -0.61149072727E+03  0.87213156991E+02  0.67014851632E+03  0.50400001928E-02 0.  1.
       -1    1    3    3    0  502  0.25994612828E+03  0.61149072727E+03 -0.10492240131E+04  0.12419194535E+04  0.50400001928E-02 0. -1.
</event>
<event>
 5   0  0.9610114E-04  0.8423699E+03  0.7818609E-02  0.9500635E-01
       -2   -1    0    0    0  501  0.00000000000E+00  0.00000000000E+00  0.17206907025E+03  0.17206907027E+03  0.25500000920E-02 0.  1.
        2   -1    0    0  501    0  0.00000000000E+00  0.00000000000E+00 -0.10309626248E+04  0.10309626248E+04  0.25500000920E-02 0. -1.
    10030    2    1    2    0    0  0.00000000000E+00  0.00000000000E+00 -0.85889355451E+03  0.12030316950E+04  0.84236994324E+03 0.  0.
        2    1    3    3  502    0  0.20480335425E+03  0.30606966769E+03 -0.72134120768E+03  0.80991122556E+03  0.25500000920E-02 0. -1.
       -2    1    3    3    0  502 -0.20480335425E+03 -0.30606966769E+03 -0.13755234683E+03  0.39312046947E+03  0.25500000920E-02 0.  1.
</event>
<event>
 5   0  0.9284971E-04  0.1705581E+04  0.7818609E-02  0.8758187E-01
        2   -1    0    0  501    0  0.00000000000E+00  0.00000000000E+00  0.90561030734E+03  0.90561030734E+03  0.25500000920E-02 0. -1.
       -2   -1    0    0    0  501  0.00000000000E+00  0.00000000000E+00 -0.80305176830E+03  0.80305176830E+03  0.25500000920E-02 0.  1.
    10030    2    1    2    0    0  0.00000000000E+00  0.00000000000E+00  0.10255853904E+03  0.17086620756E+04  0.17055813774E+04 0.  0.
        4    1    3    3  502    0  0.14579788276E+03  0.54050126638E+03  0.69575431929E+03  0.89301418090E+03  0.12699999809E+01 0. -1.
       -4    1    3    3    0  502 -0.14579788276E+03 -0.54050126638E+03 -0.59319578026E+03  0.81564789474E+03  0.12699999809E+01 0.  1.
</event>
<event>
 5   0  0.5074133E-04  0.1716179E+04  0.7818609E-02  0.8752190E-01
        1   -1    0    0  501    0  0.00000000000E+00  0.00000000000E+00  0.78353131244E+03  0.78353131245E+03  0.50400001928E-02 0.  1.
       -1   -1    0    0    0  501  0.00000000000E+00  0.00000000000E+00 -0.93974282100E+03  0.93974282101E+03  0.50400001928E-02 0. -1.
    10030    2    1    2    0    0  0.00000000000E+00  0.00000000000E+00 -0.15621150856E+03  0.17232741335E+04  0.17161793915E+04 0.  0.
        1    1    3    3  502    0 -0.35920934228E+02  0.24261608584E+03 -0.90379769449E+03  0.93648446395E+03  0.50400001928E-02 0. -1.
       -1    1    3    3    0  502  0.35920934228E+02 -0.24261608584E+03  0.74758618593E+03  0.78678966951E+03  0.50400001928E-02 0.  1.
</event>
<event>
 5   0  0.9610114E-04  0.1743537E+04  0.7818609E-02  0.8736916E-01
       -2   -1    0    0    0  501  0.00000000000E+00  0.00000000000E+00  0.16991137390E+04  0.16991137390E+04  0.25500000920E-02 0.  1.
        2   -1    0    0  501    0  0.00000000000E+00  0.00000000000E+00 -0.44728056680E+03  0.44728056681E+03  0.25500000920E-02 0. -1.
    10030    2    1    2    0    0  0.00000000000E+00  0.00000000000E+00  0.12518331722E+04  0.21463943058E+04  0.17435372738E+04 0.  0.
        2    1    3    3  502    0 -0.38056543060E+03 -0.17960510999E+03  0.15657968065E+04  0.16213598248E+04  0.25500000920E-02 0.  1.
       -2    1    3    3    0  502  0.38056543060E+03  0.17960510999E+03 -0.31396363430E+03  0.52503448093E+03  0.25500000920E-02 0. -1.
</event>
<event>
 5   0  0.5059689E-04  0.1728516E+04  0.7818609E-02  0.8745266E-01
       -1   -1    0    0    0  501  0.00000000000E+00  0.00000000000E+00  0.71346247310E+03  0.71346247312E+03  0.50400001928E-02 0.  1.
        1   -1    0    0  501    0  0.00000000000E+00  0.00000000000E+00 -0.10469253859E+04  0.10469253859E+04  0.50400001928E-02 0. -1.
    10030    2    1    2    0    0  0.00000000000E+00  0.00000000000E+00 -0.33346291282E+03  0.17603878591E+04  0.17285160977E+04 0.  0.
        5    1    3    3  502    0  0.72905445048E+03  0.22954604933E+02  0.30535923241E+03  0.79076776393E+03  0.46999998093E+01 0.  1.
       -5    1    3    3    0  502 -0.72905445048E+03 -0.22954604933E+02 -0.63882214523E+03  0.96962009513E+03  0.46999998093E+01 0. -1.
</event>
<event>
 5   0  0.5009762E-04  0.1766294E+04  0.7818609E-02  0.8724432E-01
       -1   -1    0    0    0  501  0.00000000000E+00  0.00000000000E+00  0.10729713125E+04  0.10729713125E+04  0.50400001928E-02 0.  1.
        1   -1    0    0  501    0  0.00000000000E+00  0.00000000000E+00 -0.72690575323E+03  0.72690575325E+03  0.50400001928E-02 0. -1.
    10030    2    1    2    0    0  0.00000000000E+00  0.00000000000E+00  0.34606555922E+03  0.17998770657E+04  0.17662944490E+04 0.  0.
        3    1    3    3  502    0 -0.55280817057E+03 -0.61497984539E+03 -0.14294659379E+03  0.83918461769E+03  0.10100000352E+00 0.  1.
       -3    1    3    3    0  502  0.55280817057E+03  0.61497984539E+03  0.48901215302E+03  0.96069244802E+03  0.10100000352E+00 0. -1.
</event>
<event>
 5   0  0.1007187E-03  0.1718467E+04  0.7818609E-02  0.8750902E-01
        2   -1    0    0  501    0  0.00000000000E+00  0.00000000000E+00  0.74518567322E+03  0.74518567322E+03  0.25500000920E-02 0.  1.
       -2   -1    0    0    0  501  0.00000000000E+00  0.00000000000E+00 -0.99073543241E+03  0.99073543241E+03  0.25500000920E-02 0. -1.
    10030    2    1    2    0    0  0.00000000000E+00  0.00000000000E+00 -0.24554975919E+03  0.17359211056E+04  0.17184665841E+04 0.  0.
        5    1    3    3  502    0 -0.32033022541E+03  0.71736895431E+03  0.22865248071E+03  0.81825039985E+03  0.46999998093E+01 0.  1.
       -5    1    3    3    0  502  0.32033022541E+03 -0.71736895431E+03 -0.47420223990E+03  0.91767070578E+03  0.46999998093E+01 0. -1.
</event>
<event>
 5   0  0.5059689E-04  0.1771340E+04  0.7818609E-02  0.8721691E-01
        1   -1    0    0  501    0  0.00000000000E+00  0.00000000000E+00  0.54102328711E+03  0.54102328713E+03  0.50400001928E-02 0. -1.
       -1   -1    0    0    0  501  0.00000000000E+00  0.00000000000E+00 -0.14498659353E+04  0.14498659353E+04  0.50400001928E-02 0.  1.
    10030    2    1    2    0    0  0.00000000000E+00  0.00000000000E+00 -0.90884264817E+03  0.19908892224E+04  0.17713398705E+04 0.  0.
        5    1    3    3  502    0  0.57952132593E+03 -0.35279978129E+03  0.18541510286E+03  0.70335873013E+03  0.46999998093E+01 0. -1.
       -5    1    3    3    0  502 -0.57952132593E+03  0.35279978129E+03 -0.10942577510E+04  0.12875304923E+04  0.46999998093E+01 0.  1.
</event>
<event>
 5   0  0.9312096E-04  0.1695317E+04  0.7818609E-02  0.8764040E-01
        2   -1    0    0  501    0  0.00000000000E+00  0.00000000000E+00  0.99439652309E+03  0.99439652310E+03  0.25500000920E-02 0.  1.
       -2   -1    0    0    0  501  0.00000000000E+00  0.00000000000E+00 -0.72257362754E+03  0.72257362755E+03  0.25500000920E-02 0. -1.
    10030    2    1    2    0    0  0.00000000000E+00  0.00000000000E+00  0.27182289555E+03  0.17169701506E+04  0.16953167290E+04 0.  0.
        3    1    3    3  502    0  0.82898829159E+03 -0.17672443731E+03  0.14447990830E+03  0.85984159497E+03  0.10100000352E+00 0.  1.
       -3    1    3    3    0  502 -0.82898829159E+03  0.17672443731E+03  0.12734298725E+03  0.85712855567E+03  0.10100000352E+00 0. -1.
</event>
<event>
 5   0  0.5074133E-04  0.1786065E+04  0.7818609E-02  0.8713745E-01
        1   -1    0    0  501    0  0.00000000000E+00  0.00000000000E+00  0.16175277731E+04  0.16175277731E+04  0.50400001928E-02 0.  1.
       -1   -1    0    0    0  501  0.00000000000E+00  0.00000000000E+00 -0.49304065335E+03  0.49304065337E+03  0.50400001928E-02 0. -1.
    10030    2    1    2    0    0  0.00000000000E+00  0.00000000000E+00  0.11244871197E+04  0.21105684264E+04  0.17860648925E+04 0.  0.
        1    1    3    3  502    0 -0.72717765680E+03  0.24301661077E+03  0.21162145560E+02  0.76700212131E+03  0.50400001928E-02 0. -1.
       -1    1    3    3    0  502  0.72717765680E+03 -0.24301661077E+03  0.11033249742E+04  0.13435663051E+04  0.50400001928E-02 0.  1.
</event>
<event>
 5   0  0.5059689E-04  0.1678329E+04  0.7818609E-02  0.8773822E-01
       -1   -1    0    0    0  501  0.00000000000E+00  0.00000000000E+00  0.48367261141E+03  0.48367261143E+03  0.50400001928E-02 0. -1.
        1   -1    0    0  501    0  0.00000000000E+00  0.00000000000E+00 -0.14559370906E+04  0.14559370906E+04  0.50400001928E-02 0.  1.
    10030    2    1    2    0    0  0.00000000000E+00  0.00000000000E+00 -0.97226447919E+03  0.19396097020E+04  0.16783288053E+04 0.  0.
        5    1    3    3  502    0 -0.43957669860E+03 -0.22597737682E+02  0.33954088543E+03  0.55592124854E+03  0.46999998093E+01 0. -1.
       -5    1    3    3    0  502  0.43957669860E+03  0.22597737682E+02 -0.13118053646E+04  0.13836884535E+04  0.46999998093E+01 0.  1.
</event>
<event>
 5   0  0.9312096E-04  0.1711588E+04  0.7818609E-02  0.8754783E-01
        2   -1    0    0  501    0  0.00000000000E+00  0.00000000000E+00  0.97948356109E+03  0.97948356109E+03  0.25500000920E-02 0. -1.
       -2   -1    0    0    0  501  0.00000000000E+00  0.00000000000E+00 -0.74772438923E+03  0.74772438924E+03  0.25500000920E-02 0.  1.
    10030    2    1    2    0    0  0.00000000000E+00  0.00000000000E+00  0.23175917186E+03  0.17272079503E+04  0.17115884406E+04 0.  0.
        3    1    3    3  502    0  0.54451806804E+03 -0.36748094260E+03  0.66937522718E+03  0.93787279232E+03  0.10100000352E+00 0. -1.
       -3    1    3    3    0  502 -0.54451806804E+03  0.36748094260E+03 -0.43761605532E+03  0.78933515801E+03  0.10100000352E+00 0.  1.
</event>
<event>
 5   0  0.1007187E-03  0.1530433E+04  0.7818609E-02  0.8864464E-01
       -2   -1    0    0    0  501  0.00000000000E+00  0.00000000000E+00  0.66960374985E+03  0.66960374985E+03  0.25500000920E-02 0. -1.
        2   -1    0    0  501    0  0.00000000000E+00  0.00000000000E+00 -0.87448200806E+03  0.87448200806E+03  0.25500000920E-02 0.  1.
    10030    2    1    2    0    0  0.00000000000E+00  0.00000000000E+00 -0.20487825821E+03  0.15440857579E+04  0.15304331828E+04 0.  0.
        5    1    3    3  502    0  0.40763785865E+03  0.57818416482E+02 -0.75319123660E+03  0.85838844469E+03  0.46999998093E+01 0.  1.
       -5    1    3    3    0  502 -0.40763785865E+03 -0.57818416482E+02  0.54831297839E+03  0.68569731322E+03  0.46999998093E+01 0. -1.
</event>
<event>
 5   0  0.1007187E-03  0.1686617E+04  0.7818609E-02  0.8769034E-01
        2   -1    0    0  501    0  0.00000000000E+00  0.00000000000E+00  0.13917848881E+04  0.13917848881E+04  0.25500000920E-02 0.  1.
       -2   -1    0    0    0  501  0.00000000000E+00  0.00000000000E+00 -0.51097649987E+03  0.51097649987E+03  0.25500000920E-02 0. -1.
    10030    2    1    2    0    0  0.00000000000E+00  0.00000000000E+00  0.88080838821E+03  0.19027613880E+04  0.16866171714E+04 0.  0.
        5    1    3    3  502    0 -0.71761007089E+03  0.38173957322E+03  0.18698898378E+03  0.83407211058E+03  0.46999998093E+01 0.  1.
       -5    1    3    3    0  502  0.71761007089E+03 -0.38173957322E+03  0.69381940443E+03  0.10686892774E+04  0.46999998093E+01 0. -1.
</event>
<event>
 5   0  0.5035495E-04  0.1690206E+04  0.7818609E-02  0.8766970E-01
        1   -1    0    0  501    0  0.00000000000E+00  0.00000000000E+00  0.14608642365E+04  0.14608642365E+04  0.50400001928E-02 0. -1.
       -1   -1    0    0    0  501  0.00000000000E+00  0.00000000000E+00 -0.48888780655E+03  0.48888780658E+03  0.50400001928E-02 0.  1.
    10030    2    1    2    0    0  0.00000000000E+00  0.00000000000E+00  0.97197642992E+03  0.19497520431E+04  0.16902055641E+04 0.  0.
        4    1    3    3  502    0  0.49417938953E+03  0.39334798092E+03  0.11336900338E+04  0.12977636952E+04  0.12699999809E+01 0. -1.
       -4    1    3    3    0  502 -0.49417938953E+03 -0.39334798092E+03 -0.16171360383E+03  0.65198834782E+03  0.12699999809E+01 0.  1.
</event>
<event>
 5   0  0.3523125E-04  0.1695520E+04  0.7818609E-02  0.8763923E-01
        3   -1    0    0  501    0  0.00000000000E+00  0.00000000000E+00  0.97714869252E+03  0.97714869774E+03  0.10100000352E+00 0. -1.
       -3   -1    0    0    0  501  0.00000000000E+00  0.00000000000E+00 -0.73550460970E+03  0.73550461664E+03  0.10100000352E+00 0.  1.
    10030    2    1    2    0    0  0.00000000000E+00  0.00000000000E+00  0.24164408282E+03  0.17126533144E+04  0.16955204253E+04 0.  0.
        2    1    3    3  502    0 -0.75413279768E+03  0.35852575325E+03 -0.27082916361E+02  0.83545824351E+03  0.25500000920E-02 0. -1.
       -2    1    3    3    0  502  0.75413279768E+03 -0.35852575325E+03  0.26872699918E+03  0.87719507088E+03  0.25500000920E-02 0.  1.
</event>
<event>
 5   0  0.5035495E-04  0.1618902E+04  0.7818609E-02  0.8809019E-01
       -1   -1    0    0    0  501  0.00000000000E+00  0.00000000000E+00  0.64281279177E+03  0.64281279179E+03  0.50400001928E-02 0.  1.
        1   -1    0    0  501    0  0.00000000000E+00  0.00000000000E+00 -0.10192875227E+04  0.10192875227E+04  0.50400001928E-02 0. -1.
    10030    2    1    2    0    0  0.00000000000E+00  0.00000000000E+00 -0.37647473092E+03  0.16621003145E+04  0.16189021689E+04 0.  0.
        4    1    3    3  502    0 -0.68015177412E+01  0.68886921023E+03  0.24810002098E+03  0.73221737398E+03  0.12699999809E+01 0.  1.
       -4    1    3    3    0  502  0.68015177412E+01 -0.68886921023E+03 -0.62457475190E+03  0.92988294051E+03  0.12699999809E+01 0. -1.
</event>
<event>
 5   0  0.5009762E-04  0.1712913E+04  0.7818609E-02  0.8754034E-01
       -1   -1    0    0    0  501  0.00000000000E+00  0.00000000000E+00  0.12680676817E+04  0.12680676817E+04  0.50400001928E-02 0.  1.
        1   -1    0    0  501    0  0.00000000000E+00  0.00000000000E+00 -0.57845312344E+03  0.57845312347E+03  0.50400001928E-02 0. -1.
    10030    2    1    2    0    0  0.00000000000E+00  0.00000000000E+00  0.68961455826E+03  0.18465208052E+04  0.17129129706E+04 0.  0.
        3    1    3    3  502    0 -0.47197585106E+03  0.94232122002E+02 -0.41888336349E+03  0.63804716065E+03  0.10100000352E+00 0. -1.
       -3    1    3    3    0  502  0.47197585106E+03 -0.94232122002E+02  0.11084979217E+04  0.12084736445E+04  0.10100000352E+00 0.  1.
</event>
<event>
 5   0  0.5035495E-04  0.1744484E+04  0.7818609E-02  0.8736393E-01
       -1   -1    0    0    0  501  0.00000000000E+00  0.00000000000E+00  0.54493512477E+03  0.54493512479E+03  0.50400001928E-02 0.  1.
        1   -1    0    0  501    0  0.00000000000E+00  0.00000000000E+00 -0.13961399479E+04  0.13961399480E+04  0.50400001928E-02 0. -1.
    10030    2    1    2    0    0  0.00000000000E+00  0.00000000000E+00 -0.85120482317E+03  0.19410750727E+04  0.17444835302E+04 0.  0.
        4    1    3    3  502    0  0.41160084162E+03  0.50469266168E+03 -0.10712274191E+04  0.12536585388E+04  0.12699999809E+01 0. -1.
       -4    1    3    3    0  502 -0.41160084162E+03 -0.50469266168E+03  0.22002259589E+03  0.68741653397E+03  0.12699999809E+01 0.  1.
</event>
<event>
 5   0  0.9312096E-04  0.1684009E+04  0.7818609E-02  0.8770537E-01
       -2   -1    0    0    0  501  0.00000000000E+00  0.00000000000E+00  0.42998542216E+03  0.42998542217E+03  0.25500000920E-02 0. -1.
        2   -1    0    0  501    0  0.00000000000E+00  0.00000000000E+00 -0.16488270974E+04  0.16488270974E+04  0.25500000920E-02 0.  1.
    10030    2    1    2    0    0  0.00000000000E+00  0.00000000000E+00 -0.12188416752E+04  0.20788125195E+04  0.16840090446E+04 0.  0.
        3    1    3    3  502    0 -0.23741136783E+03  0.70353877667E+02 -0.16028655379E+04  0.16218790857E+04  0.10100000352E+00 0.  1.
       -3    1    3    3    0  502  0.23741136783E+03 -0.70353877667E+02  0.38402386270E+03  0.45693343388E+03  0.10100000352E+00 0. -1.
</event>
<event>
 5   0  0.1007187E-03  0.1747019E+04  0.7818609E-02  0.8734993E-01
        2   -1    0    0  501    0  0.00000000000E+00  0.00000000000E+00  0.10789126588E+04  0.10789126588E+04  0.25500000920E-02 0.  1.
       -2   -1    0    0    0  501  0.00000000000E+00  0.00000000000E+00 -0.70721059569E+03  0.70721059569E+03  0.25500000920E-02 0. -1.
    10030    2    1    2    0    0  0.00000000000E+00  0.00000000000E+00  0.37170206310E+03  0.17861232545E+04  0.17470185621E+04 0.  0.
        5    1    3    3  502    0 -0.23349121874E+03 -0.24560998349E+03 -0.63724971407E+03  0.72176983956E+03  0.46999998093E+01 0. -1.
       -5    1    3    3    0  502  0.23349121874E+03  0.24560998349E+03  0.10089517772E+04  0.10643534149E+04  0.46999998093E+01 0.  1.
</event>
<event>
 5   0  0.1007187E-03  0.1618285E+04  0.7818609E-02  0.8809393E-01
       -2   -1    0    0    0  501  0.00000000000E+00  0.00000000000E+00  0.79598798409E+03  0.79598798410E+03  0.25500000920E-02 0.  1.
        2   -1    0    0  501    0  0.00000000000E+00  0.00000000000E+00 -0.82251418189E+03  0.82251418189E+03  0.25500000920E-02 0. -1.
    10030    2    1    2    0    0  0.00000000000E+00  0.00000000000E+00 -0.26526197797E+02  0.16185021660E+04  0.16182847778E+04 0.  0.
        5    1    3    3  502    0  0.74728029234E+03  0.12574205740E+03 -0.29693902470E+03  0.81390034691E+03  0.46999998093E+01 0. -1.
       -5    1    3    3    0  502 -0.74728029234E+03 -0.12574205740E+03  0.27041282690E+03  0.80460181908E+03  0.46999998093E+01 0.  1.
</event>
<event>
 5   0  0.5074133E-04  0.1581981E+04  0.7818609E-02  0.8831695E-01
       -1   -1    0    0    0  501  0.00000000000E+00  0.00000000000E+00  0.10286789213E+04  0.10286789213E+04  0.50400001928E-02 0.  1.
        1   -1    0    0  501    0  0.00000000000E+00  0.00000000000E+00 -0.60822312437E+03  0.60822312439E+03  0.50400001928E-02 0. -1.
    10030    2    1    2    0    0  0.00000000000E+00  0.00000000000E+00  0.42045579690E+03  0.16369020457E+04  0.15819814253E+04 0.  0.
        1    1    3    3  502    0 -0.11527030855E+03  0.67931269412E+03  0.61219000018E+03  0.92169928760E+03  0.50400001928E-02 0.  1.
       -1    1    3    3    0  502  0.11527030855E+03 -0.67931269412E+03 -0.19173420328E+03  0.71520275807E+03  0.50400001928E-02 0. -1.
</event>
<event>
 5   0  0.9625225E-04  0.1561723E+04  0.7818609E-02  0.8844414E-01
        2   -1    0    0  501    0  0.00000000000E+00  0.00000000000E+00  0.86673878175E+03  0.86673878176E+03  0.25500000920E-02 0. -1.
       -2   -1    0    0    0  501  0.00000000000E+00  0.00000000000E+00 -0.70349343096E+03  0.70349343096E+03  0.25500000920E-02 0.  1.
    10030    2    1    2    0    0  0.00000000000E+00  0.00000000000E+00  0.16324535079E+03  0.15702322127E+04  0.15617234574E+04 0.  0.
        1    1    3    3  502    0  0.38015814941E+03 -0.94731332177E+02  0.76076620326E+03  0.85572160187E+03  0.50400001928E-02 0. -1.
       -1    1    3    3    0  502 -0.38015814941E+03  0.94731332177E+02 -0.59752085247E+03  0.71451061085E+03  0.50400001928E-02 0.  1.
</event>
<event>
 5   0  0.9625225E-04  0.1675748E+04  0.7818609E-02  0.8775319E-01
       -2   -1    0    0    0  501  0.00000000000E+00  0.00000000000E+00  0.96250394008E+03  0.96250394009E+03  0.25500000920E-02 0. -1.
        2   -1    0    0  501    0  0.00000000000E+00  0.00000000000E+00 -0.72938136078E+03  0.72938136078E+03  0.25500000920E-02 0.  1.
    10030    2    1    2    0    0  0.00000000000E+00  0.00000000000E+00  0.23312257931E+03  0.16918853009E+04  0.16757475151E+04 0.  0.
        1    1    3    3  502    0 -0.64112134094E+03 -0.34364443356E+03  0.53638340191E+03  0.90378936948E+03  0.50400001928E-02 0. -1.
       -1    1    3    3    0  502  0.64112134094E+03  0.34364443356E+03 -0.30326082260E+03  0.78809593139E+03  0.50400001928E-02 0.  1.
</event>
<event>
 5   0  0.5009762E-04  0.1724773E+04  0.7818609E-02  0.8747360E-01
       -1   -1    0    0    0  501  0.00000000000E+00  0.00000000000E+00  0.51464058888E+03  0.51464058891E+03  0.50400001928E-02 0.  1.
        1   -1    0    0  501    0  0.00000000000E+00  0.00000000000E+00 -0.14451058685E+04  0.14451058685E+04  0.50400001928E-02 0. -1.
    10030    2    1    2    0    0  0.00000000000E+00  0.00000000000E+00 -0.93046527959E+03  0.19597464574E+04  0.17247726055E+04 0.  0.
        3    1    3    3  502    0 -0.30673245618E+03 -0.66597383976E+03  0.50603103281E+02  0.73496029769E+03  0.10100000352E+00 0.  1.
       -3    1    3    3    0  502  0.30673245618E+03  0.66597383976E+03 -0.98106838287E+03  0.12247861597E+04  0.10100000352E+00 0. -1.
</event>
<event>
 5   0  0.9284971E-04  0.1703570E+04  0.7818609E-02  0.8759331E-01
       -2   -1    0    0    0  501  0.00000000000E+00  0.00000000000E+00  0.80451063873E+03  0.80451063873E+03  0.25500000920E-02 0.  1.
        2   -1    0    0  501    0  0.00000000000E+00  0.00000000000E+00 -0.90183720560E+03  0.90183720560E+03  0.25500000920E-02 0. -1.
    10030    2    1    2    0    0  0.00000000000E+00  0.00000000000E+00 -0.97326566869E+02  0.17063478443E+04  0.17035699297E+04 0.  0.
        4    1    3    3  502    0  0.74706614892E+03  0.31992204611E+03 -0.30418329872E+03  0.86774825760E+03  0.12699999809E+01 0. -1.
       -4    1    3    3    0  502 -0.74706614892E+03 -0.31992204611E+03  0.20685673185E+03  0.83859958673E+03  0.12699999809E+01 0.  1.
</event>
<event>
 5   0  0.4947006E-04  0.1694250E+04  0.7818609E-02  0.8764650E-01
        1   -1    0    0  501    0  0.00000000000E+00  0.00000000000E+00  0.13706949132E+04  0.13706949132E+04  0.50400001928E-02 0. -1.
       -1   -1    0    0    0  501  0.00000000000E+00  0.00000000000E+00 -0.52354546903E+03  0.52354546905E+03  0.50400001928E-02 0.  1.
    10030    2    1    2    0    0  0.00000000000E+00  0.00000000000E+00  0.84714944417E+03  0.18942403823E+04  0.16942504080E+04 0.  0.
        2    1    3    3  502    0  0.62685696426E+03 -0.24318102652E+03  0.99970131978E+03  0.12047777364E+04  0.25500000920E-02 0. -1.
       -2    1    3    3    0  502 -0.62685696426E+03  0.24318102652E+03 -0.15255187562E+03  0.68946264587E+03  0.25500000920E-02 0.  1.
</event>
<event>
 5   0  0.9610114E-04  0.1734334E+04  0.7818609E-02  0.8742021E-01
        2   -1    0    0  501    0  0.00000000000E+00  0.00000000000E+00  0.22742482674E+04  0.22742482674E+04  0.25500000920E-02 0.  1.
       -2   -1    0    0    0  501  0.00000000000E+00  0.00000000000E+00 -0.33064941935E+03  0.33064941936E+03  0.25500000920E-02 0. -1.
    10030    2    1    2    0    0  0.00000000000E+00  0.00000000000E+00  0.19435988480E+04  0.26048976867E+04  0.17343343035E+04 0.  0.
        2    1    3    3  502    0  0.44532051368E+03 -0.73911194118E+03  0.11008459376E+04  0.13987346424E+04  0.25500000920E-02 0.  1.
       -2    1    3    3    0  502 -0.44532051368E+03  0.73911194118E+03  0.84275291039E+03  0.12061630443E+04  0.25500000920E-02 0. -1.
</event>
<event>
 5   0  0.5074133E-04  0.1686828E+04  0.7818609E-02  0.8768913E-01
        1   -1    0    0  501    0  0.00000000000E+00  0.00000000000E+00  0.10945952003E+04  0.10945952003E+04  0.50400001928E-02 0. -1.
       -1   -1    0    0    0  501  0.00000000000E+00  0.00000000000E+00 -0.64987244796E+03  0.64987244798E+03  0.50400001928E-02 0.  1.
    10030    2    1    2    0    0  0.00000000000E+00  0.00000000000E+00  0.44472275233E+03  0.17444676483E+04  0.16868281031E+04 0.  0.
        1    1    3    3  502    0 -0.23908944296E+03  0.55538658356E+03 -0.38571782602E+03  0.71721423597E+03  0.50400001928E-02 0.  1.
       -1    1    3    3    0  502  0.23908944296E+03 -0.55538658356E+03  0.83044057835E+03  0.10272534123E+04  0.50400001928E-02 0. -1.
</event>
<event>
 5   0  0.9610114E-04  0.1670203E+04  0.7818609E-02  0.8778544E-01
       -2   -1    0    0    0  501  0.00000000000E+00  0.00000000000E+00  0.54040761864E+03  0.54040761864E+03  0.25500000920E-02 0. -1.
        2   -1    0    0  501    0  0.00000000000E+00  0.00000000000E+00 -0.12904968360E+04  0.12904968360E+04  0.25500000920E-02 0.  1.
    10030    2    1    2    0    0  0.00000000000E+00  0.00000000000E+00 -0.75008921738E+03  0.18309044547E+04  0.16702027685E+04 0.  0.
        2    1    3    3  502    0  0.37089230205E+03 -0.15293598758E+03  0.42785010711E+03  0.58652044311E+03  0.25500000920E-02 0. -1.
       -2    1    3    3    0  502 -0.37089230205E+03  0.15293598758E+03 -0.11779393245E+04  0.12443840116E+04  0.25500000920E-02 0.  1.
</event>
<event>
 5   0  0.1007187E-03  0.1692003E+04  0.7818609E-02  0.8765939E-01
        2   -1    0    0  501    0  0.00000000000E+00  0.00000000000E+00  0.11971466799E+04  0.11971466799E+04  0.25500000920E-02 0.  1.
       -2   -1    0    0    0  501  0.00000000000E+00  0.00000000000E+00 -0.59785342921E+03  0.59785342922E+03  0.25500000920E-02 0. -1.
    10030    2    1    2    0    0  0.00000000000E+00  0.00000000000E+00  0.59929325064E+03  0.17950001091E+04  0.16920026570E+04 0.  0.
        5    1    3    3  502    0 -0.27873162908E+03 -0.70996332587E+03 -0.88634253151E+02  0.76786546084E+03  0.46999998093E+01 0. -1.
       -5    1    3    3    0  502  0.27873162908E+03  0.70996332587E+03  0.68792750379E+03  0.10271346482E+04  0.46999998093E+01 0.  1.
</event>
<event>
 5   0  0.1007187E-03  0.1716227E+04  0.7818609E-02  0.8752163E-01
       -2   -1    0    0    0  501  0.00000000000E+00  0.00000000000E+00  0.70660845953E+03  0.70660845953E+03  0.25500000920E-02 0. -1.
        2   -1    0    0  501    0  0.00000000000E+00  0.00000000000E+00 -0.10421031512E+04  0.10421031512E+04  0.25500000920E-02 0.  1.
    10030    2    1    2    0    0  0.00000000000E+00  0.00000000000E+00 -0.33549469168E+03  0.17487116107E+04  0.17162271439E+04 0.  0.
        5    1    3    3  502    0  0.13323917134E+03  0.67151466543E+03 -0.69489081147E+03  0.97548959632E+03  0.46999998093E+01 0.  1.
       -5    1    3    3    0  502 -0.13323917134E+03 -0.67151466543E+03  0.35939611979E+03  0.77322201442E+03  0.46999998093E+01 0. -1.
</event>
<event>
 5   0  0.1007187E-03  0.1699963E+04  0.7818609E-02  0.8761385E-01
        2   -1    0    0  501    0  0.00000000000E+00  0.00000000000E+00  0.98519787401E+03  0.98519787401E+03  0.25500000920E-02 0. -1.
       -2   -1    0    0    0  501  0.00000000000E+00  0.00000000000E+00 -0.73332332690E+03  0.73332332690E+03  0.25500000920E-02 0.  1.
    10030    2    1    2    0    0  0.00000000000E+00  0.00000000000E+00  0.25187454711E+03  0.17185212009E+04  0.16999630380E+04 0.  0.
        5    1    3    3  502    0  0.69893263175E+03  0.22099548833E+03  0.56086731155E+03  0.92300599172E+03  0.46999998093E+01 0. -1.
       -5    1    3    3    0  502 -0.69893263175E+03 -0.22099548833E+03 -0.30899276444E+03  0.79551520919E+03  0.46999998093E+01 0.  1.
</event>
<event>
 5   0  0.5074133E-04  0.1666425E+04  0.7818609E-02  0.8780749E-01
        1   -1    0    0  501    0  0.00000000000E+00  0.00000000000E+00  0.27009042867E+04  0.27009042867E+04  0.50400001928E-02 0. -1.
       -1   -1    0    0    0  501  0.00000000000E+00  0.00000000000E+00 -0.25704096725E+03  0.25704096730E+03  0.50400001928E-02 0.  1.
    10030    2    1    2    0    0  0.00000000000E+00  0.00000000000E+00  0.24438633194E+04  0.29579452540E+04  0.16664249763E+04 0.  0.
        1    1    3    3  502    0  0.59608513724E+03  0.25963759834E+03  0.29701972979E+03  0.71480759175E+03  0.50400001928E-02 0.  1.
       -1    1    3    3    0  502 -0.59608513724E+03 -0.25963759834E+03  0.21468435896E+04  0.22431376622E+04  0.50400001928E-02 0. -1.
</event>
<event>
 5   0  0.5009762E-04  0.1265906E+04  0.7818609E-02  0.9057047E-01
        1   -1    0    0  501    0  0.00000000000E+00  0.00000000000E+00  0.90628139538E+03  0.90628139540E+03  0.50400001928E-02 0.  1.
       -1   -1    0    0    0  501  0.00000000000E+00  0.00000000000E+00 -0.44205885457E+03  0.44205885460E+03  0.50400001928E-02 0. -1.
    10030    2    1    2    0    0  0.00000000000E+00  0.00000000000E+00  0.46422254081E+03  0.13483402500E+04  0.12659063403E+04 0.  0.
        3    1    3    3  502    0 -0.61925794138E+03 -0.88697588796E+02  0.12949416433E+03  0.63883989310E+03  0.10100000352E+00 0. -1.
       -3    1    3    3    0  502  0.61925794138E+03  0.88697588796E+02  0.33472837648E+03  0.70950035690E+03  0.10100000352E+00 0.  1.
</event>
<event>
 5   0  0.5009762E-04  0.1686220E+04  0.7818609E-02  0.8769263E-01
        1   -1    0    0  501    0  0.00000000000E+00  0.00000000000E+00  0.13914316163E+04  0.13914316164E+04  0.50400001928E-02 0. -1.
       -1   -1    0    0    0  501  0.00000000000E+00  0.00000000000E+00 -0.51086566075E+03  0.51086566077E+03  0.50400001928E-02 0.  1.
    10030    2    1    2    0    0  0.00000000000E+00  0.00000000000E+00  0.88056595560E+03  0.19022972771E+04  0.16862201898E+04 0.  0.
        3    1    3    3  502    0 -0.47520851665E+02 -0.84165329336E+03  0.42448396922E+03  0.94383533940E+03  0.10100000352E+00 0.  1.
       -3    1    3    3    0  502  0.47520851665E+02  0.84165329336E+03  0.45608198638E+03  0.95846193773E+03  0.10100000352E+00 0. -1.
</event>
<event>
 5   0  0.9625225E-04  0.1640658E+04  0.7818609E-02  0.8795953E-01
       -2   -1    0    0    0  501  0.00000000000E+00  0.00000000000E+00  0.82013934891E+03  0.82013934892E+03  0.25500000920E-02 0. -1.
        2   -1    0    0  501    0  0.00000000000E+00  0.00000000000E+00 -0.82051820019E+03  0.82051820020E+03  0.25500000920E-02 0.  1.
    10030    2    1    2    0    0  0.00000000000E+00  0.00000000000E+00 -0.37885127838E+00  0.16406575491E+04  0.16406575054E+04 0.  0.
        1    1    3    3  502    0 -0.54188049292E+03 -0.54159614080E+03  0.29303134223E+03  0.82026106569E+03  0.50400001928E-02 0. -1.
       -1    1    3    3    0  502  0.54188049292E+03  0.54159614080E+03 -0.29341019351E+03  0.82039648342E+03  0.50400001928E-02 0.  1.
</event>
<event>
 5   0  0.5059689E-04  0.1646464E+04  0.7818609E-02  0.8792501E-01
       -1   -1    0    0    0  501  0.00000000000E+00  0.00000000000E+00  0.45534307542E+03  0.45534307545E+03  0.50400001928E-02 0.  1.
        1   -1    0    0  501    0  0.00000000000E+00  0.00000000000E+00 -0.14883519809E+04  0.14883519809E+04  0.50400001928E-02 0. -1.
    10030    2    1    2    0    0  0.00000000000E+00  0.00000000000E+00 -0.10330089055E+04  0.19436950564E+04  0.16464638087E+04 0.  0.
        5    1    3    3  502    0 -0.17799937785E+02  0.41698676315E+03 -0.13541746016E+04  0.14170411921E+04  0.46999998093E+01 0. -1.
       -5    1    3    3    0  502  0.17799937785E+02 -0.41698676315E+03  0.32116569611E+03  0.52665386430E+03  0.46999998093E+01 0.  1.
</event>
<event>
 5   0  0.9625225E-04  0.1682409E+04  0.7818609E-02  0.8771461E-01
       -2   -1    0    0    0  501  0.00000000000E+00  0.00000000000E+00  0.79932706158E+03  0.79932706158E+03  0.25500000920E-02 0.  1.
        2   -1    0    0  501    0  0.00000000000E+00  0.00000000000E+00 -0.88527621514E+03  0.88527621514E+03  0.25500000920E-02 0. -1.
    10030    2    1    2    0    0  0.00000000000E+00  0.00000000000E+00 -0.85949153557E+02  0.16846032767E+04  0.16824092674E+04 0.  0.
        1    1    3    3  502    0  0.74430227968E+03 -0.24289583885E+03  0.26506432472E+03  0.82658536664E+03  0.50400001928E-02 0.  1.
       -1    1    3    3    0  502 -0.74430227968E+03  0.24289583885E+03 -0.35101347828E+03  0.85801791009E+03  0.50400001928E-02 0. -1.
</event>
<event>
 5   0  0.9312096E-04  0.1683894E+04  0.7818609E-02  0.8770604E-01
        2   -1    0    0  501    0  0.00000000000E+00  0.00000000000E+00  0.91763469937E+03  0.91763469937E+03  0.25500000920E-02 0. -1.
       -2   -1    0    0    0  501  0.00000000000E+00  0.00000000000E+00 -0.77250227594E+03  0.77250227595E+03  0.25500000920E-02 0.  1.
    10030    2    1    2    0    0  0.00000000000E+00  0.00000000000E+00  0.14513242343E+03  0.16901369753E+04  0.16838941698E+04 0.  0.
        3    1    3    3  502    0  0.77958843850E+03  0.14557415737E+03  0.35632426808E+03  0.86943485263E+03  0.10100000352E+00 0. -1.
       -3    1    3    3    0  502 -0.77958843850E+03 -0.14557415737E+03 -0.21119184465E+03  0.82070212269E+03  0.10100000352E+00 0.  1.
</event>
<event>
 5   0  0.9610114E-04  0.1688314E+04  0.7818609E-02  0.8768057E-01
       -2   -1    0    0    0  501  0.00000000000E+00  0.00000000000E+00  0.94965657479E+03  0.94965657479E+03  0.25500000920E-02 0. -1.
        2   -1    0    0  501    0  0.00000000000E+00  0.00000000000E+00 -0.75037766139E+03  0.75037766140E+03  0.25500000920E-02 0.  1.
    10030    2    1    2    0    0  0.00000000000E+00  0.00000000000E+00  0.19927891339E+03  0.17000342362E+04  0.16883140463E+04 0.  0.
        2    1    3    3  502    0  0.17024155110E+03 -0.80851739373E+03  0.27380990616E+03  0.87043347041E+03  0.25500000920E-02 0. -1.
       -2    1    3    3    0  502 -0.17024155110E+03  0.80851739373E+03 -0.74530992769E+02  0.82960076578E+03  0.25500000920E-02 0.  1.
</event>
<event>
 5   0  0.4947006E-04  0.1688945E+04  0.7818609E-02  0.8767695E-01
       -1   -1    0    0    0  501  0.00000000000E+00  0.00000000000E+00  0.43764660056E+03  0.43764660059E+03  0.50400001928E-02 0.  1.
        1   -1    0    0  501    0  0.00000000000E+00  0.00000000000E+00 -0.16294733795E+04  0.16294733795E+04  0.50400001928E-02 0. -1.
    10030    2    1    2    0    0  0.00000000000E+00  0.00000000000E+00 -0.11918267790E+04  0.20671199801E+04  0.16889446235E+04 0.  0.
        2    1    3    3  502    0 -0.51311213833E+03  0.43377267285E+02 -0.14150827287E+04  0.15058634675E+04  0.25500000920E-02 0. -1.
       -2    1    3    3    0  502  0.51311213833E+03 -0.43377267285E+02  0.22325594972E+03  0.56125651258E+03  0.25500000920E-02 0.  1.
</event>
<event>
 5   0  0.1007187E-03  0.1692156E+04  0.7818609E-02  0.8765851E-01
       -2   -1    0    0    0  501  0.00000000000E+00  0.00000000000E+00  0.47695021180E+03  0.47695021180E+03  0.25500000920E-02 0. -1.
        2   -1    0    0  501    0  0.00000000000E+00  0.00000000000E+00 -0.15008861868E+04  0.15008861868E+04  0.25500000920E-02 0.  1.
    10030    2    1    2    0    0  0.00000000000E+00  0.00000000000E+00 -0.10239359750E+04  0.19778363986E+04  0.16921560030E+04 0.  0.
        5    1    3    3  502    0 -0.46960106342E+03  0.57602228570E+03 -0.39352880983E+02  0.74424295202E+03  0.46999998093E+01 0. -1.
       -5    1    3    3    0  502  0.46960106342E+03 -0.57602228570E+03 -0.98458309398E+03  0.12335934465E+04  0.46999998093E+01 0.  1.
</event>
<event>
 5   0  0.3523125E-04  0.1675762E+04  0.7818609E-02  0.8775310E-01
       -3   -1    0    0    0  501  0.00000000000E+00  0.00000000000E+00  0.10631924159E+04  0.10631924207E+04  0.10100000352E+00 0. -1.
        3   -1    0    0  501    0  0.00000000000E+00  0.00000000000E+00 -0.66031716465E+03  0.66031717238E+03  0.10100000352E+00 0.  1.
    10030    2    1    2    0    0  0.00000000000E+00  0.00000000000E+00  0.40287525128E+03  0.17235095931E+04  0.16757615730E+04 0.  0.
        3    1    3    3  502    0  0.76333515159E+02  0.79236956658E+03  0.47036034341E+03  0.92461624387E+03  0.10100000352E+00 0. -1.
       -3    1    3    3    0  502 -0.76333515159E+02 -0.79236956658E+03 -0.67485092128E+02  0.79889334923E+03  0.10100000352E+00 0.  1.
</event>
<event>
 5   0  0.1007187E-03  0.1734861E+04  0.7818609E-02  0.8741728E-01
       -2   -1    0    0    0  501  0.00000000000E+00  0.00000000000E+00  0.34318790933E+03  0.34318790934E+03  0.25500000920E-02 0.  1.
        2   -1    0    0  501    0  0.00000000000E+00  0.00000000000E+00 -0.21924887384E+04  0.21924887384E+04  0.25500000920E-02 0. -1.
    10030    2    1    2    0    0  0.00000000000E+00  0.00000000000E+00 -0.18493008290E+04  0.25356766477E+04  0.17348609470E+04 0.  0.
        5    1    3    3  502    0 -0.46916780071E+02  0.70952663654E+03 -0.19856457433E+03  0.73829480046E+03  0.46999998093E+01 0.  1.
       -5    1    3    3    0  502  0.46916780071E+02 -0.70952663654E+03 -0.16507362547E+04  0.17973818473E+04  0.46999998093E+01 0. -1.
</event>
<event>
 5   0  0.9625225E-04  0.1713662E+04  0.7818609E-02  0.8753610E-01
       -2   -1    0    0    0  501  0.00000000000E+00  0.00000000000E+00  0.64621839646E+03  0.64621839646E+03  0.25500000920E-02 0.  1.
        2   -1    0    0  501    0  0.00000000000E+00  0.00000000000E+00 -0.11360861248E+04  0.11360861248E+04  0.25500000920E-02 0. -1.
    10030    2    1    2    0    0  0.00000000000E+00  0.00000000000E+00 -0.48986772836E+03  0.17823045213E+04  0.17136624566E+04 0.  0.
        1    1    3    3  502    0 -0.55195742281E+03 -0.23398251069E+03  0.39175948148E+03  0.71615661922E+03  0.50400001928E-02 0.  1.
       -1    1    3    3    0  502  0.55195742281E+03  0.23398251069E+03 -0.88162720983E+03  0.10661479021E+04  0.50400001928E-02 0. -1.
</event>
<event>
 5   0  0.9284971E-04  0.1719245E+04  0.7818609E-02  0.8750464E-01
        2   -1    0    0  501    0  0.00000000000E+00  0.00000000000E+00  0.10052614749E+04  0.10052614749E+04  0.25500000920E-02 0.  1.
       -2   -1    0    0    0  501  0.00000000000E+00  0.00000000000E+00 -0.73508296319E+03  0.73508296319E+03  0.25500000920E-02 0. -1.
    10030    2    1    2    0    0  0.00000000000E+00  0.00000000000E+00  0.27017851171E+03  0.17403444381E+04  0.17192446990E+04 0.  0.
        4    1    3    3  502    0  0.15380560384E+03 -0.59213580471E+03  0.74637791802E+03  0.96507128463E+03  0.12699999809E+01 0.  1.
       -4    1    3    3    0  502 -0.15380560384E+03  0.59213580471E+03 -0.47619940632E+03  0.77527315346E+03  0.12699999809E+01 0. -1.
</event>
<event>
 5   0  0.4947006E-04  0.1714467E+04  0.7818609E-02  0.8753156E-01
       -1   -1    0    0    0  501  0.00000000000E+00  0.00000000000E+00  0.72925244353E+03  0.72925244355E+03  0.50400001928E-02 0.  1.
        1   -1    0    0  501    0  0.00000000000E+00  0.00000000000E+00 -0.10076746799E+04  0.10076746799E+04  0.50400001928E-02 0. -1.
    10030    2    1    2    0    0  0.00000000000E+00  0.00000000000E+00 -0.27842223635E+03  0.17369271234E+04  0.17144669406E+04 0.  0.
        2    1    3    3  502    0 -0.28121646400E+03 -0.80553519471E+03 -0.55181338399E+02  0.85499393545E+03  0.25500000920E-02 0.  1.
       -2    1    3    3    0  502  0.28121646400E+03  0.80553519471E+03 -0.22324089795E+03  0.88193318799E+03  0.25500000920E-02 0. -1.
</event>
<event>
 5   0  0.4947006E-04  0.1654410E+04  0.7818609E-02  0.8787802E-01
        1   -1    0    0  501    0  0.00000000000E+00  0.00000000000E+00  0.82242314089E+03  0.82242314090E+03  0.50400001928E-02 0. -1.
       -1   -1    0    0    0  501  0.00000000000E+00  0.00000000000E+00 -0.83201432438E+03  0.83201432440E+03  0.50400001928E-02 0.  1.
    10030    2    1    2    0    0  0.00000000000E+00  0.00000000000E+00 -0.95911834947E+01  0.16544374653E+04  0.16544096638E+04 0.  0.
        2    1    3    3  502    0  0.36175438329E+03 -0.50574633845E+03  0.54076122849E+03  0.82405600473E+03  0.25500000920E-02 0. -1.
       -2    1    3    3    0  502 -0.36175438329E+03  0.50574633845E+03 -0.55035241198E+03  0.83038146058E+03  0.25500000920E-02 0.  1.
</event>
<event>
 5   0  0.1007187E-03  0.1751906E+04  0.7818609E-02  0.8732302E-01
       -2   -1    0    0    0  501  0.00000000000E+00  0.00000000000E+00  0.60699174409E+03  0.60699174409E+03  0.25500000920E-02 0.  1.
        2   -1    0    0  501    0  0.00000000000E+00  0.00000000000E+00 -0.12640928350E+04  0.12640928350E+04  0.25500000920E-02 0. -1.
    10030    2    1    2    0    0  0.00000000000E+00  0.00000000000E+00 -0.65710109091E+03  0.18710845791E+04  0.17519062927E+04 0.  0.
        5    1    3    3  502    0 -0.78164275013E+03 -0.36547697921E+03 -0.48958212441E+03  0.99209453063E+03  0.46999998093E+01 0. -1.
       -5    1    3    3    0  502  0.78164275013E+03  0.36547697921E+03 -0.16751896650E+03  0.87899004846E+03  0.46999998093E+01 0.  1.
</event>
<event>
 5   0  0.9312096E-04  0.1704260E+04  0.7818609E-02  0.8758939E-01
        2   -1    0    0  501    0  0.00000000000E+00  0.00000000000E+00  0.10163978206E+04  0.10163978206E+04  0.25500000920E-02 0. -1.
       -2   -1    0    0    0  501  0.00000000000E+00  0.00000000000E+00 -0.71441065430E+03  0.71441065431E+03  0.25500000920E-02 0.  1.
    10030    2    1    2    0    0  0.00000000000E+00  0.00000000000E+00  0.30198716629E+03  0.17308084749E+04  0.17042598770E+04 0.  0.
        3    1    3    3  502    0 -0.74091346566E+03  0.26394042901E+03  0.48398558576E+03  0.92350385548E+03  0.10100000352E+00 0.  1.
       -3    1    3    3    0  502  0.74091346566E+03 -0.26394042901E+03 -0.18199841947E+03  0.80730461943E+03  0.10100000352E+00 0. -1.
</event>
<event>
 5   0  0.4947006E-04  0.1674977E+04  0.7818609E-02  0.8775766E-01
        1   -1    0    0  501    0  0.00000000000E+00  0.00000000000E+00  0.11761601151E+04  0.11761601151E+04  0.50400001928E-02 0.  1.
       -1   -1    0    0    0  501  0.00000000000E+00  0.00000000000E+00 -0.59633652872E+03  0.59633652874E+03  0.50400001928E-02 0. -1.
    10030    2    1    2    0    0  0.00000000000E+00  0.00000000000E+00  0.57982358635E+03  0.17724966438E+04  0.16749773016E+04 0.  0.
        2    1    3    3  502    0  0.42356956120E+03 -0.31046535034E+03 -0.40044061198E+03  0.66041849661E+03  0.25500000920E-02 0. -1.
       -2    1    3    3    0  502 -0.42356956120E+03  0.31046535034E+03  0.98026419833E+03  0.11120781472E+04  0.25500000920E-02 0.  1.
</event>
<event>
 5   0  0.9284971E-04  0.1694817E+04  0.7818609E-02  0.8764326E-01
       -2   -1    0    0    0  501  0.00000000000E+00  0.00000000000E+00  0.27750561214E+03  0.27750561215E+03  0.25500000920E-02 0.  1.
        2   -1    0    0  501    0  0.00000000000E+00  0.00000000000E+00 -0.25876994307E+04  0.25876994307E+04  0.25500000920E-02 0. -1.
    10030    2    1    2    0    0  0.00000000000E+00  0.00000000000E+00 -0.23101938185E+04  0.28652050428E+04  0.16948169395E+04 0.  0.
        4    1    3    3  502    0 -0.81894937277E+03  0.20517270441E+03 -0.12784689328E+04  0.15320764794E+04  0.12699999809E+01 0.  1.
       -4    1    3    3    0  502  0.81894937277E+03 -0.20517270441E+03 -0.10317248858E+04  0.13331285634E+04  0.12699999809E+01 0. -1.
</event>
<event>
 5   0  0.5035495E-04  0.1840309E+04  0.7818609E-02  0.8685152E-01
        1   -1    0    0  501    0  0.00000000000E+00  0.00000000000E+00  0.11145843862E+04  0.11145843862E+04  0.50400001928E-02 0. -1.
       -1   -1    0    0    0  501  0.00000000000E+00  0.00000000000E+00 -0.75964163953E+03  0.75964163955E+03  0.50400001928E-02 0.  1.
    10030    2    1    2    0    0  0.00000000000E+00  0.00000000000E+00  0.35494274668E+03  0.18742260258E+04  0.18403094420E+04 0.  0.
        4    1    3    3  502    0 -0.25113268955E+03 -0.51552716411E+03 -0.55540704277E+03  0.79831978602E+03  0.12699999809E+01 0.  1.
       -4    1    3    3    0  502  0.25113268955E+03  0.51552716411E+03  0.91034978944E+03  0.10759062398E+04  0.12699999809E+01 0. -1.
</event>
<event>
 5   0  0.5009762E-04  0.1693317E+04  0.7818609E-02  0.8765185E-01
       -1   -1    0    0    0  501  0.00000000000E+00  0.00000000000E+00  0.38641604230E+03  0.38641604234E+03  0.50400001928E-02 0. -1.
        1   -1    0    0  501    0  0.00000000000E+00  0.00000000000E+00 -0.18550743019E+04  0.18550743019E+04  0.50400001928E-02 0.  1.
    10030    2    1    2    0    0  0.00000000000E+00  0.00000000000E+00 -0.14686582596E+04  0.22414903442E+04  0.16933168279E+04 0.  0.
        3    1    3    3  502    0 -0.33482786577E+03  0.61110339066E+02  0.29186831549E+03  0.44836513806E+03  0.10100000352E+00 0. -1.
       -3    1    3    3    0  502  0.33482786577E+03 -0.61110339066E+02 -0.17605265751E+04  0.17931252061E+04  0.10100000352E+00 0.  1.
</event>
<event>
 5   0  0.9625225E-04  0.1697833E+04  0.7818609E-02  0.8762601E-01
       -2   -1    0    0    0  501  0.00000000000E+00  0.00000000000E+00  0.37376213157E+03  0.37376213158E+03  0.25500000920E-02 0.  1.
        2   -1    0    0  501    0  0.00000000000E+00  0.00000000000E+00 -0.19281229452E+04  0.19281229452E+04  0.25500000920E-02 0. -1.
    10030    2    1    2    0    0  0.00000000000E+00  0.00000000000E+00 -0.15543608136E+04  0.23018850767E+04  0.16978331389E+04 0.  0.
        1    1    3    3  502    0  0.26223898973E+02 -0.68840583642E+03 -0.14497188754E+04  0.16050779128E+04  0.50400001928E-02 0. -1.
       -1    1    3    3    0  502 -0.26223898973E+02  0.68840583642E+03 -0.10464193823E+03  0.69680716396E+03  0.50400001928E-02 0.  1.
</event>
<event>
 5   0  0.4947006E-04  0.1622229E+04  0.7818609E-02  0.8807007E-01
       -1   -1    0    0    0  501  0.00000000000E+00  0.00000000000E+00  0.11510179281E+04  0.11510179281E+04  0.50400001928E-02 0.  1.
        1   -1    0    0  501    0  0.00000000000E+00  0.00000000000E+00 -0.57158721954E+03  0.57158721956E+03  0.50400001928E-02 0. -1.
    10030    2    1    2    0    0  0.00000000000E+00  0.00000000000E+00  0.57943070859E+03  0.17226051477E+04  0.16222294994E+04 0.  0.
        2    1    3    3  502    0  0.45960301678E+03 -0.56152401555E+03 -0.95151002635E+02  0.73184552084E+03  0.25500000920E-02 0. -1.
       -2    1    3    3    0  502 -0.45960301678E+03  0.56152401555E+03  0.67458171122E+03  0.99075962685E+03  0.25500000920E-02 0.  1.
</event>
<event>
 5   0  0.9625225E-04  0.1660633E+04  0.7818609E-02  0.8784141E-01
       -2   -1    0    0    0  501  0.00000000000E+00  0.00000000000E+00  0.37765759493E+03  0.37765759494E+03  0.25500000920E-02 0.  1.
        2   -1    0    0  501    0  0.00000000000E+00  0.00000000000E+00 -0.18255312611E+04  0.18255312611E+04  0.25500000920E-02 0. -1.
    10030    2    1    2    0    0  0.00000000000E+00  0.00000000000E+00 -0.14478736662E+04  0.22031888561E+04  0.16606333076E+04 0.  0.
        1    1    3    3  502    0 -0.61077661183E+03 -0.11914328051E+03  0.53740192919E+01  0.62231187596E+03  0.50400001928E-02 0.  1.
       -1    1    3    3    0  502  0.61077661183E+03  0.11914328051E+03 -0.14532476855E+04  0.15808769801E+04  0.50400001928E-02 0. -1.
</event>
<event>
 5   0  0.9312096E-04  0.1689123E+04  0.7818609E-02  0.8767592E-01
       -2   -1    0    0    0  501  0.00000000000E+00  0.00000000000E+00  0.13910193327E+04  0.13910193327E+04  0.25500000920E-02 0. -1.
        2   -1    0    0  501    0  0.00000000000E+00  0.00000000000E+00 -0.51277805812E+03  0.51277805812E+03  0.25500000920E-02 0.  1.
    10030    2    1    2    0    0  0.00000000000E+00  0.00000000000E+00  0.87824127456E+03  0.19037973908E+04  0.16891230769E+04 0.  0.
        3    1    3    3  502    0 -0.33012940775E+03  0.35866318616E+03 -0.33821308393E+03  0.59330667223E+03  0.10100000352E+00 0.  1.
       -3    1    3    3    0  502  0.33012940775E+03 -0.35866318616E+03  0.12164543585E+04  0.13104907186E+04  0.10100000352E+00 0. -1.
</event>
<event>
 5   0  0.5074133E-04  0.1389992E+04  0.7818609E-02  0.8961095E-01
       -1   -1    0    0    0  501  0.00000000000E+00  0.00000000000E+00  0.93371545995E+03  0.93371545996E+03  0.50400001928E-02 0.  1.
        1   -1    0    0  501    0  0.00000000000E+00  0.00000000000E+00 -0.51730893307E+03  0.51730893309E+03  0.50400001928E-02 0. -1.
    10030    2    1    2    0    0  0.00000000000E+00  0.00000000000E+00  0.41640652688E+03  0.14510243931E+04  0.13899918682E+04 0.  0.
        1    1    3    3  502    0 -0.67742307083E+03 -0.12224301157E+03  0.30818974622E+03  0.75420573485E+03  0.50400001928E-02 0. -1.
       -1    1    3    3    0  502  0.67742307083E+03  0.12224301157E+03  0.10821678065E+03  0.69681865820E+03  0.50400001928E-02 0.  1.
</event>
<event>
 5   0  0.5074133E-04  0.1726115E+04  0.7818609E-02  0.8746608E-01
        1   -1    0    0  501    0  0.00000000000E+00  0.00000000000E+00  0.11962512403E+04  0.11962512403E+04  0.50400001928E-02 0. -1.
       -1   -1    0    0    0  501  0.00000000000E+00  0.00000000000E+00 -0.62266894509E+03  0.62266894511E+03  0.50400001928E-02 0.  1.
    10030    2    1    2    0    0  0.00000000000E+00  0.00000000000E+00  0.57358229525E+03  0.18189201854E+04  0.17261152892E+04 0.  0.
        1    1    3    3  502    0  0.56951695483E+02 -0.83904232154E+03  0.82368891798E+02  0.84499712858E+03  0.50400001928E-02 0.  1.
       -1    1    3    3    0  502 -0.56951695483E+02  0.83904232154E+03  0.49121340345E+03  0.97392305687E+03  0.50400001928E-02 0. -1.
</event>
<event>
 5   0  0.9625225E-04  0.1663446E+04  0.7818609E-02  0.8782491E-01
       -2   -1    0    0    0  501  0.00000000000E+00  0.00000000000E+00  0.83202742212E+03  0.83202742212E+03  0.25500000920E-02 0. -1.
        2   -1    0    0  501    0  0.00000000000E+00  0.00000000000E+00 -0.83141883255E+03  0.83141883255E+03  0.25500000920E-02 0.  1.
    10030    2    1    2    0    0  0.00000000000E+00  0.00000000000E+00  0.60858956775E+00  0.16634462547E+04  0.16634461433E+04 0.  0.
        1    1    3    3  502    0  0.24274775438E+02  0.35331662087E+03 -0.75225231068E+03  0.83144779647E+03  0.50400001928E-02 0.  1.
       -1    1    3    3    0  502 -0.24274775438E+02 -0.35331662087E+03  0.75286090025E+03  0.83199845821E+03  0.50400001928E-02 0. -1.
</event>
<event>
 5   0  0.4947006E-04  0.1742765E+04  0.7818609E-02  0.8737343E-01
       -1   -1    0    0    0  501  0.00000000000E+00  0.00000000000E+00  0.45852344636E+03  0.45852344639E+03  0.50400001928E-02 0.  1.
        1   -1    0    0  501    0  0.00000000000E+00  0.00000000000E+00 -0.16559832323E+04  0.16559832323E+04  0.50400001928E-02 0. -1.
    10030    2    1    2    0    0  0.00000000000E+00  0.00000000000E+00 -0.11974597859E+04  0.21145066787E+04  0.17427646299E+04 0.  0.
        2    1    3    3  502    0  0.13251688469E+03  0.36616627326E+03 -0.15445395597E+04  0.15928719082E+04  0.25500000920E-02 0. -1.
       -2    1    3    3    0  502 -0.13251688469E+03 -0.36616627326E+03  0.34707977379E+03  0.52163477049E+03  0.25500000920E-02 0.  1.
</event>
<event>
 5   0  0.5074133E-04  0.1711219E+04  0.7818609E-02  0.8754992E-01
       -1   -1    0    0    0  501  0.00000000000E+00  0.00000000000E+00  0.82529683941E+03  0.82529683943E+03  0.50400001928E-02 0. -1.
        1   -1    0    0  501    0  0.00000000000E+00  0.00000000000E+00 -0.88703533664E+03  0.88703533665E+03  0.50400001928E-02 0.  1.
    10030    2    1    2    0    0  0.00000000000E+00  0.00000000000E+00 -0.61738497228E+02  0.17123321761E+04  0.17112188169E+04 0.  0.
        1    1    3    3  502    0 -0.52634738619E+03  0.37264773769E+03  0.53177725492E+03  0.83587974986E+03  0.50400001928E-02 0. -1.
       -1    1    3    3    0  502  0.52634738619E+03 -0.37264773769E+03 -0.59351575215E+03  0.87645242622E+03  0.50400001928E-02 0.  1.
</event>
<event>
 5   0  0.9312096E-04  0.1677884E+04  0.7818609E-02  0.8774080E-01
        2   -1    0    0  501    0  0.00000000000E+00  0.00000000000E+00  0.26959675207E+04  0.26959675207E+04  0.25500000920E-02 0. -1.
       -2   -1    0    0    0  501  0.00000000000E+00  0.00000000000E+00 -0.26106519433E+03  0.26106519434E+03  0.25500000920E-02 0.  1.
    10030    2    1    2    0    0  0.00000000000E+00  0.00000000000E+00  0.24349023263E+04  0.29570327150E+04  0.16778835296E+04 0.  0.
        3    1    3    3  502    0  0.14231499909E+03  0.53161028833E+02 -0.23662149585E+03  0.28119281010E+03  0.10100000352E+00 0.  1.
       -3    1    3    3    0  502 -0.14231499909E+03 -0.53161028833E+02  0.26715238222E+04  0.26758399049E+04  0.10100000352E+00 0. -1.
</event>
<event>
 5   0  0.5035495E-04  0.1060329E+04  0.7818609E-02  0.9244744E-01
        1   -1    0    0  501    0  0.00000000000E+00  0.00000000000E+00  0.49735415838E+03  0.49735415840E+03  0.50400001928E-02 0.  1.
       -1   -1    0    0    0  501  0.00000000000E+00  0.00000000000E+00 -0.56513953194E+03  0.56513953197E+03  0.50400001928E-02 0. -1.
    10030    2    1    2    0    0  0.00000000000E+00  0.00000000000E+00 -0.67785373565E+02  0.10624936904E+04  0.10603291872E+04 0.  0.
        4    1    3    3  502    0  0.45756978158E+02 -0.67668514064E+02  0.49100881981E+03  0.49775898071E+03  0.12699999809E+01 0.  1.
       -4    1    3    3    0  502 -0.45756978158E+02  0.67668514064E+02 -0.55879419337E+03  0.56473470966E+03  0.12699999809E+01 0. -1.
</event>
<event>
 5   0  0.5074133E-04  0.1694440E+04  0.7818609E-02  0.8764542E-01
       -1   -1    0    0    0  501  0.00000000000E+00  0.00000000000E+00  0.80653066049E+03  0.80653066051E+03  0.50400001928E-02 0.  1.
        1   -1    0    0  501    0  0.00000000000E+00  0.00000000000E+00 -0.88996242132E+03  0.88996242134E+03  0.50400001928E-02 0. -1.
    10030    2    1    2    0    0  0.00000000000E+00  0.00000000000E+00 -0.83431760832E+02  0.16964930818E+04  0.16944402964E+04 0.  0.
        1    1    3    3  502    0 -0.56234404547E+02  0.61631835422E+03  0.53757937105E+03  0.81975740449E+03  0.50400001928E-02 0.  1.
       -1    1    3    3    0  502  0.56234404547E+02 -0.61631835422E+03 -0.62101113188E+03  0.87673567736E+03  0.50400001928E-02 0. -1.
</event>
<event>
 5   0  0.5035495E-04  0.1694536E+04  0.7818609E-02  0.8764487E-01
        1   -1    0    0  501    0  0.00000000000E+00  0.00000000000E+00  0.68167823785E+03  0.68167823787E+03  0.50400001928E-02 0. -1.
       -1   -1    0    0    0  501  0.00000000000E+00  0.00000000000E+00 -0.10530824031E+04  0.10530824031E+04  0.50400001928E-02 0.  1.
    10030    2    1    2    0    0  0.00000000000E+00  0.00000000000E+00 -0.37140416529E+03  0.17347606410E+04  0.16945363459E+04 0.  0.
        4    1    3    3  502    0 -0.84699149198E+03 -0.15541319278E+02 -0.17032474222E+03  0.86408810362E+03  0.12699999809E+01 0. -1.
       -4    1    3    3    0  502  0.84699149198E+03  0.15541319278E+02 -0.20107942307E+03  0.87067253740E+03  0.12699999809E+01 0.  1.
</event>
<event>
 5   0  0.9610114E-04  0.1732079E+04  0.7818609E-02  0.8743277E-01
       -2   -1    0    0    0  501  0.00000000000E+00  0.00000000000E+00  0.16145040744E+04  0.16145040744E+04  0.25500000920E-02 0.  1.
        2   -1    0    0  501    0  0.00000000000E+00  0.00000000000E+00 -0.46455392484E+03  0.46455392485E+03  0.25500000920E-02 0. -1.
    10030    2    1    2    0    0  0.00000000000E+00  0.00000000000E+00  0.11499501496E+04  0.20790579993E+04  0.17320787562E+04 0.  0.
        2    1    3    3  502    0  0.46708241254E+03 -0.22312908492E+03  0.14083774990E+04  0.15004931684E+04  0.25500000920E-02 0.  1.
       -2    1    3    3    0  502 -0.46708241254E+03  0.22312908492E+03 -0.25842734940E+03  0.57856483091E+03  0.25500000920E-02 0. -1.
</event>
<event>
 5   0  0.9284971E-04  0.1703974E+04  0.7818609E-02  0.8759101E-01
        2   -1    0    0  501    0  0.00000000000E+00  0.00000000000E+00  0.20445762132E+04  0.20445762132E+04  0.25500000920E-02 0. -1.
       -2   -1    0    0    0  501  0.00000000000E+00  0.00000000000E+00 -0.35502813676E+03  0.35502813677E+03  0.25500000920E-02 0.  1.
    10030    2    1    2    0    0  0.00000000000E+00  0.00000000000E+00  0.16895480765E+04  0.23996043500E+04  0.17039742762E+04 0.  0.
        4    1    3    3  502    0 -0.44558297228E+03 -0.25970765365E+03 -0.11022459272E+03  0.52739295055E+03  0.12699999809E+01 0.  1.
       -4    1    3    3    0  502  0.44558297228E+03  0.25970765365E+03  0.17997726692E+04  0.18722113994E+04  0.12699999809E+01 0. -1.
</event>
<event>
 5   0  0.9312096E-04  0.1486379E+04  0.7818609E-02  0.8893562E-01
        2   -1    0    0  501    0  0.00000000000E+00  0.00000000000E+00  0.16456298848E+04  0.16456298848E+04  0.25500000920E-02 0.  1.
       -2   -1    0    0    0  501  0.00000000000E+00  0.00000000000E+00 -0.33563472739E+03  0.33563472740E+03  0.25500000920E-02 0. -1.
    10030    2    1    2    0    0  0.00000000000E+00  0.00000000000E+00  0.13099951574E+04  0.19812646122E+04  0.14863788720E+04 0.  0.
        3    1    3    3  502    0 -0.27226999251E+03 -0.68082109472E+03  0.81651105314E+03  0.10974236292E+04  0.10100000352E+00 0.  1.
       -3    1    3    3    0  502  0.27226999251E+03  0.68082109472E+03  0.49348410423E+03  0.88384098296E+03  0.10100000352E+00 0. -1.
</event>
<event>
 5   0  0.5009762E-04  0.1741034E+04  0.7818609E-02  0.8738301E-01
        1   -1    0    0  501    0  0.00000000000E+00  0.00000000000E+00  0.18251220441E+04  0.18251220441E+04  0.50400001928E-02 0. -1.
       -1   -1    0    0    0  501  0.00000000000E+00  0.00000000000E+00 -0.41520497327E+03  0.41520497330E+03  0.50400001928E-02 0.  1.
    10030    2    1    2    0    0  0.00000000000E+00  0.00000000000E+00  0.14099170709E+04  0.22403270174E+04  0.17410338878E+04 0.  0.
        3    1    3    3  502    0  0.53609903378E+03  0.10791375578E+03 -0.16659338792E+03  0.57166504162E+03  0.10100000352E+00 0.  1.
       -3    1    3    3    0  502 -0.53609903378E+03 -0.10791375578E+03  0.15765104588E+04  0.16686619758E+04  0.10100000352E+00 0. -1.
</event>
<event>
 5   0  0.9312096E-04  0.1663379E+04  0.7818609E-02  0.8782531E-01
       -2   -1    0    0    0  501  0.00000000000E+00  0.00000000000E+00  0.42215222215E+03  0.42215222216E+03  0.25500000920E-02 0. -1.
        2   -1    0    0  501    0  0.00000000000E+00  0.00000000000E+00 -0.16385262813E+04  0.16385262813E+04  0.25500000920E-02 0.  1.
    10030    2    1    2    0    0  0.00000000000E+00  0.00000000000E+00 -0.12163740591E+04  0.20606785034E+04  0.16633791037E+04 0.  0.
        3    1    3    3  502    0  0.54108754421E+03 -0.10280954774E+03  0.16384860307E+03  0.57462327531E+03  0.10100000352E+00 0. -1.
       -3    1    3    3    0  502 -0.54108754421E+03  0.10280954774E+03 -0.13802226622E+04  0.14860552281E+04  0.10100000352E+00 0.  1.
</event>
<event>
 5   0  0.9610114E-04  0.1633595E+04  0.7818609E-02  0.8800171E-01
        2   -1    0    0  501    0  0.00000000000E+00  0.00000000000E+00  0.18291294895E+04  0.18291294895E+04  0.25500000920E-02 0.  1.
       -2   -1    0    0    0  501  0.00000000000E+00  0.00000000000E+00 -0.36474097490E+03  0.36474097491E+03  0.25500000920E-02 0. -1.
    10030    2    1    2    0    0  0.00000000000E+00  0.00000000000E+00  0.14643885146E+04  0.21938704644E+04  0.16335953884E+04 0.  0.
        2    1    3    3  502    0 -0.64388665751E+03  0.29883841634E+03  0.18955431148E+03  0.73472802029E+03  0.25500000920E-02 0. -1.
       -2    1    3    3    0  502  0.64388665751E+03 -0.29883841634E+03  0.12748342031E+04  0.14591424441E+04  0.25500000920E-02 0.  1.
</event>
<event>
 5   0  0.5009762E-04  0.1625626E+04  0.7818609E-02  0.8804958E-01
        1   -1    0    0  501    0  0.00000000000E+00  0.00000000000E+00  0.64405729510E+03  0.64405729512E+03  0.50400001928E-02 0. -1.
       -1   -1    0    0    0  501  0.00000000000E+00  0.00000000000E+00 -0.10257864548E+04  0.10257864548E+04  0.50400001928E-02 0.  1.
    10030    2    1    2    0    0  0.00000000000E+00  0.00000000000E+00 -0.38172915968E+03  0.16698437499E+04  0.16256263402E+04 0.  0.
        3    1    3    3  502    0 -0.46119855930E+02 -0.25906323620E+03 -0.98082392417E+03  0.10155079428E+04  0.10100000352E+00 0.  1.
       -3    1    3    3    0  502  0.46119855930E+02  0.25906323620E+03  0.59909476448E+03  0.65433580713E+03  0.10100000352E+00 0. -1.
</event>
<event>
 5   0  0.1007187E-03  0.1231058E+04  0.7818609E-02  0.9086097E-01
        2   -1    0    0  501    0  0.00000000000E+00  0.00000000000E+00  0.12848233054E+04  0.12848233054E+04  0.25500000920E-02 0. -1.
       -2   -1    0    0    0  501  0.00000000000E+00  0.00000000000E+00 -0.29488578796E+03  0.29488578798E+03  0.25500000920E-02 0.  1.
    10030    2    1    2    0    0  0.00000000000E+00  0.00000000000E+00  0.98993751741E+03  0.15797090934E+04  0.12310582973E+04 0.  0.
        5    1    3    3  502    0  0.30025596201E+03  0.35083099160E+03  0.10171872992E+04  0.11171070311E+04  0.46999998093E+01 0.  1.
       -5    1    3    3    0  502 -0.30025596201E+03 -0.35083099160E+03 -0.27249781748E+02  0.46260206224E+03  0.46999998093E+01 0. -1.
</event>
<event>
 5   0  0.3523125E-04  0.1737864E+04  0.7818609E-02  0.8740059E-01
        3   -1    0    0  501    0  0.00000000000E+00  0.00000000000E+00  0.16950202218E+04  0.16950202248E+04  0.10100000352E+00 0.  1.
       -3   -1    0    0    0  501  0.00000000000E+00  0.00000000000E+00 -0.44544772108E+03  0.44544773253E+03  0.10100000352E+00 0. -1.
    10030    2    1    2    0    0  0.00000000000E+00  0.00000000000E+00  0.12495725007E+04  0.21404679573E+04  0.17378641034E+04 0.  0.
        4    1    3    3  502    0 -0.79582069519E+03  0.79131170187E+02  0.20629347801E+03  0.82592429009E+03  0.12699999809E+01 0. -1.
       -4    1    3    3    0  502  0.79582069519E+03 -0.79131170187E+02  0.10432790227E+04  0.13145436672E+04  0.12699999809E+01 0.  1.
</event>
<event>
 5   0  0.1007187E-03  0.1644014E+04  0.7818609E-02  0.8793956E-01
        2   -1    0    0  501    0  0.00000000000E+00  0.00000000000E+00  0.49803802848E+03  0.49803802849E+03  0.25500000920E-02 0. -1.
       -2   -1    0    0    0  501  0.00000000000E+00  0.00000000000E+00 -0.13567143858E+04  0.13567143858E+04  0.25500000920E-02 0.  1.
    10030    2    1    2    0    0  0.00000000000E+00  0.00000000000E+00 -0.85867635735E+03  0.18547524143E+04  0.16440138174E+04 0.  0.
        5    1    3    3  502    0 -0.25902207527E+03 -0.56515817425E+03 -0.10360219931E+04  0.12082466047E+04  0.46999998093E+01 0.  1.
       -5    1    3    3    0  502  0.25902207527E+03  0.56515817425E+03  0.17734563579E+03  0.64650580966E+03  0.46999998093E+01 0. -1.
</event>
<event>
 5   0  0.9625225E-04  0.1650257E+04  0.7818609E-02  0.8790254E-01
       -2   -1    0    0    0  501  0.00000000000E+00  0.00000000000E+00  0.22736256353E+03  0.22736256354E+03  0.25500000920E-02 0.  1.
        2   -1    0    0  501    0  0.00000000000E+00  0.00000000000E+00 -0.29945000662E+04  0.29945000662E+04  0.25500000920E-02 0. -1.
    10030    2    1    2    0    0  0.00000000000E+00  0.00000000000E+00 -0.27671375027E+04  0.32218626298E+04  0.16502572061E+04 0.  0.
        1    1    3    3  502    0  0.45155346221E+03  0.45453368288E+03 -0.36847261781E+03  0.73910315126E+03  0.50400001928E-02 0.  1.
       -1    1    3    3    0  502 -0.45155346221E+03 -0.45453368288E+03 -0.23986648849E+04  0.24827594785E+04  0.50400001928E-02 0. -1.
</event>
<event>
 5   0  0.9284971E-04  0.1752100E+04  0.7818609E-02  0.8732195E-01
       -2   -1    0    0    0  501  0.00000000000E+00  0.00000000000E+00  0.14194219435E+04  0.14194219436E+04  0.25500000920E-02 0. -1.
        2   -1    0    0  501    0  0.00000000000E+00  0.00000000000E+00 -0.54068732443E+03  0.54068732443E+03  0.25500000920E-02 0.  1.
    10030    2    1    2    0    0  0.00000000000E+00  0.00000000000E+00  0.87873461912E+03  0.19601092680E+04  0.17520998292E+04 0.  0.
        4    1    3    3  502    0 -0.53469005250E+02  0.71165682213E+03 -0.12903439796E+03  0.72523503484E+03  0.12699999809E+01 0.  1.
       -4    1    3    3    0  502  0.53469005250E+02 -0.71165682213E+03  0.10077690171E+04  0.12348742331E+04  0.12699999809E+01 0. -1.
</event>
<event>
 5   0  0.5009762E-04  0.1693903E+04  0.7818609E-02  0.8764849E-01
        1   -1    0    0  501    0  0.00000000000E+00  0.00000000000E+00  0.10410502422E+04  0.10410502422E+04  0.50400001928E-02 0. -1.
       -1   -1    0    0    0  501  0.00000000000E+00  0.00000000000E+00 -0.68904136807E+03  0.68904136809E+03  0.50400001928E-02 0.  1.
    10030    2    1    2    0    0  0.00000000000E+00  0.00000000000E+00  0.35200887414E+03  0.17300916103E+04  0.16939028109E+04 0.  0.
        3    1    3    3  502    0 -0.19817557857E+03  0.63639044096E+03 -0.35771117718E+03  0.75645465810E+03  0.10100000352E+00 0.  1.
       -3    1    3    3    0  502  0.19817557857E+03 -0.63639044096E+03  0.70972005132E+03  0.97363695222E+03  0.10100000352E+00 0. -1.
</event>
<event>
 5   0  0.5035495E-04  0.1781593E+04  0.7818609E-02  0.8716150E-01
       -1   -1    0    0    0  501  0.00000000000E+00  0.00000000000E+00  0.10168226557E+04  0.10168226558E+04  0.50400001928E-02 0.  1.
        1   -1    0    0  501    0  0.00000000000E+00  0.00000000000E+00 -0.78039050417E+03  0.78039050419E+03  0.50400001928E-02 0. -1.
    10030    2    1    2    0    0  0.00000000000E+00  0.00000000000E+00  0.23643215157E+03  0.17972131599E+04  0.17815933823E+04 0.  0.
        4    1    3    3  502    0 -0.15025327282E+03  0.16231214735E+03  0.98868106008E+03  0.10131204917E+04  0.12699999809E+01 0.  1.
       -4    1    3    3    0  502  0.15025327282E+03 -0.16231214735E+03 -0.75224890852E+03  0.78409266827E+03  0.12699999809E+01 0. -1.
</event>
<event>
 5   0  0.9625225E-04  0.1725049E+04  0.7818609E-02  0.8747206E-01
        2   -1    0    0  501    0  0.00000000000E+00  0.00000000000E+00  0.54490742247E+03  0.54490742248E+03  0.25500000920E-02 0. -1.
       -2   -1    0    0    0  501  0.00000000000E+00  0.00000000000E+00 -0.13652751708E+04  0.13652751708E+04  0.25500000920E-02 0.  1.
    10030    2    1    2    0    0  0.00000000000E+00  0.00000000000E+00 -0.82036774832E+03  0.19101825933E+04  0.17250490709E+04 0.  0.
        1    1    3    3  502    0  0.25024868412E+03 -0.37746247628E+03 -0.12230253614E+04  0.13041830238E+04  0.50400001928E-02 0.  1.
       -1    1    3    3    0  502 -0.25024868412E+03  0.37746247628E+03  0.40265761303E+03  0.60599956952E+03  0.50400001928E-02 0. -1.
</event>
<event>
 5   0  0.5074133E-04  0.1704045E+04  0.7818609E-02  0.8759061E-01
        1   -1    0    0  501    0  0.00000000000E+00  0.00000000000E+00  0.87113229915E+03  0.87113229917E+03  0.50400001928E-02 0. -1.
       -1   -1    0    0    0  501  0.00000000000E+00  0.00000000000E+00 -0.83333149814E+03  0.83333149816E+03  0.50400001928E-02 0.  1.
    10030    2    1    2    0    0  0.00000000000E+00  0.00000000000E+00  0.37800801014E+02  0.17044637973E+04  0.17040445815E+04 0.  0.
        1    1    3    3  502    0 -0.70364437922E+03 -0.47520742412E+03  0.89660122172E+02  0.85380117468E+03  0.50400001928E-02 0. -1.
       -1    1    3    3    0  502  0.70364437922E+03  0.47520742412E+03 -0.51859321158E+02  0.85066262265E+03  0.50400001928E-02 0.  1.
</event>
<event>
 5   0  0.9284971E-04  0.1749421E+04  0.7818609E-02  0.8733669E-01
       -2   -1    0    0    0  501  0.00000000000E+00  0.00000000000E+00  0.58234365990E+03  0.58234365990E+03  0.25500000920E-02 0. -1.
        2   -1    0    0  501    0  0.00000000000E+00  0.00000000000E+00 -0.13138610147E+04  0.13138610147E+04  0.25500000920E-02 0.  1.
    10030    2    1    2    0    0  0.00000000000E+00  0.00000000000E+00 -0.73151735476E+03  0.18962046746E+04  0.17494211979E+04 0.  0.
        4    1    3    3  502    0 -0.82897692922E+03  0.36478085094E+02 -0.65801836353E+02  0.83238506380E+03  0.12699999809E+01 0. -1.
       -4    1    3    3    0  502  0.82897692922E+03 -0.36478085094E+02 -0.66571551840E+03  0.10638196108E+04  0.12699999809E+01 0.  1.
</event>
<event>
 5   0  0.1007187E-03  0.1694683E+04  0.7818609E-02  0.8764403E-01
        2   -1    0    0  501    0  0.00000000000E+00  0.00000000000E+00  0.19415957442E+04  0.19415957442E+04  0.25500000920E-02 0. -1.
       -2   -1    0    0    0  501  0.00000000000E+00  0.00000000000E+00 -0.36979261147E+03  0.36979261147E+03  0.25500000920E-02 0.  1.
    10030    2    1    2    0    0  0.00000000000E+00  0.00000000000E+00  0.15718031328E+04  0.23113883557E+04  0.16946831688E+04 0.  0.
        5    1    3    3  502    0 -0.75001985789E+03  0.31309549790E+03  0.11126903797E+04  0.13779189196E+04  0.46999998093E+01 0.  1.
       -5    1    3    3    0  502  0.75001985789E+03 -0.31309549790E+03  0.45911275304E+03  0.93346943605E+03  0.46999998093E+01 0. -1.
</event>
<event>
 5   0  0.1007187E-03  0.1676540E+04  0.7818609E-02  0.8774858E-01
       -2   -1    0    0    0  501  0.00000000000E+00  0.00000000000E+00  0.61701126774E+03  0.61701126775E+03  0.25500000920E-02 0. -1.
        2   -1    0    0  501    0  0.00000000000E+00  0.00000000000E+00 -0.11388721188E+04  0.11388721188E+04  0.25500000920E-02 0.  1.
    10030    2    1    2    0    0  0.00000000000E+00  0.00000000000E+00 -0.52186085105E+03  0.17558833865E+04  0.16765404019E+04 0.  0.
        5    1    3    3  502    0  0.41307256828E+03 -0.29846386508E+03 -0.95798447972E+03  0.10851110445E+04  0.46999998093E+01 0.  1.
       -5    1    3    3    0  502 -0.41307256828E+03  0.29846386508E+03  0.43612362867E+03  0.67077234209E+03  0.46999998093E+01 0. -1.
</event>
<event>
 5   0  0.5035495E-04  0.1765634E+04  0.7818609E-02  0.8724791E-01
       -1   -1    0    0    0  501  0.00000000000E+00  0.00000000000E+00  0.82968868878E+03  0.82968868879E+03  0.50400001928E-02 0.  1.
        1   -1    0    0  501    0  0.00000000000E+00  0.00000000000E+00 -0.93934755003E+03  0.93934755004E+03  0.50400001928E-02 0. -1.
    10030    2    1    2    0    0  0.00000000000E+00  0.00000000000E+00 -0.10965886125E+03  0.17690362388E+04  0.17656342057E+04 0.  0.
        4    1    3    3  502    0 -0.55235958331E+03  0.44294718762E+03  0.47350159760E+03  0.85176798257E+03  0.12699999809E+01 0.  1.
       -4    1    3    3    0  502  0.55235958331E+03 -0.44294718762E+03 -0.58316045885E+03  0.91726825627E+03  0.12699999809E+01 0. -1.
</event>
<event>
 5   0  0.5035495E-04  0.1786661E+04  0.7818609E-02  0.8713425E-01
       -1   -1    0    0    0  501  0.00000000000E+00  0.00000000000E+00  0.79533432077E+03  0.79533432078E+03  0.50400001928E-02 0. -1.
        1   -1    0    0  501    0  0.00000000000E+00  0.00000000000E+00 -0.10034011429E+04  0.10034011429E+04  0.50400001928E-02 0.  1.
    10030    2    1    2    0    0  0.00000000000E+00  0.00000000000E+00 -0.20806682216E+03  0.17987354637E+04  0.17866609824E+04 0.  0.
        4    1    3    3  502    0  0.26543722021E+03  0.40585129606E+03 -0.85934732075E+03  0.98673786943E+03  0.12699999809E+01 0.  1.
       -4    1    3    3    0  502 -0.26543722021E+03 -0.40585129606E+03  0.65128049859E+03  0.81199759429E+03  0.12699999809E+01 0. -1.
</event>
<event>
 5   0  0.5074133E-04  0.1680818E+04  0.7818609E-02  0.8772381E-01
        1   -1    0    0  501    0  0.00000000000E+00  0.00000000000E+00  0.79534455023E+03  0.79534455025E+03  0.50400001928E-02 0. -1.
       -1   -1    0    0    0  501  0.00000000000E+00  0.00000000000E+00 -0.88802682291E+03  0.88802682292E+03  0.50400001928E-02 0.  1.
    10030    2    1    2    0    0  0.00000000000E+00  0.00000000000E+00 -0.92682272676E+02  0.16833713732E+04  0.16808180081E+04 0.  0.
        1    1    3    3  502    0 -0.21283708723E+03  0.73082897224E+03  0.31039750247E+03  0.82204453768E+03  0.50400001928E-02 0. -1.
       -1    1    3    3    0  502  0.21283708723E+03 -0.73082897224E+03 -0.40307977514E+03  0.86132683548E+03  0.50400001928E-02 0.  1.
</event>
<event>
 5   0  0.1007187E-03  0.1721868E+04  0.7818609E-02  0.8748989E-01
       -2   -1    0    0    0  501  0.00000000000E+00  0.00000000000E+00  0.30943173858E+03  0.30943173859E+03  0.25500000920E-02 0. -1.
        2   -1    0    0  501    0  0.00000000000E+00  0.00000000000E+00 -0.23953830498E+04  0.23953830498E+04  0.25500000920E-02 0.  1.
    10030    2    1    2    0    0  0.00000000000E+00  0.00000000000E+00 -0.20859513112E+04  0.27048147884E+04  0.17218682199E+04 0.  0.
        5    1    3    3  502    0  0.50013341850E+02  0.53257997613E+03  0.16677390950E+02  0.53520369085E+03  0.46999998093E+01 0. -1.
       -5    1    3    3    0  502 -0.50013341850E+02 -0.53257997613E+03 -0.21026287022E+04  0.21696110975E+04  0.46999998093E+01 0.  1.
</event>
<event>
 5   0  0.9284971E-04  0.1710306E+04  0.7818609E-02  0.8755508E-01
        2   -1    0    0  501    0  0.00000000000E+00  0.00000000000E+00  0.14003759118E+04  0.14003759118E+04  0.25500000920E-02 0.  1.
       -2   -1    0    0    0  501  0.00000000000E+00  0.00000000000E+00 -0.52220721398E+03  0.52220721399E+03  0.25500000920E-02 0. -1.
    10030    2    1    2    0    0  0.00000000000E+00  0.00000000000E+00  0.87816869781E+03  0.19225831258E+04  0.17103057077E+04 0.  0.
        4    1    3    3  502    0 -0.70943076363E+03 -0.99319494640E+02  0.96409426733E+03  0.12010977227E+04  0.12699999809E+01 0.  1.
       -4    1    3    3    0  502  0.70943076363E+03  0.99319494640E+02 -0.85925569515E+02  0.72148540303E+03  0.12699999809E+01 0. -1.
</event>
<event>
 5   0  0.9625225E-04  0.1381876E+04  0.7818609E-02  0.8967043E-01
       -2   -1    0    0    0  501  0.00000000000E+00  0.00000000000E+00  0.61192160183E+03  0.61192160183E+03  0.25500000920E-02 0. -1.
        2   -1    0    0  501    0  0.00000000000E+00  0.00000000000E+00 -0.78015798382E+03  0.78015798382E+03  0.25500000920E-02 0.  1.
    10030    2    1    2    0    0  0.00000000000E+00  0.00000000000E+00 -0.16823638199E+03  0.13920795857E+04  0.13818762942E+04 0.  0.
        1    1    3    3  502    0 -0.18955314510E+03 -0.61206725969E+03  0.17632272453E+03  0.66456484140E+03  0.50400001928E-02 0. -1.
       -1    1    3    3    0  502  0.18955314510E+03  0.61206725969E+03 -0.34455910652E+03  0.72751474426E+03  0.50400001928E-02 0.  1.
</event>
<event>
 5   0  0.9625225E-04  0.1712358E+04  0.7818609E-02  0.8754347E-01
        2   -1    0    0  501    0  0.00000000000E+00  0.00000000000E+00  0.19915475020E+04  0.19915475020E+04  0.25500000920E-02 0. -1.
       -2   -1    0    0    0  501  0.00000000000E+00  0.00000000000E+00 -0.36807692956E+03  0.36807692956E+03  0.25500000920E-02 0.  1.
    10030    2    1    2    0    0  0.00000000000E+00  0.00000000000E+00  0.16234705724E+04  0.23596244316E+04  0.17123582448E+04 0.  0.
        1    1    3    3  502    0 -0.71796286720E+03  0.41676996333E+02  0.17154477922E+03  0.73934786265E+03  0.50400001928E-02 0.  1.
       -1    1    3    3    0  502  0.71796286720E+03 -0.41676996333E+02  0.14519257932E+04  0.16202765689E+04  0.50400001928E-02 0. -1.
</event>
<event>
 5   0  0.4947006E-04  0.1635596E+04  0.7818609E-02  0.8798974E-01
        1   -1    0    0  501    0  0.00000000000E+00  0.00000000000E+00  0.91712717065E+03  0.91712717066E+03  0.50400001928E-02 0.  1.
       -1   -1    0    0    0  501  0.00000000000E+00  0.00000000000E+00 -0.72922624580E+03  0.72922624582E+03  0.50400001928E-02 0. -1.
    10030    2    1    2    0    0  0.00000000000E+00  0.00000000000E+00  0.18790092485E+03  0.16463534165E+04  0.16355955534E+04 0.  0.
        2    1    3    3  502    0 -0.97931475390E+02 -0.17129062937E+03  0.89280904182E+03  0.91435170408E+03  0.25500000920E-02 0.  1.
       -2    1    3    3    0  502  0.97931475390E+02  0.17129062937E+03 -0.70490811697E+03  0.73200171240E+03  0.25500000920E-02 0. -1.
</event>
<event>
 5   0  0.5059689E-04  0.1830271E+04  0.7818609E-02  0.8690365E-01
        1   -1    0    0  501    0  0.00000000000E+00  0.00000000000E+00  0.20865590771E+04  0.20865590771E+04  0.50400001928E-02 0.  1.
       -1   -1    0    0    0  501  0.00000000000E+00  0.00000000000E+00 -0.40136569201E+03  0.40136569204E+03  0.50400001928E-02 0. -1.
    10030    2    1    2    0    0  0.00000000000E+00  0.00000000000E+00  0.16851933851E+04  0.24879247692E+04  0.18302712673E+04 0.  0.
        5    1    3    3  502    0 -0.60196768412E+03 -0.63380137777E+03  0.47436926318E+03  0.99454389900E+03  0.46999998093E+01 0. -1.
       -5    1    3    3    0  502  0.60196768412E+03  0.63380137777E+03  0.12108241219E+04  0.14933808702E+04  0.46999998093E+01 0.  1.
</event>
<event>
 5   0  0.1007187E-03  0.2288445E+04  0.7818609E-02  0.8482491E-01
       -2   -1    0    0    0  501  0.00000000000E+00  0.00000000000E+00  0.80445683263E+03  0.80445683263E+03  0.25500000920E-02 0. -1.
        2   -1    0    0  501    0  0.00000000000E+00  0.00000000000E+00 -0.16274889323E+04  0.16274889323E+04  0.25500000920E-02 0.  1.
    10030    2    1    2    0    0  0.00000000000E+00  0.00000000000E+00 -0.82303209963E+03  0.24319457649E+04  0.22884445299E+04 0.  0.
        5    1    3    3  502    0  0.80544557338E+03 -0.40532285425E+03  0.33706520786E+03  0.96263400740E+03  0.46999998093E+01 0. -1.
       -5    1    3    3    0  502 -0.80544557338E+03  0.40532285425E+03 -0.11600973075E+04  0.14693117575E+04  0.46999998093E+01 0.  1.
</event>
<event>
 5   0  0.5035495E-04  0.1728928E+04  0.7818609E-02  0.8745035E-01
        1   -1    0    0  501    0  0.00000000000E+00  0.00000000000E+00  0.95778710852E+03  0.95778710854E+03  0.50400001928E-02 0.  1.
       -1   -1    0    0    0  501  0.00000000000E+00  0.00000000000E+00 -0.78023396505E+03  0.78023396507E+03  0.50400001928E-02 0. -1.
    10030    2    1    2    0    0  0.00000000000E+00  0.00000000000E+00  0.17755314347E+03  0.17380210736E+04  0.17289280302E+04 0.  0.
        4    1    3    3  502    0 -0.19129995770E+02  0.81422426513E+03 -0.20252203969E+03  0.83925198845E+03  0.12699999809E+01 0.  1.
       -4    1    3    3    0  502  0.19129995770E+02 -0.81422426513E+03  0.38007518316E+03  0.89876908515E+03  0.12699999809E+01 0. -1.
</event>
<event>
 5   0  0.9610114E-04  0.1677905E+04  0.7818609E-02  0.8774067E-01
       -2   -1    0    0    0  501  0.00000000000E+00  0.00000000000E+00  0.55110426780E+03  0.55110426781E+03  0.25500000920E-02 0. -1.
        2   -1    0    0  501    0  0.00000000000E+00  0.00000000000E+00 -0.12771473384E+04  0.12771473384E+04  0.25500000920E-02 0.  1.
    10030    2    1    2    0    0  0.00000000000E+00  0.00000000000E+00 -0.72604307063E+03  0.18282516062E+04  0.16779050615E+04 0.  0.
        2    1    3    3  502    0  0.66300078758E+03 -0.36503080807E+03  0.31384632195E+02  0.75749754476E+03  0.25500000920E-02 0. -1.
       -2    1    3    3    0  502 -0.66300078758E+03  0.36503080807E+03 -0.75742770282E+03  0.10707540615E+04  0.25500000920E-02 0.  1.
</event>
<event>
 5   0  0.5074133E-04  0.1448983E+04  0.7818609E-02  0.8919106E-01
        1   -1    0    0  501    0  0.00000000000E+00  0.00000000000E+00  0.13004491642E+04  0.13004491642E+04  0.50400001928E-02 0.  1.
       -1   -1    0    0    0  501  0.00000000000E+00  0.00000000000E+00 -0.40362038852E+03  0.40362038855E+03  0.50400001928E-02 0. -1.
    10030    2    1    2    0    0  0.00000000000E+00  0.00000000000E+00  0.89682877571E+03  0.17040695528E+04  0.14489828114E+04 0.  0.
        1    1    3    3  502    0 -0.58712587197E+03  0.36372113019E+03  0.70574523062E+03  0.98746452121E+03  0.50400001928E-02 0.  1.
       -1    1    3    3    0  502  0.58712587197E+03 -0.36372113019E+03  0.19108354510E+03  0.71660503160E+03  0.50400001928E-02 0. -1.
</event>
<event>
 5   0  0.9312096E-04  0.1687601E+04  0.7818609E-02  0.8768468E-01
       -2   -1    0    0    0  501  0.00000000000E+00  0.00000000000E+00  0.39367383294E+03  0.39367383295E+03  0.25500000920E-02 0. -1.
        2   -1    0    0  501    0  0.00000000000E+00  0.00000000000E+00 -0.18086016888E+04  0.18086016888E+04  0.25500000920E-02 0.  1.
    10030    2    1    2    0    0  0.00000000000E+00  0.00000000000E+00 -0.14149278558E+04  0.22022755217E+04  0.16876008522E+04 0.  0.
        3    1    3    3  502    0 -0.40855338246E+03  0.57715767747E+03 -0.13082799001E+04  0.14871527017E+04  0.10100000352E+00 0.  1.
       -3    1    3    3    0  502  0.40855338246E+03 -0.57715767747E+03 -0.10664795568E+03  0.71512281997E+03  0.10100000352E+00 0. -1.
</event>
<event>
 5   0  0.1007187E-03  0.1739485E+04  0.7818609E-02  0.8739159E-01
        2   -1    0    0  501    0  0.00000000000E+00  0.00000000000E+00  0.19353836440E+04  0.19353836440E+04  0.25500000920E-02 0.  1.
       -2   -1    0    0    0  501  0.00000000000E+00  0.00000000000E+00 -0.39085397080E+03  0.39085397081E+03  0.25500000920E-02 0. -1.
    10030    2    1    2    0    0  0.00000000000E+00  0.00000000000E+00  0.15445296732E+04  0.23262376148E+04  0.17394854208E+04 0.  0.
        5    1    3    3  502    0  0.45756327869E+03 -0.55132018336E+03  0.11288349799E+03  0.72531570554E+03  0.46999998093E+01 0. -1.
       -5    1    3    3    0  502 -0.45756327869E+03  0.55132018336E+03  0.14316461752E+04  0.16009219093E+04  0.46999998093E+01 0.  1.
</event>
<event>
 5   0  0.5074133E-04  0.1602693E+04  0.7818609E-02  0.8818895E-01
        1   -1    0    0  501    0  0.00000000000E+00  0.00000000000E+00  0.22967950338E+04  0.22967950338E+04  0.50400001928E-02 0.  1.
       -1   -1    0    0    0  501  0.00000000000E+00  0.00000000000E+00 -0.27958784216E+03  0.27958784220E+03  0.50400001928E-02 0. -1.
    10030    2    1    2    0    0  0.00000000000E+00  0.00000000000E+00  0.20172071916E+04  0.25763828760E+04  0.16026926935E+04 0.  0.
        1    1    3    3  502    0 -0.78534510923E+03 -0.53971059812E+02  0.12496058598E+04  0.14768868003E+04  0.50400001928E-02 0.  1.
       -1    1    3    3    0  502  0.78534510923E+03  0.53971059812E+02  0.76760133179E+03  0.10994960757E+04  0.50400001928E-02 0. -1.
</event>
<event>
 5   0  0.5035495E-04  0.1706477E+04  0.7818609E-02  0.8757679E-01
       -1   -1    0    0    0  501  0.00000000000E+00  0.00000000000E+00  0.89121360202E+03  0.89121360204E+03  0.50400001928E-02 0. -1.
        1   -1    0    0  501    0  0.00000000000E+00  0.00000000000E+00 -0.81688192443E+03  0.81688192444E+03  0.50400001928E-02 0.  1.
    10030    2    1    2    0    0  0.00000000000E+00  0.00000000000E+00  0.74331677595E+02  0.17080955265E+04  0.17064774037E+04 0.  0.
        4    1    3    3  502    0 -0.15982038000E+03  0.53783198201E+03  0.68058861998E+03  0.88204777494E+03  0.12699999809E+01 0. -1.
       -4    1    3    3    0  502  0.15982038000E+03 -0.53783198201E+03 -0.60625694238E+03  0.82604775154E+03  0.12699999809E+01 0.  1.
</event>
<event>
 5   0  0.3523125E-04  0.1705905E+04  0.7818609E-02  0.8758003E-01
        3   -1    0    0  501    0  0.00000000000E+00  0.00000000000E+00  0.10500492459E+04  0.10500492507E+04  0.10100000352E+00 0.  1.
       -3   -1    0    0    0  501  0.00000000000E+00  0.00000000000E+00 -0.69285155285E+03  0.69285156021E+03  0.10100000352E+00 0. -1.
    10030    2    1    2    0    0  0.00000000000E+00  0.00000000000E+00  0.35719769301E+03  0.17429008109E+04  0.17059053446E+04 0.  0.
        2    1    3    3  502    0  0.27892973438E+03  0.18274677600E+03  0.98069128882E+03  0.10358347285E+04  0.25500000920E-02 0.  1.
       -2    1    3    3    0  502 -0.27892973438E+03 -0.18274677600E+03 -0.62349359581E+03  0.70706608240E+03  0.25500000920E-02 0. -1.
</event>
<event>
 5   0  0.5059689E-04  0.1682208E+04  0.7818609E-02  0.8771577E-01
       -1   -1    0    0    0  501  0.00000000000E+00  0.00000000000E+00  0.69782454687E+03  0.69782454688E+03  0.50400001928E-02 0.  1.
        1   -1    0    0  501    0  0.00000000000E+00  0.00000000000E+00 -0.10138025164E+04  0.10138025164E+04  0.50400001928E-02 0. -1.
    10030    2    1    2    0    0  0.00000000000E+00  0.00000000000E+00 -0.31597796953E+03  0.17116270633E+04  0.16822084076E+04 0.  0.
        5    1    3    3  502    0  0.97448524412E+02 -0.83321941700E+03 -0.96236761164E+02  0.84441365217E+03  0.46999998093E+01 0. -1.
       -5    1    3    3    0  502 -0.97448524412E+02  0.83321941700E+03 -0.21974120836E+03  0.86721341112E+03  0.46999998093E+01 0.  1.
</event>
<event>
 5   0  0.1007187E-03  0.1586194E+04  0.7818609E-02  0.8829075E-01
       -2   -1    0    0    0  501  0.00000000000E+00  0.00000000000E+00  0.97472027785E+03  0.97472027785E+03  0.25500000920E-02 0. -1.
        2   -1    0    0  501    0  0.00000000000E+00  0.00000000000E+00 -0.64531640967E+03  0.64531640968E+03  0.25500000920E-02 0.  1.
    10030    2    1    2    0    0  0.00000000000E+00  0.00000000000E+00  0.32940386817E+03  0.16200366875E+04  0.15861941749E+04 0.  0.
        5    1    3    3  502    0  0.39312957755E+03 -0.18939978666E+03  0.84106813516E+03  0.94754463848E+03  0.46999998093E+01 0. -1.
       -5    1    3    3    0  502 -0.39312957755E+03  0.18939978666E+03 -0.51166426698E+03  0.67249204905E+03  0.46999998093E+01 0.  1.
</event>
<event>
 5   0  0.1007187E-03  0.1689915E+04  0.7818609E-02  0.8767137E-01
       -2   -1    0    0    0  501  0.00000000000E+00  0.00000000000E+00  0.49849396597E+03  0.49849396598E+03  0.25500000920E-02 0.  1.
        2   -1    0    0  501    0  0.00000000000E+00  0.00000000000E+00 -0.14322208186E+04  0.14322208186E+04  0.25500000920E-02 0. -1.
    10030    2    1    2    0    0  0.00000000000E+00  0.00000000000E+00 -0.93372685260E+03  0.19307147845E+04  0.16899153068E+04 0.  0.
        5    1    3    3  502    0 -0.67443182508E+03  0.47557706910E+03 -0.67409117160E+03  0.10655762915E+04  0.46999998093E+01 0. -1.
       -5    1    3    3    0  502  0.67443182508E+03 -0.47557706910E+03 -0.25963568100E+03  0.86513849307E+03  0.46999998093E+01 0.  1.
</event>
<event>
 5   0  0.9312096E-04  0.1679409E+04  0.7818609E-02  0.8773196E-01
       -2   -1    0    0    0  501  0.00000000000E+00  0.00000000000E+00  0.35243130887E+03  0.35243130888E+03  0.25500000920E-02 0.  1.
        2   -1    0    0  501    0  0.00000000000E+00  0.00000000000E+00 -0.20006834788E+04  0.20006834788E+04  0.25500000920E-02 0. -1.
    10030    2    1    2    0    0  0.00000000000E+00  0.00000000000E+00 -0.16482521700E+04  0.23531147877E+04  0.16794088211E+04 0.  0.
        3    1    3    3  502    0  0.53530025919E+03  0.50722937698E+02 -0.17278279002E+04  0.18095602910E+04  0.10100000352E+00 0. -1.
       -3    1    3    3    0  502 -0.53530025919E+03 -0.50722937698E+02  0.79575730186E+02  0.54355449674E+03  0.10100000352E+00 0.  1.
</event>
<event>
 5   0  0.1007187E-03  0.1641480E+04  0.7818609E-02  0.8795463E-01
       -2   -1    0    0    0  501  0.00000000000E+00  0.00000000000E+00  0.85095485075E+03  0.85095485076E+03  0.25500000920E-02 0.  1.
        2   -1    0    0  501    0  0.00000000000E+00  0.00000000000E+00 -0.79159807369E+03  0.79159807369E+03  0.25500000920E-02 0. -1.
    10030    2    1    2    0    0  0.00000000000E+00  0.00000000000E+00  0.59356777062E+02  0.16425529245E+04  0.16414800890E+04 0.  0.
        5    1    3    3  502    0 -0.70106581845E+03 -0.16455287169E+03  0.42366303851E+03  0.83551384763E+03  0.46999998093E+01 0.  1.
       -5    1    3    3    0  502  0.70106581845E+03  0.16455287169E+03 -0.36430626145E+03  0.80703907682E+03  0.46999998093E+01 0. -1.
</event>
<event>
 5   0  0.4947006E-04  0.1648357E+04  0.7818609E-02  0.8791379E-01
       -1   -1    0    0    0  501  0.00000000000E+00  0.00000000000E+00  0.75920968725E+03  0.75920968727E+03  0.50400001928E-02 0. -1.
        1   -1    0    0  501    0  0.00000000000E+00  0.00000000000E+00 -0.89470688613E+03  0.89470688614E+03  0.50400001928E-02 0.  1.
    10030    2    1    2    0    0  0.00000000000E+00  0.00000000000E+00 -0.13549719887E+03  0.16539165734E+04  0.16483569216E+04 0.  0.
        2    1    3    3  502    0  0.54965621881E+03 -0.22827690610E+03 -0.63979241976E+03  0.87382300560E+03  0.25500000920E-02 0.  1.
       -2    1    3    3    0  502 -0.54965621881E+03  0.22827690610E+03  0.50429522088E+03  0.78009356781E+03  0.25500000920E-02 0. -1.
</event>
<event>
 5   0  0.9312096E-04  0.1627884E+04  0.7818609E-02  0.8803599E-01
        2   -1    0    0  501    0  0.00000000000E+00  0.00000000000E+00  0.13127707919E+04  0.13127707919E+04  0.25500000920E-02 0.  1.
       -2   -1    0    0    0  501  0.00000000000E+00  0.00000000000E+00 -0.50465868431E+03  0.50465868431E+03  0.25500000920E-02 0. -1.
    10030    2    1    2    0    0  0.00000000000E+00  0.00000000000E+00  0.80811210758E+03  0.18174294762E+04  0.16278835101E+04 0.  0.
        3    1    3    3  502    0 -0.80112605782E+02 -0.79754549537E+03  0.56196116201E+03  0.97892655731E+03  0.10100000352E+00 0.  1.
       -3    1    3    3    0  502  0.80112605782E+02  0.79754549537E+03  0.24615094556E+03  0.83850291889E+03  0.10100000352E+00 0. -1.
</event>
<event>
 5   0  0.9284971E-04  0.1764006E+04  0.7818609E-02  0.8725679E-01
        2   -1    0    0  501    0  0.00000000000E+00  0.00000000000E+00  0.12446363007E+04  0.12446363007E+04  0.25500000920E-02 0. -1.
       -2   -1    0    0    0  501  0.00000000000E+00  0.00000000000E+00 -0.62502507586E+03  0.62502507587E+03  0.25500000920E-02 0.  1.
    10030    2    1    2    0    0  0.00000000000E+00  0.00000000000E+00  0.61961122481E+03  0.18696613765E+04  0.17640055536E+04 0.  0.
        4    1    3    3  502    0 -0.69552226143E+03  0.30022003157E+03 -0.16896217757E+03  0.77616564846E+03  0.12699999809E+01 0.  1.
       -4    1    3    3    0  502  0.69552226143E+03 -0.30022003157E+03  0.78857340238E+03  0.10934957281E+04  0.12699999809E+01 0. -1.
</event>
<event>
 5   0  0.9312096E-04  0.1338219E+04  0.7818609E-02  0.8999795E-01
       -2   -1    0    0    0  501  0.00000000000E+00  0.00000000000E+00  0.32749332242E+03  0.32749332243E+03  0.25500000920E-02 0. -1.
        2   -1    0    0  501    0  0.00000000000E+00  0.00000000000E+00 -0.13670730015E+04  0.13670730015E+04  0.25500000920E-02 0.  1.
    10030    2    1    2    0    0  0.00000000000E+00  0.00000000000E+00 -0.10395796791E+04  0.16945663240E+04  0.13382186358E+04 0.  0.
        3    1    3    3  502    0 -0.62776091259E+03  0.22405645021E+03 -0.44571256340E+03  0.80183836004E+03  0.10100000352E+00 0. -1.
       -3    1    3    3    0  502  0.62776091259E+03 -0.22405645021E+03 -0.59386711571E+03  0.89272796393E+03  0.10100000352E+00 0.  1.
</event>
<event>
 5   0  0.4947006E-04  0.1736451E+04  0.7818609E-02  0.8740844E-01
       -1   -1    0    0    0  501  0.00000000000E+00  0.00000000000E+00  0.48197239216E+03  0.48197239218E+03  0.50400001928E-02 0.  1.
        1   -1    0    0  501    0  0.00000000000E+00  0.00000000000E+00 -0.15640218053E+04  0.15640218053E+04  0.50400001928E-02 0. -1.
    10030    2    1    2    0    0  0.00000000000E+00  0.00000000000E+00 -0.10820494131E+04  0.20459941974E+04  0.17364507835E+04 0.  0.
        2    1    3    3  502    0  0.55397581624E+03 -0.31954469796E+03 -0.12329137449E+04  0.13889112000E+04  0.25500000920E-02 0. -1.
       -2    1    3    3    0  502 -0.55397581624E+03  0.31954469796E+03  0.15086433181E+03  0.65708299749E+03  0.25500000920E-02 0.  1.
</event>
<event>
 5   0  0.9610114E-04  0.1605846E+04  0.7818609E-02  0.8816965E-01
       -2   -1    0    0    0  501  0.00000000000E+00  0.00000000000E+00  0.36650474052E+03  0.36650474052E+03  0.25500000920E-02 0. -1.
        2   -1    0    0  501    0  0.00000000000E+00  0.00000000000E+00 -0.17590095276E+04  0.17590095276E+04  0.25500000920E-02 0.  1.
    10030    2    1    2    0    0  0.00000000000E+00  0.00000000000E+00 -0.13925047871E+04  0.21255142682E+04  0.16058459833E+04 0.  0.
        2    1    3    3  502    0  0.15987576686E+02 -0.76643149841E+03 -0.38021015835E+03  0.85570591262E+03  0.25500000920E-02 0. -1.
       -2    1    3    3    0  502 -0.15987576686E+02  0.76643149841E+03 -0.10122946288E+04  0.12698083555E+04  0.25500000920E-02 0.  1.
</event>
<event>
 5   0  0.5035495E-04  0.1735085E+04  0.7818609E-02  0.8741603E-01
       -1   -1    0    0    0  501  0.00000000000E+00  0.00000000000E+00  0.10604319711E+04  0.10604319711E+04  0.50400001928E-02 0. -1.
        1   -1    0    0  501    0  0.00000000000E+00  0.00000000000E+00 -0.70973938531E+03  0.70973938533E+03  0.50400001928E-02 0.  1.
    10030    2    1    2    0    0  0.00000000000E+00  0.00000000000E+00  0.35069258578E+03  0.17701713564E+04  0.17350853989E+04 0.  0.
        4    1    3    3  502    0 -0.45162156947E+03 -0.44596403664E+03 -0.42803751727E+03  0.76554796915E+03  0.12699999809E+01 0.  1.
       -4    1    3    3    0  502  0.45162156947E+03  0.44596403664E+03  0.77873010305E+03  0.10046233873E+04  0.12699999809E+01 0. -1.
</event>
<event>
 5   0  0.5035495E-04  0.1636899E+04  0.7818609E-02  0.8798195E-01
       -1   -1    0    0    0  501  0.00000000000E+00  0.00000000000E+00  0.41943918966E+03  0.41943918969E+03  0.50400001928E-02 0.  1.
        1   -1    0    0  501    0  0.00000000000E+00  0.00000000000E+00 -0.15970369192E+04  0.15970369192E+04  0.50400001928E-02 0. -1.
    10030    2    1    2    0    0  0.00000000000E+00  0.00000000000E+00 -0.11775977296E+04  0.20164761089E+04  0.16368993510E+04 0.  0.
        4    1    3    3  502    0 -0.12758149556E+03  0.80052440939E+03 -0.72785432161E+03  0.10894447643E+04  0.12699999809E+01 0. -1.
       -4    1    3    3    0  502  0.12758149556E+03 -0.80052440939E+03 -0.44974340796E+03  0.92703134464E+03  0.12699999809E+01 0.  1.
</event>
<event>
 5   0  0.9284971E-04  0.1838876E+04  0.7818609E-02  0.8685895E-01
        2   -1    0    0  501    0  0.00000000000E+00  0.00000000000E+00  0.73935831100E+03  0.73935831101E+03  0.25500000920E-02 0.  1.
       -2   -1    0    0    0  501  0.00000000000E+00  0.00000000000E+00 -0.11433776832E+04  0.11433776833E+04  0.25500000920E-02 0. -1.
    10030    2    1    2    0    0  0.00000000000E+00  0.00000000000E+00 -0.40401937224E+03  0.18827359943E+04  0.18388755181E+04 0.  0.
        4    1    3    3  502    0 -0.62214746158E+03  0.48257999032E+03 -0.68811104283E+03  0.10456812761E+04  0.12699999809E+01 0. -1.
       -4    1    3    3    0  502  0.62214746158E+03 -0.48257999032E+03  0.28409167058E+03  0.83705471817E+03  0.12699999809E+01 0.  1.
</event>
<event>
 5   0  0.5009762E-04  0.1667507E+04  0.7818609E-02  0.8780116E-01
        1   -1    0    0  501    0  0.00000000000E+00  0.00000000000E+00  0.59890352855E+03  0.59890352857E+03  0.50400001928E-02 0.  1.
       -1   -1    0    0    0  501  0.00000000000E+00  0.00000000000E+00 -0.11606957784E+04  0.11606957784E+04  0.50400001928E-02 0. -1.
    10030    2    1    2    0    0  0.00000000000E+00  0.00000000000E+00 -0.56179224985E+03  0.17595993070E+04  0.16675068783E+04 0.  0.
        3    1    3    3  502    0  0.16645830597E+03  0.51183645296E+03 -0.95282001703E+03  0.10943266959E+04  0.10100000352E+00 0. -1.
       -3    1    3    3    0  502 -0.16645830597E+03 -0.51183645296E+03  0.39102776718E+03  0.66527261113E+03  0.10100000352E+00 0.  1.
</event>
<event>
 5   0  0.4947006E-04  0.1684659E+04  0.7818609E-02  0.8770163E-01
        1   -1    0    0  501    0  0.00000000000E+00  0.00000000000E+00  0.90676443390E+03  0.90676443391E+03  0.50400001928E-02 0. -1.
       -1   -1    0    0    0  501  0.00000000000E+00  0.00000000000E+00 -0.78247326695E+03  0.78247326697E+03  0.50400001928E-02 0.  1.
    10030    2    1    2    0    0  0.00000000000E+00  0.00000000000E+00  0.12429116694E+03  0.16892377009E+04  0.16846589316E+04 0.  0.
        2    1    3    3  502    0 -0.76302559563E+03  0.29917977374E+03  0.25710224299E+03  0.85896342178E+03  0.25500000920E-02 0. -1.
       -2    1    3    3    0  502  0.76302559563E+03 -0.29917977374E+03 -0.13281107604E+03  0.83027427910E+03  0.25500000920E-02 0.  1.
</event>
<event>
 5   0  0.9625225E-04  0.1454352E+04  0.7818609E-02  0.8915389E-01
       -2   -1    0    0    0  501  0.00000000000E+00  0.00000000000E+00  0.10824257753E+04  0.10824257753E+04  0.25500000920E-02 0.  1.
        2   -1    0    0  501    0  0.00000000000E+00  0.00000000000E+00 -0.48851853526E+03  0.48851853526E+03  0.25500000920E-02 0. -1.
    10030    2    1    2    0    0  0.00000000000E+00  0.00000000000E+00  0.59390724007E+03  0.15709443106E+04  0.14543521641E+04 0.  0.
        1    1    3    3  502    0  0.62194342464E+03 -0.73456756523E+02 -0.10223455199E+03  0.63455608277E+03  0.50400001928E-02 0. -1.
       -1    1    3    3    0  502 -0.62194342464E+03  0.73456756523E+02  0.69614179206E+03  0.93638822783E+03  0.50400001928E-02 0.  1.
</event>
<event>
 5   0  0.9312096E-04  0.1682743E+04  0.7818609E-02  0.8771269E-01
        2   -1    0    0  501    0  0.00000000000E+00  0.00000000000E+00  0.13414044905E+04  0.13414044905E+04  0.25500000920E-02 0.  1.
       -2   -1    0    0    0  501  0.00000000000E+00  0.00000000000E+00 -0.52773463795E+03  0.52773463795E+03  0.25500000920E-02 0. -1.
    10030    2    1    2    0    0  0.00000000000E+00  0.00000000000E+00  0.81366985255E+03  0.18691391285E+04  0.16827425390E+04 0.  0.
        3    1    3    3  502    0 -0.14954995091E+03 -0.36559528977E+03  0.12320107201E+04  0.12937834164E+04  0.10100000352E+00 0.  1.
       -3    1    3    3    0  502  0.14954995091E+03  0.36559528977E+03 -0.41834086760E+03  0.57535571208E+03  0.10100000352E+00 0. -1.
</event>
<event>
 5   0  0.9284971E-04  0.1710544E+04  0.7818609E-02  0.8755373E-01
       -2   -1    0    0    0  501  0.00000000000E+00  0.00000000000E+00  0.89388988917E+03  0.89388988918E+03  0.25500000920E-02 0. -1.
        2   -1    0    0  501    0  0.00000000000E+00  0.00000000000E+00 -0.81832285976E+03  0.81832285976E+03  0.25500000920E-02 0.  1.
    10030    2    1    2    0    0  0.00000000000E+00  0.00000000000E+00  0.75567029415E+02  0.17122127489E+04  0.17105443934E+04 0.  0.
        4    1    3    3  502    0 -0.47235689947E+03  0.12930988669E+03  0.73964271688E+03  0.88708232358E+03  0.12699999809E+01 0. -1.
       -4    1    3    3    0  502  0.47235689947E+03 -0.12930988669E+03 -0.66407568747E+03  0.82513042536E+03  0.12699999809E+01 0.  1.
</event>
<event>
 5   0  0.5074133E-04  0.1691352E+04  0.7818609E-02  0.8766312E-01
       -1   -1    0    0    0  501  0.00000000000E+00  0.00000000000E+00  0.56775591368E+03  0.56775591370E+03  0.50400001928E-02 0.  1.
        1   -1    0    0  501    0  0.00000000000E+00  0.00000000000E+00 -0.12596396395E+04  0.12596396395E+04  0.50400001928E-02 0. -1.
    10030    2    1    2    0    0  0.00000000000E+00  0.00000000000E+00 -0.69188372578E+03  0.18273955532E+04  0.16913519497E+04 0.  0.
        1    1    3    3  502    0  0.25698471460E+03  0.77255624927E+03 -0.59298973650E+03  0.10072343965E+04  0.50400001928E-02 0. -1.
       -1    1    3    3    0  502 -0.25698471460E+03 -0.77255624927E+03 -0.98893989281E+02  0.82016115670E+03  0.50400001928E-02 0.  1.
</event>
<event>
 5   0  0.9284971E-04  0.1699516E+04  0.7818609E-02  0.8761641E-01
        2   -1    0    0  501    0  0.00000000000E+00  0.00000000000E+00  0.15432977123E+04  0.15432977123E+04  0.25500000920E-02 0.  1.
       -2   -1    0    0    0  501  0.00000000000E+00  0.00000000000E+00 -0.46788675504E+03  0.46788675505E+03  0.25500000920E-02 0. -1.
    10030    2    1    2    0    0  0.00000000000E+00  0.00000000000E+00  0.10754109573E+04  0.20111844674E+04  0.16995158825E+04 0.  0.
        4    1    3    3  502    0 -0.55707727230E+03  0.22751493362E+03 -0.17231550100E+03  0.62593320499E+03  0.12699999809E+01 0. -1.
       -4    1    3    3    0  502  0.55707727230E+03 -0.22751493362E+03  0.12477264583E+04  0.13852512624E+04  0.12699999809E+01 0.  1.
</event>
<event>
 5   0  0.5009762E-04  0.1701021E+04  0.7818609E-02  0.8760782E-01
       -1   -1    0    0    0  501  0.00000000000E+00  0.00000000000E+00  0.51593596111E+03  0.51593596113E+03  0.50400001928E-02 0. -1.
        1   -1    0    0  501    0  0.00000000000E+00  0.00000000000E+00 -0.14020510089E+04  0.14020510089E+04  0.50400001928E-02 0.  1.
    10030    2    1    2    0    0  0.00000000000E+00  0.00000000000E+00 -0.88611504777E+03  0.19179869700E+04  0.17010214988E+04 0.  0.
        3    1    3    3  502    0  0.29539052816E+03  0.15662989004E+03  0.43872705758E+03  0.55160667856E+03  0.10100000352E+00 0. -1.
       -3    1    3    3    0  502 -0.29539052816E+03 -0.15662989004E+03 -0.13248421053E+04  0.13663802915E+04  0.10100000352E+00 0.  1.
</event>
<event>
 5   0  0.9312096E-04  0.1697730E+04  0.7818609E-02  0.8762660E-01
       -2   -1    0    0    0  501  0.00000000000E+00  0.00000000000E+00  0.40139001513E+03  0.40139001514E+03  0.25500000920E-02 0.  1.
        2   -1    0    0  501    0  0.00000000000E+00  0.00000000000E+00 -0.17951902319E+04  0.17951902319E+04  0.25500000920E-02 0. -1.
    10030    2    1    2    0    0  0.00000000000E+00  0.00000000000E+00 -0.13938002167E+04  0.21965802470E+04  0.16977295831E+04 0.  0.
        3    1    3    3  502    0  0.48453428967E+03  0.67433115266E+03 -0.92498011687E+03  0.12430141625E+04  0.10100000352E+00 0.  1.
       -3    1    3    3    0  502 -0.48453428967E+03 -0.67433115266E+03 -0.46882009986E+03  0.95356608452E+03  0.10100000352E+00 0. -1.
</event>
<event>
 5   0  0.9312096E-04  0.1433575E+04  0.7818609E-02  0.8929868E-01
        2   -1    0    0  501    0  0.00000000000E+00  0.00000000000E+00  0.53412677270E+03  0.53412677271E+03  0.25500000920E-02 0. -1.
       -2   -1    0    0    0  501  0.00000000000E+00  0.00000000000E+00 -0.96191405724E+03  0.96191405725E+03  0.25500000920E-02 0.  1.
    10030    2    1    2    0    0  0.00000000000E+00  0.00000000000E+00 -0.42778728454E+03  0.14960408300E+04  0.14335746245E+04 0.  0.
        3    1    3    3  502    0 -0.18685840676E+03  0.21434649226E+01 -0.93604620329E+03  0.95451724108E+03  0.10100000352E+00 0.  1.
       -3    1    3    3    0  502  0.18685840676E+03 -0.21434649226E+01  0.50825891875E+03  0.54152358888E+03  0.10100000352E+00 0. -1.
</event>
<event>
 5   0  0.5035495E-04  0.1635982E+04  0.7818609E-02  0.8798743E-01
        1   -1    0    0  501    0  0.00000000000E+00  0.00000000000E+00  0.14272559513E+04  0.14272559514E+04  0.50400001928E-02 0. -1.
       -1   -1    0    0    0  501  0.00000000000E+00  0.00000000000E+00 -0.46880807312E+03  0.46880807315E+03  0.50400001928E-02 0.  1.
    10030    2    1    2    0    0  0.00000000000E+00  0.00000000000E+00  0.95844787822E+03  0.18960640245E+04  0.16359817999E+04 0.  0.
        4    1    3    3  502    0 -0.10455442072E+03 -0.34130582348E+03  0.13322227368E+04  0.13792172872E+04  0.12699999809E+01 0. -1.
       -4    1    3    3    0  502  0.10455442072E+03  0.34130582348E+03 -0.37377485857E+03  0.51684673728E+03  0.12699999809E+01 0.  1.
</event>
<event>
 5   0  0.5074133E-04  0.1681455E+04  0.7818609E-02  0.8772013E-01
        1   -1    0    0  501    0  0.00000000000E+00  0.00000000000E+00  0.16083571820E+04  0.16083571820E+04  0.50400001928E-02 0.  1.
       -1   -1    0    0    0  501  0.00000000000E+00  0.00000000000E+00 -0.43946869624E+03  0.43946869627E+03  0.50400001928E-02 0. -1.
    10030    2    1    2    0    0  0.00000000000E+00  0.00000000000E+00  0.11688884858E+04  0.20478258783E+04  0.16814548866E+04 0.  0.
        1    1    3    3  502    0  0.64336280024E+03 -0.52381015333E+03  0.75022874448E+03  0.11185418805E+04  0.50400001928E-02 0.  1.
       -1    1    3    3    0  502 -0.64336280024E+03  0.52381015333E+03  0.41865974131E+03  0.92928399775E+03  0.50400001928E-02 0. -1.
</event>
<event>
 5   0  0.9625225E-04  0.1706945E+04  0.7818609E-02  0.8757413E-01
       -2   -1    0    0    0  501  0.00000000000E+00  0.00000000000E+00  0.60266920083E+03  0.60266920084E+03  0.25500000920E-02 0. -1.
        2   -1    0    0  501    0  0.00000000000E+00  0.00000000000E+00 -0.12086489406E+04  0.12086489406E+04  0.25500000920E-02 0.  1.
    10030    2    1    2    0    0  0.00000000000E+00  0.00000000000E+00 -0.60597973974E+03  0.18113181414E+04  0.17069452142E+04 0.  0.
        1    1    3    3  502    0  0.24169712043E+03 -0.45639807461E+03 -0.10240218425E+04  0.11468816131E+04  0.50400001928E-02 0.  1.
       -1    1    3    3    0  502 -0.24169712043E+03  0.45639807461E+03  0.41804210272E+03  0.66443652834E+03  0.50400001928E-02 0. -1.
</event>
<event>
 5   0  0.5035495E-04  0.1690741E+04  0.7818609E-02  0.8766663E-01
       -1   -1    0    0    0  501  0.00000000000E+00  0.00000000000E+00  0.62823038472E+03  0.62823038474E+03  0.50400001928E-02 0.  1.
        1   -1    0    0  501    0  0.00000000000E+00  0.00000000000E+00 -0.11375626550E+04  0.11375626550E+04  0.50400001928E-02 0. -1.
    10030    2    1    2    0    0  0.00000000000E+00  0.00000000000E+00 -0.50933227028E+03  0.17657930397E+04  0.16907411681E+04 0.  0.
        4    1    3    3  502    0 -0.41519007630E+03  0.36978912651E+02 -0.10227718424E+04  0.11044519428E+04  0.12699999809E+01 0. -1.
       -4    1    3    3    0  502  0.41519007630E+03 -0.36978912651E+02  0.51343957210E+03  0.66134109697E+03  0.12699999809E+01 0.  1.
</event>
<event>
 5   0  0.1007187E-03  0.1700185E+04  0.7818609E-02  0.8761259E-01
       -2   -1    0    0    0  501  0.00000000000E+00  0.00000000000E+00  0.40681897397E+03  0.40681897398E+03  0.25500000920E-02 0.  1.
        2   -1    0    0  501    0  0.00000000000E+00  0.00000000000E+00 -0.17763614811E+04  0.17763614811E+04  0.25500000920E-02 0. -1.
    10030    2    1    2    0    0  0.00000000000E+00  0.00000000000E+00 -0.13695425072E+04  0.21831804551E+04  0.17001853489E+04 0.  0.
        5    1    3    3  502    0  0.34260532388E+03 -0.58707846966E+03 -0.29264489235E+02  0.68038080353E+03  0.46999998093E+01 0.  1.
       -5    1    3    3    0  502 -0.34260532388E+03  0.58707846966E+03 -0.13402780179E+04  0.15027996516E+04  0.46999998093E+01 0. -1.
</event>
<event>
 5   0  0.4947006E-04  0.1715455E+04  0.7818609E-02  0.8752598E-01
        1   -1    0    0  501    0  0.00000000000E+00  0.00000000000E+00  0.60531402876E+03  0.60531402878E+03  0.50400001928E-02 0.  1.
       -1   -1    0    0    0  501  0.00000000000E+00  0.00000000000E+00 -0.12153966999E+04  0.12153966999E+04  0.50400001928E-02 0. -1.
    10030    2    1    2    0    0  0.00000000000E+00  0.00000000000E+00 -0.61008267116E+03  0.18207107287E+04  0.17154552434E+04 0.  0.
        2    1    3    3  502    0 -0.45495611351E+03  0.19380888427E+03  0.43877979530E+03  0.66111622096E+03  0.25500000920E-02 0.  1.
       -2    1    3    3    0  502  0.45495611351E+03 -0.19380888427E+03 -0.10488624665E+04  0.11595945078E+04  0.25500000920E-02 0. -1.
</event>
<event>
 5   0  0.5059689E-04  0.1688373E+04  0.7818609E-02  0.8768024E-01
        1   -1    0    0  501    0  0.00000000000E+00  0.00000000000E+00  0.79937416068E+03  0.79937416069E+03  0.50400001928E-02 0. -1.
       -1   -1    0    0    0  501  0.00000000000E+00  0.00000000000E+00 -0.89151049821E+03  0.89151049822E+03  0.50400001928E-02 0.  1.
    10030    2    1    2    0    0  0.00000000000E+00  0.00000000000E+00 -0.92136337526E+02  0.16908846589E+04  0.16883725374E+04 0.  0.
        5    1    3    3  502    0 -0.52256522234E+03  0.55661536351E+03  0.31465282879E+03  0.82578663537E+03  0.46999998093E+01 0. -1.
       -5    1    3    3    0  502  0.52256522234E+03 -0.55661536351E+03 -0.40678916632E+03  0.86509802354E+03  0.46999998093E+01 0.  1.
</event>
<event>
 5   0  0.5074133E-04  0.1663047E+04  0.7818609E-02  0.8782725E-01
       -1   -1    0    0    0  501  0.00000000000E+00  0.00000000000E+00  0.17582587497E+04  0.17582587497E+04  0.50400001928E-02 0. -1.
        1   -1    0    0  501    0  0.00000000000E+00  0.00000000000E+00 -0.39324793931E+03  0.39324793934E+03  0.50400001928E-02 0.  1.
    10030    2    1    2    0    0  0.00000000000E+00  0.00000000000E+00  0.13650108104E+04  0.21515066890E+04  0.16630473597E+04 0.  0.
        1    1    3    3  502    0  0.71857022562E+03  0.29417092175E+03  0.10674844570E+04  0.13200010478E+04  0.50400001928E-02 0. -1.
       -1    1    3    3    0  502 -0.71857022562E+03 -0.29417092175E+03  0.29752635339E+03  0.83150564120E+03  0.50400001928E-02 0.  1.
</event>
<event>
 5   0  0.1007187E-03  0.1698943E+04  0.7818609E-02  0.8761967E-01
        2   -1    0    0  501    0  0.00000000000E+00  0.00000000000E+00  0.88913431221E+03  0.88913431221E+03  0.25500000920E-02 0. -1.
       -2   -1    0    0    0  501  0.00000000000E+00  0.00000000000E+00 -0.81157805643E+03  0.81157805644E+03  0.25500000920E-02 0.  1.
    10030    2    1    2    0    0  0.00000000000E+00  0.00000000000E+00  0.77556255772E+02  0.17007123686E+04  0.16989430797E+04 0.  0.
        5    1    3    3  502    0 -0.32234387537E+03  0.56948873684E+03 -0.50341015739E+03  0.82563119608E+03  0.46999998093E+01 0.  1.
       -5    1    3    3    0  502  0.32234387537E+03 -0.56948873684E+03  0.58096641316E+03  0.87508117257E+03  0.46999998093E+01 0. -1.
</event>
<event>
 5   0  0.4947006E-04  0.1690022E+04  0.7818609E-02  0.8767076E-01
       -1   -1    0    0    0  501  0.00000000000E+00  0.00000000000E+00  0.98638892080E+03  0.98638892082E+03  0.50400001928E-02 0. -1.
        1   -1    0    0  501    0  0.00000000000E+00  0.00000000000E+00 -0.72389686025E+03  0.72389686027E+03  0.50400001928E-02 0.  1.
    10030    2    1    2    0    0  0.00000000000E+00  0.00000000000E+00  0.26249206055E+03  0.17102857811E+04  0.16900222990E+04 0.  0.
        2    1    3    3  502    0  0.68889742331E+03 -0.16153326252E+03  0.59870568917E+03  0.92688788804E+03  0.25500000920E-02 0. -1.
       -2    1    3    3    0  502 -0.68889742331E+03  0.16153326252E+03 -0.33621362862E+03  0.78339789304E+03  0.25500000920E-02 0.  1.
</event>
<event>
 5   0  0.5009762E-04  0.1659193E+04  0.7818609E-02  0.8784987E-01
       -1   -1    0    0    0  501  0.00000000000E+00  0.00000000000E+00  0.51096868350E+03  0.51096868352E+03  0.50400001928E-02 0. -1.
        1   -1    0    0  501    0  0.00000000000E+00  0.00000000000E+00 -0.13469123317E+04  0.13469123317E+04  0.50400001928E-02 0.  1.
    10030    2    1    2    0    0  0.00000000000E+00  0.00000000000E+00 -0.83594364823E+03  0.18578810153E+04  0.16591926000E+04 0.  0.
        3    1    3    3  502    0 -0.68248468282E+03  0.40393747268E+03 -0.69060092601E+03  0.10516085171E+04  0.10100000352E+00 0. -1.
       -3    1    3    3    0  502  0.68248468282E+03 -0.40393747268E+03 -0.14534272222E+03  0.80627249812E+03  0.10100000352E+00 0.  1.
</event>
<event>
 5   0  0.9312096E-04  0.1702062E+04  0.7818609E-02  0.8760189E-01
       -2   -1    0    0    0  501  0.00000000000E+00  0.00000000000E+00  0.10120516701E+04  0.10120516701E+04  0.25500000920E-02 0. -1.
        2   -1    0    0  501    0  0.00000000000E+00  0.00000000000E+00 -0.71562953601E+03  0.71562953601E+03  0.25500000920E-02 0.  1.
    10030    2    1    2    0    0  0.00000000000E+00  0.00000000000E+00  0.29642213412E+03  0.17276812061E+04  0.17020623574E+04 0.  0.
        3    1    3    3  502    0  0.69981434103E+02  0.38685310376E+03  0.91435745669E+03  0.99529005512E+03  0.10100000352E+00 0. -1.
       -3    1    3    3    0  502 -0.69981434103E+02 -0.38685310376E+03 -0.61793532257E+03  0.73239115102E+03  0.10100000352E+00 0.  1.
</event>
<event>
 5   0  0.1007187E-03  0.1700531E+04  0.7818609E-02  0.8761061E-01
        2   -1    0    0  501    0  0.00000000000E+00  0.00000000000E+00  0.61044730930E+03  0.61044730930E+03  0.25500000920E-02 0. -1.
       -2   -1    0    0    0  501  0.00000000000E+00  0.00000000000E+00 -0.11842981895E+04  0.11842981895E+04  0.25500000920E-02 0.  1.
    10030    2    1    2    0    0  0.00000000000E+00  0.00000000000E+00 -0.57385088020E+03  0.17947454988E+04  0.17005312619E+04 0.  0.
        5    1    3    3  502    0 -0.65005782937E+03 -0.19975972242E+02  0.29109945808E+03  0.71255540520E+03  0.46999998093E+01 0. -1.
       -5    1    3    3    0  502  0.65005782937E+03  0.19975972242E+02 -0.86495033828E+03  0.10821900936E+04  0.46999998093E+01 0.  1.
</event>
<event>
 5   0  0.9625225E-04  0.1618359E+04  0.7818609E-02  0.8809348E-01
        2   -1    0    0  501    0  0.00000000000E+00  0.00000000000E+00  0.16339555105E+04  0.16339555105E+04  0.25500000920E-02 0. -1.
       -2   -1    0    0    0  501  0.00000000000E+00  0.00000000000E+00 -0.40072806955E+03  0.40072806956E+03  0.25500000920E-02 0.  1.
    10030    2    1    2    0    0  0.00000000000E+00  0.00000000000E+00  0.12332274410E+04  0.20346835801E+04  0.16183594625E+04 0.  0.
        1    1    3    3  502    0  0.60198271385E+03 -0.17919815089E+03  0.12580293108E+04  0.14061055835E+04  0.50400001928E-02 0. -1.
       -1    1    3    3    0  502 -0.60198271385E+03  0.17919815089E+03 -0.24801869814E+02  0.62857799661E+03  0.50400001928E-02 0.  1.
</event>
<event>
 5   0  0.5035495E-04  0.1751012E+04  0.7818609E-02  0.8732794E-01
       -1   -1    0    0    0  501  0.00000000000E+00  0.00000000000E+00  0.96871845023E+03  0.96871845024E+03  0.50400001928E-02 0. -1.
        1   -1    0    0  501    0  0.00000000000E+00  0.00000000000E+00 -0.79126233103E+03  0.79126233105E+03  0.50400001928E-02 0.  1.
    10030    2    1    2    0    0  0.00000000000E+00  0.00000000000E+00  0.17745611920E+03  0.17599807813E+04  0.17510116151E+04 0.  0.
        4    1    3    3  502    0 -0.41215000204E+03  0.36332952079E+03  0.77385942530E+03  0.94907111845E+03  0.12699999809E+01 0. -1.
       -4    1    3    3    0  502  0.41215000204E+03 -0.36332952079E+03 -0.59640330610E+03  0.81090966284E+03  0.12699999809E+01 0.  1.
</event>
<event>
 5   0  0.5059689E-04  0.1661302E+04  0.7818609E-02  0.8783748E-01
       -1   -1    0    0    0  501  0.00000000000E+00  0.00000000000E+00  0.47199168215E+03  0.47199168218E+03  0.50400001928E-02 0. -1.
        1   -1    0    0  501    0  0.00000000000E+00  0.00000000000E+00 -0.14618497131E+04  0.14618497131E+04  0.50400001928E-02 0.  1.
    10030    2    1    2    0    0  0.00000000000E+00  0.00000000000E+00 -0.98985803091E+03  0.19338413953E+04  0.16613017849E+04 0.  0.
        5    1    3    3  502    0 -0.33866179519E+03  0.41093601931E+03 -0.12370050699E+04  0.13467605045E+04  0.46999998093E+01 0.  1.
       -5    1    3    3    0  502  0.33866179519E+03 -0.41093601931E+03  0.24714703895E+03  0.58708089080E+03  0.46999998093E+01 0. -1.
</event>
<event>
 5   0  0.5074133E-04  0.1619693E+04  0.7818609E-02  0.8808540E-01
       -1   -1    0    0    0  501  0.00000000000E+00  0.00000000000E+00  0.43482517983E+03  0.43482517986E+03  0.50400001928E-02 0. -1.
        1   -1    0    0  501    0  0.00000000000E+00  0.00000000000E+00 -0.15083113341E+04  0.15083113341E+04  0.50400001928E-02 0.  1.
    10030    2    1    2    0    0  0.00000000000E+00  0.00000000000E+00 -0.10734861543E+04  0.19431365140E+04  0.16196934860E+04 0.  0.
        1    1    3    3  502    0  0.13766349294E+03  0.74240193278E+02  0.41653356055E+03  0.44493038857E+03  0.50400001928E-02 0. -1.
       -1    1    3    3    0  502 -0.13766349294E+03 -0.74240193278E+02 -0.14900197148E+04  0.14982061254E+04  0.50400001928E-02 0.  1.
</event>
<event>
 5   0  0.9610114E-04  0.1710258E+04  0.7818609E-02  0.8755535E-01
        2   -1    0    0  501    0  0.00000000000E+00  0.00000000000E+00  0.21219423596E+04  0.21219423596E+04  0.25500000920E-02 0. -1.
       -2   -1    0    0    0  501  0.00000000000E+00  0.00000000000E+00 -0.34461136209E+03  0.34461136210E+03  0.25500000920E-02 0.  1.
    10030    2    1    2    0    0  0.00000000000E+00  0.00000000000E+00  0.17773309975E+04  0.24665537217E+04  0.17102578131E+04 0.  0.
        2    1    3    3  502    0  0.28833354388E+03  0.14861541318E+03  0.20297663442E+04  0.20555228497E+04  0.25500000920E-02 0. -1.
       -2    1    3    3    0  502 -0.28833354388E+03 -0.14861541318E+03 -0.25243534663E+03  0.41103087207E+03  0.25500000920E-02 0.  1.
</event>
<event>
 5   0  0.5074133E-04  0.1706995E+04  0.7818609E-02  0.8757385E-01
       -1   -1    0    0    0  501  0.00000000000E+00  0.00000000000E+00  0.30697626167E+03  0.30697626171E+03  0.50400001928E-02 0. -1.
        1   -1    0    0  501    0  0.00000000000E+00  0.00000000000E+00 -0.23730121707E+04  0.23730121707E+04  0.50400001928E-02 0.  1.
    10030    2    1    2    0    0  0.00000000000E+00  0.00000000000E+00 -0.20660359090E+04  0.26799884324E+04  0.17069954951E+04 0.  0.
        1    1    3    3  502    0  0.14502605113E+03  0.79605846328E+03 -0.60674900267E+03  0.10113782600E+04  0.50400001928E-02 0. -1.
       -1    1    3    3    0  502 -0.14502605113E+03 -0.79605846328E+03 -0.14592869064E+04  0.16686101725E+04  0.50400001928E-02 0.  1.
</event>
<event>
 5   0  0.3523125E-04  0.1689654E+04  0.7818609E-02  0.8767287E-01
       -4   -1    0    0    0  501  0.00000000000E+00  0.00000000000E+00  0.68602737678E+03  0.68602855231E+03  0.12699999809E+01 0. -1.
        4   -1    0    0  501    0  0.00000000000E+00  0.00000000000E+00 -0.10403831336E+04  0.10403839088E+04  0.12699999809E+01 0.  1.
    10030    2    1    2    0    0  0.00000000000E+00  0.00000000000E+00 -0.35435575687E+03  0.17264124611E+04  0.16896543976E+04 0.  0.
        5    1    3    3  502    0 -0.94885945792E+02 -0.75092574494E+03  0.20624312712E+03  0.78450693726E+03  0.46999998093E+01 0. -1.
       -5    1    3    3    0  502  0.94885945792E+02  0.75092574494E+03 -0.56059888399E+03  0.94190552385E+03  0.46999998093E+01 0.  1.
</event>
<event>
 5   0  0.5035495E-04  0.1676900E+04  0.7818609E-02  0.8774650E-01
       -1   -1    0    0    0  501  0.00000000000E+00  0.00000000000E+00  0.79770343475E+03  0.79770343476E+03  0.50400001928E-02 0.  1.
        1   -1    0    0  501    0  0.00000000000E+00  0.00000000000E+00 -0.88127798595E+03  0.88127798596E+03  0.50400001928E-02 0. -1.
    10030    2    1    2    0    0  0.00000000000E+00  0.00000000000E+00 -0.83574551199E+02  0.16789814207E+04  0.16769000881E+04 0.  0.
        4    1    3    3  502    0  0.10354931079E+03 -0.59276843190E+03 -0.62637837253E+03  0.86858986415E+03  0.12699999809E+01 0. -1.
       -4    1    3    3    0  502 -0.10354931079E+03  0.59276843190E+03  0.54280382134E+03  0.81039155658E+03  0.12699999809E+01 0.  1.
</event>
<event>
 5   0  0.9625225E-04  0.1657976E+04  0.7818609E-02  0.8785702E-01
        2   -1    0    0  501    0  0.00000000000E+00  0.00000000000E+00  0.58270091494E+03  0.58270091495E+03  0.25500000920E-02 0.  1.
       -2   -1    0    0    0  501  0.00000000000E+00  0.00000000000E+00 -0.11793721234E+04  0.11793721234E+04  0.25500000920E-02 0. -1.
    10030    2    1    2    0    0  0.00000000000E+00  0.00000000000E+00 -0.59667120849E+03  0.17620730384E+04  0.16579761342E+04 0.  0.
        1    1    3    3  502    0  0.15933572566E+03 -0.76712797538E+03 -0.10503122104E+02  0.78357100487E+03  0.50400001928E-02 0.  1.
       -1    1    3    3    0  502 -0.15933572566E+03  0.76712797538E+03 -0.58616808639E+03  0.97850203352E+03  0.50400001928E-02 0. -1.
</event>
<event>
 5   0  0.9312096E-04  0.1540125E+04  0.7818609E-02  0.8858200E-01
        2   -1    0    0  501    0  0.00000000000E+00  0.00000000000E+00  0.14028872199E+04  0.14028872199E+04  0.25500000920E-02 0.  1.
       -2   -1    0    0    0  501  0.00000000000E+00  0.00000000000E+00 -0.42269712078E+03  0.42269712079E+03  0.25500000920E-02 0. -1.
    10030    2    1    2    0    0  0.00000000000E+00  0.00000000000E+00  0.98019009911E+03  0.18255843407E+04  0.15401251750E+04 0.  0.
        3    1    3    3  502    0  0.71090622557E+03  0.12424663607E+03  0.17165424055E+03  0.74181539255E+03  0.10100000352E+00 0. -1.
       -3    1    3    3    0  502 -0.71090622557E+03 -0.12424663607E+03  0.80853585856E+03  0.10837689481E+04  0.10100000352E+00 0.  1.
</event>
<event>
 5   0  0.4947006E-04  0.1499455E+04  0.7818609E-02  0.8884816E-01
       -1   -1    0    0    0  501  0.00000000000E+00  0.00000000000E+00  0.74308352145E+03  0.74308352147E+03  0.50400001928E-02 0.  1.
        1   -1    0    0  501    0  0.00000000000E+00  0.00000000000E+00 -0.75643052412E+03  0.75643052413E+03  0.50400001928E-02 0. -1.
    10030    2    1    2    0    0  0.00000000000E+00  0.00000000000E+00 -0.13347002668E+02  0.14995140456E+04  0.14994546444E+04 0.  0.
        2    1    3    3  502    0  0.59878040081E+03  0.18603225019E+03  0.40437208857E+03  0.74609835311E+03  0.25500000920E-02 0.  1.
       -2    1    3    3    0  502 -0.59878040081E+03 -0.18603225019E+03 -0.41771909123E+03  0.75341569249E+03  0.25500000920E-02 0. -1.
</event>
<event>
 5   0  0.5059689E-04  0.1734948E+04  0.7818609E-02  0.8741680E-01
       -1   -1    0    0    0  501  0.00000000000E+00  0.00000000000E+00  0.31658990142E+03  0.31658990146E+03  0.50400001928E-02 0. -1.
        1   -1    0    0  501    0  0.00000000000E+00  0.00000000000E+00 -0.23769267722E+04  0.23769267723E+04  0.50400001928E-02 0.  1.
    10030    2    1    2    0    0  0.00000000000E+00  0.00000000000E+00 -0.20603368708E+04  0.26935166737E+04  0.17349478523E+04 0.  0.
        5    1    3    3  502    0 -0.54032078976E+03  0.58774505439E+03 -0.50346354176E+03  0.94386886413E+03  0.46999998093E+01 0.  1.
       -5    1    3    3    0  502  0.54032078976E+03 -0.58774505439E+03 -0.15568733291E+04  0.17496478096E+04  0.46999998093E+01 0. -1.
</event>
<event>
 5   0  0.1007187E-03  0.1666269E+04  0.7818609E-02  0.8780840E-01
       -2   -1    0    0    0  501  0.00000000000E+00  0.00000000000E+00  0.36519278342E+03  0.36519278343E+03  0.25500000920E-02 0.  1.
        2   -1    0    0  501    0  0.00000000000E+00  0.00000000000E+00 -0.19006757550E+04  0.19006757550E+04  0.25500000920E-02 0. -1.
    10030    2    1    2    0    0  0.00000000000E+00  0.00000000000E+00 -0.15354829716E+04  0.22658685384E+04  0.16662689691E+04 0.  0.
        5    1    3    3  502    0 -0.41853585802E+03 -0.36955923871E+03  0.73105808203E+02  0.56312773378E+03  0.46999998093E+01 0.  1.
       -5    1    3    3    0  502  0.41853585802E+03  0.36955923871E+03 -0.16085887798E+04  0.17027408046E+04  0.46999998093E+01 0. -1.
</event>
<event>
 5   0  0.9625225E-04  0.1542628E+04  0.7818609E-02  0.8856591E-01
       -2   -1    0    0    0  501  0.00000000000E+00  0.00000000000E+00  0.61981949167E+03  0.61981949167E+03  0.25500000920E-02 0.  1.
        2   -1    0    0  501    0  0.00000000000E+00  0.00000000000E+00 -0.95983582908E+03  0.95983582908E+03  0.25500000920E-02 0. -1.
    10030    2    1    2    0    0  0.00000000000E+00  0.00000000000E+00 -0.34001633741E+03  0.15796553208E+04  0.15426275710E+04 0.  0.
        1    1    3    3  502    0 -0.28701924661E+03  0.67303458963E+03  0.79918541211E+02  0.73603164335E+03  0.50400001928E-02 0.  1.
       -1    1    3    3    0  502  0.28701924661E+03 -0.67303458963E+03 -0.41993487862E+03  0.84362367740E+03  0.50400001928E-02 0. -1.
</event>
<event>
 5   0  0.3523125E-04  0.1460668E+04  0.7818609E-02  0.8911038E-01
        3   -1    0    0  501    0  0.00000000000E+00  0.00000000000E+00  0.55332255532E+03  0.55332256454E+03  0.10100000352E+00 0.  1.
       -3   -1    0    0    0  501  0.00000000000E+00  0.00000000000E+00 -0.96397187925E+03  0.96397188454E+03  0.10100000352E+00 0. -1.
    10030    2    1    2    0    0  0.00000000000E+00  0.00000000000E+00 -0.41064932393E+03  0.15172944491E+04  0.14606675111E+04 0.  0.
        4    1    3    3  502    0 -0.42550933201E+03  0.51431989545E+03  0.10247793127E+03  0.67534175480E+03  0.12699999809E+01 0.  1.
       -4    1    3    3    0  502  0.42550933201E+03 -0.51431989545E+03 -0.51312725520E+03  0.84195269428E+03  0.12699999809E+01 0. -1.
</event>
<event>
 5   0  0.5035495E-04  0.1711949E+04  0.7818609E-02  0.8754579E-01
       -1   -1    0    0    0  501  0.00000000000E+00  0.00000000000E+00  0.11858554392E+04  0.11858554392E+04  0.50400001928E-02 0.  1.
        1   -1    0    0  501    0  0.00000000000E+00  0.00000000000E+00 -0.61785978183E+03  0.61785978185E+03  0.50400001928E-02 0. -1.
    10030    2    1    2    0    0  0.00000000000E+00  0.00000000000E+00  0.56799565734E+03  0.18037152210E+04  0.17119490447E+04 0.  0.
        4    1    3    3  502    0 -0.11526380772E+03  0.51190382651E+03 -0.42853681874E+03  0.67747818480E+03  0.12699999809E+01 0. -1.
       -4    1    3    3    0  502  0.11526380772E+03 -0.51190382651E+03  0.99653247608E+03  0.11262370362E+04  0.12699999809E+01 0.  1.
</event>
<event>
 5   0  0.9284971E-04  0.1715649E+04  0.7818609E-02  0.8752489E-01
        2   -1    0    0  501    0  0.00000000000E+00  0.00000000000E+00  0.16928139772E+04  0.16928139772E+04  0.25500000920E-02 0. -1.
       -2   -1    0    0    0  501  0.00000000000E+00  0.00000000000E+00 -0.43469790748E+03  0.43469790749E+03  0.25500000920E-02 0.  1.
    10030    2    1    2    0    0  0.00000000000E+00  0.00000000000E+00  0.12581160697E+04  0.21275118846E+04  0.17156487911E+04 0.  0.
        4    1    3    3  502    0 -0.31990546674E+03 -0.78437984535E+03  0.46144380931E+03  0.96463633121E+03  0.12699999809E+01 0.  1.
       -4    1    3    3    0  502  0.31990546674E+03  0.78437984535E+03  0.79667226036E+03  0.11628755534E+04  0.12699999809E+01 0. -1.
</event>
<event>
 5   0  0.9625225E-04  0.1665672E+04  0.7818609E-02  0.8781188E-01
       -2   -1    0    0    0  501  0.00000000000E+00  0.00000000000E+00  0.56551324917E+03  0.56551324917E+03  0.25500000920E-02 0. -1.
        2   -1    0    0  501    0  0.00000000000E+00  0.00000000000E+00 -0.12265250599E+04  0.12265250599E+04  0.25500000920E-02 0.  1.
    10030    2    1    2    0    0  0.00000000000E+00  0.00000000000E+00 -0.66101181075E+03  0.17920383091E+04  0.16656724430E+04 0.  0.
        1    1    3    3  502    0  0.54373148309E+02 -0.47878906720E+03 -0.10613188893E+04  0.11655870602E+04  0.50400001928E-02 0.  1.
       -1    1    3    3    0  502 -0.54373148309E+02  0.47878906720E+03  0.40030707851E+03  0.62645124891E+03  0.50400001928E-02 0. -1.
</event>
<event>
 5   0  0.1007187E-03  0.2516242E+04  0.7818609E-02  0.8397222E-01
       -2   -1    0    0    0  501  0.00000000000E+00  0.00000000000E+00  0.10113559899E+04  0.10113559899E+04  0.25500000920E-02 0. -1.
        2   -1    0    0  501    0  0.00000000000E+00  0.00000000000E+00 -0.15650957068E+04  0.15650957068E+04  0.25500000920E-02 0.  1.
    10030    2    1    2    0    0  0.00000000000E+00  0.00000000000E+00 -0.55373971694E+03  0.25764516967E+04  0.25162423713E+04 0.  0.
        5    1    3    3  502    0  0.10073226411E+04  0.41238859341E+03  0.36916605535E+03  0.11493776237E+04  0.46999998093E+01 0. -1.
       -5    1    3    3    0  502 -0.10073226411E+04 -0.41238859341E+03 -0.92290577228E+03  0.14270740730E+04  0.46999998093E+01 0.  1.
</event>
<event>
 5   0  0.1007187E-03  0.1476958E+04  0.7818609E-02  0.8899922E-01
        2   -1    0    0  501    0  0.00000000000E+00  0.00000000000E+00  0.13544680709E+04  0.13544680709E+04  0.25500000920E-02 0. -1.
       -2   -1    0    0    0  501  0.00000000000E+00  0.00000000000E+00 -0.40263117797E+03  0.40263117798E+03  0.25500000920E-02 0.  1.
    10030    2    1    2    0    0  0.00000000000E+00  0.00000000000E+00  0.95183689291E+03  0.17570992489E+04  0.14769577853E+04 0.  0.
        5    1    3    3  502    0  0.16904653984E+03 -0.39343552031E+03  0.11916644744E+04  0.12662758589E+04  0.46999998093E+01 0. -1.
       -5    1    3    3    0  502 -0.16904653984E+03  0.39343552031E+03 -0.23982758151E+03  0.49082338995E+03  0.46999998093E+01 0.  1.
</event>
<event>
 5   0  0.1007187E-03  0.1694790E+04  0.7818609E-02  0.8764341E-01
        2   -1    0    0  501    0  0.00000000000E+00  0.00000000000E+00  0.85581967777E+03  0.85581967777E+03  0.25500000920E-02 0. -1.
       -2   -1    0    0    0  501  0.00000000000E+00  0.00000000000E+00 -0.83905325891E+03  0.83905325892E+03  0.25500000920E-02 0.  1.
    10030    2    1    2    0    0  0.00000000000E+00  0.00000000000E+00  0.16766418857E+02  0.16948729367E+04  0.16947900043E+04 0.  0.
        5    1    3    3  502    0  0.54441030087E+03  0.78605508569E+02  0.65300361122E+03  0.85381333320E+03  0.46999998093E+01 0. -1.
       -5    1    3    3    0  502 -0.54441030087E+03 -0.78605508569E+02 -0.63623719237E+03  0.84105960349E+03  0.46999998093E+01 0.  1.
</event>
<event>
 5   0  0.5059689E-04  0.1919896E+04  0.7818609E-02  0.8645016E-01
        1   -1    0    0  501    0  0.00000000000E+00  0.00000000000E+00  0.45970770725E+03  0.45970770728E+03  0.50400001928E-02 0. -1.
       -1   -1    0    0    0  501  0.00000000000E+00  0.00000000000E+00 -0.20045352090E+04  0.20045352090E+04  0.50400001928E-02 0.  1.
    10030    2    1    2    0    0  0.00000000000E+00  0.00000000000E+00 -0.15448275018E+04  0.24642429163E+04  0.19198961275E+04 0.  0.
        5    1    3    3  502    0  0.14379721008E+03  0.72477009594E+03 -0.15589448183E+04  0.17251957471E+04  0.46999998093E+01 0.  1.
       -5    1    3    3    0  502 -0.14379721008E+03 -0.72477009594E+03  0.14117316505E+02  0.73904716914E+03  0.46999998093E+01 0. -1.
</event>
<event>
 5   0  0.9625225E-04  0.1613244E+04  0.7818609E-02  0.8812453E-01
        2   -1    0    0  501    0  0.00000000000E+00  0.00000000000E+00  0.20980779502E+04  0.20980779502E+04  0.25500000920E-02 0.  1.
       -2   -1    0    0    0  501  0.00000000000E+00  0.00000000000E+00 -0.31011204940E+03  0.31011204941E+03  0.25500000920E-02 0. -1.
    10030    2    1    2    0    0  0.00000000000E+00  0.00000000000E+00  0.17879659008E+04  0.24081899996E+04  0.16132442505E+04 0.  0.
        1    1    3    3  502    0  0.55093915238E+03 -0.52304073262E+03  0.48918918189E+03  0.90355498632E+03  0.50400001928E-02 0. -1.
       -1    1    3    3    0  502 -0.55093915238E+03  0.52304073262E+03  0.12987767189E+04  0.15046350133E+04  0.50400001928E-02 0.  1.
</event>
<event>
 5   0  0.4947006E-04  0.1742557E+04  0.7818609E-02  0.8737458E-01
       -1   -1    0    0    0  501  0.00000000000E+00  0.00000000000E+00  0.10827951807E+04  0.10827951807E+04  0.50400001928E-02 0.  1.
        1   -1    0    0  501    0  0.00000000000E+00  0.00000000000E+00 -0.70107977545E+03  0.70107977546E+03  0.50400001928E-02 0. -1.
    10030    2    1    2    0    0  0.00000000000E+00  0.00000000000E+00  0.38171540528E+03  0.17838749562E+04  0.17425565152E+04 0.  0.
        2    1    3    3  502    0  0.10361543044E+03  0.20247628469E+03 -0.67015174111E+03  0.70769778819E+03  0.25500000920E-02 0. -1.
       -2    1    3    3    0  502 -0.10361543044E+03 -0.20247628469E+03  0.10518671464E+04  0.10761771680E+04  0.25500000920E-02 0.  1.
</event>
<event>
 5   0  0.4947006E-04  0.1606714E+04  0.7818609E-02  0.8816434E-01
       -1   -1    0    0    0  501  0.00000000000E+00  0.00000000000E+00  0.36353958667E+03  0.36353958670E+03  0.50400001928E-02 0. -1.
        1   -1    0    0  501    0  0.00000000000E+00  0.00000000000E+00 -0.17752735089E+04  0.17752735089E+04  0.50400001928E-02 0.  1.
    10030    2    1    2    0    0  0.00000000000E+00  0.00000000000E+00 -0.14117339222E+04  0.21388130956E+04  0.16067136617E+04 0.  0.
        2    1    3    3  502    0  0.16153998648E+03 -0.75543562157E+03 -0.41239231539E+03  0.87569718931E+03  0.25500000920E-02 0.  1.
       -2    1    3    3    0  502 -0.16153998648E+03  0.75543562157E+03 -0.99934160684E+03  0.12631159063E+04  0.25500000920E-02 0. -1.
</event>
<event>
 5   0  0.5009762E-04  0.1727690E+04  0.7818609E-02  0.8745727E-01
        1   -1    0    0  501    0  0.00000000000E+00  0.00000000000E+00  0.58513519439E+03  0.58513519441E+03  0.50400001928E-02 0. -1.
       -1   -1    0    0    0  501  0.00000000000E+00  0.00000000000E+00 -0.12753091214E+04  0.12753091214E+04  0.50400001928E-02 0.  1.
    10030    2    1    2    0    0  0.00000000000E+00  0.00000000000E+00 -0.69017392701E+03  0.18604443158E+04  0.17276900772E+04 0.  0.
        3    1    3    3  502    0  0.81976786030E+03 -0.94147580484E+02 -0.62035605281E+03  0.10323394568E+04  0.10100000352E+00 0.  1.
       -3    1    3    3    0  502 -0.81976786030E+03  0.94147580484E+02 -0.69817874191E+02  0.82810485897E+03  0.10100000352E+00 0. -1.
</event>
<event>
 5   0  0.9625225E-04  0.1722464E+04  0.7818609E-02  0.8748655E-01
        2   -1    0    0  501    0  0.00000000000E+00  0.00000000000E+00  0.22363875170E+04  0.22363875170E+04  0.25500000920E-02 0.  1.
       -2   -1    0    0    0  501  0.00000000000E+00  0.00000000000E+00 -0.33166009481E+03  0.33166009482E+03  0.25500000920E-02 0. -1.
    10030    2    1    2    0    0  0.00000000000E+00  0.00000000000E+00  0.19047274222E+04  0.25680476119E+04  0.17224639281E+04 0.  0.
        1    1    3    3  502    0 -0.83463020995E+03  0.11353421806E+03  0.68473347378E+03  0.10855217806E+04  0.50400001928E-02 0.  1.
       -1    1    3    3    0  502  0.83463020995E+03 -0.11353421806E+03  0.12199939485E+04  0.14825258313E+04  0.50400001928E-02 0. -1.
</event>
<event>
 5   0  0.5035495E-04  0.1690033E+04  0.7818609E-02  0.8767069E-01
        1   -1    0    0  501    0  0.00000000000E+00  0.00000000000E+00  0.96339796783E+03  0.96339796784E+03  0.50400001928E-02 0. -1.
       -1   -1    0    0    0  501  0.00000000000E+00  0.00000000000E+00 -0.74118182193E+03  0.74118182195E+03  0.50400001928E-02 0.  1.
    10030    2    1    2    0    0  0.00000000000E+00  0.00000000000E+00  0.22221614590E+03  0.17045797898E+04  0.16900332080E+04 0.  0.
        4    1    3    3  502    0 -0.32528102267E+03  0.75914044184E+03  0.29139078761E+03  0.87579230309E+03  0.12699999809E+01 0.  1.
       -4    1    3    3    0  502  0.32528102267E+03 -0.75914044184E+03 -0.69174641709E+02  0.82878748670E+03  0.12699999809E+01 0. -1.
</event>
<event>
 5   0  0.5035495E-04  0.1715780E+04  0.7818609E-02  0.8752415E-01
        1   -1    0    0  501    0  0.00000000000E+00  0.00000000000E+00  0.91942020876E+03  0.91942020877E+03  0.50400001928E-02 0. -1.
       -1   -1    0    0    0  501  0.00000000000E+00  0.00000000000E+00 -0.80047725479E+03  0.80047725481E+03  0.50400001928E-02 0.  1.
    10030    2    1    2    0    0  0.00000000000E+00  0.00000000000E+00  0.11894295397E+03  0.17198974636E+04  0.17157796650E+04 0.  0.
        4    1    3    3  502    0  0.10872177013E+03 -0.64592768867E+03 -0.49587108134E+03  0.82154290484E+03  0.12699999809E+01 0.  1.
       -4    1    3    3    0  502 -0.10872177013E+03  0.64592768867E+03  0.61481403531E+03  0.89835455873E+03  0.12699999809E+01 0. -1.
</event>
<event>
 5   0  0.5059689E-04  0.1687318E+04  0.7818609E-02  0.8768631E-01
        1   -1    0    0  501    0  0.00000000000E+00  0.00000000000E+00  0.17817417834E+04  0.17817417834E+04  0.50400001928E-02 0.  1.
       -1   -1    0    0    0  501  0.00000000000E+00  0.00000000000E+00 -0.39947436783E+03  0.39947436786E+03  0.50400001928E-02 0. -1.
    10030    2    1    2    0    0  0.00000000000E+00  0.00000000000E+00  0.13822674156E+04  0.21812161513E+04  0.16873176021E+04 0.  0.
        5    1    3    3  502    0 -0.56441405506E+03  0.14679099964E+03 -0.96919695839E+02  0.59120752749E+03  0.46999998093E+01 0. -1.
       -5    1    3    3    0  502  0.56441405506E+03 -0.14679099964E+03  0.14791871114E+04  0.15900086238E+04  0.46999998093E+01 0.  1.
</event>
<event>
 5   0  0.9610114E-04  0.1790375E+04  0.7818609E-02  0.8711435E-01
        2   -1    0    0  501    0  0.00000000000E+00  0.00000000000E+00  0.18568349557E+04  0.18568349557E+04  0.25500000920E-02 0. -1.
       -2   -1    0    0    0  501  0.00000000000E+00  0.00000000000E+00 -0.43157340971E+03  0.43157340972E+03  0.25500000920E-02 0.  1.
    10030    2    1    2    0    0  0.00000000000E+00  0.00000000000E+00  0.14252615459E+04  0.22884083654E+04  0.17903749251E+04 0.  0.
        2    1    3    3  502    0  0.33193212408E+02  0.83619629298E+02 -0.42578030649E+03  0.43518145773E+03  0.25500000920E-02 0.  1.
       -2    1    3    3    0  502 -0.33193212408E+02 -0.83619629298E+02  0.18510418524E+04  0.18532269076E+04  0.25500000920E-02 0. -1.
</event>
<event>
 5   0  0.9284971E-04  0.1704600E+04  0.7818609E-02  0.8758745E-01
       -2   -1    0    0    0  501  0.00000000000E+00  0.00000000000E+00  0.74197924285E+03  0.74197924286E+03  0.25500000920E-02 0. -1.
        2   -1    0    0  501    0  0.00000000000E+00  0.00000000000E+00 -0.97902404492E+03  0.97902404492E+03  0.25500000920E-02 0.  1.
    10030    2    1    2    0    0  0.00000000000E+00  0.00000000000E+00 -0.23704480207E+03  0.17210032878E+04  0.17046002694E+04 0.  0.
        4    1    3    3  502    0  0.71413751578E+03 -0.39153024336E+03  0.13514335966E+03  0.82556263450E+03  0.12699999809E+01 0. -1.
       -4    1    3    3    0  502 -0.71413751578E+03  0.39153024336E+03 -0.37218816172E+03  0.89544065328E+03  0.12699999809E+01 0.  1.
</event>
<event>
 5   0  0.1007187E-03  0.1698879E+04  0.7818609E-02  0.8762004E-01
       -2   -1    0    0    0  501  0.00000000000E+00  0.00000000000E+00  0.53646511021E+03  0.53646511022E+03  0.25500000920E-02 0.  1.
        2   -1    0    0  501    0  0.00000000000E+00  0.00000000000E+00 -0.13450028567E+04  0.13450028567E+04  0.25500000920E-02 0. -1.
    10030    2    1    2    0    0  0.00000000000E+00  0.00000000000E+00 -0.80853774649E+03  0.18814679669E+04  0.16988785781E+04 0.  0.
        5    1    3    3  502    0 -0.52122423839E+03  0.57044813664E+03 -0.13596095600E+02  0.77284715637E+03  0.46999998093E+01 0.  1.
       -5    1    3    3    0  502  0.52122423839E+03 -0.57044813664E+03 -0.79494165089E+03  0.11086208106E+04  0.46999998093E+01 0. -1.
</event>
<event>
 5   0  0.9312096E-04  0.1648411E+04  0.7818609E-02  0.8791347E-01
        2   -1    0    0  501    0  0.00000000000E+00  0.00000000000E+00  0.16952918531E+04  0.16952918531E+04  0.25500000920E-02 0.  1.
       -2   -1    0    0    0  501  0.00000000000E+00  0.00000000000E+00 -0.40070655404E+03  0.40070655405E+03  0.25500000920E-02 0. -1.
    10030    2    1    2    0    0  0.00000000000E+00  0.00000000000E+00  0.12945852991E+04  0.20959984071E+04  0.16484108184E+04 0.  0.
        3    1    3    3  502    0  0.14783405076E+03  0.79879777195E+03  0.47027274986E+03  0.93866354808E+03  0.10100000352E+00 0. -1.
       -3    1    3    3    0  502 -0.14783405076E+03 -0.79879777195E+03  0.82431254920E+03  0.11573348591E+04  0.10100000352E+00 0.  1.
</event>
<event>
 5   0  0.1007187E-03  0.1714985E+04  0.7818609E-02  0.8752864E-01
        2   -1    0    0  501    0  0.00000000000E+00  0.00000000000E+00  0.23931115332E+04  0.23931115332E+04  0.25500000920E-02 0. -1.
       -2   -1    0    0    0  501  0.00000000000E+00  0.00000000000E+00 -0.30725423555E+03  0.30725423556E+03  0.25500000920E-02 0.  1.
    10030    2    1    2    0    0  0.00000000000E+00  0.00000000000E+00  0.20858572977E+04  0.27003657688E+04  0.17149853116E+04 0.  0.
        5    1    3    3  502    0 -0.39995056879E+03  0.75321188937E+03  0.11836124465E+04  0.14588519874E+04  0.46999998093E+01 0.  1.
       -5    1    3    3    0  502  0.39995056879E+03 -0.75321188937E+03  0.90224485116E+03  0.12415137813E+04  0.46999998093E+01 0. -1.
</event>
<event>
 5   0  0.9610114E-04  0.1550398E+04  0.7818609E-02  0.8851614E-01
        2   -1    0    0  501    0  0.00000000000E+00  0.00000000000E+00  0.52142427323E+03  0.52142427323E+03  0.25500000920E-02 0. -1.
       -2   -1    0    0    0  501  0.00000000000E+00  0.00000000000E+00 -0.11524843663E+04  0.11524843663E+04  0.25500000920E-02 0.  1.
    10030    2    1    2    0    0  0.00000000000E+00  0.00000000000E+00 -0.63106009307E+03  0.16739086395E+04  0.15503977852E+04 0.  0.
        2    1    3    3  502    0  0.35402146280E+03 -0.42815479060E+03 -0.89923358094E+03  0.10570093443E+04  0.25500000920E-02 0.  1.
       -2    1    3    3    0  502 -0.35402146280E+03  0.42815479060E+03  0.26817348788E+03  0.61689929522E+03  0.25500000920E-02 0. -1.
</event>
<event>
 5   0  0.5074133E-04  0.1588007E+04  0.7818609E-02  0.8827950E-01
       -1   -1    0    0    0  501  0.00000000000E+00  0.00000000000E+00  0.20971494019E+04  0.20971494019E+04  0.50400001928E-02 0. -1.
        1   -1    0    0  501    0  0.00000000000E+00  0.00000000000E+00 -0.30061844168E+03  0.30061844172E+03  0.50400001928E-02 0.  1.
    10030    2    1    2    0    0  0.00000000000E+00  0.00000000000E+00  0.17965309602E+04  0.23977678436E+04  0.15880072861E+04 0.  0.
        1    1    3    3  502    0  0.44427422707E+03  0.60412358498E+03  0.50424546693E+03  0.90366386766E+03  0.50400001928E-02 0.  1.
       -1    1    3    3    0  502 -0.44427422707E+03 -0.60412358498E+03  0.12922854933E+04  0.14941039760E+04  0.50400001928E-02 0. -1.
</event>
<event>
 5   0  0.5035495E-04  0.1723898E+04  0.7818609E-02  0.8747851E-01
        1   -1    0    0  501    0  0.00000000000E+00  0.00000000000E+00  0.12095095046E+04  0.12095095046E+04  0.50400001928E-02 0. -1.
       -1   -1    0    0    0  501  0.00000000000E+00  0.00000000000E+00 -0.61426236536E+03  0.61426236538E+03  0.50400001928E-02 0.  1.
    10030    2    1    2    0    0  0.00000000000E+00  0.00000000000E+00  0.59524713926E+03  0.18237718700E+04  0.17238981052E+04 0.  0.
        4    1    3    3  502    0  0.67601329372E+03 -0.43871689350E+03 -0.25848672339E+02  0.80631027073E+03  0.12699999809E+01 0.  1.
       -4    1    3    3    0  502 -0.67601329372E+03  0.43871689350E+03  0.62109581160E+03  0.10174615993E+04  0.12699999809E+01 0. -1.
</event>
<event>
 5   0  0.9284971E-04  0.1494841E+04  0.7818609E-02  0.8887891E-01
        2   -1    0    0  501    0  0.00000000000E+00  0.00000000000E+00  0.67324421143E+03  0.67324421144E+03  0.25500000920E-02 0.  1.
       -2   -1    0    0    0  501  0.00000000000E+00  0.00000000000E+00 -0.82976965236E+03  0.82976965237E+03  0.25500000920E-02 0. -1.
    10030    2    1    2    0    0  0.00000000000E+00  0.00000000000E+00 -0.15652544093E+03  0.15030138638E+04  0.14948412829E+04 0.  0.
        4    1    3    3  502    0  0.47917274601E+03  0.54219941935E+03  0.10997532345E+03  0.73190362448E+03  0.12699999809E+01 0.  1.
       -4    1    3    3    0  502 -0.47917274601E+03 -0.54219941935E+03 -0.26650076439E+03  0.77111023932E+03  0.12699999809E+01 0. -1.
</event>
<event>
 5   0  0.9284971E-04  0.1708897E+04  0.7818609E-02  0.8756306E-01
       -2   -1    0    0    0  501  0.00000000000E+00  0.00000000000E+00  0.66689764474E+03  0.66689764474E+03  0.25500000920E-02 0. -1.
        2   -1    0    0  501    0  0.00000000000E+00  0.00000000000E+00 -0.10947437456E+04  0.10947437456E+04  0.25500000920E-02 0.  1.
    10030    2    1    2    0    0  0.00000000000E+00  0.00000000000E+00 -0.42784610083E+03  0.17616413903E+04  0.17088967500E+04 0.  0.
        4    1    3    3  502    0  0.13165842029E+03 -0.44487613766E+02  0.65516826286E+03  0.66974633480E+03  0.12699999809E+01 0. -1.
       -4    1    3    3    0  502 -0.13165842029E+03  0.44487613766E+02 -0.10830143637E+04  0.10918950555E+04  0.12699999809E+01 0.  1.
</event>
<event>
 5   0  0.4947006E-04  0.2107775E+04  0.7818609E-02  0.8557826E-01
       -1   -1    0    0    0  501  0.00000000000E+00  0.00000000000E+00  0.85589278181E+03  0.85589278183E+03  0.50400001928E-02 0.  1.
        1   -1    0    0  501    0  0.00000000000E+00  0.00000000000E+00 -0.12976848881E+04  0.12976848881E+04  0.50400001928E-02 0. -1.
    10030    2    1    2    0    0  0.00000000000E+00  0.00000000000E+00 -0.44179210627E+03  0.21535776699E+04  0.21077752525E+04 0.  0.
        2    1    3    3  502    0  0.68410133731E+03 -0.75026270111E+03  0.67714012413E+02  0.10175824035E+04  0.25500000920E-02 0.  1.
       -2    1    3    3    0  502 -0.68410133731E+03  0.75026270111E+03 -0.50950611868E+03  0.11359952664E+04  0.25500000920E-02 0. -1.
</event>
<event>
 5   0  0.4947006E-04  0.1705482E+04  0.7818609E-02  0.8758244E-01
       -1   -1    0    0    0  501  0.00000000000E+00  0.00000000000E+00  0.12728466456E+04  0.12728466456E+04  0.50400001928E-02 0. -1.
        1   -1    0    0  501    0  0.00000000000E+00  0.00000000000E+00 -0.57129230401E+03  0.57129230403E+03  0.50400001928E-02 0.  1.
    10030    2    1    2    0    0  0.00000000000E+00  0.00000000000E+00  0.70155434157E+03  0.18441389496E+04  0.17054823281E+04 0.  0.
        2    1    3    3  502    0 -0.15133561377E+03 -0.44470957948E+03 -0.41877038320E+03  0.62931527228E+03  0.25500000920E-02 0.  1.
       -2    1    3    3    0  502  0.15133561377E+03  0.44470957948E+03  0.11203247248E+04  0.12148236773E+04  0.25500000920E-02 0. -1.
</event>
<event>
 5   0  0.9610114E-04  0.1710211E+04  0.7818609E-02  0.8755562E-01
        2   -1    0    0  501    0  0.00000000000E+00  0.00000000000E+00  0.16836890696E+04  0.16836890696E+04  0.25500000920E-02 0.  1.
       -2   -1    0    0    0  501  0.00000000000E+00  0.00000000000E+00 -0.43428761247E+03  0.43428761248E+03  0.25500000920E-02 0. -1.
    10030    2    1    2    0    0  0.00000000000E+00  0.00000000000E+00  0.12494014571E+04  0.21179766821E+04  0.17102108714E+04 0.  0.
        2    1    3    3  502    0  0.39677696538E+03  0.40354313572E+03  0.14185781891E+04  0.15272992834E+04  0.25500000920E-02 0.  1.
       -2    1    3    3    0  502 -0.39677696538E+03 -0.40354313572E+03 -0.16917673194E+03  0.59067739865E+03  0.25500000920E-02 0. -1.
</event>
<event>
 5   0  0.9312096E-04  0.1645472E+04  0.7818609E-02  0.8793090E-01
        2   -1    0    0  501    0  0.00000000000E+00  0.00000000000E+00  0.83465942102E+03  0.83465942103E+03  0.25500000920E-02 0.  1.
       -2   -1    0    0    0  501  0.00000000000E+00  0.00000000000E+00 -0.81098251536E+03  0.81098251537E+03  0.25500000920E-02 0. -1.
    10030    2    1    2    0    0  0.00000000000E+00  0.00000000000E+00  0.23676905662E+02  0.16456419364E+04  0.16454716002E+04 0.  0.
        3    1    3    3  502    0 -0.81379614251E+03  0.49913726552E+01  0.13270257124E+03  0.82455991776E+03  0.10100000352E+00 0.  1.
       -3    1    3    3    0  502  0.81379614251E+03 -0.49913726552E+01 -0.10902566557E+03  0.82108201863E+03  0.10100000352E+00 0. -1.
</event>
<event>
 5   0  0.9610114E-04  0.1720222E+04  0.7818609E-02  0.8749914E-01
        2   -1    0    0  501    0  0.00000000000E+00  0.00000000000E+00  0.53464458435E+03  0.53464458436E+03  0.25500000920E-02 0. -1.
       -2   -1    0    0    0  501  0.00000000000E+00  0.00000000000E+00 -0.13837065741E+04  0.13837065741E+04  0.25500000920E-02 0.  1.
    10030    2    1    2    0    0  0.00000000000E+00  0.00000000000E+00 -0.84906198976E+03  0.19183511585E+04  0.17202223417E+04 0.  0.
        2    1    3    3  502    0  0.18696737519E+03 -0.24580486224E+02 -0.13603693823E+04  0.13733775358E+04  0.25500000920E-02 0.  1.
       -2    1    3    3    0  502 -0.18696737519E+03  0.24580486224E+02  0.51130739253E+03  0.54497362262E+03  0.25500000920E-02 0. -1.
</event>
<event>
 5   0  0.9625225E-04  0.1799994E+04  0.7818609E-02  0.8706302E-01
       -2   -1    0    0    0  501  0.00000000000E+00  0.00000000000E+00  0.87064297224E+03  0.87064297225E+03  0.25500000920E-02 0. -1.
        2   -1    0    0  501    0  0.00000000000E+00  0.00000000000E+00 -0.93034122297E+03  0.93034122297E+03  0.25500000920E-02 0.  1.
    10030    2    1    2    0    0  0.00000000000E+00  0.00000000000E+00 -0.59698250723E+02  0.18009841952E+04  0.17999944973E+04 0.  0.
        1    1    3    3  502    0 -0.64057556793E+03 -0.53916825361E+03 -0.36011482369E+03  0.91143960315E+03  0.50400001928E-02 0.  1.
       -1    1    3    3    0  502  0.64057556793E+03  0.53916825361E+03  0.30041657296E+03  0.88954459206E+03  0.50400001928E-02 0. -1.
</event>
<event>
 5   0  0.5059689E-04  0.1054957E+04  0.7818609E-02  0.9250241E-01
       -1   -1    0    0    0  501  0.00000000000E+00  0.00000000000E+00  0.22834479375E+03  0.22834479381E+03  0.50400001928E-02 0.  1.
        1   -1    0    0  501    0  0.00000000000E+00  0.00000000000E+00 -0.12184794455E+04  0.12184794455E+04  0.50400001928E-02 0. -1.
    10030    2    1    2    0    0  0.00000000000E+00  0.00000000000E+00 -0.99013465170E+03  0.14468242393E+04  0.10549567531E+04 0.  0.
        5    1    3    3  502    0 -0.39511168502E+03 -0.18012674314E+03 -0.84426404081E+02  0.44238986758E+03  0.46999998093E+01 0.  1.
       -5    1    3    3    0  502  0.39511168502E+03  0.18012674314E+03 -0.90570824762E+03  0.10044343717E+04  0.46999998093E+01 0. -1.
</event>
<event>
 5   0  0.1007187E-03  0.1695860E+04  0.7818609E-02  0.8763729E-01
        2   -1    0    0  501    0  0.00000000000E+00  0.00000000000E+00  0.15598580955E+04  0.15598580955E+04  0.25500000920E-02 0.  1.
       -2   -1    0    0    0  501  0.00000000000E+00  0.00000000000E+00 -0.46092989937E+03  0.46092989938E+03  0.25500000920E-02 0. -1.
    10030    2    1    2    0    0  0.00000000000E+00  0.00000000000E+00  0.10989281962E+04  0.20207879949E+04  0.16958599412E+04 0.  0.
        5    1    3    3  502    0 -0.33053984880E+02  0.66116161176E+03  0.11808280032E+04  0.13537370889E+04  0.46999998093E+01 0.  1.
       -5    1    3    3    0  502  0.33053984880E+02 -0.66116161176E+03 -0.81899807035E+02  0.66705090599E+03  0.46999998093E+01 0. -1.
</event>
<event>
 5   0  0.9284971E-04  0.1693212E+04  0.7818609E-02  0.8765245E-01
        2   -1    0    0  501    0  0.00000000000E+00  0.00000000000E+00  0.20231678554E+04  0.20231678554E+04  0.25500000920E-02 0.  1.
       -2   -1    0    0    0  501  0.00000000000E+00  0.00000000000E+00 -0.35426703788E+03  0.35426703789E+03  0.25500000920E-02 0. -1.
    10030    2    1    2    0    0  0.00000000000E+00  0.00000000000E+00  0.16689008175E+04  0.23774348933E+04  0.16932119575E+04 0.  0.
        4    1    3    3  502    0  0.61814572241E+03  0.31011963449E+03  0.15201070197E+04  0.16700315225E+04  0.12699999809E+01 0. -1.
       -4    1    3    3    0  502 -0.61814572241E+03 -0.31011963449E+03  0.14879379778E+03  0.70740337078E+03  0.12699999809E+01 0.  1.
</event>
<event>
 5   0  0.9610114E-04  0.1756456E+04  0.7818609E-02  0.8729805E-01
        2   -1    0    0  501    0  0.00000000000E+00  0.00000000000E+00  0.10999563444E+04  0.10999563444E+04  0.25500000920E-02 0.  1.
       -2   -1    0    0    0  501  0.00000000000E+00  0.00000000000E+00 -0.70119566729E+03  0.70119566729E+03  0.25500000920E-02 0. -1.
    10030    2    1    2    0    0  0.00000000000E+00  0.00000000000E+00  0.39876067715E+03  0.18011520117E+04  0.17564562311E+04 0.  0.
        2    1    3    3  502    0 -0.43776079708E+03  0.63854310239E+03  0.62455478977E+03  0.99470623527E+03  0.25500000920E-02 0.  1.
       -2    1    3    3    0  502  0.43776079708E+03 -0.63854310239E+03 -0.22579411262E+03  0.80644577646E+03  0.25500000920E-02 0. -1.
</event>
<event>
 5   0  0.5059689E-04  0.1678171E+04  0.7818609E-02  0.8773913E-01
        1   -1    0    0  501    0  0.00000000000E+00  0.00000000000E+00  0.82186119994E+03  0.82186119996E+03  0.50400001928E-02 0.  1.
       -1   -1    0    0    0  501  0.00000000000E+00  0.00000000000E+00 -0.85667097175E+03  0.85667097177E+03  0.50400001928E-02 0. -1.
    10030    2    1    2    0    0  0.00000000000E+00  0.00000000000E+00 -0.34809771810E+02  0.16785321717E+04  0.16781711865E+04 0.  0.
        5    1    3    3  502    0 -0.58132711461E+03 -0.67081341469E+02  0.58405750235E+03  0.82679282569E+03  0.46999998093E+01 0.  1.
       -5    1    3    3    0  502  0.58132711461E+03  0.67081341469E+02 -0.61886727416E+03  0.85173934603E+03  0.46999998093E+01 0. -1.
</event>
<event>
 5   0  0.5059689E-04  0.1766399E+04  0.7818609E-02  0.8724375E-01
       -1   -1    0    0    0  501  0.00000000000E+00  0.00000000000E+00  0.54270980298E+03  0.54270980301E+03  0.50400001928E-02 0.  1.
        1   -1    0    0  501    0  0.00000000000E+00  0.00000000000E+00 -0.14373078123E+04  0.14373078123E+04  0.50400001928E-02 0. -1.
    10030    2    1    2    0    0  0.00000000000E+00  0.00000000000E+00 -0.89459800931E+03  0.19800176153E+04  0.17663986409E+04 0.  0.
        5    1    3    3  502    0  0.19321303898E+03  0.49971239133E+03 -0.12343318674E+04  0.13456006099E+04  0.46999998093E+01 0. -1.
       -5    1    3    3    0  502 -0.19321303898E+03 -0.49971239133E+03  0.33973385806E+03  0.63441700544E+03  0.46999998093E+01 0.  1.
</event>
<event>
 5   0  0.9625225E-04  0.1705967E+04  0.7818609E-02  0.8757969E-01
       -2   -1    0    0    0  501  0.00000000000E+00  0.00000000000E+00  0.76736470981E+03  0.76736470981E+03  0.25500000920E-02 0. -1.
        2   -1    0    0  501    0  0.00000000000E+00  0.00000000000E+00 -0.94815484486E+03  0.94815484487E+03  0.25500000920E-02 0.  1.
    10030    2    1    2    0    0  0.00000000000E+00  0.00000000000E+00 -0.18079013506E+03  0.17155195547E+04  0.17059666672E+04 0.  0.
        1    1    3    3  502    0  0.38698094311E+02  0.26036852809E+03 -0.90628988453E+03  0.94374290342E+03  0.50400001928E-02 0.  1.
       -1    1    3    3    0  502 -0.38698094311E+02 -0.26036852809E+03  0.72549974947E+03  0.77177665126E+03  0.50400001928E-02 0. -1.
</event>
<event>
 5   0  0.1007187E-03  0.1705264E+04  0.7818609E-02  0.8758368E-01
        2   -1    0    0  501    0  0.00000000000E+00  0.00000000000E+00  0.10883291739E+04  0.10883291739E+04  0.25500000920E-02 0.  1.
       -2   -1    0    0    0  501  0.00000000000E+00  0.00000000000E+00 -0.66797888154E+03  0.66797888155E+03  0.25500000920E-02 0. -1.
    10030    2    1    2    0    0  0.00000000000E+00  0.00000000000E+00  0.42035029239E+03  0.17563080555E+04  0.17052635038E+04 0.  0.
        5    1    3    3  502    0  0.82816846732E+03  0.96485420340E+02  0.39379923250E+03  0.92210214842E+03  0.46999998093E+01 0.  1.
       -5    1    3    3    0  502 -0.82816846732E+03 -0.96485420340E+02  0.26551059892E+02  0.83420590706E+03  0.46999998093E+01 0. -1.
</event>
<event>
 5   0  0.1007187E-03  0.1711668E+04  0.7818609E-02  0.8754738E-01
       -2   -1    0    0    0  501  0.00000000000E+00  0.00000000000E+00  0.45916444553E+03  0.45916444554E+03  0.25500000920E-02 0. -1.
        2   -1    0    0  501    0  0.00000000000E+00  0.00000000000E+00 -0.15951836996E+04  0.15951836996E+04  0.25500000920E-02 0.  1.
    10030    2    1    2    0    0  0.00000000000E+00  0.00000000000E+00 -0.11360192540E+04  0.20543481451E+04  0.17116677703E+04 0.  0.
        5    1    3    3  502    0  0.23267255781E+03  0.67975855441E+03 -0.99201346290E+01  0.71856016486E+03  0.46999998093E+01 0. -1.
       -5    1    3    3    0  502 -0.23267255781E+03 -0.67975855441E+03 -0.11260991194E+04  0.13357879802E+04  0.46999998093E+01 0.  1.
</event>
<event>
 5   0  0.5035495E-04  0.1809088E+04  0.7818609E-02  0.8701481E-01
       -1   -1    0    0    0  501  0.00000000000E+00  0.00000000000E+00  0.82943236516E+03  0.82943236517E+03  0.50400001928E-02 0. -1.
        1   -1    0    0  501    0  0.00000000000E+00  0.00000000000E+00 -0.98645781676E+03  0.98645781678E+03  0.50400001928E-02 0.  1.
    10030    2    1    2    0    0  0.00000000000E+00  0.00000000000E+00 -0.15702545161E+03  0.18158901819E+04  0.18090882125E+04 0.  0.
        4    1    3    3  502    0  0.14832427405E+03  0.88518793270E+03 -0.19136614572E+03  0.91770386351E+03  0.12699999809E+01 0.  1.
       -4    1    3    3    0  502 -0.14832427405E+03 -0.88518793270E+03  0.34340694116E+02  0.89818631844E+03  0.12699999809E+01 0. -1.
</event>
<event>
 5   0  0.5035495E-04  0.1698116E+04  0.7818609E-02  0.8762439E-01
       -1   -1    0    0    0  501  0.00000000000E+00  0.00000000000E+00  0.72916975364E+03  0.72916975366E+03  0.50400001928E-02 0. -1.
        1   -1    0    0  501    0  0.00000000000E+00  0.00000000000E+00 -0.98865835150E+03  0.98865835152E+03  0.50400001928E-02 0.  1.
    10030    2    1    2    0    0  0.00000000000E+00  0.00000000000E+00 -0.25948859787E+03  0.17178281052E+04  0.16981163289E+04 0.  0.
        4    1    3    3  502    0  0.72757401663E+03 -0.42383917890E+03 -0.19416143903E+02  0.84224829996E+03  0.12699999809E+01 0.  1.
       -4    1    3    3    0  502 -0.72757401663E+03  0.42383917890E+03 -0.24007245396E+03  0.87557980521E+03  0.12699999809E+01 0. -1.
</event>
<event>
 5   0  0.4947006E-04  0.1637196E+04  0.7818609E-02  0.8798017E-01
        1   -1    0    0  501    0  0.00000000000E+00  0.00000000000E+00  0.11075557262E+04  0.11075557262E+04  0.50400001928E-02 0.  1.
       -1   -1    0    0    0  501  0.00000000000E+00  0.00000000000E+00 -0.60502863002E+03  0.60502863004E+03  0.50400001928E-02 0. -1.
    10030    2    1    2    0    0  0.00000000000E+00  0.00000000000E+00  0.50252709619E+03  0.17125843563E+04  0.16371962909E+04 0.  0.
        2    1    3    3  502    0  0.35348186669E+03  0.45617567750E+03 -0.35603613404E+03  0.67809100242E+03  0.25500000920E-02 0. -1.
       -2    1    3    3    0  502 -0.35348186669E+03 -0.45617567750E+03  0.85856323024E+03  0.10344933538E+04  0.25500000920E-02 0.  1.
</event>
<event>
 5   0  0.9625225E-04  0.1677618E+04  0.7818609E-02  0.8774234E-01
        2   -1    0    0  501    0  0.00000000000E+00  0.00000000000E+00  0.82125483378E+03  0.82125483379E+03  0.25500000920E-02 0. -1.
       -2   -1    0    0    0  501  0.00000000000E+00  0.00000000000E+00 -0.85673817239E+03  0.85673817239E+03  0.25500000920E-02 0.  1.
    10030    2    1    2    0    0  0.00000000000E+00  0.00000000000E+00 -0.35483338604E+02  0.16779930062E+04  0.16776177936E+04 0.  0.
        1    1    3    3  502    0 -0.34790118939E+02 -0.74027373276E+03 -0.41074787798E+03  0.84730712913E+03  0.50400001928E-02 0.  1.
       -1    1    3    3    0  502  0.34790118939E+02  0.74027373276E+03  0.37526453937E+03  0.83068587705E+03  0.50400001928E-02 0. -1.
</event>
<event>
 5   0  0.1007187E-03  0.1692274E+04  0.7818609E-02  0.8765783E-01
        2   -1    0    0  501    0  0.00000000000E+00  0.00000000000E+00  0.78237459386E+03  0.78237459386E+03  0.25500000920E-02 0. -1.
       -2   -1    0    0    0  501  0.00000000000E+00  0.00000000000E+00 -0.91509582757E+03  0.91509582757E+03  0.25500000920E-02 0.  1.
    10030    2    1    2    0    0  0.00000000000E+00  0.00000000000E+00 -0.13272123371E+03  0.16974704214E+04  0.16922738862E+04 0.  0.
        5    1    3    3  502    0 -0.67187183060E+02  0.82632733832E+03 -0.23597940116E+03  0.86199730591E+03  0.46999998093E+01 0.  1.
       -5    1    3    3    0  502  0.67187183060E+02 -0.82632733832E+03  0.10325816745E+03  0.83547311553E+03  0.46999998093E+01 0. -1.
</event>
<event>
 5   0  0.9312096E-04  0.1692246E+04  0.7818609E-02  0.8765799E-01
       -2   -1    0    0    0  501  0.00000000000E+00  0.00000000000E+00  0.62187331516E+03  0.62187331517E+03  0.25500000920E-02 0.  1.
        2   -1    0    0  501    0  0.00000000000E+00  0.00000000000E+00 -0.11512375938E+04  0.11512375938E+04  0.25500000920E-02 0. -1.
    10030    2    1    2    0    0  0.00000000000E+00  0.00000000000E+00 -0.52936427866E+03  0.17731109090E+04  0.16922457730E+04 0.  0.
        3    1    3    3  502    0 -0.46762913345E+03 -0.68459677978E+03 -0.44179874772E+03  0.93943381939E+03  0.10100000352E+00 0. -1.
       -3    1    3    3    0  502  0.46762913345E+03  0.68459677978E+03 -0.87565530945E+02  0.83367708961E+03  0.10100000352E+00 0.  1.
</event>
<event>
 5   0  0.5035495E-04  0.1700843E+04  0.7818609E-02  0.8760884E-01
        1   -1    0    0  501    0  0.00000000000E+00  0.00000000000E+00  0.18169157108E+04  0.18169157109E+04  0.50400001928E-02 0. -1.
       -1   -1    0    0    0  501  0.00000000000E+00  0.00000000000E+00 -0.39804627193E+03  0.39804627196E+03  0.50400001928E-02 0.  1.
    10030    2    1    2    0    0  0.00000000000E+00  0.00000000000E+00  0.14188694389E+04  0.22149619828E+04  0.17008427619E+04 0.  0.
        4    1    3    3  502    0  0.14127383984E+03  0.83480109215E+03  0.81332111983E+03  0.11740289682E+04  0.12699999809E+01 0. -1.
       -4    1    3    3    0  502 -0.14127383984E+03 -0.83480109215E+03  0.60554831909E+03  0.10409330146E+04  0.12699999809E+01 0.  1.
</event>
<event>
 5   0  0.9625225E-04  0.1663419E+04  0.7818609E-02  0.8782507E-01
        2   -1    0    0  501    0  0.00000000000E+00  0.00000000000E+00  0.11437943154E+04  0.11437943154E+04  0.25500000920E-02 0. -1.
       -2   -1    0    0    0  501  0.00000000000E+00  0.00000000000E+00 -0.60477704636E+03  0.60477704636E+03  0.25500000920E-02 0.  1.
    10030    2    1    2    0    0  0.00000000000E+00  0.00000000000E+00  0.53901726904E+03  0.17485713618E+04  0.16634188261E+04 0.  0.
        1    1    3    3  502    0 -0.26374261401E+03  0.52136883643E+03 -0.35269974794E+03  0.68248277800E+03  0.50400001928E-02 0.  1.
       -1    1    3    3    0  502  0.26374261401E+03 -0.52136883643E+03  0.89171701698E+03  0.10660885838E+04  0.50400001928E-02 0. -1.
</event>
<event>
 5   0  0.5035495E-04  0.1714335E+04  0.7818609E-02  0.8753231E-01
       -1   -1    0    0    0  501  0.00000000000E+00  0.00000000000E+00  0.54498009343E+03  0.54498009346E+03  0.50400001928E-02 0.  1.
        1   -1    0    0  501    0  0.00000000000E+00  0.00000000000E+00 -0.13481886841E+04  0.13481886841E+04  0.50400001928E-02 0. -1.
    10030    2    1    2    0    0  0.00000000000E+00  0.00000000000E+00 -0.80320859066E+03  0.18931687776E+04  0.17143348507E+04 0.  0.
        4    1    3    3  502    0 -0.41619823050E+03 -0.65717111327E+03 -0.79921898890E+03  0.11152790881E+04  0.12699999809E+01 0. -1.
       -4    1    3    3    0  502  0.41619823050E+03  0.65717111327E+03 -0.39896017691E+01  0.77788968949E+03  0.12699999809E+01 0.  1.
</event>
<event>
 5   0  0.9312096E-04  0.1678092E+04  0.7818609E-02  0.8773959E-01
       -2   -1    0    0    0  501  0.00000000000E+00  0.00000000000E+00  0.33931694820E+03  0.33931694821E+03  0.25500000920E-02 0.  1.
        2   -1    0    0  501    0  0.00000000000E+00  0.00000000000E+00 -0.20747507724E+04  0.20747507724E+04  0.25500000920E-02 0. -1.
    10030    2    1    2    0    0  0.00000000000E+00  0.00000000000E+00 -0.17354338242E+04  0.24140677207E+04  0.16780918931E+04 0.  0.
        3    1    3    3  502    0 -0.98702572765E+02 -0.49182833825E+03  0.99839244778E+02  0.51147355471E+03  0.10100000352E+00 0.  1.
       -3    1    3    3    0  502  0.98702572765E+02  0.49182833825E+03 -0.18352730690E+04  0.19025941659E+04  0.10100000352E+00 0. -1.
</event>
<event>
 5   0  0.9284971E-04  0.1707896E+04  0.7818609E-02  0.8756874E-01
       -2   -1    0    0    0  501  0.00000000000E+00  0.00000000000E+00  0.52971057439E+03  0.52971057439E+03  0.25500000920E-02 0. -1.
        2   -1    0    0  501    0  0.00000000000E+00  0.00000000000E+00 -0.13766519431E+04  0.13766519431E+04  0.25500000920E-02 0.  1.
    10030    2    1    2    0    0  0.00000000000E+00  0.00000000000E+00 -0.84694136866E+03  0.19063625174E+04  0.17078958885E+04 0.  0.
        4    1    3    3  502    0 -0.19235520526E+03  0.21135683332E+03 -0.13216888594E+04  0.13522334451E+04  0.12699999809E+01 0.  1.
       -4    1    3    3    0  502  0.19235520526E+03 -0.21135683332E+03  0.47474749075E+03  0.55412907238E+03  0.12699999809E+01 0. -1.
</event>
<event>
 5   0  0.5074133E-04  0.1487554E+04  0.7818609E-02  0.8892772E-01
       -1   -1    0    0    0  501  0.00000000000E+00  0.00000000000E+00  0.77453359444E+03  0.77453359446E+03  0.50400001928E-02 0. -1.
        1   -1    0    0  501    0  0.00000000000E+00  0.00000000000E+00 -0.71424211985E+03  0.71424211987E+03  0.50400001928E-02 0.  1.
    10030    2    1    2    0    0  0.00000000000E+00  0.00000000000E+00  0.60291474591E+02  0.14887757143E+04  0.14875543908E+04 0.  0.
        1    1    3    3  502    0 -0.24687665302E+03  0.20163204143E+03  0.70271009313E+03  0.77162493282E+03  0.50400001928E-02 0. -1.
       -1    1    3    3    0  502  0.24687665302E+03 -0.20163204143E+03 -0.64241861854E+03  0.71715078150E+03  0.50400001928E-02 0.  1.
</event>
<event>
 5   0  0.9625225E-04  0.1655071E+04  0.7818609E-02  0.8787412E-01
        2   -1    0    0  501    0  0.00000000000E+00  0.00000000000E+00  0.17407033098E+04  0.17407033098E+04  0.25500000920E-02 0.  1.
       -2   -1    0    0    0  501  0.00000000000E+00  0.00000000000E+00 -0.39341305272E+03  0.39341305273E+03  0.25500000920E-02 0. -1.
    10030    2    1    2    0    0  0.00000000000E+00  0.00000000000E+00  0.13472902571E+04  0.21341163625E+04  0.16550714824E+04 0.  0.
        1    1    3    3  502    0 -0.26877643270E+03 -0.45000380763E+03 -0.15207139859E+03  0.54577459446E+03  0.50400001928E-02 0. -1.
       -1    1    3    3    0  502  0.26877643270E+03  0.45000380763E+03  0.14993616557E+04  0.15883417681E+04  0.50400001928E-02 0.  1.
</event>
<event>
 5   0  0.5059689E-04  0.1485900E+04  0.7818609E-02  0.8893884E-01
       -1   -1    0    0    0  501  0.00000000000E+00  0.00000000000E+00  0.61157057504E+03  0.61157057506E+03  0.50400001928E-02 0.  1.
        1   -1    0    0  501    0  0.00000000000E+00  0.00000000000E+00 -0.90255256788E+03  0.90255256790E+03  0.50400001928E-02 0. -1.
    10030    2    1    2    0    0  0.00000000000E+00  0.00000000000E+00 -0.29098199284E+03  0.15141231430E+04  0.14858998526E+04 0.  0.
        5    1    3    3  502    0 -0.12556248039E+03 -0.29921914748E+03  0.53552529205E+03  0.62618484741E+03  0.46999998093E+01 0.  1.
       -5    1    3    3    0  502  0.12556248039E+03  0.29921914748E+03 -0.82650728490E+03  0.88793829554E+03  0.46999998093E+01 0. -1.
</event>
<event>
 5   0  0.5059689E-04  0.1680087E+04  0.7818609E-02  0.8772803E-01
       -1   -1    0    0    0  501  0.00000000000E+00  0.00000000000E+00  0.56137250547E+03  0.56137250549E+03  0.50400001928E-02 0.  1.
        1   -1    0    0  501    0  0.00000000000E+00  0.00000000000E+00 -0.12570500715E+04  0.12570500715E+04  0.50400001928E-02 0. -1.
    10030    2    1    2    0    0  0.00000000000E+00  0.00000000000E+00 -0.69567756599E+03  0.18184225770E+04  0.16800873170E+04 0.  0.
        5    1    3    3  502    0 -0.65441008217E+03 -0.47363864494E+03 -0.59716480300E+03  0.10045964431E+04  0.46999998093E+01 0. -1.
       -5    1    3    3    0  502  0.65441008217E+03  0.47363864494E+03 -0.98512762993E+02  0.81382613383E+03  0.46999998093E+01 0.  1.
</event>
<event>
 5   0  0.5035495E-04  0.1718942E+04  0.7818609E-02  0.8750634E-01
        1   -1    0    0  501    0  0.00000000000E+00  0.00000000000E+00  0.28381749978E+04  0.28381749978E+04  0.50400001928E-02 0. -1.
       -1   -1    0    0    0  501  0.00000000000E+00  0.00000000000E+00 -0.26026941670E+03  0.26026941675E+03  0.50400001928E-02 0.  1.
    10030    2    1    2    0    0  0.00000000000E+00  0.00000000000E+00  0.25779055811E+04  0.30984444146E+04  0.17189417108E+04 0.  0.
        4    1    3    3  502    0 -0.14969312359E+03  0.33592599046E+03 -0.11127125886E+03  0.38423587582E+03  0.12699999809E+01 0.  1.
       -4    1    3    3    0  502  0.14969312359E+03 -0.33592599046E+03  0.26891768400E+04  0.27142085388E+04  0.12699999809E+01 0. -1.
</event>
<event>
 5   0  0.5009762E-04  0.1266811E+04  0.7818609E-02  0.9056306E-01
        1   -1    0    0  501    0  0.00000000000E+00  0.00000000000E+00  0.11065035780E+04  0.11065035780E+04  0.50400001928E-02 0.  1.
       -1   -1    0    0    0  501  0.00000000000E+00  0.00000000000E+00 -0.36258583225E+03  0.36258583229E+03  0.50400001928E-02 0. -1.
    10030    2    1    2    0    0  0.00000000000E+00  0.00000000000E+00  0.74391774573E+03  0.14690894103E+04  0.12668109894E+04 0.  0.
        3    1    3    3  502    0  0.29627070494E+03 -0.21584605791E+03 -0.22708572124E+03  0.43120040157E+03  0.10100000352E+00 0. -1.
       -3    1    3    3    0  502 -0.29627070494E+03  0.21584605791E+03  0.97100346697E+03  0.10378890087E+04  0.10100000352E+00 0.  1.
</event>
<event>
 5   0  0.5009762E-04  0.1658842E+04  0.7818609E-02  0.8785193E-01
        1   -1    0    0  501    0  0.00000000000E+00  0.00000000000E+00  0.17035837491E+04  0.17035837491E+04  0.50400001928E-02 0.  1.
       -1   -1    0    0    0  501  0.00000000000E+00  0.00000000000E+00 -0.40381903831E+03  0.40381903834E+03  0.50400001928E-02 0. -1.
    10030    2    1    2    0    0  0.00000000000E+00  0.00000000000E+00  0.12997647108E+04  0.21074027875E+04  0.16588424293E+04 0.  0.
        3    1    3    3  502    0 -0.47206847505E+03  0.64222006652E+03  0.35839614170E+03  0.87392394610E+03  0.10100000352E+00 0.  1.
       -3    1    3    3    0  502  0.47206847505E+03 -0.64222006652E+03  0.94136856910E+03  0.12334788414E+04  0.10100000352E+00 0. -1.
</event>
<event>
 5   0  0.5035495E-04  0.1730231E+04  0.7818609E-02  0.8744308E-01
       -1   -1    0    0    0  501  0.00000000000E+00  0.00000000000E+00  0.78405841700E+03  0.78405841702E+03  0.50400001928E-02 0.  1.
        1   -1    0    0  501    0  0.00000000000E+00  0.00000000000E+00 -0.95455192034E+03  0.95455192035E+03  0.50400001928E-02 0. -1.
    10030    2    1    2    0    0  0.00000000000E+00  0.00000000000E+00 -0.17049350334E+03  0.17386103374E+04  0.17302305831E+04 0.  0.
        4    1    3    3  502    0  0.32301483973E+03  0.78963433930E+03  0.58841862679E+02  0.85517539382E+03  0.12699999809E+01 0.  1.
       -4    1    3    3    0  502 -0.32301483973E+03 -0.78963433930E+03 -0.22933536602E+03  0.88343494356E+03  0.12699999809E+01 0. -1.
</event>
<event>
 5   0  0.5009762E-04  0.1699142E+04  0.7818609E-02  0.8761854E-01
       -1   -1    0    0    0  501  0.00000000000E+00  0.00000000000E+00  0.31327567321E+03  0.31327567325E+03  0.50400001928E-02 0. -1.
        1   -1    0    0  501    0  0.00000000000E+00  0.00000000000E+00 -0.23039483318E+04  0.23039483318E+04  0.50400001928E-02 0.  1.
    10030    2    1    2    0    0  0.00000000000E+00  0.00000000000E+00 -0.19906726586E+04  0.26172240051E+04  0.16991420950E+04 0.  0.
        3    1    3    3  502    0 -0.36476435517E+03 -0.70054530635E+02 -0.21722566611E+04  0.22037830393E+04  0.10100000352E+00 0.  1.
       -3    1    3    3    0  502  0.36476435517E+03  0.70054530635E+02  0.18158400250E+03  0.41344096584E+03  0.10100000352E+00 0. -1.
</event>
<event>
 5   0  0.5074133E-04  0.1702092E+04  0.7818609E-02  0.8760172E-01
       -1   -1    0    0    0  501  0.00000000000E+00  0.00000000000E+00  0.14195716665E+04  0.14195716665E+04  0.50400001928E-02 0.  1.
        1   -1    0    0  501    0  0.00000000000E+00  0.00000000000E+00 -0.51020993592E+03  0.51020993594E+03  0.50400001928E-02 0. -1.
    10030    2    1    2    0    0  0.00000000000E+00  0.00000000000E+00  0.90936173056E+03  0.19297816024E+04  0.17020923230E+04 0.  0.
        1    1    3    3  502    0 -0.45945224168E+03 -0.53619412523E+03  0.99328624554E+03  0.12186952318E+04  0.50400001928E-02 0.  1.
       -1    1    3    3    0  502  0.45945224168E+03  0.53619412523E+03 -0.83924514978E+02  0.71108637067E+03  0.50400001928E-02 0. -1.
</event>
<event>
 5   0  0.5059689E-04  0.1737842E+04  0.7818609E-02  0.8740071E-01
       -1   -1    0    0    0  501  0.00000000000E+00  0.00000000000E+00  0.51806200281E+03  0.51806200283E+03  0.50400001928E-02 0. -1.
        1   -1    0    0  501    0  0.00000000000E+00  0.00000000000E+00 -0.14574005114E+04  0.14574005114E+04  0.50400001928E-02 0.  1.
    10030    2    1    2    0    0  0.00000000000E+00  0.00000000000E+00 -0.93933850862E+03  0.19754625143E+04  0.17378421423E+04 0.  0.
        5    1    3    3  502    0 -0.36754460021E+03 -0.30836611283E+03  0.35383323616E+03  0.59615328708E+03  0.46999998093E+01 0. -1.
       -5    1    3    3    0  502  0.36754460021E+03  0.30836611283E+03 -0.12931717448E+04  0.13793092272E+04  0.46999998093E+01 0.  1.
</event>
<event>
 5   0  0.9312096E-04  0.1695957E+04  0.7818609E-02  0.8763674E-01
        2   -1    0    0  501    0  0.00000000000E+00  0.00000000000E+00  0.18312776962E+04  0.18312776962E+04  0.25500000920E-02 0. -1.
       -2   -1    0    0    0  501  0.00000000000E+00  0.00000000000E+00 -0.39265896446E+03  0.39265896446E+03  0.25500000920E-02 0.  1.
    10030    2    1    2    0    0  0.00000000000E+00  0.00000000000E+00  0.14386187317E+04  0.22239366606E+04  0.16959570794E+04 0.  0.
        3    1    3    3  502    0 -0.22401475140E+03 -0.41149535474E+02  0.17904164078E+04  0.18048453720E+04  0.10100000352E+00 0. -1.
       -3    1    3    3    0  502  0.22401475140E+03  0.41149535474E+02 -0.35179767611E+03  0.41909128866E+03  0.10100000352E+00 0.  1.
</event>
<event>
 5   0  0.9610114E-04  0.1684843E+04  0.7818609E-02  0.8770057E-01
       -2   -1    0    0    0  501  0.00000000000E+00  0.00000000000E+00  0.88784418781E+03  0.88784418781E+03  0.25500000920E-02 0. -1.
        2   -1    0    0  501    0  0.00000000000E+00  0.00000000000E+00 -0.79932221843E+03  0.79932221843E+03  0.25500000920E-02 0.  1.
    10030    2    1    2    0    0  0.00000000000E+00  0.00000000000E+00  0.88521969383E+02  0.16871664062E+04  0.16848425277E+04 0.  0.
        2    1    3    3  502    0  0.83200480050E+02  0.38051854893E+03  0.79225638896E+03  0.88282890291E+03  0.25500000920E-02 0. -1.
       -2    1    3    3    0  502 -0.83200480050E+02 -0.38051854893E+03 -0.70373441958E+03  0.80433750333E+03  0.25500000920E-02 0.  1.
</event>
<event>
 5   0  0.5059689E-04  0.1648825E+04  0.7818609E-02  0.8791102E-01
       -1   -1    0    0    0  501  0.00000000000E+00  0.00000000000E+00  0.45682983293E+03  0.45682983296E+03  0.50400001928E-02 0.  1.
        1   -1    0    0  501    0  0.00000000000E+00  0.00000000000E+00 -0.14877668913E+04  0.14877668913E+04  0.50400001928E-02 0. -1.
    10030    2    1    2    0    0  0.00000000000E+00  0.00000000000E+00 -0.10309370583E+04  0.19445967242E+04  0.16488254006E+04 0.  0.
        5    1    3    3  502    0  0.30633704799E+03 -0.39152332791E+03 -0.12910878033E+04  0.13834965519E+04  0.46999998093E+01 0. -1.
       -5    1    3    3    0  502 -0.30633704799E+03  0.39152332791E+03  0.26015074499E+03  0.56110017232E+03  0.46999998093E+01 0.  1.
</event>
<event>
 5   0  0.9312096E-04  0.1302628E+04  0.7818609E-02  0.9027484E-01
        2   -1    0    0  501    0  0.00000000000E+00  0.00000000000E+00  0.44665206937E+03  0.44665206938E+03  0.25500000920E-02 0. -1.
       -2   -1    0    0    0  501  0.00000000000E+00  0.00000000000E+00 -0.94975419392E+03  0.94975419393E+03  0.25500000920E-02 0.  1.
    10030    2    1    2    0    0  0.00000000000E+00  0.00000000000E+00 -0.50310212455E+03  0.13964062633E+04  0.13026276154E+04 0.  0.
        3    1    3    3  502    0 -0.45790411538E+03 -0.15335339528E+03 -0.72006944355E+03  0.86700257004E+03  0.10100000352E+00 0.  1.
       -3    1    3    3    0  502  0.45790411538E+03  0.15335339528E+03  0.21696731900E+03  0.52940369326E+03  0.10100000352E+00 0. -1.
</event>
<event>
 5   0  0.9625225E-04  0.1704111E+04  0.7818609E-02  0.8759023E-01
       -2   -1    0    0    0  501  0.00000000000E+00  0.00000000000E+00  0.37334638246E+03  0.37334638247E+03  0.25500000920E-02 0. -1.
        2   -1    0    0  501    0  0.00000000000E+00  0.00000000000E+00 -0.19445708331E+04  0.19445708331E+04  0.25500000920E-02 0.  1.
    10030    2    1    2    0    0  0.00000000000E+00  0.00000000000E+00 -0.15712244507E+04  0.23179172156E+04  0.17041108955E+04 0.  0.
        1    1    3    3  502    0 -0.69785328584E+02 -0.84357844961E+03 -0.91821445984E+03  0.12488444207E+04  0.50400001928E-02 0. -1.
       -1    1    3    3    0  502  0.69785328584E+02  0.84357844961E+03 -0.65300999082E+03  0.10690727949E+04  0.50400001928E-02 0.  1.
</event>
<event>
 5   0  0.9284971E-04  0.1631099E+04  0.7818609E-02  0.8801667E-01
        2   -1    0    0  501    0  0.00000000000E+00  0.00000000000E+00  0.14016705535E+04  0.14016705535E+04  0.25500000920E-02 0.  1.
       -2   -1    0    0    0  501  0.00000000000E+00  0.00000000000E+00 -0.47452002913E+03  0.47452002913E+03  0.25500000920E-02 0. -1.
    10030    2    1    2    0    0  0.00000000000E+00  0.00000000000E+00  0.92715052435E+03  0.18761905826E+04  0.16310987118E+04 0.  0.
        4    1    3    3  502    0 -0.80100777743E+03  0.15110746789E+03  0.43375235099E+03  0.92335780781E+03  0.12699999809E+01 0. -1.
       -4    1    3    3    0  502  0.80100777743E+03 -0.15110746789E+03  0.49339817336E+03  0.95283277480E+03  0.12699999809E+01 0.  1.
</event>
<event>
 5   0  0.9610114E-04  0.1701749E+04  0.7818609E-02  0.8760367E-01
       -2   -1    0    0    0  501  0.00000000000E+00  0.00000000000E+00  0.96919075305E+03  0.96919075306E+03  0.25500000920E-02 0.  1.
        2   -1    0    0  501    0  0.00000000000E+00  0.00000000000E+00 -0.74700212935E+03  0.74700212935E+03  0.25500000920E-02 0. -1.
    10030    2    1    2    0    0  0.00000000000E+00  0.00000000000E+00  0.22218862370E+03  0.17161928824E+04  0.17017491663E+04 0.  0.
        2    1    3    3  502    0 -0.53866081395E+02 -0.36517443912E+03 -0.66205045564E+03  0.75800048254E+03  0.25500000920E-02 0. -1.
       -2    1    3    3    0  502  0.53866081395E+02  0.36517443912E+03  0.88423907935E+03  0.95819239987E+03  0.25500000920E-02 0.  1.
</event>
<event>
 5   0  0.5059689E-04  0.1701154E+04  0.7818609E-02  0.8760706E-01
       -1   -1    0    0    0  501  0.00000000000E+00  0.00000000000E+00  0.83877770783E+03  0.83877770785E+03  0.50400001928E-02 0. -1.
        1   -1    0    0  501    0  0.00000000000E+00  0.00000000000E+00 -0.86254275700E+03  0.86254275701E+03  0.50400001928E-02 0.  1.
    10030    2    1    2    0    0  0.00000000000E+00  0.00000000000E+00 -0.23765049164E+02  0.17013204649E+04  0.17011544746E+04 0.  0.
        5    1    3    3  502    0  0.77581694099E+03  0.30014819546E+03  0.16555711263E+03  0.84818165077E+03  0.46999998093E+01 0. -1.
       -5    1    3    3    0  502 -0.77581694099E+03 -0.30014819546E+03 -0.18932216179E+03  0.85313881409E+03  0.46999998093E+01 0.  1.
</event>
<event>
 5   0  0.9610114E-04  0.1687602E+04  0.7818609E-02  0.8768467E-01
        2   -1    0    0  501    0  0.00000000000E+00  0.00000000000E+00  0.99615419024E+03  0.99615419024E+03  0.25500000920E-02 0.  1.
       -2   -1    0    0    0  501  0.00000000000E+00  0.00000000000E+00 -0.71474910350E+03  0.71474910350E+03  0.25500000920E-02 0. -1.
    10030    2    1    2    0    0  0.00000000000E+00  0.00000000000E+00  0.28140508674E+03  0.17109032937E+04  0.16876022214E+04 0.  0.
        2    1    3    3  502    0  0.61762179128E+03 -0.56703030851E+03  0.44416118720E+02  0.83961469701E+03  0.25500000920E-02 0.  1.
       -2    1    3    3    0  502 -0.61762179128E+03  0.56703030851E+03  0.23698896802E+03  0.87128859673E+03  0.25500000920E-02 0. -1.
</event>
<event>
 5   0  0.5059689E-04  0.1539711E+04  0.7818609E-02  0.8858467E-01
        1   -1    0    0  501    0  0.00000000000E+00  0.00000000000E+00  0.83221678226E+03  0.83221678228E+03  0.50400001928E-02 0.  1.
       -1   -1    0    0    0  501  0.00000000000E+00  0.00000000000E+00 -0.71216699850E+03  0.71216699852E+03  0.50400001928E-02 0. -1.
    10030    2    1    2    0    0  0.00000000000E+00  0.00000000000E+00  0.12004978377E+03  0.15443837808E+04  0.15397107884E+04 0.  0.
        5    1    3    3  502    0 -0.27218712581E+03 -0.43416586839E+03 -0.51623542606E+03  0.72739737272E+03  0.46999998093E+01 0. -1.
       -5    1    3    3    0  502  0.27218712581E+03  0.43416586839E+03  0.63628520983E+03  0.81698640807E+03  0.46999998093E+01 0.  1.
</event>
<event>
 5   0  0.4947006E-04  0.1665473E+04  0.7818609E-02  0.8781305E-01
        1   -1    0    0  501    0  0.00000000000E+00  0.00000000000E+00  0.15831599859E+04  0.15831599859E+04  0.50400001928E-02 0. -1.
       -1   -1    0    0    0  501  0.00000000000E+00  0.00000000000E+00 -0.43801617227E+03  0.43801617230E+03  0.50400001928E-02 0.  1.
    10030    2    1    2    0    0  0.00000000000E+00  0.00000000000E+00  0.11451438137E+04  0.20211761582E+04  0.16654725181E+04 0.  0.
        2    1    3    3  502    0  0.26628152261E+01  0.76088177978E+03  0.16192146819E+03  0.77792463340E+03  0.25500000920E-02 0.  1.
       -2    1    3    3    0  502 -0.26628152261E+01 -0.76088177978E+03  0.98322234547E+03  0.12432515248E+04  0.25500000920E-02 0. -1.
</event>
<event>
 5   0  0.4947006E-04  0.1673353E+04  0.7818609E-02  0.8776710E-01
       -1   -1    0    0    0  501  0.00000000000E+00  0.00000000000E+00  0.81390786971E+03  0.81390786973E+03  0.50400001928E-02 0. -1.
        1   -1    0    0  501    0  0.00000000000E+00  0.00000000000E+00 -0.86008187170E+03  0.86008187171E+03  0.50400001928E-02 0.  1.
    10030    2    1    2    0    0  0.00000000000E+00  0.00000000000E+00 -0.46174001986E+02  0.16739897414E+04  0.16733528068E+04 0.  0.
        2    1    3    3  502    0 -0.26304715596E+02 -0.55462864539E+03 -0.64920264053E+03  0.85426514668E+03  0.25500000920E-02 0.  1.
       -2    1    3    3    0  502  0.26304715596E+02  0.55462864539E+03  0.60302863855E+03  0.81972459476E+03  0.25500000920E-02 0. -1.
</event>
<event>
 5   0  0.5035495E-04  0.1724104E+04  0.7818609E-02  0.8747735E-01
        1   -1    0    0  501    0  0.00000000000E+00  0.00000000000E+00  0.12171894470E+04  0.12171894470E+04  0.50400001928E-02 0. -1.
       -1   -1    0    0    0  501  0.00000000000E+00  0.00000000000E+00 -0.61053271028E+03  0.61053271030E+03  0.50400001928E-02 0.  1.
    10030    2    1    2    0    0  0.00000000000E+00  0.00000000000E+00  0.60665673669E+03  0.18277221573E+04  0.17241043727E+04 0.  0.
        4    1    3    3  502    0  0.60443601662E+03  0.24430360348E+03 -0.29457639686E+03  0.71540479126E+03  0.12699999809E+01 0.  1.
       -4    1    3    3    0  502 -0.60443601662E+03 -0.24430360348E+03  0.90123313355E+03  0.11123173660E+04  0.12699999809E+01 0. -1.
</event>
<event>
 5   0  0.9625225E-04  0.1031025E+04  0.7818609E-02  0.9275157E-01
       -2   -1    0    0    0  501  0.00000000000E+00  0.00000000000E+00  0.16469238665E+03  0.16469238667E+03  0.25500000920E-02 0. -1.
        2   -1    0    0  501    0  0.00000000000E+00  0.00000000000E+00 -0.16136329745E+04  0.16136329745E+04  0.25500000920E-02 0.  1.
    10030    2    1    2    0    0  0.00000000000E+00  0.00000000000E+00 -0.14489405878E+04  0.17783253611E+04  0.10310248605E+04 0.  0.
        1    1    3    3  502    0  0.49361839045E+03 -0.13407641595E+03 -0.83514720884E+03  0.97933980883E+03  0.50400001928E-02 0.  1.
       -1    1    3    3    0  502 -0.49361839045E+03  0.13407641595E+03 -0.61379337896E+03  0.79898555230E+03  0.50400001928E-02 0. -1.
</event>
<event>
 5   0  0.9284971E-04  0.1317727E+04  0.7818609E-02  0.9015624E-01
       -2   -1    0    0    0  501  0.00000000000E+00  0.00000000000E+00  0.52079091534E+03  0.52079091535E+03  0.25500000920E-02 0. -1.
        2   -1    0    0  501    0  0.00000000000E+00  0.00000000000E+00 -0.83354234564E+03  0.83354234565E+03  0.25500000920E-02 0.  1.
    10030    2    1    2    0    0  0.00000000000E+00  0.00000000000E+00 -0.31275143031E+03  0.13543332610E+04  0.13177272573E+04 0.  0.
        4    1    3    3  502    0  0.28140529227E+03  0.19399869831E+03  0.42254368315E+03  0.54347880412E+03  0.12699999809E+01 0. -1.
       -4    1    3    3    0  502 -0.28140529227E+03 -0.19399869831E+03 -0.73529511345E+03  0.81085445687E+03  0.12699999809E+01 0.  1.
</event>
<event>
 5   0  0.5009762E-04  0.1466072E+04  0.7818609E-02  0.8907333E-01
       -1   -1    0    0    0  501  0.00000000000E+00  0.00000000000E+00  0.61485843573E+03  0.61485843575E+03  0.50400001928E-02 0. -1.
        1   -1    0    0  501    0  0.00000000000E+00  0.00000000000E+00 -0.87392758155E+03  0.87392758156E+03  0.50400001928E-02 0.  1.
    10030    2    1    2    0    0  0.00000000000E+00  0.00000000000E+00 -0.25906914582E+03  0.14887860173E+04  0.14660719570E+04 0.  0.
        3    1    3    3  502    0  0.52640583941E+03 -0.38211628161E+03  0.21367473026E+03  0.68466989198E+03  0.10100000352E+00 0. -1.
       -3    1    3    3    0  502 -0.52640583941E+03  0.38211628161E+03 -0.47274387608E+03  0.80411612533E+03  0.10100000352E+00 0.  1.
</event>
<event>
 5   0  0.9312096E-04  0.9219603E+03  0.7818609E-02  0.9398539E-01
        2   -1    0    0  501    0  0.00000000000E+00  0.00000000000E+00  0.19681149629E+04  0.19681149629E+04  0.25500000920E-02 0. -1.
       -2   -1    0    0    0  501  0.00000000000E+00  0.00000000000E+00 -0.10797270314E+03  0.10797270317E+03  0.25500000920E-02 0.  1.
    10030    2    1    2    0    0  0.00000000000E+00  0.00000000000E+00  0.18601422598E+04  0.20760876661E+04  0.92196028693E+03 0.  0.
        3    1    3    3  502    0 -0.42830384998E+03 -0.16041536921E+03  0.80021702770E+03  0.92169657708E+03  0.10100000352E+00 0.  1.
       -3    1    3    3    0  502  0.42830384998E+03  0.16041536921E+03  0.10599252321E+04  0.11543910890E+04  0.10100000352E+00 0. -1.
</event>
<event>
 5   0  0.5009762E-04  0.1733276E+04  0.7818609E-02  0.8742610E-01
        1   -1    0    0  501    0  0.00000000000E+00  0.00000000000E+00  0.10672128899E+04  0.10672128899E+04  0.50400001928E-02 0. -1.
       -1   -1    0    0    0  501  0.00000000000E+00  0.00000000000E+00 -0.70375991190E+03  0.70375991192E+03  0.50400001928E-02 0.  1.
    10030    2    1    2    0    0  0.00000000000E+00  0.00000000000E+00  0.36345297800E+03  0.17709728018E+04  0.17332762612E+04 0.  0.
        3    1    3    3  502    0  0.70475129026E+03  0.30376608966E+03  0.59311635337E+03  0.96991506700E+03  0.10100000352E+00 0.  1.
       -3    1    3    3    0  502 -0.70475129026E+03 -0.30376608966E+03 -0.22966337537E+03  0.80105773483E+03  0.10100000352E+00 0. -1.
</event>
<event>
 5   0  0.4947006E-04  0.1697132E+04  0.7818609E-02  0.8763002E-01
       -1   -1    0    0    0  501  0.00000000000E+00  0.00000000000E+00  0.74572715350E+03  0.74572715352E+03  0.50400001928E-02 0. -1.
        1   -1    0    0  501    0  0.00000000000E+00  0.00000000000E+00 -0.96558688770E+03  0.96558688771E+03  0.50400001928E-02 0.  1.
    10030    2    1    2    0    0  0.00000000000E+00  0.00000000000E+00 -0.21985973419E+03  0.17113140412E+04  0.16971321236E+04 0.  0.
        2    1    3    3  502    0  0.34960658950E+02  0.12670010979E+03  0.73540074791E+03  0.74705383041E+03  0.25500000920E-02 0. -1.
       -2    1    3    3    0  502 -0.34960658950E+02 -0.12670010979E+03 -0.95526048210E+03  0.96426021082E+03  0.25500000920E-02 0.  1.
</event>
<event>
 5   0  0.9610114E-04  0.1696211E+04  0.7818609E-02  0.8763528E-01
        2   -1    0    0  501    0  0.00000000000E+00  0.00000000000E+00  0.65148510632E+03  0.65148510633E+03  0.25500000920E-02 0. -1.
       -2   -1    0    0    0  501  0.00000000000E+00  0.00000000000E+00 -0.11040668190E+04  0.11040668190E+04  0.25500000920E-02 0.  1.
    10030    2    1    2    0    0  0.00000000000E+00  0.00000000000E+00 -0.45258171264E+03  0.17555519253E+04  0.16962111767E+04 0.  0.
        2    1    3    3  502    0  0.52674665474E+02 -0.17449742078E+03 -0.10835547441E+04  0.10987788011E+04  0.25500000920E-02 0.  1.
       -2    1    3    3    0  502 -0.52674665474E+02  0.17449742078E+03  0.63097303146E+03  0.65677312421E+03  0.25500000920E-02 0. -1.
</event>
<event>
 5   0  0.3523125E-04  0.1684354E+04  0.7818609E-02  0.8770338E-01
       -3   -1    0    0    0  501  0.00000000000E+00  0.00000000000E+00  0.96245356924E+03  0.96245357454E+03  0.10100000352E+00 0. -1.
        3   -1    0    0  501    0  0.00000000000E+00  0.00000000000E+00 -0.73693127639E+03  0.73693128331E+03  0.10100000352E+00 0.  1.
    10030    2    1    2    0    0  0.00000000000E+00  0.00000000000E+00  0.22552229286E+03  0.16993848578E+04  0.16843540573E+04 0.  0.
        2    1    3    3  502    0 -0.32081719153E+03 -0.99045707225E+02  0.89200597482E+03  0.95310460162E+03  0.25500000920E-02 0. -1.
       -2    1    3    3    0  502  0.32081719153E+03  0.99045707225E+02 -0.66648368197E+03  0.74628025623E+03  0.25500000920E-02 0.  1.
</event>
<event>
 5   0  0.5074133E-04  0.1690172E+04  0.7818609E-02  0.8766989E-01
       -1   -1    0    0    0  501  0.00000000000E+00  0.00000000000E+00  0.83013881735E+03  0.83013881736E+03  0.50400001928E-02 0.  1.
        1   -1    0    0  501    0  0.00000000000E+00  0.00000000000E+00 -0.86030262696E+03  0.86030262698E+03  0.50400001928E-02 0. -1.
    10030    2    1    2    0    0  0.00000000000E+00  0.00000000000E+00 -0.30163809619E+02  0.16904414443E+04  0.16901723052E+04 0.  0.
        1    1    3    3  502    0  0.27039929169E+03  0.59776823050E+03 -0.54782794049E+03  0.85472690770E+03  0.50400001928E-02 0. -1.
       -1    1    3    3    0  502 -0.27039929169E+03 -0.59776823050E+03  0.51766413087E+03  0.83571453664E+03  0.50400001928E-02 0.  1.
</event>
<event>
 5   0  0.9284971E-04  0.1846485E+04  0.7818609E-02  0.8681963E-01
        2   -1    0    0  501    0  0.00000000000E+00  0.00000000000E+00  0.94804323342E+03  0.94804323342E+03  0.25500000920E-02 0.  1.
       -2   -1    0    0    0  501  0.00000000000E+00  0.00000000000E+00 -0.89909039901E+03  0.89909039901E+03  0.25500000920E-02 0. -1.
    10030    2    1    2    0    0  0.00000000000E+00  0.00000000000E+00  0.48952834411E+02  0.18471336324E+04  0.18464848432E+04 0.  0.
        4    1    3    3  502    0 -0.79968119559E+01  0.59523083868E+03 -0.68147066597E+03  0.90485776882E+03  0.12699999809E+01 0. -1.
       -4    1    3    3    0  502  0.79968119559E+01 -0.59523083868E+03  0.73042350038E+03  0.94227586360E+03  0.12699999809E+01 0.  1.
</event>
<event>
 5   0  0.5074133E-04  0.1687860E+04  0.7818609E-02  0.8768319E-01
       -1   -1    0    0    0  501  0.00000000000E+00  0.00000000000E+00  0.14286429604E+04  0.14286429604E+04  0.50400001928E-02 0.  1.
        1   -1    0    0  501    0  0.00000000000E+00  0.00000000000E+00 -0.49852750055E+03  0.49852750057E+03  0.50400001928E-02 0. -1.
    10030    2    1    2    0    0  0.00000000000E+00  0.00000000000E+00  0.93011545985E+03  0.19271704610E+04  0.16878599518E+04 0.  0.
        1    1    3    3  502    0 -0.80315494794E+03  0.18467753010E+03  0.25747239122E+03  0.86339776048E+03  0.50400001928E-02 0. -1.
       -1    1    3    3    0  502  0.80315494794E+03 -0.18467753010E+03  0.67264306863E+03  0.10637727005E+04  0.50400001928E-02 0.  1.
</event>
<event>
 5   0  0.9284971E-04  0.1683604E+04  0.7818609E-02  0.8770771E-01
       -2   -1    0    0    0  501  0.00000000000E+00  0.00000000000E+00  0.35082370885E+03  0.35082370886E+03  0.25500000920E-02 0. -1.
        2   -1    0    0  501    0  0.00000000000E+00  0.00000000000E+00 -0.20199059349E+04  0.20199059349E+04  0.25500000920E-02 0.  1.
    10030    2    1    2    0    0  0.00000000000E+00  0.00000000000E+00 -0.16690822261E+04  0.23707296438E+04  0.16836043379E+04 0.  0.
        4    1    3    3  502    0 -0.27787017506E+03  0.71470098858E+03 -0.13235891847E+04  0.15296729324E+04  0.12699999809E+01 0.  1.
       -4    1    3    3    0  502  0.27787017506E+03 -0.71470098858E+03 -0.34549304137E+03  0.84105671141E+03  0.12699999809E+01 0. -1.
</event>
<event>
 5   0  0.1007187E-03  0.1696464E+04  0.7818609E-02  0.8763383E-01
        2   -1    0    0  501    0  0.00000000000E+00  0.00000000000E+00  0.20012438900E+04  0.20012438900E+04  0.25500000920E-02 0.  1.
       -2   -1    0    0    0  501  0.00000000000E+00  0.00000000000E+00 -0.35952526185E+03  0.35952526186E+03  0.25500000920E-02 0. -1.
    10030    2    1    2    0    0  0.00000000000E+00  0.00000000000E+00  0.16417186281E+04  0.23607691518E+04  0.16964642449E+04 0.  0.
        5    1    3    3  502    0 -0.31111935198E+03  0.58707801597E+03  0.15546068751E+04  0.16906449876E+04  0.46999998093E+01 0. -1.
       -5    1    3    3    0  502  0.31111935198E+03 -0.58707801597E+03  0.87111753062E+02  0.67012416426E+03  0.46999998093E+01 0.  1.
</event>
<event>
 5   0  0.5035495E-04  0.1697448E+04  0.7818609E-02  0.8762821E-01
        1   -1    0    0  501    0  0.00000000000E+00  0.00000000000E+00  0.49017729733E+03  0.49017729735E+03  0.50400001928E-02 0. -1.
       -1   -1    0    0    0  501  0.00000000000E+00  0.00000000000E+00 -0.14695343380E+04  0.14695343381E+04  0.50400001928E-02 0.  1.
    10030    2    1    2    0    0  0.00000000000E+00  0.00000000000E+00 -0.97935704072E+03  0.19597116354E+04  0.16974479317E+04 0.  0.
        4    1    3    3  502    0 -0.13581734201E+03 -0.54649791065E+03 -0.12227885039E+04  0.13462242216E+04  0.12699999809E+01 0.  1.
       -4    1    3    3    0  502  0.13581734201E+03  0.54649791065E+03  0.24343146315E+03  0.61348741380E+03  0.12699999809E+01 0. -1.
</event>
<event>
 5   0  0.1007187E-03  0.1691129E+04  0.7818609E-02  0.8766440E-01
        2   -1    0    0  501    0  0.00000000000E+00  0.00000000000E+00  0.24468330435E+04  0.24468330435E+04  0.25500000920E-02 0. -1.
       -2   -1    0    0    0  501  0.00000000000E+00  0.00000000000E+00 -0.29220608188E+03  0.29220608189E+03  0.25500000920E-02 0.  1.
    10030    2    1    2    0    0  0.00000000000E+00  0.00000000000E+00  0.21546269617E+04  0.27390391254E+04  0.16911292046E+04 0.  0.
        5    1    3    3  502    0  0.70690711158E+02  0.81920751644E+03  0.75803562844E+03  0.11183640890E+04  0.46999998093E+01 0.  1.
       -5    1    3    3    0  502 -0.70690711158E+02 -0.81920751644E+03  0.13965913332E+04  0.16206750364E+04  0.46999998093E+01 0. -1.
</event>
<event>
 5   0  0.4947006E-04  0.1746205E+04  0.7818609E-02  0.8735442E-01
       -1   -1    0    0    0  501  0.00000000000E+00  0.00000000000E+00  0.80797404583E+03  0.80797404584E+03  0.50400001928E-02 0.  1.
        1   -1    0    0  501    0  0.00000000000E+00  0.00000000000E+00 -0.94348106892E+03  0.94348106893E+03  0.50400001928E-02 0. -1.
    10030    2    1    2    0    0  0.00000000000E+00  0.00000000000E+00 -0.13550702310E+03  0.17514551148E+04  0.17462052760E+04 0.  0.
        2    1    3    3  502    0  0.44229671503E+03  0.40247492919E+03  0.57031607570E+03  0.82636122789E+03  0.25500000920E-02 0.  1.
       -2    1    3    3    0  502 -0.44229671503E+03 -0.40247492919E+03 -0.70582309880E+03  0.92509388689E+03  0.25500000920E-02 0. -1.
</event>
<event>
 5   0  0.9610114E-04  0.1684573E+04  0.7818609E-02  0.8770212E-01
       -2   -1    0    0    0  501  0.00000000000E+00  0.00000000000E+00  0.58510331643E+03  0.58510331644E+03  0.25500000920E-02 0. -1.
        2   -1    0    0  501    0  0.00000000000E+00  0.00000000000E+00 -0.12125155193E+04  0.12125155193E+04  0.25500000920E-02 0.  1.
    10030    2    1    2    0    0  0.00000000000E+00  0.00000000000E+00 -0.62741220287E+03  0.17976188357E+04  0.16845733603E+04 0.  0.
        2    1    3    3  502    0 -0.69932027570E+03 -0.41377822983E+03 -0.55036703880E+03  0.98140977624E+03  0.25500000920E-02 0.  1.
       -2    1    3    3    0  502  0.69932027570E+03  0.41377822983E+03 -0.77045164065E+02  0.81620905950E+03  0.25500000920E-02 0. -1.
</event>
<event>
 5   0  0.5059689E-04  0.1162660E+04  0.7818609E-02  0.9146183E-01
       -1   -1    0    0    0  501  0.00000000000E+00  0.00000000000E+00  0.26284111789E+03  0.26284111794E+03  0.50400001928E-02 0.  1.
        1   -1    0    0  501    0  0.00000000000E+00  0.00000000000E+00 -0.12857381537E+04  0.12857381537E+04  0.50400001928E-02 0. -1.
    10030    2    1    2    0    0  0.00000000000E+00  0.00000000000E+00 -0.10228970358E+04  0.15485792716E+04  0.11626604899E+04 0.  0.
        5    1    3    3  502    0  0.45324310908E+00 -0.59820275631E+02  0.25870509083E+03  0.26557312520E+03  0.46999998093E+01 0.  1.
       -5    1    3    3    0  502 -0.45324310908E+00  0.59820275631E+02 -0.12816021266E+04  0.12830061464E+04  0.46999998093E+01 0. -1.
</event>
</LesHouchesEvents>
